Title
19942
    1ASP      N    1   4.382   3.520   2.941  0.2540  0.8035 -1.0089
    1ASP    HT1    2   4.418   3.595   3.004 -0.0510 -1.7115  2.3377
    1ASP    HT2    3   4.294   3.555   2.898 -2.2500 -0.2160  2.9886
    1ASP    HT3    4   4.442   3.495   2.861  1.0282 -0.2074 -0.1341
    1ASP     CA    5   4.335   3.400   3.020  0.1912  0.4975 -0.6508
    1ASP     HA    6   4.420   3.342   3.053 -1.1503 -0.3332  1.4479
    1ASP     CB    7   4.262   3.440   3.151  0.3130 -0.0905 -0.1460
    1ASP    HB1    8   4.233   3.351   3.211  0.0323  0.4211  0.4818
    1ASP    HB2    9   4.167   3.494   3.130  0.1372 -0.2147  0.3317
    1ASP     CG   10   4.328   3.538   3.243  0.4941 -0.6846  0.1565
    1ASP    OD1   11   4.432   3.598   3.199  0.0327 -0.2572 -0.6489
    1ASP    OD2   12   4.272   3.565   3.352 -0.2846 -0.3394 -0.1170
    1ASP      C   13   4.243   3.308   2.940 -0.4410 -0.2238 -0.4969
    1ASP      O   14   4.151   3.355   2.872 -0.8757 -0.2708 -0.5803
    2ALA      N   15   4.268   3.176   2.944 -0.6638  0.1249  0.4153
    2ALA     HN   16   4.339   3.137   3.001 -0.3257  2.6151  1.7467
    2ALA     CA   17   4.189   3.077   2.871 -0.3395 -0.4836 -0.0905
    2ALA     HA   18   4.166   3.119   2.775  2.3768 -3.1201 -2.0003
    2ALA     CB   19   4.274   2.953   2.861  0.4871 -0.2273  0.6363
    2ALA    HB1   20   4.269   2.890   2.952 -0.0006 -1.9496 -0.5530
    2ALA    HB2   21   4.379   2.984   2.843  0.1441 -0.5258 -2.0991
    2ALA    HB3   22   4.239   2.895   2.773 -1.2678 -0.0689  1.2036
    2ALA      C   23   4.052   3.061   2.923  0.3812  0.2779 -0.4580
    2ALA      O   24   3.952   3.055   2.855 -0.1270  0.4621 -0.3249
    3ASP      N   25   4.041   3.051   3.060  0.3534  0.4447  0.1248
    3ASP     HN   26   4.112   3.030   3.127  0.4175  2.2107  0.6230
    3ASP     CA   27   3.920   3.069   3.126 -0.0549  0.2290  0.0164
    3ASP     HA   28   3.838   3.030   3.068 -1.0757  1.6947  0.4561
    3ASP     CB   29   3.929   3.006   3.274  0.1566  0.3341 -0.2562
    3ASP    HB1   30   3.828   3.029   3.316  0.3475  1.8410 -0.5887
    3ASP    HB2   31   4.007   3.051   3.338  0.4276 -0.4226 -0.0505
    3ASP     CG   32   3.941   2.856   3.268  0.3575  0.0864 -0.1730
    3ASP    OD1   33   3.905   2.794   3.167 -0.5609  0.5210  0.1160
    3ASP    OD2   34   3.983   2.801   3.374  0.6846 -0.0773  0.1862
    3ASP      C   35   3.888   3.220   3.147  0.3493 -0.4375  0.5576
    3ASP      O   36   3.941   3.291   3.233  0.4049 -0.4408 -0.3377
    4GLY      N   37   3.810   3.277   3.058  0.0358  0.4016  0.0293
    4GLY     HN   38   3.781   3.221   2.980  0.8302  0.4239 -0.2819
    4GLY     CA   39   3.750   3.413   3.061 -0.5623  0.3187 -0.6688
    4GLY    HA1   40   3.714   3.435   2.962 -0.6182 -1.7877 -1.1542
    4GLY    HA2   41   3.832   3.474   3.096 -2.4048  3.0253 -0.9471
    4GLY      C   42   3.646   3.439   3.169 -0.8737 -0.2555 -0.4253
    4GLY      O   43   3.644   3.357   3.269  0.1857  0.2029  0.5264
    5PRO      N   44   3.562   3.544   3.153 -0.2679  0.8432 -0.3906
    5PRO     CD   45   3.577   3.641   3.046 -0.3224  0.2506 -1.6236
    5PRO    HD1   46   3.569   3.585   2.950 -0.2051 -0.5379 -1.1804
    5PRO    HD2   47   3.681   3.680   3.044 -0.4332  0.8961  2.0230
    5PRO     CA   48   3.442   3.563   3.225 -0.0018 -0.8061  0.7012
    5PRO     HA   49   3.476   3.601   3.320 -0.6306 -1.1786  1.0766
    5PRO     CB   50   3.369   3.667   3.146 -0.0613  0.1331  0.3238
    5PRO    HB1   51   3.301   3.729   3.209 -0.6894  1.5193 -1.6876
    5PRO    HB2   52   3.312   3.619   3.063 -0.2604 -1.2735  1.2427
    5PRO     CG   53   3.479   3.749   3.080 -0.4264  0.1155  0.5003
    5PRO    HG1   54   3.442   3.805   2.992  1.1856 -1.8162 -1.4399
    5PRO    HG2   55   3.522   3.808   3.163 -0.0436  1.4060 -0.6051
    5PRO      C   56   3.365   3.439   3.250 -0.0799 -0.7453  0.8077
    5PRO      O   57   3.321   3.374   3.150 -0.4419 -0.2256 -0.0625
    6GLY      N   58   3.340   3.400   3.373 -0.6318  0.0782  0.1428
    6GLY     HN   59   3.376   3.450   3.452 -2.4119  1.0833  0.3487
    6GLY     CA   60   3.230   3.310   3.405 -0.8561 -0.4341  0.1363
    6GLY    HA1   61   3.217   3.318   3.512  0.4177  1.6701  0.1474
    6GLY    HA2   62   3.261   3.212   3.373 -0.4762 -0.0785 -0.5893
    6GLY      C   63   3.097   3.336   3.350 -0.5646 -0.3118 -0.0388
    6GLY      O   64   3.064   3.456   3.334  0.1824  0.0556 -0.7973
    7ASP      N   65   3.017   3.233   3.321  0.7592 -0.6945  0.2209
    7ASP     HN   66   3.034   3.137   3.343 -2.1615 -0.6564  2.9653
    7ASP     CA   67   2.887   3.253   3.263 -0.1195 -0.4950 -0.8632
    7ASP     HA   68   2.909   3.321   3.182 -0.9730  0.1251 -0.5710
    7ASP     CB   69   2.840   3.122   3.209 -0.1483 -0.0187 -0.8039
    7ASP    HB1   70   2.835   3.047   3.290  1.1707  2.0708  1.2732
    7ASP    HB2   71   2.919   3.081   3.142  0.6671 -0.3154  0.3341
    7ASP     CG   72   2.709   3.117   3.130  0.1233 -0.1028  0.0162
    7ASP    OD1   73   2.646   3.227   3.121  0.2347  0.0429 -0.0773
    7ASP    OD2   74   2.661   3.008   3.079 -0.8161 -0.4243 -0.0312
    7ASP      C   75   2.788   3.318   3.365  0.2123 -0.5156 -0.4380
    7ASP      O   76   2.772   3.270   3.482  0.2699 -0.3208  0.3094
    8PRO      N   77   2.714   3.422   3.328  0.3639  0.2794  0.3339
    8PRO     CD   78   2.728   3.515   3.211  0.3067  0.2648 -0.6938
    8PRO    HD1   79   2.673   3.469   3.127  0.1881 -0.2649 -0.3336
    8PRO    HD2   80   2.836   3.530   3.191  0.4714  0.7523  0.5055
    8PRO     CA   81   2.600   3.469   3.413  0.0156 -0.4186 -0.0181
    8PRO     HA   82   2.659   3.500   3.498 -0.3232  2.0606 -0.6701
    8PRO     CB   83   2.537   3.585   3.330  0.0637  0.5105  0.4099
    8PRO    HB1   84   2.498   3.669   3.390  2.5999  1.1929  1.1498
    8PRO    HB2   85   2.466   3.556   3.249  1.9507 -0.2791 -1.0171
    8PRO     CG   86   2.660   3.639   3.250  0.7224 -0.6693 -0.4415
    8PRO    HG1   87   2.636   3.699   3.160  0.8116  1.9308  1.2398
    8PRO    HG2   88   2.725   3.707   3.309 -2.7445  1.5568  0.9871
    8PRO      C   89   2.502   3.371   3.444  0.6695 -0.2875  0.0539
    8PRO      O   90   2.432   3.393   3.540  0.0388  0.1920 -0.4506
    9ASP      N   91   2.481   3.268   3.356  0.3745 -0.0590 -0.2192
    9ASP     HN   92   2.535   3.258   3.273 -0.7867 -0.1181 -0.9794
    9ASP     CA   93   2.379   3.172   3.384 -0.4469 -0.4570  0.3060
    9ASP     HA   94   2.297   3.225   3.430 -0.2210 -0.0608  0.2453
    9ASP     CB   95   2.310   3.129   3.247  0.2063 -0.2606  0.0188
    9ASP    HB1   96   2.258   3.031   3.257  1.4716 -0.8601  0.8407
    9ASP    HB2   97   2.397   3.119   3.179 -0.0495  0.1622 -0.3807
    9ASP     CG   98   2.217   3.239   3.193 -0.3238  0.4619  0.2568
    9ASP    OD1   99   2.141   3.309   3.270 -0.2728  0.8426  0.3648
    9ASP    OD2  100   2.216   3.256   3.066 -0.0188 -0.2003 -0.0482
    9ASP      C  101   2.426   3.046   3.464  0.8482 -0.3244  0.0818
    9ASP      O  102   2.347   2.953   3.476 -0.3299 -0.2236  0.2181
   10ALA      N  103   2.556   3.038   3.496  0.5376 -0.1565 -0.2672
   10ALA     HN  104   2.617   3.114   3.475 -1.9079  1.6335 -1.0917
   10ALA     CA  105   2.612   2.924   3.561 -0.3700 -0.1159  0.6606
   10ALA     HA  106   2.577   2.839   3.504  1.2875  0.2357 -0.9429
   10ALA     CB  107   2.769   2.931   3.570  0.2863  0.1837 -0.4648
   10ALA    HB1  108   2.802   3.017   3.632 -0.6363  0.9709 -1.0473
   10ALA    HB2  109   2.810   2.936   3.466  1.6115  4.5761  0.1505
   10ALA    HB3  110   2.806   2.832   3.604  4.1993  1.5035 -0.5979
   10ALA      C  111   2.556   2.890   3.701 -0.6489  0.0961 -0.3895
   10ALA      O  112   2.578   2.970   3.796  0.4750  0.8067 -0.1854
   11GLY      N  113   2.485   2.779   3.715 -0.5611  0.2975 -0.1604
   11GLY     HN  114   2.437   2.747   3.633 -0.8623  1.2339 -0.3569
   11GLY     CA  115   2.432   2.739   3.846 -0.4164  0.1783 -0.1220
   11GLY    HA1  116   2.429   2.820   3.918  1.7470 -0.8517  1.1573
   11GLY    HA2  117   2.484   2.652   3.882  0.2391  0.9686  0.8822
   11GLY      C  118   2.288   2.703   3.840 -0.1684  0.4245  0.6822
   11GLY    OT1  119   2.211   2.798   3.803 -0.3719  0.1587 -0.5274
   11GLY    OT2  120   2.247   2.594   3.877  0.1800  0.8427 -0.1744
   12LIT    LIT  121   1.178   2.745   3.021 -0.8668 -0.4285  0.7429
   13LIT    LIT  122   3.492   4.743   4.359 -0.1641  0.9300  0.3698
   14LIT    LIT  123   2.464   2.217   3.909 -0.1143 -0.4848 -0.0010
   15LIT    LIT  124   5.395   2.253   4.876  0.4563  0.0639 -0.6309
   16LIT    LIT  125   5.298   1.732   2.415 -1.0794  0.0823 -0.6002
   17LIT    LIT  126   4.346   4.506   4.735 -0.1962  0.0629 -0.5802
   18LIT    LIT  127   4.049   6.115   1.001  0.4328 -0.1976  0.3541
   19LIT    LIT  128   1.755   1.645   3.535 -0.3105  0.1627 -0.0985
   20LIT    LIT  129   5.495   2.639   3.541 -0.0818 -0.9086 -0.1475
   21LIT    LIT  130   6.421   5.121   2.595  0.7210  0.3361 -1.2036
   22LIT    LIT  131   0.023   0.210   3.976  0.6132  0.0363  0.8000
   23LIT    LIT  132   0.033   3.334   0.370  0.1957  0.1125 -0.5001
   24LIT    LIT  133   6.481   0.557   5.107 -0.0596  0.6744  0.6438
   25LIT    LIT  134   3.779   4.044   0.032  0.2805 -0.8556  0.3559
   26LIT    LIT  135   5.825   1.853   1.905 -0.1519  0.6096  0.5199
   27LIT    LIT  136   3.690   0.651   0.996  0.3509 -0.4368  0.1978
   28LIT    LIT  137   2.988   1.618   3.400  0.1938  0.1265 -0.4749
   29LIT    LIT  138   1.683   0.808   4.494 -0.6241 -0.4234  0.0386
   30LIT    LIT  139   6.165   5.266   0.580 -0.4740 -1.2460 -0.0571
   31LIT    LIT  140   3.187   3.815   3.626 -0.3935 -0.1081  1.1352
   32LIT    LIT  141   2.302   2.633   0.471  0.2867  0.4022 -0.7977
   33LIT    LIT  142   4.382   2.887   1.102 -0.4145  0.0620  0.0713
   34CLA    CLA  143   6.095   0.598   4.454 -0.1739  0.1249 -0.4545
   35CLA    CLA  144   3.512   2.160   2.890  0.2356 -0.2398 -0.2199
   36CLA    CLA  145   6.226   5.068   3.122  0.0368  0.0034 -0.2077
   37CLA    CLA  146   2.722   1.507   4.089 -0.2611  0.3949  0.0126
   38CLA    CLA  147   3.112   3.808   0.226  0.0947 -0.0060  0.0936
   39CLA    CLA  148   2.534   5.205   1.440 -0.0507 -0.1209 -0.2733
   40CLA    CLA  149   0.327   2.114   2.800 -0.1739 -0.3134 -0.1045
   41CLA    CLA  150   6.290   1.199   5.184  0.1320 -0.0011 -0.1702
   42CLA    CLA  151   4.776   5.434   0.637 -0.1995 -0.4549 -0.0912
   43CLA    CLA  152   5.170   6.039   4.270  0.0414 -0.2067  0.2105
   44CLA    CLA  153   4.234   6.044   3.015 -0.0776  0.1350  0.0159
   45CLA    CLA  154   1.273   0.663   1.863  0.2023 -0.0559 -0.0712
   46CLA    CLA  155   0.927   3.136   5.297 -0.0415  0.1516  0.1823
   47CLA    CLA  156   2.395   2.157   3.697 -0.0522 -0.1732 -0.1901
   48CLA    CLA  157   0.196   1.527   0.512 -0.3867 -0.0148 -0.2029
   49CLA    CLA  158   4.020   4.229   3.092 -0.1334  0.0655  0.0780
   50CLA    CLA  159   1.393   4.933   0.885  0.4764  0.1025  0.3393
   51CLA    CLA  160   2.850   5.431   5.008 -0.1485  0.1708 -0.5578
   52TIP3   OH2  161   5.978   0.578   3.347 -0.1677 -0.1983  0.2608
   52TIP3    H1  162   6.024   0.550   3.426  0.1524 -0.9829 -0.2035
   52TIP3    H2  163   5.966   0.498   3.296 -0.9334  0.2032 -0.1972
   53TIP3   OH2  164   0.938   2.990   2.453 -0.6545  0.0276  0.5125
   53TIP3    H1  165   0.914   2.910   2.500 -1.7606  1.3805  2.3234
   53TIP3    H2  166   1.032   2.984   2.441 -0.6977 -1.4341  0.8674
   54TIP3   OH2  167   0.796   4.943   4.608  0.9157 -0.1320 -0.0328
   54TIP3    H1  168   0.863   4.880   4.634  0.8365 -0.1686  0.0863
   54TIP3    H2  169   0.845   5.018   4.576  1.0659  0.7263  2.0873
   55TIP3   OH2  170   6.358   5.919   1.070 -0.0024 -0.3465  0.3291
   55TIP3    H1  171   6.294   5.908   1.140 -0.7743 -1.4629 -0.5353
   55TIP3    H2  172   6.329   5.999   1.025 -0.1666 -0.2583  0.5876
   56TIP3   OH2  173   4.214   5.674   1.426 -0.2571 -0.5760 -0.2309
   56TIP3    H1  174   4.245   5.741   1.487 -1.5154  0.0573 -0.2707
   56TIP3    H2  175   4.285   5.664   1.363  1.2775 -1.5887  1.5981
   57TIP3   OH2  176   5.539   6.125   0.426  0.3482  0.6662 -0.1067
   57TIP3    H1  177   5.496   6.041   0.407 -0.5165  0.9153  0.7096
   57TIP3    H2  178   5.496   6.187   0.367  0.6380  0.6323 -0.3535
   58TIP3   OH2  179   2.978   2.831   1.133 -0.1326 -0.4018  0.1390
   58TIP3    H1  180   3.045   2.830   1.200 -0.0874  1.5491  0.1322
   58TIP3    H2  181   3.010   2.770   1.066  0.7431 -0.8647  0.9751
   59TIP3   OH2  182   0.379   6.037   1.312 -0.0367 -0.8517 -0.7176
   59TIP3    H1  183   0.349   5.987   1.236 -1.3491 -0.3910 -0.5238
   59TIP3    H2  184   0.362   6.129   1.288  0.0293 -0.6721 -0.0813
   60TIP3   OH2  185   1.548   4.070   3.332 -0.5825  0.4001  0.0319
   60TIP3    H1  186   1.481   4.057   3.265 -1.4522  0.1964  0.9245
   60TIP3    H2  187   1.563   3.982   3.367  0.6550  0.3411 -0.6314
   61TIP3   OH2  188   1.278   5.362   0.154  0.1287 -0.1749 -0.2795
   61TIP3    H1  189   1.356   5.414   0.141 -0.4679  0.5185 -1.1430
   61TIP3    H2  190   1.216   5.421   0.197  1.0973 -1.6047  3.2578
   62TIP3   OH2  191   4.974   3.939   4.884  0.1916  0.3051 -0.3179
   62TIP3    H1  192   4.900   3.893   4.844  0.3333  0.8894 -1.2701
   62TIP3    H2  193   5.049   3.916   4.829  0.3150  1.4487 -0.6336
   63TIP3   OH2  194   3.745   1.637   5.139  0.2337 -0.5445 -0.1143
   63TIP3    H1  195   3.652   1.660   5.127  0.1400 -0.2864  0.9767
   63TIP3    H2  196   3.780   1.630   5.051 -1.1011 -1.7386 -0.5621
   64TIP3   OH2  197   4.648   1.429   1.004  0.1525 -0.0467  0.3286
   64TIP3    H1  198   4.567   1.449   1.050 -1.1334 -0.0404 -1.8855
   64TIP3    H2  199   4.697   1.373   1.065 -2.5137 -1.9611  0.7907
   65TIP3   OH2  200   3.370   2.729   1.824 -0.5231 -0.6610 -0.3162
   65TIP3    H1  201   3.412   2.676   1.892 -0.2376 -1.0687 -0.8074
   65TIP3    H2  202   3.305   2.781   1.871  2.9807  2.7386  1.0909
   66TIP3   OH2  203   5.055   1.288   2.827  0.6352  0.3292 -0.4059
   66TIP3    H1  204   4.966   1.297   2.794  0.3645 -0.0120  0.2285
   66TIP3    H2  205   5.108   1.343   2.769  0.0914  0.1241 -1.1021
   67TIP3   OH2  206   6.211   4.432   0.318 -0.0177  0.6907 -0.5111
   67TIP3    H1  207   6.182   4.519   0.291 -0.9120  0.4773 -0.2457
   67TIP3    H2  208   6.157   4.411   0.394 -0.8033 -0.6907 -1.4292
   68TIP3   OH2  209   1.522   0.412   2.098 -0.5755 -0.1322 -0.2664
   68TIP3    H1  210   1.596   0.374   2.050  0.6328 -0.2288  1.6458
   68TIP3    H2  211   1.480   0.469   2.033 -0.0932 -1.6857 -2.0053
   69TIP3   OH2  212   1.245   0.544   0.030 -0.1093 -0.0018 -0.2424
   69TIP3    H1  213   1.321   0.600   0.046 -1.3331  1.4291  0.7429
   69TIP3    H2  214   1.263   0.502  -0.054  2.1218 -0.3036  0.3529
   70TIP3   OH2  215   1.504   1.084   1.226 -0.0752 -0.7615  0.2488
   70TIP3    H1  216   1.471   1.016   1.285 -0.2709  0.1326  1.1790
   70TIP3    H2  217   1.497   1.165   1.276  1.2296 -0.2035 -0.4417
   71TIP3   OH2  218   1.678   0.474   0.670  0.1160  0.0147 -0.3187
   71TIP3    H1  219   1.711   0.467   0.580 -1.3848  0.6797 -0.9259
   71TIP3    H2  220   1.594   0.429   0.668  1.2901 -2.3484  1.4114
   72TIP3   OH2  221   1.084   4.834   4.489  0.0871  0.0447 -0.1666
   72TIP3    H1  222   1.129   4.859   4.408  1.1894 -2.4156 -0.3891
   72TIP3    H2  223   0.993   4.821   4.463  0.0020  1.3843 -0.5404
   73TIP3   OH2  224   2.668   0.526   3.060 -0.1419  0.1425  0.3840
   73TIP3    H1  225   2.606   0.453   3.055 -0.9804  0.9540 -1.3858
   73TIP3    H2  226   2.616   0.603   3.038  1.3838  0.8975 -0.6322
   74TIP3   OH2  227   5.221   1.241   2.513  0.3334 -0.1651 -0.4179
   74TIP3    H1  228   5.267   1.265   2.593 -0.9577  3.3455 -0.6120
   74TIP3    H2  229   5.284   1.258   2.443  0.3926 -0.1113 -0.3511
   75TIP3   OH2  230   5.807   1.481   2.921  0.0459 -0.2892  0.0112
   75TIP3    H1  231   5.858   1.415   2.967  1.4861 -0.4230 -1.6948
   75TIP3    H2  232   5.872   1.538   2.880 -1.1737  1.7848  0.8723
   76TIP3   OH2  233   5.506   4.774   0.061 -0.2969  0.1873 -0.2435
   76TIP3    H1  234   5.537   4.731  -0.018 -0.4386  1.2914 -0.9149
   76TIP3    H2  235   5.424   4.817   0.035 -0.9864 -0.4483  0.8085
   77TIP3   OH2  236   3.934   3.997   5.178 -0.6982  0.6249 -0.1375
   77TIP3    H1  237   3.989   4.071   5.203  2.1410 -1.2181 -0.6128
   77TIP3    H2  238   3.917   3.951   5.260  3.2536 -1.8638 -0.5528
   78TIP3   OH2  239   0.230   1.049   4.192  0.8264 -0.2509  0.5944
   78TIP3    H1  240   0.183   1.116   4.241 -1.6756 -0.8846 -0.8743
   78TIP3    H2  241   0.271   1.096   4.119 -1.3251 -0.3211 -0.7146
   79TIP3   OH2  242   3.279   1.485   4.256 -0.0054 -0.4059  0.5164
   79TIP3    H1  243   3.307   1.540   4.182 -0.6894  1.4797  1.6166
   79TIP3    H2  244   3.184   1.480   4.247 -0.1290  0.1363  1.4523
   80TIP3   OH2  245   1.161   4.626   1.613  0.5243  0.1329  0.3864
   80TIP3    H1  246   1.110   4.706   1.596  2.7923  1.9014  1.6024
   80TIP3    H2  247   1.166   4.582   1.529  2.2863  3.1435 -1.1771
   81TIP3   OH2  248   3.995   2.613   3.577 -0.0389 -0.3006 -0.1873
   81TIP3    H1  249   3.993   2.681   3.509  0.2154 -0.6294 -0.5259
   81TIP3    H2  250   4.088   2.597   3.593 -0.0875  0.6589  1.1377
   82TIP3   OH2  251   0.442   5.680   3.386  0.2927 -0.2287 -0.2544
   82TIP3    H1  252   0.516   5.622   3.365  0.2136  0.0375 -1.2952
   82TIP3    H2  253   0.446   5.749   3.320 -0.9199 -0.2338 -0.3451
   83TIP3   OH2  254   5.915   4.840   0.050 -0.1875  0.0419 -0.3701
   83TIP3    H1  255   5.871   4.787   0.117 -0.3398  1.3481  0.5943
   83TIP3    H2  256   5.927   4.781  -0.024  1.4907 -1.9450  1.4226
   84TIP3   OH2  257   3.970   2.371   2.745 -0.1083  0.0607  0.2140
   84TIP3    H1  258   4.032   2.343   2.812 -0.7880  0.7318  1.1372
   84TIP3    H2  259   3.898   2.412   2.794  0.0886  1.9423 -0.9974
   85TIP3   OH2  260   2.900   1.430   0.889  0.1059  0.1612  0.3610
   85TIP3    H1  261   2.922   1.521   0.866  1.6179 -0.1701  0.4612
   85TIP3    H2  262   2.862   1.436   0.977  0.7942  0.6355  0.6351
   86TIP3   OH2  263   4.900   1.204   1.806 -0.5584  0.6062 -0.0125
   86TIP3    H1  264   4.820   1.152   1.815 -0.3622  0.0448 -1.3796
   86TIP3    H2  265   4.958   1.149   1.753  0.9871  0.7319  1.4968
   87TIP3   OH2  266   4.633   3.067   5.111  0.0378 -0.4981  0.0722
   87TIP3    H1  267   4.647   3.077   5.017 -1.1246 -1.4112 -0.2048
   87TIP3    H2  268   4.683   2.989   5.135  1.3089  0.4139  0.4491
   88TIP3   OH2  269   3.091   0.374   3.272 -0.0441  0.0692 -0.1723
   88TIP3    H1  270   3.000   0.400   3.257 -0.8385 -2.0138  0.7870
   88TIP3    H2  271   3.140   0.418   3.202 -1.7995  1.1401 -0.7651
   89TIP3   OH2  272   2.597   0.395   2.191  0.0827 -0.0815  0.1538
   89TIP3    H1  273   2.679   0.351   2.169 -0.3184 -0.3593 -0.7878
   89TIP3    H2  274   2.544   0.328   2.234 -0.6707 -0.6471 -1.6059
   90TIP3   OH2  275   0.656   5.889   0.137  0.0623 -0.4028  0.0666
   90TIP3    H1  276   0.692   5.804   0.115 -2.3751 -1.2215 -0.9764
   90TIP3    H2  277   0.662   5.893   0.233  1.1908 -1.2598  0.0459
   91TIP3   OH2  278   3.712   1.203   1.519 -0.1419  0.1550  0.3401
   91TIP3    H1  279   3.784   1.152   1.554 -1.1966 -2.1319 -0.7078
   91TIP3    H2  280   3.735   1.217   1.428 -0.0277  1.2578  0.5377
   92TIP3   OH2  281   5.911   3.528   5.116 -0.2104 -0.0436  0.1038
   92TIP3    H1  282   5.823   3.550   5.088  0.5123 -0.7633 -2.8185
   92TIP3    H2  283   5.955   3.613   5.125 -0.9793  0.2803  1.0082
   93TIP3   OH2  284   2.579   2.049   1.165 -0.3327  0.1359 -0.0957
   93TIP3    H1  285   2.490   2.081   1.152 -0.3601 -0.0017 -0.2466
   93TIP3    H2  286   2.594   2.058   1.259 -1.0147 -1.1480  0.1591
   94TIP3   OH2  287   3.422   5.603   1.492  0.5528  0.3051 -0.9460
   94TIP3    H1  288   3.381   5.636   1.412 -0.4995 -3.6597 -2.1575
   94TIP3    H2  289   3.510   5.641   1.491 -0.7946  3.5313 -1.8315
   95TIP3   OH2  290   6.329   5.123   1.420 -0.1994  0.0216  0.4259
   95TIP3    H1  291   6.245   5.168   1.414 -0.8598 -1.2174  0.2872
   95TIP3    H2  292   6.348   5.095   1.331 -0.9861 -2.1042  0.9009
   96TIP3   OH2  293   5.399   5.928   3.815  0.4566 -0.0326 -0.6244
   96TIP3    H1  294   5.320   5.943   3.867 -0.5957  0.2055 -2.2850
   96TIP3    H2  295   5.384   5.845   3.770  0.7869  0.4350 -1.6101
   97TIP3   OH2  296   2.823   1.371   2.820 -0.4588  0.6653 -0.0736
   97TIP3    H1  297   2.741   1.406   2.786  0.9147  2.0616 -2.0587
   97TIP3    H2  298   2.840   1.293   2.767 -0.0851  0.8433 -0.2180
   98TIP3   OH2  299   5.675   5.682   0.346 -0.0366  0.2229  0.0468
   98TIP3    H1  300   5.703   5.716   0.261  1.4786  1.2245  0.9202
   98TIP3    H2  301   5.625   5.603   0.325  2.7453 -1.1498 -1.6391
   99TIP3   OH2  302   3.277   0.523   1.702  0.2259  0.0021  0.0935
   99TIP3    H1  303   3.197   0.569   1.727  0.1914 -0.1811  0.3141
   99TIP3    H2  304   3.268   0.508   1.608  0.6923  1.3547 -0.1833
  100TIP3   OH2  305   0.639   5.219   2.814  0.3627 -0.1733  0.2709
  100TIP3    H1  306   0.731   5.197   2.829 -0.0780 -1.2497  1.5266
  100TIP3    H2  307   0.608   5.152   2.754  0.6412  0.7619 -0.9288
  101TIP3   OH2  308   5.543   5.508   2.129  0.5690  0.1418 -0.2707
  101TIP3    H1  309   5.588   5.436   2.083 -0.9730  0.0961 -1.7792
  101TIP3    H2  310   5.456   5.473   2.147  0.0755  1.3612 -0.2862
  102TIP3   OH2  311   3.855   0.614   0.544 -0.5933  0.2435  0.0407
  102TIP3    H1  312   3.935   0.563   0.541 -1.2547 -0.8303  0.4161
  102TIP3    H2  313   3.791   0.557   0.587 -1.8745  0.6417 -1.2815
  103TIP3   OH2  314   5.092   5.635   3.676 -0.1989 -0.0171  0.3042
  103TIP3    H1  315   5.153   5.561   3.676  0.5111  0.5573  1.4847
  103TIP3    H2  316   5.014   5.601   3.719 -0.0977 -0.2470  0.3088
  104TIP3   OH2  317   3.196   1.118   3.947 -0.6138 -0.5786 -0.5075
  104TIP3    H1  318   3.277   1.068   3.940 -0.5052 -0.6273  0.9964
  104TIP3    H2  319   3.136   1.074   3.887  0.1683 -1.1377 -0.8922
  105TIP3   OH2  320   1.773   5.402   3.451 -0.7027  0.1393  0.2552
  105TIP3    H1  321   1.775   5.395   3.356 -3.4504 -0.9457  0.2387
  105TIP3    H2  322   1.717   5.330   3.480 -0.3348  0.7566  2.6606
  106TIP3   OH2  323   3.032   0.605   2.896 -0.6232  0.1940  0.5766
  106TIP3    H1  324   3.041   0.528   2.841 -1.0665  0.3755  0.2387
  106TIP3    H2  325   2.943   0.599   2.931  0.1683 -0.6851  2.4570
  107TIP3   OH2  326   2.263   4.184   2.138  0.1377 -0.2104 -0.3796
  107TIP3    H1  327   2.287   4.148   2.223  1.0202 -1.8726 -1.3114
  107TIP3    H2  328   2.336   4.242   2.115  0.5276 -0.7675 -0.5735
  108TIP3   OH2  329   5.557   0.118   2.186 -0.2702  0.2977 -0.1093
  108TIP3    H1  330   5.580   0.176   2.259  1.1478 -1.1274  0.6104
  108TIP3    H2  331   5.544   0.032   2.227  0.1731 -0.4271 -1.4697
  109TIP3   OH2  332   3.427   0.137   1.932  0.1183  0.3260  0.0271
  109TIP3    H1  333   3.471   0.222   1.924  1.6882 -0.3899  0.7605
  109TIP3    H2  334   3.402   0.131   2.024 -1.5221  0.7111 -0.3803
  110TIP3   OH2  335   0.141   5.996   3.681  0.2294  0.5072 -0.4604
  110TIP3    H1  336   0.065   5.938   3.687  0.2962  0.4312 -0.3582
  110TIP3    H2  337   0.216   5.936   3.675  0.3093  0.5842 -0.2203
  111TIP3   OH2  338   2.974   1.050   3.306  0.0030  0.5287 -0.1946
  111TIP3    H1  339   3.003   0.961   3.285 -1.7502 -1.0123  3.4536
  111TIP3    H2  340   3.026   1.075   3.381 -0.1379  2.2671 -0.6543
  112TIP3   OH2  341   1.260   5.700   3.632 -0.1562 -0.6226  0.0479
  112TIP3    H1  342   1.316   5.709   3.555 -0.4685 -3.2574 -0.5406
  112TIP3    H2  343   1.320   5.697   3.706  0.2664 -0.0062 -0.2684
  113TIP3   OH2  344   0.961   4.762   1.293  0.3533  0.0075 -0.0642
  113TIP3    H1  345   0.921   4.847   1.276  0.5784 -0.2509 -2.0045
  113TIP3    H2  346   0.892   4.698   1.274  0.3600 -0.2753  0.8304
  114TIP3   OH2  347   3.174   0.638   1.086  0.3292 -0.1919  0.4172
  114TIP3    H1  348   3.183   0.721   1.039  2.6046 -0.0294  1.1052
  114TIP3    H2  349   3.080   0.627   1.096 -0.1060  1.1457 -1.7434
  115TIP3   OH2  350   1.086   5.644   2.855  0.3865  0.0057  0.7233
  115TIP3    H1  351   1.143   5.634   2.932  1.2587  1.9786  0.3607
  115TIP3    H2  352   1.017   5.704   2.884 -1.0469 -1.6815  0.8885
  116TIP3   OH2  353   3.559   0.842   1.578  0.5516 -0.4327 -0.1042
  116TIP3    H1  354   3.556   0.751   1.551  1.6937 -1.0200  1.6716
  116TIP3    H2  355   3.610   0.842   1.659  0.6803  1.7933 -0.1424
  117TIP3   OH2  356   5.714   5.273   3.302 -0.3533  0.4006  0.2962
  117TIP3    H1  357   5.730   5.359   3.342 -0.1714  1.0859 -1.2332
  117TIP3    H2  358   5.796   5.250   3.260 -0.7707  0.0085 -0.3043
  118TIP3   OH2  359   0.763   2.999   4.220  0.2543  0.1554 -0.5035
  118TIP3    H1  360   0.714   3.044   4.289  1.4904  0.0215  0.4808
  118TIP3    H2  361   0.731   3.037   4.138  1.3930  2.9270  0.3178
  119TIP3   OH2  362   1.400   5.502   3.277 -0.2806  1.1173  0.5805
  119TIP3    H1  363   1.462   5.437   3.244 -0.9814  0.0431  1.3467
  119TIP3    H2  364   1.326   5.451   3.310 -1.9922  2.3935 -1.1070
  120TIP3   OH2  365   1.561   4.506   3.674  0.3653  0.5426  0.5183
  120TIP3    H1  366   1.577   4.563   3.598 -0.5297  0.4186  0.2270
  120TIP3    H2  367   1.582   4.418   3.643  1.0215  0.6227  0.7377
  121TIP3   OH2  368   2.613   0.166   2.039 -0.3492  0.1791  0.3419
  121TIP3    H1  369   2.552   0.134   1.972 -0.2536 -0.8822  0.7521
  121TIP3    H2  370   2.696   0.177   1.992 -0.0424 -1.4498  0.4686
  122TIP3   OH2  371   4.900   5.296   1.556  0.5130  0.1056  0.1254
  122TIP3    H1  372   4.990   5.310   1.584 -0.0498  1.6273  1.2513
  122TIP3    H2  373   4.851   5.370   1.592 -0.6285  1.0854 -3.1883
  123TIP3   OH2  374   5.626   0.496   0.462  0.4418 -0.2323  0.0474
  123TIP3    H1  375   5.686   0.571   0.463 -1.0126  1.0089 -1.3288
  123TIP3    H2  376   5.671   0.430   0.409  1.0440  0.2937 -0.1030
  124TIP3   OH2  377   0.877   4.889   1.909 -1.0209 -0.2951 -0.1563
  124TIP3    H1  378   0.896   4.868   1.817 -0.3879 -4.5505  0.8025
  124TIP3    H2  379   0.924   4.821   1.958 -1.6203  1.6950  3.3110
  125TIP3   OH2  380   1.225   1.641   3.296 -1.0567  0.3589 -0.0353
  125TIP3    H1  381   1.219   1.624   3.202 -1.5543 -1.8756  0.3909
  125TIP3    H2  382   1.161   1.583   3.336  0.1592  0.2388  1.8150
  126TIP3   OH2  383   6.295   5.542   2.063  0.1400  0.0860 -0.1608
  126TIP3    H1  384   6.230   5.571   1.998  0.3658  1.4865  0.2228
  126TIP3    H2  385   6.379   5.552   2.019  0.3554  1.8277  0.6099
  127TIP3   OH2  386   1.379   0.341   2.742 -0.3033 -0.2146 -0.3408
  127TIP3    H1  387   1.284   0.329   2.740 -0.1581 -1.7364  1.0096
  127TIP3    H2  388   1.411   0.283   2.674 -0.2799 -0.4339 -0.1445
  128TIP3   OH2  389   4.187   1.110   1.751  0.0157 -0.3610 -0.1036
  128TIP3    H1  390   4.230   1.027   1.772  0.0016 -1.0524 -2.6476
  128TIP3    H2  391   4.241   1.176   1.795  0.1019 -1.6850  1.8457
  129TIP3   OH2  392   6.016   5.946   0.085  0.3907 -0.2122  0.6143
  129TIP3    H1  393   5.937   5.973   0.132 -0.1839  1.1377 -1.1066
  129TIP3    H2  394   6.032   6.016   0.022  2.4814 -0.8921  0.3539
  130TIP3   OH2  395   3.048   0.335   1.516  0.5594  0.2064  0.5626
  130TIP3    H1  396   3.123   0.368   1.466  1.9984 -0.3398  2.2899
  130TIP3    H2  397   3.006   0.414   1.550 -0.2277  0.5625 -1.1759
  131TIP3   OH2  398   3.776   0.733   0.845  0.4160 -0.3348 -0.5085
  131TIP3    H1  399   3.745   0.798   0.782 -1.3562 -2.6777 -2.1184
  131TIP3    H2  400   3.859   0.702   0.807  0.0907 -0.6828 -0.9420
  132TIP3   OH2  401   5.795   1.800   2.747 -0.2000  0.0427  0.1978
  132TIP3    H1  402   5.821   1.850   2.825 -0.2120  0.8310 -0.2997
  132TIP3    H2  403   5.701   1.786   2.759 -0.4254  1.1271 -0.2019
  133TIP3   OH2  404   2.547   0.303   2.635  0.5547  0.2536 -0.3621
  133TIP3    H1  405   2.524   0.219   2.595  0.0667  0.4610 -0.5210
  133TIP3    H2  406   2.622   0.334   2.585  0.5805  0.0259 -0.4633
  134TIP3   OH2  407   2.235   0.044   0.464  0.1906 -0.1234  0.2488
  134TIP3    H1  408   2.236   0.003   0.378  1.2037 -1.6921  0.9793
  134TIP3    H2  409   2.217   0.137   0.446 -0.7216 -0.6183 -1.5398
  135TIP3   OH2  410   2.390   0.638   1.580  0.3574  0.6962 -0.0733
  135TIP3    H1  411   2.470   0.680   1.547  0.5527  0.7533  0.4803
  135TIP3    H2  412   2.368   0.687   1.659  0.2967  0.0736  0.2928
  136TIP3   OH2  413   0.659   4.991   0.925 -0.6167  0.5201  0.3542
  136TIP3    H1  414   0.636   4.985   0.832  1.2453 -3.2613  0.0741
  136TIP3    H2  415   0.754   4.987   0.927 -0.6672 -0.1941  2.4798
  137TIP3   OH2  416   3.356   1.897   2.885 -0.3310 -0.2087 -0.2709
  137TIP3    H1  417   3.367   1.992   2.894 -0.1003 -0.1567 -1.0031
  137TIP3    H2  418   3.444   1.862   2.896 -0.1294 -0.1852 -1.6232
  138TIP3   OH2  419   0.040   2.691   4.963 -0.1332 -0.1974 -0.3038
  138TIP3    H1  420  -0.016   2.731   4.896  1.3377 -1.0332 -2.0417
  138TIP3    H2  421   0.031   2.597   4.949  0.1930 -0.3754  0.6721
  139TIP3   OH2  422   0.881   5.095   2.881 -0.0479  0.1952  0.3591
  139TIP3    H1  423   0.958   5.152   2.886 -1.0870  1.7435 -0.6497
  139TIP3    H2  424   0.908   5.023   2.824  0.5464  0.8958 -0.2541
  140TIP3   OH2  425   3.112   2.043   1.531  0.0223 -0.1980  0.1138
  140TIP3    H1  426   3.189   2.009   1.485 -0.2336  0.6438 -0.9442
  140TIP3    H2  427   3.089   1.973   1.592  1.6976 -0.4125  0.5387
  141TIP3   OH2  428   5.669   5.464   4.738  0.2394  0.2886  0.1364
  141TIP3    H1  429   5.663   5.378   4.780 -2.2481  0.1791 -0.3544
  141TIP3    H2  430   5.654   5.526   4.809 -0.0560  0.2337  0.1241
  142TIP3   OH2  431   5.142   0.493   3.628  0.6493 -0.2884  0.5037
  142TIP3    H1  432   5.067   0.549   3.647 -0.3006 -0.5893 -2.1393
  142TIP3    H2  433   5.216   0.536   3.671 -0.6300  1.2652  1.1769
  143TIP3   OH2  434   4.093   1.911   0.377  0.1801  0.5135 -0.0871
  143TIP3    H1  435   4.184   1.884   0.384  0.5307  1.0044 -2.4183
  143TIP3    H2  436   4.043   1.832   0.395  1.0995 -0.2178 -0.7249
  144TIP3   OH2  437   6.259   4.155   1.705 -0.7680 -0.6218  0.2225
  144TIP3    H1  438   6.278   4.062   1.714 -0.2924 -0.4746  0.8245
  144TIP3    H2  439   6.335   4.199   1.745 -0.3866  0.0365 -1.1915
  145TIP3   OH2  440   5.654   2.595   4.752 -0.2094  0.0615 -0.1497
  145TIP3    H1  441   5.636   2.551   4.835 -0.1150 -1.3337 -0.8611
  145TIP3    H2  442   5.638   2.528   4.686  1.1969  0.7246 -1.1652
  146TIP3   OH2  443   0.972   3.272   4.303 -0.2229  0.1892  0.0766
  146TIP3    H1  444   0.879   3.295   4.307 -0.7458 -1.4645 -1.6077
  146TIP3    H2  445   0.978   3.186   4.346  0.7227  0.7938  1.1795
  147TIP3   OH2  446   6.021   5.040   2.627  0.4478  0.0949  0.5861
  147TIP3    H1  447   6.047   5.091   2.703 -0.2968 -1.4808  1.9184
  147TIP3    H2  448   6.100   4.993   2.601  1.6495  3.2034 -1.7618
  148TIP3   OH2  449   5.651   1.685   3.679 -0.0864 -0.8148 -0.1069
  148TIP3    H1  450   5.734   1.643   3.699  0.2065 -0.3814 -0.4242
  148TIP3    H2  451   5.652   1.696   3.584 -0.6977 -1.2141 -0.1637
  149TIP3   OH2  452   1.516   3.684   0.112 -0.8130 -0.3551  0.1519
  149TIP3    H1  453   1.588   3.745   0.122  0.4668 -1.6596 -0.8420
  149TIP3    H2  454   1.438   3.739   0.108 -0.0484  0.9859  2.7829
  150TIP3   OH2  455   5.807   5.541   5.177  0.2352  0.2682 -0.3933
  150TIP3    H1  456   5.898   5.552   5.204 -0.4766 -0.1079  2.3879
  150TIP3    H2  457   5.764   5.623   5.203 -0.7320 -0.5941  0.8167
  151TIP3   OH2  458   4.722   0.511   0.803  0.1677 -0.3910 -0.0354
  151TIP3    H1  459   4.785   0.545   0.867  0.0464  0.7870 -0.5325
  151TIP3    H2  460   4.687   0.432   0.844  3.8010 -2.4951 -0.8178
  152TIP3   OH2  461   1.947   5.928   0.497 -0.2964  0.2721  0.4839
  152TIP3    H1  462   2.025   5.935   0.551  0.4531  0.2847 -0.5943
  152TIP3    H2  463   1.964   5.854   0.438 -1.1903  0.1169  0.4071
  153TIP3   OH2  464   3.902   5.989   1.050  0.0739  0.1484 -0.4337
  153TIP3    H1  465   3.810   6.013   1.044  0.6860  2.4304 -1.3629
  153TIP3    H2  466   3.902   5.896   1.069 -2.4459  0.4324  1.1665
  154TIP3   OH2  467   0.089   4.772   4.618  0.7669 -0.1228  0.0260
  154TIP3    H1  468   0.077   4.723   4.699 -0.2040  1.4646  0.8754
  154TIP3    H2  469   0.177   4.750   4.589  2.5336  1.9437  3.4119
  155TIP3   OH2  470   2.196   0.323   0.405  0.0435 -0.3347  0.0080
  155TIP3    H1  471   2.129   0.388   0.427  0.0962 -0.4801  0.6288
  155TIP3    H2  472   2.185   0.308   0.311  0.9933  1.6474 -0.4517
  156TIP3   OH2  473   3.825   1.223   1.262 -0.3320 -0.4943 -0.2974
  156TIP3    H1  474   3.810   1.296   1.201 -2.2153 -1.1751 -0.6785
  156TIP3    H2  475   3.916   1.234   1.290 -0.2301  1.3290 -1.2462
  157TIP3   OH2  476   5.602   1.203   1.023  0.5193 -0.3775 -0.5866
  157TIP3    H1  477   5.614   1.293   0.990 -0.9068 -0.0055 -0.0983
  157TIP3    H2  478   5.514   1.202   1.059  0.8903 -1.7165  0.2989
  158TIP3   OH2  479   0.785   2.468   5.056 -0.3549 -0.3658 -0.0254
  158TIP3    H1  480   0.835   2.549   5.058 -1.8554  0.6030 -0.8595
  158TIP3    H2  481   0.739   2.466   5.139 -1.1640  0.1821 -0.4606
  159TIP3   OH2  482   6.094   6.098   4.249 -0.9413 -0.1113 -0.0925
  159TIP3    H1  483   6.174   6.051   4.270  0.6748  1.0970 -3.1819
  159TIP3    H2  484   6.120   6.191   4.251 -2.7653  0.4087  0.7685
  160TIP3   OH2  485   3.038   0.603   2.546  0.5984  0.0747  0.0009
  160TIP3    H1  486   3.114   0.601   2.604  0.5432  2.1035  0.1789
  160TIP3    H2  487   2.965   0.628   2.603  0.3648  1.1308 -0.7481
  161TIP3   OH2  488   4.800   1.166   0.490  0.6663 -0.0683 -0.3460
  161TIP3    H1  489   4.755   1.082   0.491  2.1635 -0.9020 -1.4147
  161TIP3    H2  490   4.729   1.231   0.490 -0.5469 -1.3479 -2.1127
  162TIP3   OH2  491   1.281   4.973   1.695 -0.1840 -0.0034 -0.0237
  162TIP3    H1  492   1.369   4.983   1.658 -1.5259  0.5694 -3.2334
  162TIP3    H2  493   1.264   5.056   1.740 -0.3047  1.1869 -2.2078
  163TIP3   OH2  494   0.302   0.459   1.613 -0.3578 -0.1512  0.6192
  163TIP3    H1  495   0.295   0.532   1.552  1.4951 -0.8159 -0.4417
  163TIP3    H2  496   0.302   0.500   1.699  1.6560  1.2328  0.0171
  164TIP3   OH2  497   2.556   3.399   0.576 -0.4945  0.8011  0.0957
  164TIP3    H1  498   2.652   3.403   0.567 -0.5844 -0.5406 -1.8299
  164TIP3    H2  499   2.523   3.459   0.510 -0.9876  1.3675  0.8548
  165TIP3   OH2  500   1.798   5.091   0.424  0.2247 -0.2924 -0.6033
  165TIP3    H1  501   1.812   4.999   0.448 -1.0220  0.0350  1.4017
  165TIP3    H2  502   1.886   5.130   0.430  0.1786 -0.5092  2.2947
  166TIP3   OH2  503   1.749   2.403   5.139  0.0545 -0.0068  0.4188
  166TIP3    H1  504   1.790   2.418   5.224 -0.4874  0.8608  0.5258
  166TIP3    H2  505   1.721   2.489   5.110 -1.5157 -0.5569  0.2356
  167TIP3   OH2  506   0.278   4.915   0.453 -0.1002  0.0247  0.3578
  167TIP3    H1  507   0.256   4.901   0.361 -0.2934  0.2994  0.3619
  167TIP3    H2  508   0.372   4.935   0.452 -0.0525 -0.2038  0.2447
  168TIP3   OH2  509   4.708   0.392   1.180  0.1459  0.1697  0.6152
  168TIP3    H1  510   4.699   0.340   1.100 -0.6052 -1.3902  1.6715
  168TIP3    H2  511   4.754   0.334   1.241  1.5271  1.6639  1.0448
  169TIP3   OH2  512   2.799   0.542   0.885 -0.5174  0.5611  0.5285
  169TIP3    H1  513   2.886   0.527   0.847 -0.3963  1.8422  0.2685
  169TIP3    H2  514   2.775   0.458   0.925  0.7025  0.1081  0.3246
  170TIP3   OH2  515   1.878   5.818   0.977 -0.4042  0.0934  0.4690
  170TIP3    H1  516   1.935   5.889   1.008 -1.0080  0.6213  0.3773
  170TIP3    H2  517   1.809   5.863   0.928 -0.9102 -0.5465  0.5959
  171TIP3   OH2  518   6.500   4.651   4.853 -0.3283 -0.1412  0.0643
  171TIP3    H1  519   6.487   4.695   4.937 -0.0662  0.2286 -0.0889
  171TIP3    H2  520   6.462   4.564   4.865  0.1150 -0.2428  0.7063
  172TIP3   OH2  521   2.733   1.256   3.759  0.0847 -0.2820  0.0726
  172TIP3    H1  522   2.643   1.224   3.766 -0.4705  0.9053 -1.2630
  172TIP3    H2  523   2.779   1.217   3.833 -1.4121 -1.3037  0.4772
  173TIP3   OH2  524   4.581   0.495   0.566 -0.0521  0.0200 -0.5114
  173TIP3    H1  525   4.636   0.497   0.644  2.1351  2.0630 -2.0157
  173TIP3    H2  526   4.501   0.541   0.591 -0.4248 -1.5295  1.2317
  174TIP3   OH2  527   2.752   2.462   1.985 -0.8776  0.1762 -0.6489
  174TIP3    H1  528   2.707   2.422   2.059 -0.0984  0.7914  0.1713
  174TIP3    H2  529   2.709   2.546   1.973 -0.4836  0.4184 -0.3821
  175TIP3   OH2  530   0.464   5.865   1.746 -0.0467 -0.1287  0.3228
  175TIP3    H1  531   0.468   5.907   1.661 -1.0807 -0.3384  0.1675
  175TIP3    H2  532   0.503   5.928   1.806  0.3464  0.1697 -0.2416
  176TIP3   OH2  533   3.374   0.948   1.761  0.7574  0.2733  0.4798
  176TIP3    H1  534   3.453   0.924   1.714  0.1550  0.7427 -0.8169
  176TIP3    H2  535   3.310   0.965   1.692 -0.1994  0.8193  1.4861
  177TIP3   OH2  536   5.363   0.896   1.358  0.1858  0.2045  0.0716
  177TIP3    H1  537   5.286   0.850   1.391 -0.0414 -1.0857 -2.1860
  177TIP3    H2  538   5.330   0.948   1.285  1.2781  0.4173 -0.2755
  178TIP3   OH2  539   0.210   3.840   2.704  0.1845  0.1327 -0.2016
  178TIP3    H1  540   0.158   3.772   2.661 -0.7293 -0.3020  1.5256
  178TIP3    H2  541   0.270   3.791   2.761  1.2936  0.6904 -0.8888
  179TIP3   OH2  542   3.158   5.941   1.225  0.0944 -0.0286 -0.0041
  179TIP3    H1  543   3.138   6.034   1.217 -1.1602 -0.2339  0.6041
  179TIP3    H2  544   3.121   5.901   1.146  1.1303  0.0575 -0.5430
  180TIP3   OH2  545   3.629   0.788   1.121 -0.3146 -0.6495 -0.1820
  180TIP3    H1  546   3.683   0.836   1.183  0.7048  0.7779 -2.1061
  180TIP3    H2  547   3.550   0.842   1.111 -0.3564 -0.7333 -0.3102
  181TIP3   OH2  548   4.764   0.936   1.291 -0.4310  0.8114 -0.2553
  181TIP3    H1  549   4.732   1.006   1.234 -1.2021 -0.2932 -1.1883
  181TIP3    H2  550   4.697   0.928   1.359 -1.0773 -0.0474 -0.9982
  182TIP3   OH2  551   5.753   4.977   3.139 -0.2175 -0.2352 -0.6658
  182TIP3    H1  552   5.765   4.984   3.044 -0.9279  0.0770 -0.7324
  182TIP3    H2  553   5.824   5.031   3.175  0.3419 -0.7290 -1.0012
  183TIP3   OH2  554   2.445   0.708   0.242 -0.0352  0.1150  0.2823
  183TIP3    H1  555   2.358   0.711   0.203  0.4150 -1.5838 -0.8951
  183TIP3    H2  556   2.452   0.621   0.281  1.0862  0.2662  0.4487
  184TIP3   OH2  557   3.581   2.162   2.407 -0.2470  0.0757  0.5736
  184TIP3    H1  558   3.504   2.213   2.380 -0.6145 -1.0648 -0.6037
  184TIP3    H2  559   3.608   2.116   2.328  1.8019  0.6373  0.9306
  185TIP3   OH2  560   2.034   0.985   1.342 -0.3820 -0.1520  0.4203
  185TIP3    H1  561   2.103   0.939   1.389  0.1340 -1.3046 -1.3940
  185TIP3    H2  562   2.080   1.035   1.274 -1.0491  1.9612  1.4877
  186TIP3   OH2  563   0.456   2.042   1.343 -0.0780 -0.3997  0.0443
  186TIP3    H1  564   0.430   2.127   1.380 -0.5011 -0.6758  0.3780
  186TIP3    H2  565   0.428   1.978   1.408 -0.2276 -0.8372 -0.4517
  187TIP3   OH2  566   5.633   2.702   1.840 -0.3385  0.2927  0.1028
  187TIP3    H1  567   5.575   2.716   1.915 -0.5436  1.4761 -0.2683
  187TIP3    H2  568   5.575   2.705   1.764 -0.0013  0.0396 -0.1618
  188TIP3   OH2  569   5.380   1.655   0.336  0.1139 -0.1872  0.1013
  188TIP3    H1  570   5.345   1.717   0.272 -0.3966 -0.1872  0.3808
  188TIP3    H2  571   5.474   1.675   0.340  0.5516 -1.5084 -2.1554
  189TIP3   OH2  572   4.456   1.540   0.785  0.0340  0.3238 -0.0117
  189TIP3    H1  573   4.387   1.514   0.723  0.2191 -0.1880 -0.0066
  189TIP3    H2  574   4.462   1.466   0.845 -1.7406  1.7551  1.9994
  190TIP3   OH2  575   3.767   0.196   0.882 -0.9181 -0.2146 -0.3194
  190TIP3    H1  576   3.686   0.214   0.930 -0.0223  0.7196  0.8693
  190TIP3    H2  577   3.811   0.128   0.933  0.8678  2.0029  1.2262
  191TIP3   OH2  578   0.252   5.858   0.186 -0.1395 -0.1096 -0.3884
  191TIP3    H1  579   0.308   5.810   0.248  0.6399  0.2976 -0.7746
  191TIP3    H2  580   0.212   5.790   0.132  0.3579 -0.3683 -0.4276
  192TIP3   OH2  581   2.017   3.252   1.683  0.2823  0.4293  0.2869
  192TIP3    H1  582   1.986   3.343   1.680  0.7511  0.5522 -1.5975
  192TIP3    H2  583   2.110   3.258   1.664  0.3565 -0.4211  0.3962
  193TIP3   OH2  584   3.044   0.366   2.755 -0.3417 -0.2466  0.2014
  193TIP3    H1  585   2.979   0.298   2.775 -0.5377  0.0417  0.5491
  193TIP3    H2  586   3.087   0.335   2.675  0.1062 -1.1671  0.7880
  194TIP3   OH2  587   3.029   5.091   2.444 -0.2341  0.2303 -0.2038
  194TIP3    H1  588   3.069   5.007   2.420  2.4663  1.1092  1.0285
  194TIP3    H2  589   3.054   5.104   2.535  1.0080  3.2524 -0.9343
  195TIP3   OH2  590   3.359   0.414   0.602  0.2550  0.3383 -0.1640
  195TIP3    H1  591   3.278   0.464   0.591 -0.0793 -0.2092 -0.1966
  195TIP3    H2  592   3.382   0.426   0.694 -0.4427 -0.3833  0.1026
  196TIP3   OH2  593   4.226   0.403   1.796  0.5260  0.0912  0.5940
  196TIP3    H1  594   4.216   0.320   1.843 -2.5157  0.5260  0.8541
  196TIP3    H2  595   4.283   0.381   1.722 -1.6230 -2.6986 -0.3450
  197TIP3   OH2  596   4.203   1.444   2.240 -0.7607 -0.1607  0.5592
  197TIP3    H1  597   4.218   1.356   2.207 -1.1728 -0.3877  0.9943
  197TIP3    H2  598   4.158   1.433   2.323 -1.4502  0.4772  0.2774
  198TIP3   OH2  599   0.405   0.970   1.617 -0.4995  0.3314  0.4289
  198TIP3    H1  600   0.493   1.003   1.603 -0.2686 -0.4339  0.0708
  198TIP3    H2  601   0.386   0.991   1.709  0.0905  0.4169  0.5316
  199TIP3   OH2  602   2.156   5.796   1.192 -0.3971  0.3954  0.1367
  199TIP3    H1  603   2.090   5.727   1.188 -0.6045  0.5871  0.2614
  199TIP3    H2  604   2.118   5.862   1.250 -0.2650  0.6862 -0.1058
  200TIP3   OH2  605   0.757   5.240   0.651  0.5714 -0.0453  0.5684
  200TIP3    H1  606   0.680   5.223   0.705  0.5290  0.1232  0.5589
  200TIP3    H2  607   0.811   5.161   0.662 -0.1537 -0.6951 -0.3685
  201TIP3   OH2  608   0.581   3.503   4.914 -0.3074 -0.2743 -0.2244
  201TIP3    H1  609   0.567   3.417   4.953 -1.1361 -0.7021 -1.4411
  201TIP3    H2  610   0.508   3.514   4.853  0.4358  0.8025 -0.9403
  202TIP3   OH2  611   0.669   4.566   4.223  0.3047  0.1114  0.2406
  202TIP3    H1  612   0.635   4.506   4.290 -0.5199  0.9216  0.5515
  202TIP3    H2  613   0.607   4.638   4.222  0.9636  0.6691 -0.5759
  203TIP3   OH2  614   4.566   5.993   1.427  0.3436 -0.0870 -0.2133
  203TIP3    H1  615   4.545   6.076   1.470 -0.9360 -1.0456  1.0316
  203TIP3    H2  616   4.656   5.975   1.453  0.5639  0.8183 -0.3353
  204TIP3   OH2  617   5.794   1.075   0.857 -0.2125 -0.4806 -0.1233
  204TIP3    H1  618   5.764   1.015   0.925  1.5383 -0.5074  0.6539
  204TIP3    H2  619   5.731   1.146   0.858 -0.5570 -0.7966  1.0955
  205TIP3   OH2  620   4.865   0.602   0.997 -0.4241  0.0979  0.0042
  205TIP3    H1  621   4.848   0.630   1.087 -2.5473  0.1745 -0.4116
  205TIP3    H2  622   4.914   0.521   1.006 -1.5747 -0.4740  1.2482
  206TIP3   OH2  623   0.827   5.269   2.565  0.1819 -0.1217  0.8713
  206TIP3    H1  624   0.770   5.333   2.523  1.8378  0.2211 -0.9412
  206TIP3    H2  625   0.860   5.314   2.643  2.3196  1.7873 -1.0497
  207TIP3   OH2  626   0.124   4.643   3.368 -0.0938  0.5471 -0.3178
  207TIP3    H1  627   0.151   4.699   3.295 -0.5575 -0.1200 -1.0026
  207TIP3    H2  628   0.031   4.626   3.352 -0.0863  0.0185  0.1883
  208TIP3   OH2  629   0.698   2.426   2.276 -0.0352  0.3111 -0.2516
  208TIP3    H1  630   0.771   2.488   2.282 -0.3739  0.5787  1.4820
  208TIP3    H2  631   0.737   2.341   2.295 -0.1709  0.4601  0.7179
  209TIP3   OH2  632   1.202   6.119   1.699  0.2047  0.5199 -0.2904
  209TIP3    H1  633   1.215   6.179   1.773 -1.7817 -0.2687  0.7369
  209TIP3    H2  634   1.277   6.059   1.704 -0.4601 -0.1970  1.7751
  210TIP3   OH2  635   5.622   2.478   5.020  0.0040 -0.0282 -0.8645
  210TIP3    H1  636   5.585   2.520   5.097  0.2439  0.9471 -1.2846
  210TIP3    H2  637   5.705   2.441   5.050 -0.7541 -1.2241 -0.2075
  211TIP3   OH2  638   1.038   5.888   1.850 -0.1805 -0.3748 -0.1497
  211TIP3    H1  639   1.019   5.816   1.910 -0.9022 -0.2483 -0.2200
  211TIP3    H2  640   1.066   5.960   1.907 -2.4709  0.2789  0.1956
  212TIP3   OH2  641   4.226   1.448   1.009  0.0238 -0.2081  0.0976
  212TIP3    H1  642   4.185   1.513   1.067 -1.1232 -0.1436 -0.7731
  212TIP3    H2  643   4.154   1.412   0.959  0.8307 -1.2864 -0.3004
  213TIP3   OH2  644   5.786   0.553   0.759  0.0246  0.2274  0.2610
  213TIP3    H1  645   5.744   0.468   0.746 -2.8906  1.6230  0.1533
  213TIP3    H2  646   5.878   0.539   0.735 -0.6257 -2.6297 -0.6906
  214TIP3   OH2  647   4.790   2.425   0.781 -0.0500  0.1143  0.0564
  214TIP3    H1  648   4.838   2.502   0.811  2.0690 -1.0211 -0.3400
  214TIP3    H2  649   4.825   2.407   0.694 -0.6575 -1.1731  0.0580
  215TIP3   OH2  650   2.915   1.066   0.401 -0.3316  0.1640 -0.0272
  215TIP3    H1  651   2.838   1.009   0.399  1.0615 -1.7133 -1.8761
  215TIP3    H2  652   2.916   1.108   0.315  1.1111 -0.4108 -0.3071
  216TIP3   OH2  653   5.919   5.026   4.862  0.1123  0.2776 -0.0322
  216TIP3    H1  654   5.953   4.959   4.803  0.6343  1.1500 -0.7286
  216TIP3    H2  655   5.938   4.992   4.950  0.1893 -0.5772 -0.3704
  217TIP3   OH2  656   0.434   0.190   1.557 -0.0471 -0.1051 -0.5133
  217TIP3    H1  657   0.362   0.171   1.497 -0.6085  1.2689 -0.2987
  217TIP3    H2  658   0.460   0.279   1.536  0.9177 -0.2324  0.1118
  218TIP3   OH2  659   1.368   4.837   1.268 -0.2990 -0.1376  0.4109
  218TIP3    H1  660   1.376   4.782   1.189  2.4477  0.9812 -0.1573
  218TIP3    H2  661   1.443   4.811   1.322  0.8078  2.7360  0.3129
  219TIP3   OH2  662   4.673   3.588   3.650 -0.7328 -0.1413  0.1518
  219TIP3    H1  663   4.705   3.498   3.664 -0.4619 -0.0068  0.4021
  219TIP3    H2  664   4.580   3.577   3.632 -0.3041 -0.6604 -1.9102
  220TIP3   OH2  665   6.343   1.247   2.026 -0.0102  1.0688 -0.0471
  220TIP3    H1  666   6.372   1.321   2.080 -1.5350  1.8384 -0.2663
  220TIP3    H2  667   6.250   1.264   2.009 -0.5686 -1.2546  0.4851
  221TIP3   OH2  668   3.351   1.565   1.645  0.5223  1.1307 -0.9058
  221TIP3    H1  669   3.276   1.556   1.586 -1.2331 -4.4902  1.8094
  221TIP3    H2  670   3.426   1.540   1.591 -0.7940 -1.9882 -1.4344
  222TIP3   OH2  671   4.096   3.551   4.080 -0.7442 -0.4329 -0.1503
  222TIP3    H1  672   4.175   3.505   4.109  0.0505 -0.0143 -1.5856
  222TIP3    H2  673   4.085   3.622   4.142 -0.1423 -0.6636  0.2292
  223TIP3   OH2  674   3.653   5.606   3.299 -0.3309 -0.0809 -0.3200
  223TIP3    H1  675   3.705   5.661   3.241 -0.5051 -0.2276 -0.6173
  223TIP3    H2  676   3.629   5.531   3.245  1.5163 -1.4041  0.6136
  224TIP3   OH2  677   5.736   2.093   0.370 -0.2173 -0.1162  0.4257
  224TIP3    H1  678   5.825   2.057   0.365  0.4459  1.3416  1.2686
  224TIP3    H2  679   5.706   2.070   0.458 -1.0982 -1.5386 -0.2368
  225TIP3   OH2  680   4.736   2.400   2.348 -0.0163 -0.0920 -0.4250
  225TIP3    H1  681   4.823   2.439   2.356 -0.4421  1.2379 -2.0407
  225TIP3    H2  682   4.699   2.406   2.436  1.4977 -0.6301  0.2715
  226TIP3   OH2  683   5.252   3.155   0.801  0.4047  0.0698 -0.0030
  226TIP3    H1  684   5.235   3.243   0.836 -0.5804 -0.3576  0.6010
  226TIP3    H2  685   5.210   3.096   0.864  2.4360 -0.9261  0.4608
  227TIP3   OH2  686   5.195   1.903   1.006  0.0177  0.0623 -0.0484
  227TIP3    H1  687   5.167   1.954   1.082  0.8052  1.4272 -0.6544
  227TIP3    H2  688   5.238   1.967   0.949 -1.0315 -0.8420 -1.8956
  228TIP3   OH2  689   6.059   1.374   1.643 -0.3356  0.5172  0.2070
  228TIP3    H1  690   6.100   1.289   1.657  1.4914  1.3535  0.0597
  228TIP3    H2  691   6.044   1.379   1.549 -0.0071  0.5583  0.1582
  229TIP3   OH2  692   6.310   1.730   0.277 -0.3501 -0.6061  0.2362
  229TIP3    H1  693   6.245   1.767   0.337  0.5453 -0.7107  1.3012
  229TIP3    H2  694   6.339   1.804   0.223  0.1990 -0.0932  1.2118
  230TIP3   OH2  695   3.552   1.688   1.827 -0.2461  0.8847  0.0921
  230TIP3    H1  696   3.486   1.647   1.772  1.0389 -0.2445 -0.6482
  230TIP3    H2  697   3.512   1.693   1.914 -1.3923  0.4937 -0.4066
  231TIP3   OH2  698   3.486   2.310   0.448  0.6283 -0.6678 -0.0984
  231TIP3    H1  699   3.547   2.364   0.498  1.9244 -1.5943 -0.6295
  231TIP3    H2  700   3.518   2.317   0.358 -0.1078 -1.1154 -0.3956
  232TIP3   OH2  701   6.476   3.070   2.319  0.0059  0.2527 -0.8587
  232TIP3    H1  702   6.460   2.978   2.341 -2.6826  0.9326  0.3097
  232TIP3    H2  703   6.500   3.111   2.403  0.8429  0.6790 -1.3013
  233TIP3   OH2  704   6.286   0.777   1.665  0.4300 -0.5676 -0.1315
  233TIP3    H1  705   6.317   0.704   1.718 -3.0734 -1.2622  1.0896
  233TIP3    H2  706   6.339   0.774   1.585  1.4795 -3.3916  0.6475
  234TIP3   OH2  707   0.356   3.135   0.715 -0.0924 -0.1992  0.4062
  234TIP3    H1  708   0.338   3.228   0.697  0.8154 -1.1712 -6.8926
  234TIP3    H2  709   0.449   3.132   0.733 -0.0541  0.2803  0.3162
  235TIP3   OH2  710   0.609   2.140   0.123 -0.2937 -0.1398 -0.3342
  235TIP3    H1  711   0.572   2.059   0.159 -0.4620 -0.7828 -1.9099
  235TIP3    H2  712   0.673   2.168   0.188 -1.6425 -0.4678  1.1537
  236TIP3   OH2  713   2.555   1.416   2.723  0.1040 -0.1628  0.2380
  236TIP3    H1  714   2.525   1.330   2.753 -1.2350 -0.1659 -1.0282
  236TIP3    H2  715   2.538   1.416   2.629 -2.3205  2.4274  0.6033
  237TIP3   OH2  716   3.916   2.077   1.129 -0.1281  0.1961 -0.1604
  237TIP3    H1  717   3.960   2.004   1.084  0.2958  0.9163 -0.9169
  237TIP3    H2  718   3.855   2.034   1.189  0.9002 -0.8173  0.1971
  238TIP3   OH2  719   0.785   1.522   2.623 -0.0452 -0.0271 -0.1964
  238TIP3    H1  720   0.791   1.507   2.528  0.1435 -1.3997  0.0297
  238TIP3    H2  721   0.748   1.441   2.658 -0.9973  0.8302  0.8050
  239TIP3   OH2  722   0.340   3.254   0.225  0.0299 -0.1054 -0.1613
  239TIP3    H1  723   0.312   3.201   0.150  1.4095 -0.5575 -0.3683
  239TIP3    H2  724   0.324   3.198   0.301 -2.1769  0.6788 -0.0245
  240TIP3   OH2  725   0.140   1.324   2.448 -0.2322 -0.7647 -0.3761
  240TIP3    H1  726   0.210   1.365   2.396  0.6996 -0.8342  0.8182
  240TIP3    H2  727   0.099   1.396   2.495  0.4682 -1.0030  0.6126
  241TIP3   OH2  728   5.428   3.358   1.630 -0.1332 -0.8822 -0.1937
  241TIP3    H1  729   5.523   3.369   1.633 -0.1666 -0.8901  1.2486
  241TIP3    H2  730   5.409   3.337   1.538  1.0760  0.7422 -0.8406
  242TIP3   OH2  731   0.272   2.612   2.792  0.1956  0.0127 -0.3840
  242TIP3    H1  732   0.303   2.543   2.850  1.5797 -0.2229 -1.3809
  242TIP3    H2  733   0.284   2.693   2.841 -0.0791 -0.3195  0.2359
  243TIP3   OH2  734   0.118   2.997   1.350 -0.0328  0.0294  0.2071
  243TIP3    H1  735   0.096   3.084   1.382 -0.3117  0.0742 -0.1119
  243TIP3    H2  736   0.090   2.997   1.258 -0.2833 -0.4883  0.2832
  244TIP3   OH2  737   6.461   5.372   2.546 -0.2927  0.3496 -0.2788
  244TIP3    H1  738   6.387   5.417   2.588 -0.9891 -1.8370  0.9197
  244TIP3    H2  739   6.444   5.382   2.452 -1.1832  1.3318 -0.0333
  245TIP3   OH2  740   4.281   2.255   0.749  0.8118  0.0202 -0.3732
  245TIP3    H1  741   4.230   2.174   0.744 -0.7159  0.8933  0.5439
  245TIP3    H2  742   4.324   2.251   0.834  0.2795  0.4191 -0.0796
  246TIP3   OH2  743   5.555   1.515   2.739 -0.4969 -0.3630  0.2632
  246TIP3    H1  744   5.627   1.481   2.792  0.4092  0.5766 -0.3300
  246TIP3    H2  745   5.546   1.607   2.767  0.3783  0.3065 -1.5921
  247TIP3   OH2  746   6.147   1.724   1.441 -0.1705  0.5305  0.1236
  247TIP3    H1  747   6.166   1.689   1.528  0.3046 -1.6226 -0.7936
  247TIP3    H2  748   6.192   1.808   1.438  1.2979 -0.1815  1.3580
  248TIP3   OH2  749   5.733   1.835   1.692  0.4462 -0.9184  0.7416
  248TIP3    H1  750   5.800   1.836   1.624  0.2442 -0.5890  0.5401
  248TIP3    H2  751   5.674   1.764   1.665 -0.3994  0.1161 -0.1992
  249TIP3   OH2  752   3.645   4.727   4.952  0.0011  0.5398 -0.1364
  249TIP3    H1  753   3.661   4.747   5.044  2.4544 -0.8152 -0.2171
  249TIP3    H2  754   3.708   4.781   4.904 -0.4611  0.3659 -0.9500
  250TIP3   OH2  755   2.804   0.822   1.695 -0.1806 -0.1021  0.6328
  250TIP3    H1  756   2.762   0.802   1.779 -0.1879 -1.5341  0.3100
  250TIP3    H2  757   2.778   0.912   1.676 -0.4335  0.1305  2.0125
  251TIP3   OH2  758   1.279   1.379   3.723 -0.0419  0.8672  0.3403
  251TIP3    H1  759   1.300   1.362   3.631 -1.9990  0.8278 -0.1094
  251TIP3    H2  760   1.350   1.337   3.772  0.9393  0.7681 -1.1437
  252TIP3   OH2  761   6.029   2.047   1.692 -0.1380  0.0123 -0.3078
  252TIP3    H1  762   6.118   2.077   1.673 -0.2066 -1.8364 -4.0306
  252TIP3    H2  763   5.976   2.082   1.621 -2.1021 -0.2519  0.9927
  253TIP3   OH2  764   3.210   5.114   1.828  0.1877 -0.2355  0.2140
  253TIP3    H1  765   3.217   5.124   1.923  1.5135 -0.4361  0.1469
  253TIP3    H2  766   3.273   5.045   1.807 -0.4568 -0.5367 -0.7513
  254TIP3   OH2  767   4.241   0.130   0.308 -0.1703  0.0797  0.4570
  254TIP3    H1  768   4.298   0.204   0.286  0.2360 -0.4677 -0.3746
  254TIP3    H2  769   4.157   0.151   0.270 -0.8705  1.4192  2.6569
  255TIP3   OH2  770   0.977   3.542   1.069 -0.4802  0.3584 -0.3155
  255TIP3    H1  771   0.929   3.553   1.152  0.5037  1.1306  0.1659
  255TIP3    H2  772   0.987   3.631   1.036 -2.2504 -0.0644 -2.0891
  256TIP3   OH2  773   1.419   4.692   3.037 -0.3723 -0.3277  0.2562
  256TIP3    H1  774   1.393   4.622   2.977 -0.5399 -1.1764  1.2972
  256TIP3    H2  775   1.468   4.753   2.982 -0.9282 -0.8440 -0.8421
  257TIP3   OH2  776   1.927   0.202   1.717  0.3082  0.2048  0.3898
  257TIP3    H1  777   1.832   0.188   1.713  0.5874 -1.8114 -0.0486
  257TIP3    H2  778   1.951   0.171   1.804  0.5841  0.5666  0.4408
  258TIP3   OH2  779   4.141   3.254   1.180 -0.1874 -0.6638  0.1831
  258TIP3    H1  780   4.124   3.193   1.251 -0.9180 -0.4696  0.1787
  258TIP3    H2  781   4.056   3.294   1.161  0.4732  1.1906  0.9570
  259TIP3   OH2  782   1.703   2.254   1.528 -0.3957 -0.2703 -0.0549
  259TIP3    H1  783   1.784   2.305   1.529 -0.2125 -0.5686  0.2764
  259TIP3    H2  784   1.712   2.194   1.601 -1.5367  0.6512  0.8517
  260TIP3   OH2  785   0.771   3.352   1.899  0.3173  0.2221 -0.5358
  260TIP3    H1  786   0.706   3.413   1.864  2.6264  2.8772 -0.3631
  260TIP3    H2  787   0.757   3.355   1.994 -0.0664 -0.1193 -0.5793
  261TIP3   OH2  788   4.822   4.358   2.340 -0.8004 -0.1153 -0.5332
  261TIP3    H1  789   4.804   4.269   2.309  0.7529 -0.1875 -1.2600
  261TIP3    H2  790   4.783   4.415   2.274 -0.7521 -0.2627 -0.6890
  262TIP3   OH2  791   6.388   2.730   1.205  0.1582  0.4513 -0.5833
  262TIP3    H1  792   6.333   2.806   1.185 -0.5446  0.5109  1.4967
  262TIP3    H2  793   6.327   2.661   1.227  0.8412 -0.4207 -1.3778
  263TIP3   OH2  794   0.322   1.988   2.507 -0.2168  0.2575 -0.0949
  263TIP3    H1  795   0.228   1.973   2.514 -0.0657 -0.5567  0.2705
  263TIP3    H2  796   0.348   2.016   2.595  0.1484 -1.0884  0.2339
  264TIP3   OH2  797   0.180   0.226   3.620  0.0269  0.0073  0.2038
  264TIP3    H1  798   0.253   0.242   3.560  1.5604  1.3452  2.3700
  264TIP3    H2  799   0.103   0.220   3.563  1.3927  1.5455 -1.8804
  265TIP3   OH2  800   1.816   0.950   3.405 -0.1719  0.0420  0.3087
  265TIP3    H1  801   1.845   1.000   3.329 -1.7890  0.6861  0.0905
  265TIP3    H2  802   1.827   0.858   3.378  0.5376  0.2737 -0.1946
  266TIP3   OH2  803   1.288   1.956   1.047  0.4698  0.2690 -0.6464
  266TIP3    H1  804   1.360   2.015   1.069  0.0510  0.6274 -0.2156
  266TIP3    H2  805   1.222   2.012   1.006 -0.7641  0.4918  1.5582
  267TIP3   OH2  806   6.483   2.321   0.976  0.6724  0.0724 -0.6061
  267TIP3    H1  807   6.464   2.287   1.063 -0.5150  0.5988 -0.6542
  267TIP3    H2  808   6.408   2.296   0.923  1.0101  0.4648 -1.2831
  268TIP3   OH2  809   2.282   2.880   3.054  0.0415  0.1546  0.0437
  268TIP3    H1  810   2.223   2.954   3.046 -0.3858 -0.1138  0.6871
  268TIP3    H2  811   2.355   2.901   2.996 -1.0185  0.1579 -1.2899
  269TIP3   OH2  812   2.919   0.008   2.568 -0.6767 -0.2886  0.0244
  269TIP3    H1  813   2.837   0.058   2.572 -1.4317 -1.5786  0.7614
  269TIP3    H2  814   2.900  -0.064   2.508  0.6568  0.7169 -1.6572
  270TIP3   OH2  815   5.348   5.921   1.779  0.3038  0.0216 -0.0373
  270TIP3    H1  816   5.402   5.867   1.838 -0.7236 -1.0773 -0.0868
  270TIP3    H2  817   5.270   5.943   1.831 -0.4292 -0.6321 -0.8520
  271TIP3   OH2  818   0.480   4.251   3.564  0.2774  0.3307 -0.1651
  271TIP3    H1  819   0.484   4.245   3.660 -1.2902  1.2737 -0.0245
  271TIP3    H2  820   0.543   4.320   3.542 -0.7711  1.4751  0.3632
  272TIP3   OH2  821   1.258   1.210   1.032  0.2295 -0.1963 -0.4997
  272TIP3    H1  822   1.291   1.182   0.946  1.1319  0.7392 -0.4672
  272TIP3    H2  823   1.307   1.156   1.094 -0.1325 -0.5905 -0.5560
  273TIP3   OH2  824   1.510   2.256   4.129  0.1985 -0.4742  0.0918
  273TIP3    H1  825   1.487   2.224   4.216 -0.3490 -0.0958  0.0942
  273TIP3    H2  826   1.425   2.272   4.087  0.4431 -2.2549 -1.1085
  274TIP3   OH2  827   5.788   3.585   2.940  0.0305 -0.1573  0.3882
  274TIP3    H1  828   5.738   3.666   2.950 -0.1352 -0.3056  0.7664
  274TIP3    H2  829   5.737   3.519   2.987  0.8095 -0.2180  1.1602
  275TIP3   OH2  830   5.799   1.048   0.212  0.2238  0.4230 -0.0782
  275TIP3    H1  831   5.721   1.024   0.161 -0.4050  0.1447  1.0108
  275TIP3    H2  832   5.775   1.032   0.303  2.9638 -3.6258  0.0337
  276TIP3   OH2  833   1.091   3.491   2.496 -0.0636  0.2920  0.5207
  276TIP3    H1  834   1.030   3.513   2.426  3.3502  2.2482 -2.0016
  276TIP3    H2  835   1.115   3.400   2.480 -0.8417  0.1092  0.3726
  277TIP3   OH2  836   1.647   1.087   4.099 -0.5487  0.0820 -0.5925
  277TIP3    H1  837   1.667   1.133   4.017  0.6155 -1.8095 -1.4036
  277TIP3    H2  838   1.552   1.074   4.097 -0.5954  0.5207 -1.3693
  278TIP3   OH2  839   1.608   1.880   1.065 -0.2689  0.2429 -0.4695
  278TIP3    H1  840   1.695   1.905   1.034 -0.2723  1.5918  0.5621
  278TIP3    H2  841   1.550   1.903   0.993  0.2977 -1.3708 -1.4679
  279TIP3   OH2  842   2.590   2.074   1.922  0.0960 -0.2235  0.4285
  279TIP3    H1  843   2.525   2.035   1.981  0.6802  0.2825  1.4127
  279TIP3    H2  844   2.573   2.168   1.926  0.8822 -0.0915  0.6673
  280TIP3   OH2  845   3.233   0.937   2.631 -0.0454 -0.0170  0.2402
  280TIP3    H1  846   3.323   0.965   2.646  0.0967 -1.0686  1.3765
  280TIP3    H2  847   3.210   0.884   2.707 -0.5973 -2.2569 -1.4124
  281TIP3   OH2  848   5.091   2.641   2.089  0.2293 -0.4253 -0.2619
  281TIP3    H1  849   5.053   2.692   2.017 -1.0392  0.2428  0.8610
  281TIP3    H2  850   5.163   2.696   2.122 -1.2560  0.7711  1.0716
  282TIP3   OH2  851   5.710   3.842   3.012 -0.1477 -0.8606  0.4395
  282TIP3    H1  852   5.703   3.813   3.103 -0.3457  1.0889  1.0611
  282TIP3    H2  853   5.711   3.938   3.017 -1.9043 -0.6988 -1.7406
  283TIP3   OH2  854   5.722   2.449   2.092  0.3069  0.1083 -0.4826
  283TIP3    H1  855   5.701   2.416   2.179  0.5745 -1.2239 -0.9189
  283TIP3    H2  856   5.778   2.526   2.109  0.4460 -0.2010  0.5174
  284TIP3   OH2  857   0.248   1.775   2.095  0.0545 -0.5647  0.1726
  284TIP3    H1  858   0.291   1.711   2.152  3.6715 -0.5131 -2.2892
  284TIP3    H2  859   0.251   1.856   2.145  0.5954 -1.1287  1.0770
  285TIP3   OH2  860   1.075   3.973   2.015 -0.7759  0.0308  0.1661
  285TIP3    H1  861   1.077   3.879   2.031  0.8700 -0.3746 -2.1934
  285TIP3    H2  862   1.163   4.003   2.039 -0.9145  0.7659 -0.2388
  286TIP3   OH2  863   0.922   3.616   2.312  0.3616 -0.3895 -0.0450
  286TIP3    H1  864   0.917   3.705   2.348 -1.1609 -0.5382  0.1519
  286TIP3    H2  865   0.941   3.629   2.219  0.8887  0.1199  0.1289
  287TIP3   OH2  866   1.671   3.998   1.293  0.6606 -0.1950 -0.2980
  287TIP3    H1  867   1.751   4.038   1.326 -0.6410  1.6882  0.6038
  287TIP3    H2  868   1.663   4.030   1.203 -0.1155  1.1818  0.2591
  288TIP3   OH2  869   1.955   0.252   2.374  0.0714 -0.2922  0.0678
  288TIP3    H1  870   1.970   0.158   2.377 -2.1087 -0.6751 -0.2926
  288TIP3    H2  871   1.902   0.266   2.296  0.8880  1.3211 -0.2205
  289TIP3   OH2  872   2.000   2.911   3.529 -0.0472  0.1771  0.1075
  289TIP3    H1  873   2.064   2.979   3.509 -0.5467  0.3131 -1.0338
  289TIP3    H2  874   2.050   2.830   3.527 -0.1323  0.1488 -2.0218
  290TIP3   OH2  875   1.811   2.989   0.740  0.4264  0.4943 -0.3493
  290TIP3    H1  876   1.750   3.020   0.672 -0.0451 -2.1994 -1.1830
  290TIP3    H2  877   1.757   2.984   0.819 -0.6028 -2.2985 -1.1799
  291TIP3   OH2  878   0.005   0.201   2.939  0.1037 -0.1046 -0.2440
  291TIP3    H1  879  -0.028   0.112   2.954  1.2945 -0.4995  0.0850
  291TIP3    H2  880   0.091   0.201   2.981  0.4845  0.9365 -1.0357
  292TIP3   OH2  881   0.661   0.897   0.088 -0.4139 -0.1377  0.0749
  292TIP3    H1  882   0.630   0.982   0.056  0.0807  0.2073  0.4936
  292TIP3    H2  883   0.635   0.895   0.180 -2.0061 -1.2091 -0.3738
  293TIP3   OH2  884   6.304   1.529   4.767  0.3332 -0.2750 -0.2237
  293TIP3    H1  885   6.310   1.620   4.795  1.3905 -0.6392  0.7756
  293TIP3    H2  886   6.254   1.485   4.835 -0.4338 -0.3871 -0.8519
  294TIP3   OH2  887   2.550   5.349   4.803 -0.3419  0.8242 -0.1201
  294TIP3    H1  888   2.548   5.269   4.855  0.7407  1.1813  0.4797
  294TIP3    H2  889   2.623   5.399   4.838 -0.4033  1.6481 -1.1367
  295TIP3   OH2  890   2.743   2.253   0.478 -0.0184  0.2769  0.2335
  295TIP3    H1  891   2.771   2.242   0.387 -2.7823 -0.2611 -0.6223
  295TIP3    H2  892   2.764   2.171   0.520  1.3956  0.5718  0.1278
  296TIP3   OH2  893   1.173   0.995   0.175  0.5848  0.3420  0.1541
  296TIP3    H1  894   1.133   1.081   0.164 -0.0538  0.2822  1.8399
  296TIP3    H2  895   1.102   0.933   0.160  0.6605  0.1556  0.5593
  297TIP3   OH2  896   2.906   1.575   1.942  0.0772  0.1704  0.0700
  297TIP3    H1  897   2.870   1.491   1.969 -1.8097 -0.0877 -2.9452
  297TIP3    H2  898   2.999   1.559   1.929 -0.3147 -1.5582 -0.7322
  298TIP3   OH2  899   3.079   1.206   1.341  0.2784 -0.1752 -0.5081
  298TIP3    H1  900   3.148   1.176   1.283  0.1689 -0.2228 -0.6149
  298TIP3    H2  901   3.079   1.301   1.331  1.0151 -0.0898  0.2768
  299TIP3   OH2  902   4.594   1.107   1.127 -0.1911 -0.3310  0.3643
  299TIP3    H1  903   4.609   1.200   1.142  1.9245 -0.6045  0.0192
  299TIP3    H2  904   4.643   1.086   1.048 -0.7400 -1.7097  0.3690
  300TIP3   OH2  905   4.941   4.092   4.489  0.1792  0.7162 -0.5292
  300TIP3    H1  906   4.847   4.110   4.487  0.0145 -0.2284 -2.0148
  300TIP3    H2  907   4.949   3.998   4.504  0.8641  0.6562 -1.1978
  301TIP3   OH2  908   0.483   5.917   0.628  0.3060  0.6072 -0.2770
  301TIP3    H1  909   0.388   5.906   0.624  0.0919  2.2634 -0.1799
  301TIP3    H2  910   0.505   5.963   0.547  0.8100  1.6051  0.4124
  302TIP3   OH2  911   1.110   1.914   0.734  0.3880 -0.3525  0.3635
  302TIP3    H1  912   1.124   1.854   0.808  0.7228 -2.4401 -1.3379
  302TIP3    H2  913   1.159   1.874   0.662 -0.4707  1.3066 -1.1573
  303TIP3   OH2  914   6.119   0.416   1.324 -0.0575 -0.2181 -0.4334
  303TIP3    H1  915   6.037   0.457   1.353 -0.5135 -0.9223 -0.7068
  303TIP3    H2  916   6.188   0.467   1.366 -0.6853 -0.7651  1.2707
  304TIP3   OH2  917   2.304   2.301   3.385  0.3007 -0.4530 -0.5836
  304TIP3    H1  918   2.399   2.299   3.393  0.3078 -1.7208 -0.7483
  304TIP3    H2  919   2.273   2.333   3.469  0.8408 -1.1512 -0.1102
  305TIP3   OH2  920   2.185   1.805   1.322  0.2956  0.4478 -0.5677
  305TIP3    H1  921   2.154   1.753   1.396 -0.2678 -0.9001 -1.7342
  305TIP3    H2  922   2.232   1.878   1.363  0.7962 -0.7678  1.1041
  306TIP3   OH2  923   1.610   1.890   2.272  0.1460  0.0449  0.1934
  306TIP3    H1  924   1.686   1.918   2.324  0.1061  1.2901 -0.4075
  306TIP3    H2  925   1.647   1.861   2.189  0.2641 -2.4797  1.0816
  307TIP3   OH2  926   4.045   4.263   4.100  0.0139  0.1313 -0.5700
  307TIP3    H1  927   3.989   4.234   4.172  0.9000 -1.7616 -0.6010
  307TIP3    H2  928   3.987   4.268   4.024 -0.7960  1.5406  0.1231
  308TIP3   OH2  929   1.243   0.850   0.696 -0.0565  0.2244  0.2919
  308TIP3    H1  930   1.283   0.884   0.776 -0.0074 -0.7734  0.6854
  308TIP3    H2  931   1.150   0.841   0.718 -0.4082  1.8435 -0.3958
  309TIP3   OH2  932   3.890   2.968   5.099 -0.1111 -0.2388 -0.0478
  309TIP3    H1  933   3.909   2.900   5.035 -0.1393 -1.6265  1.4040
  309TIP3    H2  934   3.961   3.031   5.089  0.0504 -0.5864 -1.2130
  310TIP3   OH2  935   1.205   2.623   0.404  0.5423  0.3580  0.1212
  310TIP3    H1  936   1.205   2.708   0.447 -0.4371  1.1636 -1.4301
  310TIP3    H2  937   1.119   2.586   0.425  0.8243 -0.0900  0.4891
  311TIP3   OH2  938   1.263   2.102   0.372 -0.0009  0.2495 -0.1634
  311TIP3    H1  939   1.350   2.082   0.405 -0.0774 -0.5172 -0.4182
  311TIP3    H2  940   1.271   2.098   0.277 -0.6172 -1.1751 -0.1710
  312TIP3   OH2  941   1.261   1.290   1.850  0.5003  0.5255 -0.1244
  312TIP3    H1  942   1.263   1.198   1.878  2.7390  0.5111 -0.2644
  312TIP3    H2  943   1.172   1.319   1.871  0.5279 -0.9507  2.2204
  313TIP3   OH2  944   1.441   2.971   1.097 -1.2416 -0.3619  0.7479
  313TIP3    H1  945   1.378   2.901   1.081  1.3726 -2.7713  0.6455
  313TIP3    H2  946   1.473   2.995   1.010  1.7520 -2.7901  1.1226
  314TIP3   OH2  947   4.426   0.286   5.133 -0.1354  0.4350 -0.1159
  314TIP3    H1  948   4.464   0.336   5.205 -1.2545  2.1277 -0.6513
  314TIP3    H2  949   4.338   0.264   5.163 -1.1123  2.3547 -1.4589
  315TIP3   OH2  950   2.360   3.037   1.602  0.3478 -0.0231  0.4534
  315TIP3    H1  951   2.445   3.060   1.638  1.1805  0.5498 -1.7888
  315TIP3    H2  952   2.326   3.119   1.565 -0.6230 -0.5042  0.2624
  316TIP3   OH2  953   1.020   2.059  -0.003 -0.2466  0.4509  0.7681
  316TIP3    H1  954   0.948   2.087  -0.059 -0.0022  1.1489  0.7955
  316TIP3    H2  955   0.979   2.002   0.063 -0.6861  0.4261  0.4739
  317TIP3   OH2  956   2.302   2.810   1.453 -0.0783  0.5001 -0.3620
  317TIP3    H1  957   2.314   2.893   1.499 -0.8283 -0.0418  0.8619
  317TIP3    H2  958   2.323   2.744   1.520 -0.0887 -0.2955 -1.1433
  318TIP3   OH2  959   5.337   1.750   1.329 -0.7393  0.4947  0.8510
  318TIP3    H1  960   5.250   1.743   1.288 -0.1627 -0.2774 -0.2853
  318TIP3    H2  961   5.378   1.666   1.310  0.0574  0.6605  1.8522
  319TIP3   OH2  962   1.019   2.982   1.866 -0.2034 -0.3979  0.3034
  319TIP3    H1  963   1.088   2.921   1.840 -0.6692 -0.7101 -0.2086
  319TIP3    H2  964   1.018   3.048   1.796 -0.6402 -0.5727  0.1450
  320TIP3   OH2  965   5.617   1.397   4.439  0.0010 -0.1071 -0.3716
  320TIP3    H1  966   5.684   1.334   4.465 -0.4905  0.0734  1.3628
  320TIP3    H2  967   5.552   1.393   4.509  0.0817  2.5001 -0.1069
  321TIP3   OH2  968   1.577   4.824   2.603 -0.0044 -0.4171 -0.1279
  321TIP3    H1  969   1.592   4.919   2.605 -3.5924  0.2132  0.2872
  321TIP3    H2  970   1.604   4.793   2.689  0.0159  0.4118  0.1668
  322TIP3   OH2  971   3.277   0.502   0.118 -0.1422  0.3857  0.5682
  322TIP3    H1  972   3.279   0.417   0.162 -2.2739 -0.1460 -0.3167
  322TIP3    H2  973   3.184   0.525   0.114  0.1652  1.3081 -1.9771
  323TIP3   OH2  974   2.104   1.347  -0.012 -0.6474 -0.0973 -0.0392
  323TIP3    H1  975   2.128   1.264  -0.053  0.8578  0.2451  0.1161
  323TIP3    H2  976   2.112   1.330   0.082  1.9491  0.8566 -0.0496
  324TIP3   OH2  977   3.124   2.628   3.136  0.2286 -0.2013  0.4231
  324TIP3    H1  978   3.117   2.588   3.050 -0.5849 -1.5293  1.0813
  324TIP3    H2  979   3.086   2.716   3.126 -1.0958 -0.8387 -0.2595
  325TIP3   OH2  980   0.911   1.409   0.545 -0.2082 -0.2033  0.6326
  325TIP3    H1  981   0.882   1.451   0.626 -0.5110 -0.7355  0.8017
  325TIP3    H2  982   1.002   1.384   0.562 -0.4344 -0.7866  0.9986
  326TIP3   OH2  983   0.488   0.815   1.891  0.0194  0.0151  0.4001
  326TIP3    H1  984   0.435   0.797   1.814  1.8585 -0.9330 -0.6954
  326TIP3    H2  985   0.457   0.900   1.923  1.7642  2.2842 -3.6381
  327TIP3   OH2  986   1.265   1.719   0.218 -0.6711 -0.3166 -0.0986
  327TIP3    H1  987   1.221   1.770   0.150  0.9018 -0.4195 -1.2120
  327TIP3    H2  988   1.350   1.760   0.227  0.4365 -2.4386 -0.6358
  328TIP3   OH2  989   1.272   3.659   1.045  0.4841  0.1000 -0.2601
  328TIP3    H1  990   1.314   3.581   1.081 -0.6709 -0.9112 -1.0342
  328TIP3    H2  991   1.194   3.672   1.099  1.9120  2.1588  1.3801
  329TIP3   OH2  992   3.979   3.483   5.132 -0.3012 -0.4225 -0.4796
  329TIP3    H1  993   4.030   3.551   5.176 -0.2006  0.8519 -2.5110
  329TIP3    H2  994   3.951   3.523   5.049 -2.0550 -2.1274 -0.7501
  330TIP3   OH2  995   1.748   0.877   1.658  0.5008 -0.1160  0.7410
  330TIP3    H1  996   1.765   0.846   1.569 -0.1224  1.8142 -0.0718
  330TIP3    H2  997   1.658   0.850   1.677 -0.1755  1.4896 -0.1113
  331TIP3   OH2  998   4.043   5.910   3.912  0.0635 -0.3982 -0.5565
  331TIP3    H1  999   3.952   5.910   3.881  0.4634  0.5869 -1.7320
  331TIP3    H2 1000   4.036   5.926   4.006 -1.0896 -2.2272 -0.3025
  332TIP3   OH2 1001   2.248   1.316   1.815 -0.0568 -0.1628  0.0833
  332TIP3    H1 1002   2.299   1.293   1.738  0.1332  1.4421 -0.2887
  332TIP3    H2 1003   2.312   1.330   1.884 -0.1942 -1.0095  0.4002
  333TIP3   OH2 1004   0.121   2.961   0.753  0.3469  0.2680 -0.2353
  333TIP3    H1 1005   0.201   2.996   0.715  0.1858  0.3373 -0.5148
  333TIP3    H2 1006   0.147   2.877   0.792  0.4334  0.0085 -0.8419
  334TIP3   OH2 1007   1.891   1.049   0.176  0.4949  0.0809 -0.2754
  334TIP3    H1 1008   1.933   1.096   0.104  0.7512  0.2374 -0.0254
  334TIP3    H2 1009   1.883   1.114   0.246 -0.7224  0.2176 -0.5311
  335TIP3   OH2 1010   1.705   1.464   1.566 -0.2741 -0.0798  0.0406
  335TIP3    H1 1011   1.748   1.463   1.651 -1.5466 -0.6155  0.6907
  335TIP3    H2 1012   1.663   1.550   1.560  1.3863  0.6979 -0.8710
  336TIP3   OH2 1013   5.244   3.862   4.807 -0.0474 -0.0561  0.2546
  336TIP3    H1 1014   5.275   3.772   4.816 -1.3870 -0.5062  0.4942
  336TIP3    H2 1015   5.322   3.916   4.820  1.0590 -1.2114 -1.2952
  337TIP3   OH2 1016   1.893   1.804   0.250  0.1254  0.3067  0.5051
  337TIP3    H1 1017   1.863   1.770   0.166 -0.6300  1.6777  0.1994
  337TIP3    H2 1018   1.879   1.733   0.312 -1.2207 -0.0013 -0.1484
  338TIP3   OH2 1019   0.579   4.506   3.922  0.1721  0.1493 -0.3265
  338TIP3    H1 1020   0.653   4.469   3.875  0.4810  1.0998 -0.5990
  338TIP3    H2 1021   0.612   4.522   4.011 -0.1015 -0.6621 -0.0742
  339TIP3   OH2 1022   1.615   1.288   1.403 -0.6053  0.0070  0.1216
  339TIP3    H1 1023   1.684   1.223   1.416  1.8539  2.2958 -0.9764
  339TIP3    H2 1024   1.638   1.358   1.464 -1.7239  0.9856 -0.5760
  340TIP3   OH2 1025   1.838   2.011   2.415  0.1091 -0.3323 -0.1619
  340TIP3    H1 1026   1.781   2.088   2.411 -0.0779 -0.5307 -1.8755
  340TIP3    H2 1027   1.926   2.047   2.424  0.0160  0.0838 -0.8933
  341TIP3   OH2 1028   0.576   5.709   3.766 -0.3783  0.2914 -0.0823
  341TIP3    H1 1029   0.663   5.727   3.729  0.5223 -0.4442  1.5975
  341TIP3    H2 1030   0.595   5.659   3.846 -2.2357  2.3747  1.7130
  342TIP3   OH2 1031   2.886   1.000   1.378  0.0400 -0.0438 -0.0941
  342TIP3    H1 1032   2.967   1.051   1.371  0.7092 -1.2755 -1.4841
  342TIP3    H2 1033   2.836   1.044   1.447  2.1805  0.3447  1.2542
  343TIP3   OH2 1034   2.920   1.839   1.333  0.3055  0.0300  0.5540
  343TIP3    H1 1035   2.920   1.934   1.341  0.7662 -0.0094  1.0845
  343TIP3    H2 1036   2.860   1.809   1.401 -0.1240 -0.0428  0.1453
  344TIP3   OH2 1037   1.383   2.664   1.038  0.3414  0.1847 -0.3083
  344TIP3    H1 1038   1.307   2.684   0.984 -0.2084  0.7545  0.6525
  344TIP3    H2 1039   1.457   2.667   0.979 -0.6292 -2.7298 -1.7811
  345TIP3   OH2 1040   3.283   0.114   2.745  0.7874  0.0909  0.3342
  345TIP3    H1 1041   3.343   0.046   2.773 -1.3503 -0.7109  3.1654
  345TIP3    H2 1042   3.226   0.070   2.681  0.9055 -0.1459  0.3909
  346TIP3   OH2 1043   6.194   5.637   0.142 -0.0381  0.1534  0.3431
  346TIP3    H1 1044   6.219   5.545   0.147  1.6574  0.6055  0.2751
  346TIP3    H2 1045   6.189   5.666   0.233 -0.2127  0.1049  0.3505
  347TIP3   OH2 1046   2.327   0.696   0.695 -0.1653 -0.7892 -0.8579
  347TIP3    H1 1047   2.247   0.657   0.661  0.4974 -1.5097 -1.6272
  347TIP3    H2 1048   2.319   0.689   0.790 -2.1261  1.4321 -0.8311
  348TIP3   OH2 1049   1.930   1.379   1.113 -0.2227  0.2558  0.0746
  348TIP3    H1 1050   1.838   1.369   1.138 -0.2061  0.0555  0.0557
  348TIP3    H2 1051   1.929   1.382   1.018 -0.0894 -0.9606  0.0343
  349TIP3   OH2 1052   5.065   2.423   2.819 -0.0964  0.0486  0.0020
  349TIP3    H1 1053   5.152   2.454   2.794  1.1351 -1.4435  2.2104
  349TIP3    H2 1054   5.030   2.492   2.875 -0.3387  0.6556 -0.8981
  350TIP3   OH2 1055   2.507   1.854   1.011  0.1967 -0.0313 -0.3099
  350TIP3    H1 1056   2.506   1.906   0.931 -0.2926 -0.2395 -0.4394
  350TIP3    H2 1057   2.533   1.916   1.079 -0.6746  0.4591 -0.4140
  351TIP3   OH2 1058   2.681   2.703   2.666 -0.1851 -0.1927 -0.0603
  351TIP3    H1 1059   2.698   2.641   2.738  0.8297  0.4746  0.2814
  351TIP3    H2 1060   2.681   2.649   2.587  0.9861 -0.5841  0.2063
  352TIP3   OH2 1061   2.780   2.059   2.225 -0.2174 -0.4396  0.1521
  352TIP3    H1 1062   2.828   1.995   2.172  1.0941  1.0366 -0.4417
  352TIP3    H2 1063   2.695   2.067   2.181 -0.4987 -1.9383  0.3726
  353TIP3   OH2 1064   0.949   2.507   0.412 -0.0908  0.1657 -0.1835
  353TIP3    H1 1065   0.931   2.555   0.331  0.4279 -2.5834 -1.9962
  353TIP3    H2 1066   0.876   2.529   0.469 -0.7236  1.7908 -1.5501
  354TIP3   OH2 1067   0.864   2.060   1.848  0.0853 -0.6924 -0.5929
  354TIP3    H1 1068   0.925   2.017   1.789  1.0026 -0.6997  0.3542
  354TIP3    H2 1069   0.919   2.113   1.905 -0.7393 -1.2353  0.7158
  355TIP3   OH2 1070   2.139   0.919   2.248  0.6398  0.6244 -0.5287
  355TIP3    H1 1071   2.092   0.996   2.216  2.2495  0.7961 -2.5961
  355TIP3    H2 1072   2.102   0.846   2.199 -0.0649  0.2275  0.5751
  356TIP3   OH2 1073   3.807   1.370   4.260  0.0820 -0.2324 -0.8409
  356TIP3    H1 1074   3.874   1.416   4.210  0.4498  0.0908 -0.0648
  356TIP3    H2 1075   3.731   1.428   4.256  0.0922 -0.2358 -1.0806
  357TIP3   OH2 1076   1.013   5.836   4.701 -0.2523  0.6040 -0.0586
  357TIP3    H1 1077   0.940   5.813   4.644  0.6066 -0.8191 -0.6011
  357TIP3    H2 1078   1.009   5.772   4.772 -0.6008  1.6321  0.8651
  358TIP3   OH2 1079   2.423   2.390   2.575  0.1761 -0.2249  0.1078
  358TIP3    H1 1080   2.421   2.429   2.662 -1.1603 -0.5583  0.2276
  358TIP3    H2 1081   2.353   2.433   2.527  0.7735 -0.1937 -0.7480
  359TIP3   OH2 1082   3.566   1.746   1.415 -0.2110  0.3962 -0.3723
  359TIP3    H1 1083   3.510   1.793   1.476  0.9935  1.6408 -0.1955
  359TIP3    H2 1084   3.513   1.736   1.336 -1.4955 -0.5166  0.5873
  360TIP3   OH2 1085   0.161   5.744   3.277  0.3557 -0.2426 -0.2871
  360TIP3    H1 1086   0.154   5.669   3.219 -0.1064  0.1164 -0.6964
  360TIP3    H2 1087   0.233   5.722   3.336  1.4722 -0.2018 -1.6077
  361TIP3   OH2 1088   3.072   3.043   1.500 -0.3555  0.8250  0.0271
  361TIP3    H1 1089   3.034   3.080   1.421 -1.9012 -2.3439 -0.7751
  361TIP3    H2 1090   3.002   3.046   1.565 -0.4125 -0.4466  0.0297
  362TIP3   OH2 1091   3.642   0.988   2.934 -0.4660  0.6724  0.2109
  362TIP3    H1 1092   3.667   0.985   3.026  0.0210  0.4132  0.0691
  362TIP3    H2 1093   3.717   1.027   2.890 -0.8347  1.1132 -0.0329
  363TIP3   OH2 1094   2.012   1.149   1.661  0.1820 -0.1212  0.2324
  363TIP3    H1 1095   1.979   1.181   1.744  2.3707  0.6590  0.8511
  363TIP3    H2 1096   2.100   1.116   1.682 -0.1650 -2.0919 -1.3170
  364TIP3   OH2 1097   1.736   0.744   2.668  0.1053  0.0381 -0.3040
  364TIP3    H1 1098   1.681   0.821   2.658  0.1601 -0.1212 -1.9041
  364TIP3    H2 1099   1.724   0.694   2.587  2.7271  0.0908 -0.7686
  365TIP3   OH2 1100   4.030   1.269   0.967  0.3425 -0.1358 -0.1229
  365TIP3    H1 1101   4.100   1.213   1.000  0.8849 -0.0221 -1.0715
  365TIP3    H2 1102   4.025   1.250   0.874  0.5426  1.3895 -0.4654
  366TIP3   OH2 1103   2.845   3.851   1.552 -0.1822 -0.4960 -0.5193
  366TIP3    H1 1104   2.938   3.831   1.552 -0.2455 -0.8360  0.8002
  366TIP3    H2 1105   2.839   3.936   1.597 -0.5018 -0.4503 -0.6460
  367TIP3   OH2 1106   0.792   2.867   2.022  0.9726 -0.2948  0.3127
  367TIP3    H1 1107   0.745   2.803   1.968  0.8605 -0.2063  0.3048
  367TIP3    H2 1108   0.859   2.903   1.964 -0.5788  1.4437 -0.4831
  368TIP3   OH2 1109   3.018   2.454   2.015 -0.7018  0.0386 -0.0769
  368TIP3    H1 1110   2.924   2.470   2.010 -0.4110  1.0456 -2.7632
  368TIP3    H2 1111   3.025   2.366   2.051 -2.7072 -0.6425 -1.2948
  369TIP3   OH2 1112   5.738   4.328   5.167  0.0518  0.4552 -0.3316
  369TIP3    H1 1113   5.755   4.325   5.261 -0.0524 -2.0222 -0.3738
  369TIP3    H2 1114   5.825   4.325   5.126  0.0327  0.1619 -0.3470
  370TIP3   OH2 1115   0.174   0.972   1.010 -0.2226 -0.6811  0.0452
  370TIP3    H1 1116   0.146   0.907   1.074  1.4032 -0.6195  0.8376
  370TIP3    H2 1117   0.243   0.929   0.961 -0.5976 -0.2822 -0.8459
  371TIP3   OH2 1118   1.289   3.851   0.329 -0.1930 -0.0187 -0.6425
  371TIP3    H1 1119   1.222   3.808   0.276  1.5551 -2.4258 -0.9835
  371TIP3    H2 1120   1.285   3.807   0.413  0.3780  0.4167 -0.3857
  372TIP3   OH2 1121   1.675   2.231   2.355 -0.0284 -0.3109 -0.7204
  372TIP3    H1 1122   1.603   2.252   2.295 -0.3121 -0.0780 -0.3058
  372TIP3    H2 1123   1.713   2.315   2.378 -0.4998 -0.3223  0.1303
  373TIP3   OH2 1124   4.727   4.045   4.810  0.0902  0.4246 -0.0057
  373TIP3    H1 1125   4.817   4.043   4.843  0.2472  1.1232 -0.3850
  373TIP3    H2 1126   4.680   4.101   4.872 -0.3923 -0.9795  0.9313
  374TIP3   OH2 1127   1.295   3.859   1.745 -0.3518  0.0268 -0.4926
  374TIP3    H1 1128   1.300   3.912   1.825 -1.5690 -0.4181 -0.0994
  374TIP3    H2 1129   1.346   3.780   1.765 -1.9244 -0.7838  0.4340
  375TIP3   OH2 1130   3.914   3.722   1.807 -0.2078 -0.0223  0.2411
  375TIP3    H1 1131   3.961   3.794   1.849  0.3280 -0.2835  0.0879
  375TIP3    H2 1132   3.982   3.664   1.775 -0.6099  0.2320 -1.1191
  376TIP3   OH2 1133   3.967   1.670   0.482  0.1015  0.2315 -0.0481
  376TIP3    H1 1134   3.929   1.618   0.411  0.5199 -0.4463  0.2216
  376TIP3    H2 1135   4.034   1.613   0.520 -0.2104  0.5442  0.9797
  377TIP3   OH2 1136   0.826   0.890   1.530 -0.1985 -0.3879  0.7415
  377TIP3    H1 1137   0.796   0.887   1.621 -0.7024 -1.0739  0.5610
  377TIP3    H2 1138   0.777   0.820   1.487 -0.1231  0.0805 -0.1070
  378TIP3   OH2 1139   1.271   2.868   0.137  0.2875  0.3679 -0.0304
  378TIP3    H1 1140   1.233   2.938   0.190  2.5235  2.4186 -1.0711
  378TIP3    H2 1141   1.365   2.872   0.155  0.5400 -1.9479 -0.6200
  379TIP3   OH2 1142   2.818   1.347   2.068 -0.1714  0.5538 -0.4103
  379TIP3    H1 1143   2.758   1.403   2.117  0.1304  0.1414  0.4492
  379TIP3    H2 1144   2.874   1.308   2.135 -1.4647 -2.1028 -0.8127
  380TIP3   OH2 1145   1.247   0.895   1.159  0.5244 -0.0255  0.1554
  380TIP3    H1 1146   1.155   0.915   1.176  0.9551  1.9701  0.2698
  380TIP3    H2 1147   1.291   0.911   1.243  0.8977 -1.4306  0.2271
  381TIP3   OH2 1148   4.210   3.934   4.676  0.2919  0.2981  0.3787
  381TIP3    H1 1149   4.117   3.951   4.694  0.1963  1.5151 -1.1547
  381TIP3    H2 1150   4.256   3.972   4.751 -0.3889  0.7119  0.5935
  382TIP3   OH2 1151   3.990   2.208   3.637  0.0227  0.1450 -0.2977
  382TIP3    H1 1152   4.061   2.147   3.659 -0.2065 -1.0900 -2.7192
  382TIP3    H2 1153   3.914   2.152   3.622 -0.6896  1.1942 -0.6599
  383TIP3   OH2 1154   0.368   1.929   1.876  0.1362  0.5557  0.0673
  383TIP3    H1 1155   0.286   1.888   1.851 -1.1028  2.8987  0.1193
  383TIP3    H2 1156   0.415   1.862   1.926 -2.7151 -0.1073  1.9544
  384TIP3   OH2 1157   1.062   1.243   0.221 -0.5098 -0.2125  0.5459
  384TIP3    H1 1158   0.999   1.282   0.161  1.0891 -1.0548 -1.7715
  384TIP3    H2 1159   1.130   1.310   0.231 -0.1001 -0.5889  0.3100
  385TIP3   OH2 1160   1.917   1.747   2.478  0.3544 -0.3823  0.1978
  385TIP3    H1 1161   1.991   1.759   2.537 -1.7579 -2.1820  3.3149
  385TIP3    H2 1162   1.855   1.816   2.503  0.9433  1.2239 -2.5053
  386TIP3   OH2 1163   3.474   3.210   5.328 -0.4826  0.0714  0.3222
  386TIP3    H1 1164   3.420   3.267   5.274  1.1116  0.4615 -0.8793
  386TIP3    H2 1165   3.544   3.179   5.269  0.6350 -0.3887  1.8509
  387TIP3   OH2 1166   0.386   2.291   0.990 -0.1238 -0.0065 -0.3586
  387TIP3    H1 1167   0.417   2.287   1.081  0.8065  0.8603 -0.6270
  387TIP3    H2 1168   0.405   2.204   0.955 -0.1570 -0.2326  0.1720
  388TIP3   OH2 1169   0.317   5.876   4.629  0.5576  0.5755  0.1670
  388TIP3    H1 1170   0.305   5.946   4.692 -1.8058 -0.5401  1.0004
  388TIP3    H2 1171   0.269   5.802   4.665 -1.0732 -0.0319 -3.0480
  389TIP3   OH2 1172   2.723   0.076   0.003  0.7538  0.4867  0.5288
  389TIP3    H1 1173   2.704   0.026   0.082  2.1346 -0.1168  0.4929
  389TIP3    H2 1174   2.687   0.023  -0.068 -0.9374  1.2718  0.7759
  390TIP3   OH2 1175   2.210   3.544   0.947 -0.1143 -0.5831 -0.4894
  390TIP3    H1 1176   2.174   3.588   0.869 -0.2951 -0.3947 -0.2989
  390TIP3    H2 1177   2.134   3.517   0.997  0.0076 -0.4015 -0.2070
  391TIP3   OH2 1178   3.022   5.342   2.324 -0.3467  0.4719  0.1951
  391TIP3    H1 1179   2.948   5.372   2.377 -1.1742  0.2057 -0.7950
  391TIP3    H2 1180   3.045   5.257   2.361 -2.7849 -1.0562 -1.6466
  392TIP3   OH2 1181   1.004   3.706   3.156  0.0775  0.2797 -0.1844
  392TIP3    H1 1182   0.960   3.649   3.094 -0.8065  0.3660  0.3529
  392TIP3    H2 1183   0.951   3.786   3.158 -0.2567  0.0514  1.1108
  393TIP3   OH2 1184   2.159   3.579   1.570  0.6469 -0.7267 -0.1134
  393TIP3    H1 1185   2.193   3.529   1.645  0.5531 -1.2821 -0.4399
  393TIP3    H2 1186   2.074   3.610   1.600  0.6394 -0.8889  0.0364
  394TIP3   OH2 1187   4.026   5.483   4.829 -0.4265  0.0458 -0.1259
  394TIP3    H1 1188   3.950   5.448   4.876  0.7802  0.3780  2.1373
  394TIP3    H2 1189   4.100   5.433   4.863  0.5631  0.7274 -1.2367
  395TIP3   OH2 1190   0.946   0.873   0.067  0.2932 -0.7445 -0.2160
  395TIP3    H1 1191   0.976   0.801   0.010 -0.6186 -0.3564 -1.1953
  395TIP3    H2 1192   0.868   0.839   0.109  0.7093 -0.8627  0.4657
  396TIP3   OH2 1193   4.900   1.662   1.177  0.1271  0.3299 -0.5421
  396TIP3    H1 1194   4.831   1.719   1.145  0.1992  0.9247  0.3395
  396TIP3    H2 1195   4.973   1.721   1.196  0.7963 -0.2632 -1.2389
  397TIP3   OH2 1196   4.611   3.596   4.683  0.0134 -0.1571  0.0855
  397TIP3    H1 1197   4.635   3.507   4.708  0.2328  0.1482  0.9545
  397TIP3    H2 1198   4.562   3.630   4.758 -2.3140 -0.4355 -1.2625
  398TIP3   OH2 1199   3.658   3.095   5.159 -0.4945  0.0235 -0.1137
  398TIP3    H1 1200   3.643   3.152   5.084  0.6662  1.4299  0.7054
  398TIP3    H2 1201   3.745   3.060   5.146  0.2590  1.3379  1.2359
  399TIP3   OH2 1202   3.008   0.105   2.264  0.4397 -0.5286  0.0679
  399TIP3    H1 1203   3.081   0.090   2.203 -0.3253  1.1128 -1.2939
  399TIP3    H2 1204   2.982   0.017   2.292  0.6880 -1.3654 -2.1712
  400TIP3   OH2 1205   0.994   1.660   1.259 -0.4029  0.4001 -0.5541
  400TIP3    H1 1206   0.963   1.710   1.335  0.6662  1.3066 -0.7055
  400TIP3    H2 1207   0.915   1.618   1.224 -1.2701  1.7645 -0.2550
  401TIP3   OH2 1208   0.475   3.035   2.244 -0.0200  0.3587 -0.3002
  401TIP3    H1 1209   0.569   3.019   2.255  0.1770  2.0749  0.6945
  401TIP3    H2 1210   0.444   3.058   2.331 -1.7235 -1.8275 -0.2964
  402TIP3   OH2 1211   0.909   2.031   0.872  0.4105  0.9362 -0.3772
  402TIP3    H1 1212   0.968   1.973   0.824 -1.1686 -0.3396 -0.8155
  402TIP3    H2 1213   0.933   2.019   0.964  1.8438  1.6013 -0.6428
  403TIP3   OH2 1214   0.982   2.372   1.844 -0.2317 -0.1400  0.2958
  403TIP3    H1 1215   1.030   2.384   1.762 -0.9727  3.0882  0.2590
  403TIP3    H2 1216   1.047   2.384   1.913  0.1246 -1.5337  0.2164
  404TIP3   OH2 1217   0.603   1.298   3.380 -0.8732  0.0201 -0.5656
  404TIP3    H1 1218   0.576   1.307   3.472 -0.5798 -0.8968 -0.3876
  404TIP3    H2 1219   0.596   1.387   3.345 -0.7439  0.4290  0.4108
  405TIP3   OH2 1220   2.164   5.502   2.529 -0.2815  0.1508  0.5433
  405TIP3    H1 1221   2.104   5.571   2.502  0.4356  0.3473 -0.5560
  405TIP3    H2 1222   2.161   5.438   2.458  2.2731  1.0839 -0.4441
  406TIP3   OH2 1223   2.683   0.971   3.465 -0.1352 -0.4677 -0.2708
  406TIP3    H1 1224   2.703   0.914   3.391 -0.2764  2.6525 -2.7932
  406TIP3    H2 1225   2.717   1.057   3.440  0.2705  0.5775  3.5195
  407TIP3   OH2 1226   2.395   1.429   0.149 -0.5393 -0.0552  0.5930
  407TIP3    H1 1227   2.365   1.339   0.137 -0.8010 -0.1382  1.7936
  407TIP3    H2 1228   2.490   1.422   0.148 -0.5582 -0.3653  0.8101
  408TIP3   OH2 1229   6.121   5.576   1.446 -0.0779  0.1528  0.2232
  408TIP3    H1 1230   6.186   5.636   1.410 -1.0418  1.5744  0.8345
  408TIP3    H2 1231   6.173   5.509   1.491  0.9818  0.9880  0.2728
  409TIP3   OH2 1232   6.472   5.441   1.384  0.2351 -0.1817  0.0675
  409TIP3    H1 1233   6.396   5.385   1.363 -0.0820 -0.2189  1.2655
  409TIP3    H2 1234   6.439   5.530   1.375 -0.2803 -0.2028  1.7440
  410TIP3   OH2 1235   1.472   0.794   1.676  0.3574  0.0988 -0.0888
  410TIP3    H1 1236   1.495   0.717   1.624 -2.5227 -0.3223 -0.8631
  410TIP3    H2 1237   1.402   0.764   1.734 -0.0844  1.8622  0.3323
  411TIP3   OH2 1238   2.798   0.082   0.476 -0.1876 -0.1547  0.0282
  411TIP3    H1 1239   2.720   0.070   0.423 -1.2605 -0.5224  1.6618
  411TIP3    H2 1240   2.853   0.007   0.455  0.0453  0.4620 -1.6327
  412TIP3   OH2 1241   3.010   3.144   0.518  0.2697 -0.0769 -0.2767
  412TIP3    H1 1242   3.104   3.125   0.513  0.4103  0.8292 -1.2523
  412TIP3    H2 1243   2.973   3.095   0.445 -0.2972 -1.9738  1.2419
  413TIP3   OH2 1244   0.721   1.382   1.807 -0.0174  0.0916  0.4922
  413TIP3    H1 1245   0.683   1.414   1.725 -3.1732 -2.1667  0.9795
  413TIP3    H2 1246   0.661   1.413   1.875  2.2625  1.4469  1.9543
  414TIP3   OH2 1247   4.053   1.295   2.400  0.0825 -0.5400  0.3413
  414TIP3    H1 1248   4.072   1.267   2.490  0.5408 -0.5070  0.2564
  414TIP3    H2 1249   3.957   1.302   2.396  0.0972  0.0074  0.9839
  415TIP3   OH2 1250   1.324   1.783   1.562 -0.1795 -0.1903 -0.0636
  415TIP3    H1 1251   1.290   1.728   1.633  0.3308 -1.0509 -0.4826
  415TIP3    H2 1252   1.363   1.722   1.500  0.9599  0.6893 -0.2367
  416TIP3   OH2 1253   3.871   0.053   4.976  0.0519 -0.2323  0.4132
  416TIP3    H1 1254   3.821   0.075   5.054 -1.1817 -0.8318 -0.1973
  416TIP3    H2 1255   3.808   0.010   4.918  1.1168 -0.4218 -0.6272
  417TIP3   OH2 1256   6.203   0.383   2.952  0.0541  0.4359  0.6038
  417TIP3    H1 1257   6.110   0.406   2.956  0.2775  1.1387  1.8567
  417TIP3    H2 1258   6.245   0.465   2.924  0.3343  0.1909  0.3087
  418TIP3   OH2 1259   0.801   0.915   2.119 -0.3479  0.6733 -0.4056
  418TIP3    H1 1260   0.889   0.944   2.092  0.3314 -1.4249 -0.5621
  418TIP3    H2 1261   0.815   0.868   2.201 -1.4819  1.1502  0.0771
  419TIP3   OH2 1262   1.441   3.142   2.253  0.3119  0.6312  0.2440
  419TIP3    H1 1263   1.419   3.081   2.183 -0.1077  0.8011  0.2240
  419TIP3    H2 1264   1.536   3.139   2.259  0.3821  0.9151 -0.6084
  420TIP3   OH2 1265   2.047   2.112   1.816 -0.0468 -0.2286  0.1799
  420TIP3    H1 1266   2.129   2.093   1.770 -0.5124  0.5845 -0.9971
  420TIP3    H2 1267   2.074   2.138   1.904  0.9714  0.3295 -0.2941
  421TIP3   OH2 1268   1.947   0.351   2.633  0.0676  0.3831 -0.1193
  421TIP3    H1 1269   1.927   0.313   2.547 -0.3167  0.1934  0.0488
  421TIP3    H2 1270   2.009   0.421   2.615 -0.7184  0.9547 -0.6610
  422TIP3   OH2 1271   1.528   1.734   0.270  0.4142 -0.0182 -0.2947
  422TIP3    H1 1272   1.575   1.703   0.347 -0.7271 -1.4097 -0.1449
  422TIP3    H2 1273   1.572   1.690   0.197 -0.7440 -1.4660 -0.1399
  423TIP3   OH2 1274   3.302   1.507   3.199  0.0911 -0.5402  0.1691
  423TIP3    H1 1275   3.395   1.527   3.206  0.3021 -1.7876  1.2506
  423TIP3    H2 1276   3.274   1.550   3.119  1.8455 -1.0539 -0.7446
  424TIP3   OH2 1277   1.620   1.195   0.815 -0.2553  0.4032  0.1584
  424TIP3    H1 1278   1.533   1.230   0.800 -0.3393 -0.0714 -0.4998
  424TIP3    H2 1279   1.619   1.163   0.905 -0.5592  0.9766  0.3534
  425TIP3   OH2 1280   2.393   1.771   2.264  0.8300 -0.0609  0.2961
  425TIP3    H1 1281   2.399   1.686   2.220 -0.3247  0.2909 -0.5579
  425TIP3    H2 1282   2.299   1.790   2.267  1.1695  1.8568 -0.8268
  426TIP3   OH2 1283   5.011   0.693   0.582  0.3840  0.4304  0.8966
  426TIP3    H1 1284   5.012   0.783   0.550 -0.0848  0.6804  1.5779
  426TIP3    H2 1285   5.103   0.666   0.581  0.4793  0.7604  0.2823
  427TIP3   OH2 1286   4.961   1.872   4.991  0.2495 -0.3745  0.1357
  427TIP3    H1 1287   4.927   1.801   5.045  0.6969 -0.5047  0.2506
  427TIP3    H2 1288   5.042   1.837   4.954  0.0579 -0.2087 -0.4461
  428TIP3   OH2 1289   2.625   1.278   1.865  0.2661 -0.3236  0.1671
  428TIP3    H1 1290   2.561   1.327   1.918  0.2258  0.4363 -0.5663
  428TIP3    H2 1291   2.709   1.298   1.905  0.2298  0.2123 -0.0170
  429TIP3   OH2 1292   1.999   0.216   2.877  0.1274 -0.0823 -0.2288
  429TIP3    H1 1293   1.973   0.253   2.792 -0.5664 -0.6802 -0.2818
  429TIP3    H2 1294   1.967   0.280   2.941  0.1029  0.0636 -0.3845
  430TIP3   OH2 1295   2.131   2.021   3.363  0.3363 -0.0589  0.0394
  430TIP3    H1 1296   2.176   2.103   3.343  1.3375 -0.3629  0.9313
  430TIP3    H2 1297   2.068   2.010   3.292  0.5080  1.2413 -0.3420
  431TIP3   OH2 1298   0.956   2.481   1.009  0.3064 -0.2305  0.3007
  431TIP3    H1 1299   1.037   2.432   1.022  0.4416 -0.1356 -0.1832
  431TIP3    H2 1300   0.891   2.436   1.064  0.5830 -0.5650  0.3516
  432TIP3   OH2 1301   5.591   0.688   1.162 -0.0362 -0.0089 -0.6303
  432TIP3    H1 1302   5.508   0.654   1.130 -0.0432 -1.1532  0.6010
  432TIP3    H2 1303   5.575   0.711   1.253  0.1699  2.6502 -1.2110
  433TIP3   OH2 1304   3.950   2.152   1.734  0.2457  0.2832  0.0222
  433TIP3    H1 1305   3.938   2.132   1.641 -0.9797  0.0874  0.2069
  433TIP3    H2 1306   3.919   2.074   1.779 -0.3027  0.8466  0.6323
  434TIP3   OH2 1307   2.474   0.075   1.783  0.0416  0.2083 -0.4992
  434TIP3    H1 1308   2.544   0.058   1.720 -0.4694  0.4271 -1.1338
  434TIP3    H2 1309   2.394   0.069   1.731 -0.4721 -0.9786  0.4044
  435TIP3   OH2 1310   0.539   5.428   2.314 -0.3638  0.5279  0.2569
  435TIP3    H1 1311   0.603   5.387   2.256 -2.4028 -0.4349 -1.3805
  435TIP3    H2 1312   0.518   5.511   2.272  0.0446  1.0041  0.9777
  436TIP3   OH2 1313   4.764   1.019   0.898  0.0230  0.2587  0.2691
  436TIP3    H1 1314   4.823   0.946   0.879 -0.9336 -0.2149 -0.9389
  436TIP3    H2 1315   4.784   1.084   0.830 -0.5960  0.2318  0.0535
  437TIP3   OH2 1316   3.092   0.466   0.510  0.0872  0.1805 -0.2653
  437TIP3    H1 1317   3.033   0.523   0.461  0.6799  1.4711  0.5028
  437TIP3    H2 1318   3.140   0.417   0.443 -1.3429 -0.3573 -0.8999
  438TIP3   OH2 1319   2.681   0.762   1.924 -0.5195  0.2179 -0.2717
  438TIP3    H1 1320   2.669   0.791   2.014  1.6956 -0.8179  0.3849
  438TIP3    H2 1321   2.620   0.688   1.914  0.9362 -1.1930  1.1359
  439TIP3   OH2 1322   4.457   3.679   2.516 -0.6912  0.0447  0.4738
  439TIP3    H1 1323   4.475   3.686   2.610  0.7589 -0.6565  0.2753
  439TIP3    H2 1324   4.448   3.585   2.501  1.9051 -0.0925 -0.5390
  440TIP3   OH2 1325   1.080   4.202   1.769  0.3006  0.0522  0.8511
  440TIP3    H1 1326   1.160   4.233   1.726  0.7588  0.0244  1.6901
  440TIP3    H2 1327   1.070   4.258   1.846  0.1279 -0.6772  1.3643
  441TIP3   OH2 1328   2.388   6.049   2.290  0.3958  0.5017 -0.5769
  441TIP3    H1 1329   2.449   5.977   2.305 -0.9850 -0.5316  0.1800
  441TIP3    H2 1330   2.382   6.057   2.195  1.0871  0.0716 -0.6561
  442TIP3   OH2 1331   3.068   0.129   1.707  0.7408 -0.2812  0.1710
  442TIP3    H1 1332   3.047   0.059   1.645  2.9463  0.0215 -0.9756
  442TIP3    H2 1333   3.092   0.204   1.651 -0.6720  1.1005  1.3770
  443TIP3   OH2 1334   6.324   2.570   3.346  0.4155  0.0884  0.0420
  443TIP3    H1 1335   6.233   2.547   3.329  0.6736 -1.7181  1.0183
  443TIP3    H2 1336   6.344   2.638   3.282 -0.4310 -2.3080 -2.8465
  444TIP3   OH2 1337   1.729   1.284   2.178 -0.4671 -0.0526  0.4990
  444TIP3    H1 1338   1.679   1.286   2.097  0.8994 -0.8105 -0.3894
  444TIP3    H2 1339   1.745   1.376   2.200 -0.5380  0.1453 -0.2854
  445TIP3   OH2 1340   1.455   3.146   3.611 -0.5477 -0.6801  0.3160
  445TIP3    H1 1341   1.381   3.130   3.669 -0.3510  0.0037  0.7597
  445TIP3    H2 1342   1.514   3.202   3.661 -0.9711  0.9990 -0.9932
  446TIP3   OH2 1343   1.986   2.995   2.726 -0.4281 -0.0371  0.1151
  446TIP3    H1 1344   1.975   3.005   2.820 -0.8603  1.4661 -0.0870
  446TIP3    H2 1345   2.064   3.048   2.705  0.0506 -0.8809 -0.2800
  447TIP3   OH2 1346   4.337   3.884   5.014  0.6006  0.3242  0.0589
  447TIP3    H1 1347   4.362   3.899   5.106  0.1141 -2.4431  0.6834
  447TIP3    H2 1348   4.401   3.821   4.982 -0.1922  0.0611 -1.0210
  448TIP3   OH2 1349   1.258   3.340   2.725  0.0933  0.1484  0.0570
  448TIP3    H1 1350   1.183   3.294   2.762  0.9995 -0.4515  1.1960
  448TIP3    H2 1351   1.235   3.355   2.633 -2.0235  1.2899  0.7651
  449TIP3   OH2 1352   1.371   2.667   1.324 -0.3641 -0.1347 -0.3206
  449TIP3    H1 1353   1.409   2.747   1.361  1.3723 -0.4922 -1.2760
  449TIP3    H2 1354   1.378   2.678   1.229 -0.5303 -1.2327 -0.4703
  450TIP3   OH2 1355   0.645   0.703   1.437 -0.1032 -0.0511  0.3921
  450TIP3    H1 1356   0.562   0.661   1.416  0.3650 -1.2016  0.8064
  450TIP3    H2 1357   0.710   0.658   1.383  0.3412  0.4564  0.4935
  451TIP3   OH2 1358   1.918   2.202   2.697 -0.0429  0.2936  0.3560
  451TIP3    H1 1359   1.963   2.156   2.626 -2.0172 -1.0150 -0.0964
  451TIP3    H2 1360   1.892   2.285   2.658 -0.8876 -0.3088 -0.3876
  452TIP3   OH2 1361   2.518   3.485   1.364  0.2570  0.4047 -0.4005
  452TIP3    H1 1362   2.454   3.507   1.297 -1.2038 -2.2579  0.0498
  452TIP3    H2 1363   2.514   3.558   1.426 -1.8956  0.5765 -0.7016
  453TIP3   OH2 1364   3.218   2.653   2.733 -0.6882 -0.6959 -0.5361
  453TIP3    H1 1365   3.202   2.584   2.798 -0.5694 -0.7313 -0.5442
  453TIP3    H2 1366   3.314   2.654   2.722 -0.4682  1.1121  1.2536
  454TIP3   OH2 1367   1.061   3.279   2.243 -0.1850  0.2218 -0.3973
  454TIP3    H1 1368   1.144   3.248   2.280 -1.7304 -2.4638  0.9274
  454TIP3    H2 1369   1.025   3.204   2.196 -1.4677  1.6328 -1.7290
  455TIP3   OH2 1370   2.108   1.434   2.018 -0.1418 -0.2372  0.3526
  455TIP3    H1 1371   2.098   1.518   1.975  1.4599  0.3964  1.1770
  455TIP3    H2 1372   2.134   1.374   1.947  1.3466  0.5459  0.2126
  456TIP3   OH2 1373   4.340   0.654   1.105  0.5219 -0.9548  0.0415
  456TIP3    H1 1374   4.392   0.610   1.173  1.1326 -0.1881  0.0781
  456TIP3    H2 1375   4.359   0.747   1.117  0.5387 -0.8040 -1.0997
  457TIP3   OH2 1376   2.532   0.142   1.176 -0.0508  0.2270  0.3421
  457TIP3    H1 1377   2.437   0.147   1.166 -0.0095  1.0372  0.3118
  457TIP3    H2 1378   2.560   0.077   1.112 -0.5080  0.5178 -0.1532
  458TIP3   OH2 1379   0.389   1.328   4.340  0.2364 -0.8210  0.4981
  458TIP3    H1 1380   0.298   1.303   4.324 -0.8760  2.1769  1.9530
  458TIP3    H2 1381   0.434   1.302   4.260 -1.6245 -3.4955  0.2436
  459TIP3   OH2 1382   2.997   0.435   2.095 -0.0276 -0.3513 -0.0503
  459TIP3    H1 1383   2.999   0.525   2.127  1.0389 -0.0056 -1.0303
  459TIP3    H2 1384   2.977   0.443   2.001 -1.6674 -1.2518  0.1945
  460TIP3   OH2 1385   4.513   4.131   3.595 -0.3125 -0.3755  0.2535
  460TIP3    H1 1386   4.418   4.140   3.603 -0.3606 -0.7654  0.1344
  460TIP3    H2 1387   4.541   4.093   3.679 -0.1024  0.9135  0.7752
  461TIP3   OH2 1388   3.701   5.637   4.976  0.2147 -0.4414 -0.1760
  461TIP3    H1 1389   3.728   5.573   5.042 -0.1870 -0.1361  0.2833
  461TIP3    H2 1390   3.628   5.595   4.930 -0.0113 -0.3436  0.0874
  462TIP3   OH2 1391   1.283   2.352   0.496 -0.0699 -0.0330  0.1866
  462TIP3    H1 1392   1.276   2.267   0.454  0.1109 -0.2912  0.6794
  462TIP3    H2 1393   1.239   2.412   0.435  0.1144 -0.4132 -0.3291
  463TIP3   OH2 1394   1.173   0.102   4.004 -0.3505 -0.7004  0.0571
  463TIP3    H1 1395   1.149   0.162   3.933 -1.6387  2.3486  2.9524
  463TIP3    H2 1396   1.267   0.086   3.992 -0.5043 -0.0536 -2.1568
  464TIP3   OH2 1397   2.716   0.418   1.356 -0.3464  0.4745 -0.0827
  464TIP3    H1 1398   2.641   0.382   1.402  0.8377 -2.2271 -0.1500
  464TIP3    H2 1399   2.756   0.342   1.313  0.3820  2.4077 -2.9835
  465TIP3   OH2 1400   4.255   1.232   2.607 -0.2051 -0.1730  0.6406
  465TIP3    H1 1401   4.187   1.165   2.600 -1.8027  1.2974  1.7941
  465TIP3    H2 1402   4.295   1.217   2.692 -1.7714  1.4130  1.6910
  466TIP3   OH2 1403   1.056   6.113   0.265  0.0017  0.1581 -0.2292
  466TIP3    H1 1404   1.091   6.108   0.354  1.6342 -0.5008 -0.8881
  466TIP3    H2 1405   1.016   6.028   0.250 -1.1644  0.6087  0.2033
  467TIP3   OH2 1406   1.375   3.817   0.630 -0.3428 -0.2585  0.1295
  467TIP3    H1 1407   1.347   3.902   0.599  1.6106  0.7448  0.9983
  467TIP3    H2 1408   1.369   3.822   0.725 -0.2552 -1.0999  0.1896
  468TIP3   OH2 1409   4.045   0.793   0.652 -0.4619  0.1016 -0.1227
  468TIP3    H1 1410   3.958   0.804   0.614 -0.1754  1.6311 -0.3692
  468TIP3    H2 1411   4.086   0.725   0.600 -0.3667  1.6135 -2.0554
  469TIP3   OH2 1412   3.434   4.953   4.748 -0.5275 -0.1988  0.1649
  469TIP3    H1 1413   3.381   5.029   4.726 -1.9863 -1.0536  0.7052
  469TIP3    H2 1414   3.374   4.892   4.789  0.7751 -1.3760  0.3726
  470TIP3   OH2 1415   1.818   1.901   0.884  0.4111  0.1568  0.1794
  470TIP3    H1 1416   1.878   1.827   0.873  0.9690  0.6859 -0.3582
  470TIP3    H2 1417   1.757   1.894   0.811  0.9404  0.6722 -0.3175
  471TIP3   OH2 1418   2.654   1.808   0.097 -0.6677  0.0274  0.1392
  471TIP3    H1 1419   2.643   1.718   0.129  0.7451 -0.1896  0.0713
  471TIP3    H2 1420   2.742   1.808   0.059 -1.9150  0.5413 -2.8452
  472TIP3   OH2 1421   0.705   3.647   0.250  0.2126 -0.4522 -0.1001
  472TIP3    H1 1422   0.676   3.560   0.221 -2.0120  0.6870 -1.4694
  472TIP3    H2 1423   0.760   3.630   0.327  1.5514 -3.1875 -1.5909
  473TIP3   OH2 1424   1.664   3.547   4.135  0.3507  0.5864  0.1846
  473TIP3    H1 1425   1.607   3.623   4.148 -2.4772 -1.4336 -0.1004
  473TIP3    H2 1426   1.702   3.530   4.221 -2.3166 -0.2220  1.2538
  474TIP3   OH2 1427   3.645   1.288   0.626  0.1812 -0.4297  0.2199
  474TIP3    H1 1428   3.620   1.243   0.545 -0.9935 -0.0737  0.3850
  474TIP3    H2 1429   3.614   1.377   0.615  0.6773 -0.1873  0.7597
  475TIP3   OH2 1430   3.619   0.766   0.106  0.5776 -0.1275 -0.0951
  475TIP3    H1 1431   3.597   0.773   0.199 -3.4211  1.9032 -1.0881
  475TIP3    H2 1432   3.679   0.839   0.090 -0.8205  1.1501  0.3740
  476TIP3   OH2 1433   2.006   4.827   4.089 -0.2132  0.2392  0.6419
  476TIP3    H1 1434   1.927   4.787   4.127 -1.7158  1.1806 -1.3838
  476TIP3    H2 1435   2.036   4.888   4.155  0.0942 -1.6830  2.3368
  477TIP3   OH2 1436   0.128   4.004   4.320 -0.4802  0.1838 -0.5144
  477TIP3    H1 1437   0.079   4.086   4.308  0.0237  0.3545 -1.5083
  477TIP3    H2 1438   0.085   3.943   4.260 -0.0353  0.0885 -0.7350
  478TIP3   OH2 1439   6.329   4.428   4.841  0.3944 -0.5709 -0.6211
  478TIP3    H1 1440   6.249   4.425   4.789 -0.0397 -1.2110  0.0874
  478TIP3    H2 1441   6.390   4.371   4.793  1.1271  1.5806 -2.3119
  479TIP3   OH2 1442   3.669   3.411   0.855 -0.0865  0.2875 -0.2626
  479TIP3    H1 1443   3.743   3.471   0.857  0.6039 -0.5612  0.8160
  479TIP3    H2 1444   3.633   3.415   0.943 -0.0021 -0.8971 -0.1655
  480TIP3   OH2 1445   1.552   3.876   3.862  0.7351 -0.6207 -0.1551
  480TIP3    H1 1446   1.478   3.931   3.834  3.5652  1.6696 -3.5362
  480TIP3    H2 1447   1.517   3.825   3.935 -3.3106  2.5394  0.3150
  481TIP3   OH2 1448   1.473   6.052   4.496  0.4619  0.2131  0.6717
  481TIP3    H1 1449   1.505   5.996   4.425  0.9073  0.8089  0.4054
  481TIP3    H2 1450   1.405   5.999   4.539  0.2921 -0.1981 -0.1030
  482TIP3   OH2 1451   6.488   6.033   1.906 -0.1702  0.1887  0.0122
  482TIP3    H1 1452   6.401   5.993   1.904  0.4998 -1.2770 -0.1751
  482TIP3    H2 1453   6.472   6.123   1.936 -1.8117  0.1236 -0.5952
  483TIP3   OH2 1454   5.022   4.852   4.449 -0.7526 -0.0407  0.3088
  483TIP3    H1 1455   4.994   4.940   4.475  0.4083  0.7800 -1.1179
  483TIP3    H2 1456   4.988   4.841   4.360  0.7376 -0.2543 -0.2577
  484TIP3   OH2 1457   3.108   2.597   2.239  0.4174  0.0867 -0.2875
  484TIP3    H1 1458   3.154   2.547   2.307 -3.0793 -1.6572  0.8872
  484TIP3    H2 1459   3.089   2.532   2.171  1.2901  1.2128 -1.6412
  485TIP3   OH2 1460   0.371   3.600   3.925 -0.3506 -0.5364 -0.1492
  485TIP3    H1 1461   0.318   3.645   3.991 -2.1385  0.5734 -2.2862
  485TIP3    H2 1462   0.393   3.668   3.861  0.0393 -1.9056 -1.4992
  486TIP3   OH2 1463   4.811   0.659   1.266  0.0152 -0.2208 -0.6477
  486TIP3    H1 1464   4.722   0.623   1.271 -0.9617  1.7992 -2.3212
  486TIP3    H2 1465   4.798   0.754   1.264  2.2706  0.1238 -0.2765
  487TIP3   OH2 1466   2.885   3.606   1.267 -0.1280 -0.6220 -0.4234
  487TIP3    H1 1467   2.895   3.624   1.360 -0.5004 -0.5493 -0.3987
  487TIP3    H2 1468   2.901   3.690   1.224  0.4668 -0.7477 -0.4534
  488TIP3   OH2 1469   5.319   5.165   4.341  0.2407  0.1133 -0.2216
  488TIP3    H1 1470   5.407   5.163   4.303  0.1600 -0.3257 -0.3871
  488TIP3    H2 1471   5.275   5.236   4.294  0.7767  0.9007  0.4617
  489TIP3   OH2 1472   3.934   2.134   2.283 -0.1606  0.2445  0.5293
  489TIP3    H1 1473   3.886   2.057   2.253 -1.4281  1.0430  0.4683
  489TIP3    H2 1474   3.932   2.194   2.209  1.0623  0.2337  0.4817
  490TIP3   OH2 1475   4.942   2.060   0.511 -0.2011 -0.1401 -0.2241
  490TIP3    H1 1476   4.957   2.014   0.428 -1.0619 -0.9240  0.0553
  490TIP3    H2 1477   4.884   2.003   0.560 -0.7061  0.9172  0.4186
  491TIP3   OH2 1478   5.391   5.197   5.012  0.0222 -0.4124 -0.3856
  491TIP3    H1 1479   5.439   5.132   4.961  0.5236 -0.3128 -0.0398
  491TIP3    H2 1480   5.451   5.272   5.019 -0.3610 -0.1019 -0.3578
  492TIP3   OH2 1481   5.169   5.215   3.939 -0.0603 -0.2029  0.0856
  492TIP3    H1 1482   5.079   5.240   3.960 -0.1708 -0.1306 -0.4612
  492TIP3    H2 1483   5.223   5.264   4.001 -0.3491  0.4258 -0.1601
  493TIP3   OH2 1484   6.432   4.275   3.521  0.2198  0.0020  0.3483
  493TIP3    H1 1485   6.469   4.210   3.581 -1.8051 -0.8865  0.6936
  493TIP3    H2 1486   6.408   4.349   3.577 -0.3402 -0.2416  0.4379
  494TIP3   OH2 1487   3.617   2.377   3.354  0.0445  0.2515  0.7023
  494TIP3    H1 1488   3.633   2.452   3.411 -1.9805  0.6818  0.7500
  494TIP3    H2 1489   3.615   2.413   3.266 -1.4495  0.3751  0.7653
  495TIP3   OH2 1490   1.721   3.938   0.410 -0.3637 -0.0796  0.4861
  495TIP3    H1 1491   1.764   3.905   0.331 -0.7672 -1.1840  0.7108
  495TIP3    H2 1492   1.658   4.003   0.379  0.3472  0.3930  0.0184
  496TIP3   OH2 1493   2.111   0.214   4.263  0.3224 -0.2637 -0.8197
  496TIP3    H1 1494   2.176   0.229   4.195 -0.4370 -0.4271 -1.5826
  496TIP3    H2 1495   2.163   0.195   4.341  1.2449  2.2546 -0.7646
  497TIP3   OH2 1496   0.350   3.706   4.530 -0.6527 -0.3441  0.0975
  497TIP3    H1 1497   0.338   3.683   4.438 -0.7712  0.5272 -0.1141
  497TIP3    H2 1498   0.398   3.633   4.568 -1.3165 -1.0761 -0.4703
  498TIP3   OH2 1499   3.176   1.675   2.102 -0.0899  0.1205  0.4164
  498TIP3    H1 1500   3.081   1.668   2.112 -0.2301 -0.1838 -0.9387
  498TIP3    H2 1501   3.195   1.625   2.022  0.8671  2.4809 -0.8931
  499TIP3   OH2 1502   3.095   3.381   2.227 -0.1691  0.0871  0.1823
  499TIP3    H1 1503   3.123   3.302   2.274  0.1571 -0.0716 -0.2744
  499TIP3    H2 1504   3.176   3.416   2.190 -0.5600 -0.3547 -1.1264
  500TIP3   OH2 1505   3.481   1.334   1.858 -0.4310 -0.1941  0.4278
  500TIP3    H1 1506   3.549   1.280   1.899 -0.7592 -0.3786  0.7409
  500TIP3    H2 1507   3.411   1.336   1.923  0.0040  1.5203  0.8689
  501TIP3   OH2 1508   1.357   5.336   3.921 -0.0817 -0.3673  0.8575
  501TIP3    H1 1509   1.288   5.331   3.988 -0.2503  1.6352  0.8486
  501TIP3    H2 1510   1.313   5.368   3.843  0.3766 -1.5124  0.1092
  502TIP3   OH2 1511   1.484   4.017   4.229 -0.2626  0.1453  0.4754
  502TIP3    H1 1512   1.549   4.063   4.177 -0.7613 -0.8549 -1.0996
  502TIP3    H2 1513   1.400   4.040   4.188 -0.6220 -1.0565  0.5173
  503TIP3   OH2 1514   3.391   1.083   5.265  1.0727 -0.1922  0.3368
  503TIP3    H1 1515   3.360   0.994   5.282  1.4246 -0.0208  1.9727
  503TIP3    H2 1516   3.454   1.073   5.194  0.3988 -1.1177 -0.1403
  504TIP3   OH2 1517   2.985   2.587   1.456  0.9559 -0.4639 -0.5606
  504TIP3    H1 1518   2.897   2.618   1.433  1.9223  1.6886 -1.4693
  504TIP3    H2 1519   2.981   2.569   1.550 -0.4362 -0.3375 -0.5904
  505TIP3   OH2 1520   5.373   0.323   1.194  0.6276  0.1898  0.2181
  505TIP3    H1 1521   5.354   0.238   1.232  0.1188  0.2689  0.1346
  505TIP3    H2 1522   5.365   0.384   1.267  1.0735  0.1588  0.2966
  506TIP3   OH2 1523   5.008   3.664   1.898  0.6419 -0.0404  0.3234
  506TIP3    H1 1524   4.951   3.597   1.860 -1.3895  0.3290  2.5730
  506TIP3    H2 1525   5.012   3.733   1.832 -2.3476  0.3284  0.4527
  507TIP3   OH2 1526   2.181   2.417   0.833 -0.4354  0.0445 -0.5830
  507TIP3    H1 1527   2.248   2.448   0.893 -0.6270 -0.3839 -0.1424
  507TIP3    H2 1528   2.103   2.404   0.888 -0.1796 -1.8054 -0.6315
  508TIP3   OH2 1529   4.077   4.357   1.907  0.4914  0.4830 -0.3103
  508TIP3    H1 1530   4.007   4.300   1.939  0.0900  0.3430 -1.4043
  508TIP3    H2 1531   4.065   4.439   1.956  0.1402  0.1446  0.1751
  509TIP3   OH2 1532   4.285   3.430   5.050  0.6049  0.4557  0.5081
  509TIP3    H1 1533   4.219   3.386   5.105 -0.3098  1.3028  0.1016
  509TIP3    H2 1534   4.366   3.383   5.068 -0.2521 -1.0710  0.4874
  510TIP3   OH2 1535   4.113   5.407   4.162 -0.0463  0.5952 -0.0963
  510TIP3    H1 1536   4.102   5.410   4.257  0.1679  0.0472 -0.0566
  510TIP3    H2 1537   4.173   5.334   4.147  0.8156  1.3932 -0.5710
  511TIP3   OH2 1538   2.217   0.681   2.362  0.3508 -0.0519  0.2390
  511TIP3    H1 1539   2.198   0.774   2.351  2.2902  0.6191  2.2619
  511TIP3    H2 1540   2.224   0.648   2.272 -0.6599  1.6712 -0.5085
  512TIP3   OH2 1541   3.914   1.450   1.524 -0.6171  0.1625 -0.2439
  512TIP3    H1 1542   3.930   1.389   1.596 -0.3575  0.1301 -0.3296
  512TIP3    H2 1543   3.826   1.483   1.540 -0.3952  0.4924  0.3386
  513TIP3   OH2 1544   3.340   2.795   0.661 -0.3961 -0.0508  0.5972
  513TIP3    H1 1545   3.328   2.759   0.573  0.1804 -1.1110  0.9508
  513TIP3    H2 1546   3.252   2.809   0.694 -0.6121 -0.2377  0.0956
  514TIP3   OH2 1547   5.016   0.738   5.096  0.0960  0.2033 -0.0563
  514TIP3    H1 1548   5.002   0.790   5.017  0.3083 -0.0893 -0.2888
  514TIP3    H2 1549   4.939   0.756   5.151  0.8577  1.8684  0.4791
  515TIP3   OH2 1550   4.053   5.886   4.991 -0.3600  0.0879  0.1620
  515TIP3    H1 1551   4.028   5.921   5.076 -0.1387 -0.2483  0.3655
  515TIP3    H2 1552   4.110   5.812   5.011 -0.2131  0.0787 -0.2790
  516TIP3   OH2 1553   2.512   2.017   2.174 -0.1025  1.0358  0.2334
  516TIP3    H1 1554   2.473   1.935   2.204 -0.1203  0.8776 -0.2221
  516TIP3    H2 1555   2.447   2.084   2.196 -0.6611  0.7650 -0.5851
  517TIP3   OH2 1556   0.083   3.764   4.947  0.5148  0.2960  0.0346
  517TIP3    H1 1557   0.003   3.717   4.973 -0.2117  1.5244  0.0931
  517TIP3    H2 1558   0.083   3.760   4.852  0.3581  0.3265  0.0321
  518TIP3   OH2 1559   2.518   2.088   0.499  0.0822 -0.2862 -0.5263
  518TIP3    H1 1560   2.429   2.121   0.497  0.5792  1.0546 -1.0995
  518TIP3    H2 1561   2.573   2.165   0.480  1.4134 -0.8428  0.9541
  519TIP3   OH2 1562   2.912   2.296   0.244 -0.0549 -0.0615  0.3190
  519TIP3    H1 1563   2.979   2.319   0.180 -1.1674  1.7596 -0.2362
  519TIP3    H2 1564   2.960   2.251   0.314  1.8275  1.5653  0.1247
  520TIP3   OH2 1565   4.991   1.337   0.311  0.0393  0.6432 -0.6399
  520TIP3    H1 1566   4.951   1.405   0.365  0.3587  0.5463 -0.2803
  520TIP3    H2 1567   4.926   1.266   0.312 -0.2344  0.8919 -0.9070
  521TIP3   OH2 1568   3.258   2.222   0.314 -0.2336  0.1931  0.0633
  521TIP3    H1 1569   3.188   2.194   0.373 -1.3261  0.7895 -0.9334
  521TIP3    H2 1570   3.338   2.216   0.367 -1.1618  0.4874  1.5230
  522TIP3   OH2 1571   2.677   5.363   0.847  0.0615 -0.0297  0.2928
  522TIP3    H1 1572   2.733   5.405   0.912  1.0196  0.1234 -0.6250
  522TIP3    H2 1573   2.656   5.278   0.885  0.0832  0.3101  1.0844
  523TIP3   OH2 1574   3.997   0.278   2.299 -0.2525  0.2700  0.2264
  523TIP3    H1 1575   4.079   0.288   2.251 -0.1050 -0.2263  0.3712
  523TIP3    H2 1576   3.940   0.347   2.265  0.8394  1.7624  1.4128
  524TIP3   OH2 1577   0.907   2.817   0.384 -0.1604 -0.4063  0.1953
  524TIP3    H1 1578   0.933   2.779   0.300 -2.0343 -0.3922 -0.4018
  524TIP3    H2 1579   0.812   2.809   0.386 -0.3113  1.3752  1.4550
  525TIP3   OH2 1580   4.929   2.675   0.809 -0.6559  0.4039 -0.2584
  525TIP3    H1 1581   4.921   2.728   0.730 -1.4621  1.6636  0.6458
  525TIP3    H2 1582   4.978   2.730   0.871 -1.3806  0.0529  0.6431
  526TIP3   OH2 1583   3.003   2.727   3.923 -0.1907  0.5377 -0.4505
  526TIP3    H1 1584   2.938   2.689   3.863 -0.9679 -0.5832  1.0755
  526TIP3    H2 1585   2.951   2.782   3.982  0.5329  1.3820 -0.5991
  527TIP3   OH2 1586   4.878   2.331   0.534 -0.4179 -0.4540  0.1994
  527TIP3    H1 1587   4.897   2.238   0.524  1.7949 -0.0644  0.5043
  527TIP3    H2 1588   4.907   2.371   0.452  3.2535  0.5788  1.8417
  528TIP3   OH2 1589   5.569   0.758   1.423 -0.1573 -0.0506 -0.2260
  528TIP3    H1 1590   5.540   0.705   1.498 -3.8015 -0.0854 -1.5421
  528TIP3    H2 1591   5.497   0.820   1.409  1.1689  0.9760 -2.7410
  529TIP3   OH2 1592   3.993   0.094   1.374 -0.3706 -0.1178 -0.4256
  529TIP3    H1 1593   3.958   0.050   1.451  4.1121 -1.4475  1.0168
  529TIP3    H2 1594   4.018   0.181   1.405 -0.0641 -0.0871 -0.7543
  530TIP3   OH2 1595   6.468   4.739   5.124 -0.4504 -0.2396  0.2331
  530TIP3    H1 1596   6.418   4.689   5.189  0.2855 -2.2488 -0.7100
  530TIP3    H2 1597   6.548   4.764   5.170 -0.9759  0.3875  0.8171
  531TIP3   OH2 1598   3.169   1.308   0.260 -0.1883 -0.4493  0.7169
  531TIP3    H1 1599   3.144   1.297   0.168  0.0116  0.6816  0.5312
  531TIP3    H2 1600   3.181   1.218   0.292 -0.6361 -0.8584 -0.2537
  532TIP3   OH2 1601   4.602   2.397   2.594 -0.6142 -0.3747 -0.2679
  532TIP3    H1 1602   4.512   2.428   2.586 -0.9176 -1.3358 -0.6310
  532TIP3    H2 1603   4.615   2.385   2.688 -1.2694 -1.4049 -0.3022
  533TIP3   OH2 1604   0.725   5.522   1.055 -0.3997  0.4060 -0.1303
  533TIP3    H1 1605   0.794   5.459   1.074  0.7910  1.5386 -0.6337
  533TIP3    H2 1606   0.644   5.471   1.059  0.5622 -1.2145 -0.8592
  534TIP3   OH2 1607   6.164   5.143   3.481  0.5131  0.7319 -0.2223
  534TIP3    H1 1608   6.229   5.198   3.438 -1.0294  2.2800 -0.5978
  534TIP3    H2 1609   6.147   5.073   3.418 -0.0186  1.6987 -1.1616
  535TIP3   OH2 1610   1.973   2.349   1.021 -0.1121  0.1710 -0.1999
  535TIP3    H1 1611   1.968   2.361   1.116 -0.5773  1.6175 -0.3888
  535TIP3    H2 1612   1.980   2.254   1.008 -2.2154 -0.2076  1.1935
  536TIP3   OH2 1613   1.437   0.710   3.000 -0.5736  0.1730 -0.2428
  536TIP3    H1 1614   1.434   0.640   2.934 -1.5104 -0.2666  0.2620
  536TIP3    H2 1615   1.396   0.672   3.077  0.7252  0.6092  0.6778
  537TIP3   OH2 1616   2.172   0.269   1.321  0.4006 -0.7597  0.4237
  537TIP3    H1 1617   2.171   0.345   1.379 -1.8784  0.2907 -0.9416
  537TIP3    H2 1618   2.128   0.200   1.370 -2.6785  0.4954 -0.4610
  538TIP3   OH2 1619   3.536   4.500   0.807  0.0951 -0.7104 -0.1411
  538TIP3    H1 1620   3.575   4.504   0.720  0.8861  0.4798  0.2660
  538TIP3    H2 1621   3.496   4.586   0.820 -1.6108 -1.4966 -0.0584
  539TIP3   OH2 1622   5.494   5.043   4.772  0.0544  0.4734 -0.3147
  539TIP3    H1 1623   5.426   5.037   4.705 -0.1765  0.9584 -0.1259
  539TIP3    H2 1624   5.556   4.974   4.750 -0.6997 -0.2262 -0.2593
  540TIP3   OH2 1625   5.627   4.775   4.740 -0.3761 -0.5207 -0.4183
  540TIP3    H1 1626   5.533   4.757   4.736 -0.2914 -0.7980 -1.4234
  540TIP3    H2 1627   5.659   4.724   4.815 -1.4535  1.6214  1.5470
  541TIP3   OH2 1628   4.830   0.434   0.194  0.3383  0.8472  0.0287
  541TIP3    H1 1629   4.869   0.497   0.133  0.1754  0.1469 -0.8194
  541TIP3    H2 1630   4.896   0.365   0.202  0.1921  0.7448  0.3313
  542TIP3   OH2 1631   3.745   2.694   0.325 -0.2153 -0.2436  0.3919
  542TIP3    H1 1632   3.786   2.733   0.248  0.0197  3.8637  2.4452
  542TIP3    H2 1633   3.656   2.672   0.297  0.1257  0.4537 -1.2651
  543TIP3   OH2 1634   2.665   1.285   0.438 -0.4005  0.0839  0.1991
  543TIP3    H1 1635   2.671   1.193   0.410  0.8274 -0.0978  0.9948
  543TIP3    H2 1636   2.592   1.287   0.500  0.1278 -0.5556  0.8609
  544TIP3   OH2 1637   0.856   5.525   4.488  0.2865 -0.0738  0.2460
  544TIP3    H1 1638   0.849   5.621   4.489  1.1048 -0.0136  0.4076
  544TIP3    H2 1639   0.937   5.507   4.442 -1.2865 -0.8088 -2.3678
  545TIP3   OH2 1640   5.208   4.710   4.025  0.4924  0.1903  1.0431
  545TIP3    H1 1641   5.220   4.796   4.065  0.5819 -0.2874  2.0601
  545TIP3    H2 1642   5.297   4.674   4.019  0.4288  0.0636  0.8675
  546TIP3   OH2 1643   4.536   4.956   4.549  0.0100 -0.3811 -0.3123
  546TIP3    H1 1644   4.555   4.863   4.537  0.2359 -0.2270 -1.1923
  546TIP3    H2 1645   4.567   4.975   4.638 -0.3691 -1.2233  0.0097
  547TIP3   OH2 1646   5.310   2.945   3.332 -0.2314 -0.3153 -0.2404
  547TIP3    H1 1647   5.309   2.986   3.245 -1.0465 -0.5343 -0.3384
  547TIP3    H2 1648   5.359   3.006   3.387  1.3828 -0.7714 -1.1396
  548TIP3   OH2 1649   3.237   3.256   1.296  0.2647 -0.2720  0.3288
  548TIP3    H1 1650   3.313   3.206   1.327  0.4211 -1.3132 -1.6002
  548TIP3    H2 1651   3.165   3.194   1.301 -0.2982  0.4691  1.4022
  549TIP3   OH2 1652   2.683   2.601   1.572  0.4542 -0.1289 -0.5497
  549TIP3    H1 1653   2.723   2.685   1.549 -0.0389  0.0435 -0.7849
  549TIP3    H2 1654   2.602   2.598   1.522  1.3357 -1.5611 -1.9509
  550TIP3   OH2 1655   3.164   3.184   2.420  0.1108  0.0138  0.0952
  550TIP3    H1 1656   3.231   3.123   2.452 -0.6141 -1.2649 -0.7924
  550TIP3    H2 1657   3.084   3.131   2.414 -0.5753  1.1020 -0.5261
  551TIP3   OH2 1658   3.040   5.889   3.371  0.3193 -0.0246  0.7459
  551TIP3    H1 1659   3.084   5.804   3.367 -0.0064 -0.3619  3.1835
  551TIP3    H2 1660   2.987   5.885   3.451 -0.4414  2.1176  0.3939
  552TIP3   OH2 1661   4.433   3.640   0.778  0.1425 -0.5162  0.0269
  552TIP3    H1 1662   4.355   3.692   0.800 -0.1286 -1.0034  0.2220
  552TIP3    H2 1663   4.492   3.653   0.853  0.2518 -0.1480 -0.1202
  553TIP3   OH2 1664   3.810   0.644   3.511  0.3576  0.1373 -0.3748
  553TIP3    H1 1665   3.880   0.710   3.521  0.3456  0.4291 -2.0550
  553TIP3    H2 1666   3.854   0.560   3.526  0.9119  0.3662 -0.7130
  554TIP3   OH2 1667   4.937   5.666   4.732 -0.2748  0.4183  0.4765
  554TIP3    H1 1668   4.986   5.730   4.681 -0.4518  1.0031  1.0381
  554TIP3    H2 1669   5.003   5.624   4.788  0.3967 -2.1011 -2.0948
  555TIP3   OH2 1670   0.528   0.195   2.435  0.4736  0.3973 -0.5869
  555TIP3    H1 1671   0.518   0.182   2.529 -0.2879  0.1106 -0.7086
  555TIP3    H2 1672   0.550   0.108   2.402  1.3494  0.6151 -0.5972
  556TIP3   OH2 1673   5.388   4.301   4.000 -0.0714 -0.3657  0.4022
  556TIP3    H1 1674   5.475   4.311   3.962  0.4162 -0.9113  1.3486
  556TIP3    H2 1675   5.328   4.313   3.927  0.7526  1.2696 -0.0287
  557TIP3   OH2 1676   0.993   1.326   3.056 -0.2491 -0.4453 -0.5401
  557TIP3    H1 1677   1.030   1.296   2.974 -0.7668 -0.2433 -0.8521
  557TIP3    H2 1678   1.055   1.297   3.123 -0.0283 -0.9549 -0.9657
  558TIP3   OH2 1679   6.138   4.730   3.443  0.0015 -0.2082  0.3375
  558TIP3    H1 1680   6.116   4.759   3.531 -0.0020 -0.8581  0.5473
  558TIP3    H2 1681   6.218   4.778   3.422  0.0924 -0.1757  0.7515
  559TIP3   OH2 1682   2.375   3.292   2.317  0.2627 -0.3812  0.3031
  559TIP3    H1 1683   2.425   3.373   2.326  1.9133 -1.3105 -0.1656
  559TIP3    H2 1684   2.332   3.298   2.232  0.6420 -0.1428  0.1287
  560TIP3   OH2 1685   5.747   4.550   4.331  0.3178 -0.0337 -0.4077
  560TIP3    H1 1686   5.669   4.575   4.283  0.6144  0.4609 -0.6341
  560TIP3    H2 1687   5.743   4.601   4.412  0.3128 -0.1423 -0.3397
  561TIP3   OH2 1688   3.274   1.664   0.711 -0.2292  0.0339  0.2808
  561TIP3    H1 1689   3.332   1.740   0.720 -1.2943  0.7013  1.9817
  561TIP3    H2 1690   3.273   1.624   0.798 -0.9773 -0.9648 -0.1703
  562TIP3   OH2 1691   4.866   5.761   4.982 -0.9213  0.1392  0.6356
  562TIP3    H1 1692   4.880   5.740   4.890 -1.8559  0.8971  0.3113
  562TIP3    H2 1693   4.941   5.816   5.005 -0.9237  0.3367  0.1910
  563TIP3   OH2 1694   5.549   0.889   4.056  0.0603  0.0934  0.2690
  563TIP3    H1 1695   5.496   0.849   4.125  0.2112 -0.5868  0.0013
  563TIP3    H2 1696   5.533   0.983   4.064  0.5503  0.0593  1.5979
  564TIP3   OH2 1697   2.026   2.257   1.589 -0.3469 -0.0605  0.0098
  564TIP3    H1 1698   2.028   2.352   1.601 -0.3508 -0.0516 -0.0597
  564TIP3    H2 1699   1.993   2.223   1.673 -2.0187  0.1166 -0.5534
  565TIP3   OH2 1700   5.306   5.976   2.231  0.7778 -0.6036  0.2234
  565TIP3    H1 1701   5.293   6.044   2.297 -0.2583  0.4706 -1.0630
  565TIP3    H2 1702   5.238   5.911   2.249  1.2985 -0.9337  0.9960
  566TIP3   OH2 1703   4.650   3.741   4.443 -0.4115 -0.1877  0.4677
  566TIP3    H1 1704   4.618   3.699   4.523 -0.8204 -0.1038  0.3505
  566TIP3    H2 1705   4.741   3.762   4.462 -0.5009 -0.1897  0.9033
  567TIP3   OH2 1706   2.227   0.638   0.086  0.4351  0.0558 -0.0508
  567TIP3    H1 1707   2.132   0.632   0.090  0.2858  1.0635 -1.8259
  567TIP3    H2 1708   2.257   0.551   0.113 -1.0545 -1.1015 -2.0385
  568TIP3   OH2 1709   4.778   3.006   3.263  0.2000 -0.7602 -0.8906
  568TIP3    H1 1710   4.773   3.068   3.190 -2.3552  1.4692  1.0703
  568TIP3    H2 1711   4.857   3.032   3.311 -1.7112  2.2471  0.8568
  569TIP3   OH2 1712   2.482   3.386   0.908 -0.6156 -0.1100  0.1637
  569TIP3    H1 1713   2.412   3.414   0.966 -1.4438  0.3413 -1.0451
  569TIP3    H2 1714   2.489   3.456   0.842  0.2065 -0.6787 -0.3747
  570TIP3   OH2 1715   4.060   0.361   1.394  0.3395 -0.5110 -0.0964
  570TIP3    H1 1716   4.046   0.435   1.335 -1.1570  0.5078  1.4687
  570TIP3    H2 1717   4.152   0.337   1.383  0.4929  0.7431 -1.5893
  571TIP3   OH2 1718   3.240   3.119   1.709  0.1286 -0.5058 -0.2704
  571TIP3    H1 1719   3.181   3.170   1.764  1.2508  0.0330  0.4665
  571TIP3    H2 1720   3.191   3.103   1.629 -0.4539  1.2824 -0.2921
  572TIP3   OH2 1721   0.346   4.018   3.775 -0.4121  0.3304  0.6419
  572TIP3    H1 1722   0.386   3.945   3.820  0.4609  0.6117  0.3346
  572TIP3    H2 1723   0.414   4.086   3.774 -0.1878  0.1107 -1.6165
  573TIP3   OH2 1724   4.870   2.896   5.183 -0.4037 -0.3533  0.1774
  573TIP3    H1 1725   4.900   2.879   5.272  0.4059  0.2132  0.0160
  573TIP3    H2 1726   4.867   2.810   5.141  1.7579 -0.3440 -0.0449
  574TIP3   OH2 1727   0.224   5.769   3.890 -0.2732 -0.2444 -0.4734
  574TIP3    H1 1728   0.295   5.720   3.850  1.4107  1.2409  0.6420
  574TIP3    H2 1729   0.245   5.861   3.873 -0.8522  0.2997  1.5913
  575TIP3   OH2 1730   0.180   2.158   0.753  0.1767 -0.3059  0.0502
  575TIP3    H1 1731   0.194   2.173   0.659  1.0304 -0.1126  0.2050
  575TIP3    H2 1732   0.241   2.087   0.775 -0.8620 -1.1686  0.2125
  576TIP3   OH2 1733   3.753   4.058   3.850 -0.4736 -1.3361 -0.9089
  576TIP3    H1 1734   3.687   4.009   3.801 -0.6967 -0.8937 -1.0510
  576TIP3    H2 1735   3.813   3.991   3.883 -0.8346 -1.7139 -1.0169
  577TIP3   OH2 1736   0.519   1.668   1.405 -0.6300 -0.3778  0.2421
  577TIP3    H1 1737   0.481   1.728   1.470 -0.0913  0.9894 -0.6899
  577TIP3    H2 1738   0.443   1.633   1.358 -1.0979 -2.0380  2.1249
  578TIP3   OH2 1739   6.375   2.691   3.119  0.7891  0.6581 -0.0808
  578TIP3    H1 1740   6.302   2.714   3.061  1.1146  0.7566 -0.4586
  578TIP3    H2 1741   6.437   2.646   3.062  0.8740  0.2792  0.3127
  579TIP3   OH2 1742   0.372   4.699   4.508 -0.0336 -0.5174 -0.4157
  579TIP3    H1 1743   0.435   4.679   4.576 -0.7313 -0.6804  0.1912
  579TIP3    H2 1744   0.384   4.792   4.490  1.7900 -0.9919 -1.7709
  580TIP3   OH2 1745   2.903   1.288   0.541  0.1715  0.3764 -0.0299
  580TIP3    H1 1746   2.820   1.298   0.494 -1.6535 -1.4145  2.6539
  580TIP3    H2 1747   2.928   1.197   0.528 -0.6841 -0.3211  2.8678
  581TIP3   OH2 1748   4.742   5.508   5.170  0.0877 -0.2492  0.3001
  581TIP3    H1 1749   4.773   5.494   5.260  0.2167  2.2700  0.6905
  581TIP3    H2 1750   4.785   5.588   5.142 -0.9809 -0.2943 -1.5418
  582TIP3   OH2 1751   6.067   3.594   1.463  0.4934  0.3138  0.0390
  582TIP3    H1 1752   6.039   3.652   1.534  2.1620  0.4861  0.5711
  582TIP3    H2 1753   6.145   3.636   1.426 -0.6666  0.5150 -2.2804
  583TIP3   OH2 1754   3.224   0.819   0.676 -0.2891  0.2163 -0.5955
  583TIP3    H1 1755   3.272   0.794   0.597  0.9788  0.9572 -0.0746
  583TIP3    H2 1756   3.289   0.864   0.730 -0.7349 -1.7038  1.5825
  584TIP3   OH2 1757   5.004   1.748   3.522 -0.5405 -0.5889 -0.3726
  584TIP3    H1 1758   5.028   1.749   3.429  0.0445  0.6697 -0.2041
  584TIP3    H2 1759   4.909   1.734   3.522 -0.4238 -1.4261 -1.1324
  585TIP3   OH2 1760   3.123   2.602   3.590 -0.2660 -0.1484 -0.0463
  585TIP3    H1 1761   3.197   2.565   3.638 -0.6849 -0.7953  0.1158
  585TIP3    H2 1762   3.049   2.593   3.650 -0.1910  1.8838  0.3906
  586TIP3   OH2 1763   0.446   3.024   4.391 -0.5692 -0.3349 -0.1832
  586TIP3    H1 1764   0.364   2.976   4.390 -1.0989  0.5474 -1.2521
  586TIP3    H2 1765   0.423   3.110   4.356  1.0026 -0.4111 -1.4628
  587TIP3   OH2 1766   5.478   1.357   3.449 -0.2709  0.4627  0.5372
  587TIP3    H1 1767   5.418   1.425   3.417 -0.7330  0.0769  0.5720
  587TIP3    H2 1768   5.444   1.334   3.535  1.0151  1.5475  1.3484
  588TIP3   OH2 1769   3.536   1.530   0.567 -0.1097  0.2684 -0.0896
  588TIP3    H1 1770   3.445   1.511   0.545  0.8147 -1.9535 -2.2659
  588TIP3    H2 1771   3.560   1.601   0.508  0.1576 -0.5851 -1.0284
  589TIP3   OH2 1772   2.648   1.532   0.177 -0.1977 -0.1980 -0.2912
  589TIP3    H1 1773   2.743   1.529   0.165 -0.1751  0.6230 -0.3923
  589TIP3    H2 1774   2.635   1.520   0.271  0.0448  0.2931 -0.1923
  590TIP3   OH2 1775   5.900   4.892   5.109 -0.0804 -0.2737  0.4206
  590TIP3    H1 1776   5.978   4.906   5.163 -1.0749  0.4811  1.7075
  590TIP3    H2 1777   5.849   4.827   5.156 -0.3801 -0.5274 -0.2460
  591TIP3   OH2 1778   2.231   3.174   0.850 -0.2191  0.2801 -0.0012
  591TIP3    H1 1779   2.252   3.102   0.790 -0.0098  0.8208 -0.5873
  591TIP3    H2 1780   2.259   3.252   0.803 -0.7206  0.7659  0.5070
  592TIP3   OH2 1781   6.092   2.876   4.660 -0.2944  0.5181  0.0718
  592TIP3    H1 1782   6.068   2.944   4.597  0.0778 -0.9117 -1.6606
  592TIP3    H2 1783   6.051   2.796   4.627  1.6825 -0.6968  0.4183
  593TIP3   OH2 1784   3.354   3.398   2.152  0.0290 -0.0301 -0.0685
  593TIP3    H1 1785   3.342   3.305   2.133 -1.4806 -0.4306  2.6102
  593TIP3    H2 1786   3.420   3.427   2.090  1.4484 -3.1873 -0.0996
  594TIP3   OH2 1787   2.791   1.549   0.607 -0.4065  0.2262  0.1301
  594TIP3    H1 1788   2.716   1.573   0.552  0.7955 -0.0171 -1.6509
  594TIP3    H2 1789   2.808   1.458   0.585 -1.1767 -0.5167  2.4471
  595TIP3   OH2 1790   2.043   5.781   0.746  0.3304  0.1960 -0.4144
  595TIP3    H1 1791   1.974   5.787   0.812  0.5383  0.8745 -0.2585
  595TIP3    H2 1792   2.124   5.789   0.796  0.5394 -1.0226 -0.5430
  596TIP3   OH2 1793   4.782   0.064   0.166 -0.2630 -0.3388 -0.0341
  596TIP3    H1 1794   4.687   0.073   0.158 -0.2313  0.5004  0.4906
  596TIP3    H2 1795   4.817   0.125   0.101 -0.0858 -3.0415 -2.5728
  597TIP3   OH2 1796   3.373   2.979   2.763  0.2502  0.3961  0.0483
  597TIP3    H1 1797   3.391   2.994   2.856 -0.3461  2.4769 -0.1623
  597TIP3    H2 1798   3.419   2.897   2.743  0.3062 -0.1240  2.1882
  598TIP3   OH2 1799   3.589   3.473   2.024  0.1827  0.7399 -0.5491
  598TIP3    H1 1800   3.615   3.550   1.973  1.6095  0.2779 -0.5268
  598TIP3    H2 1801   3.671   3.426   2.040 -0.9405 -1.8680 -2.2818
  599TIP3   OH2 1802   4.477   2.542   1.408  0.4777 -0.0678 -0.4416
  599TIP3    H1 1803   4.432   2.459   1.389 -0.0151  0.1637 -0.3066
  599TIP3    H2 1804   4.426   2.580   1.480  0.6631  0.3871 -0.5512
  600TIP3   OH2 1805   2.109   5.423   1.615  0.2230  0.2832 -0.0629
  600TIP3    H1 1806   2.035   5.470   1.653 -0.0476  1.5959 -2.1700
  600TIP3    H2 1807   2.185   5.456   1.663 -0.5101 -1.2736  2.3068
  601TIP3   OH2 1808   3.690   1.794   1.067  0.1477  0.1161  0.7309
  601TIP3    H1 1809   3.618   1.857   1.067 -0.1920 -0.2423 -0.8830
  601TIP3    H2 1810   3.709   1.779   1.160 -0.2451  2.0259  1.1392
  602TIP3   OH2 1811   2.768   2.674   3.794  0.0151  0.3480  0.5209
  602TIP3    H1 1812   2.754   2.610   3.724  0.6505 -0.1866  0.8804
  602TIP3    H2 1813   2.685   2.722   3.799 -0.3527 -0.2265  0.0272
  603TIP3   OH2 1814   4.003   1.749   1.918 -0.4662  0.0000  0.1653
  603TIP3    H1 1815   3.931   1.793   1.874 -0.5738 -0.6726 -0.3448
  603TIP3    H2 1816   3.968   1.726   2.004 -0.6537  0.2329  0.1504
  604TIP3   OH2 1817   3.044   1.967   1.913  0.6118 -0.9405 -0.0510
  604TIP3    H1 1818   2.995   2.021   1.851  1.5006  0.7109  0.6479
  604TIP3    H2 1819   3.113   1.926   1.861 -0.8175 -2.4295 -0.8279
  605TIP3   OH2 1820   2.012   2.716   1.190 -0.2696  0.3129  0.0626
  605TIP3    H1 1821   2.102   2.685   1.204 -0.9588 -0.9875  1.7857
  605TIP3    H2 1822   2.015   2.808   1.214  0.7265  0.4380 -0.4857
  606TIP3   OH2 1823   5.291   3.069   1.686  0.0676  0.3086  0.3393
  606TIP3    H1 1824   5.297   3.099   1.595  1.2275 -0.8830  0.0080
  606TIP3    H2 1825   5.380   3.080   1.721  0.0635 -0.9439  0.7727
  607TIP3   OH2 1826   4.870   4.144   3.719  0.3892 -0.2860  0.7304
  607TIP3    H1 1827   4.896   4.066   3.669 -1.0179 -0.7682  0.7174
  607TIP3    H2 1828   4.947   4.166   3.770  0.6830 -1.9538  1.0583
  608TIP3   OH2 1829   0.808   1.784   0.587 -0.1001 -0.2509 -0.2841
  608TIP3    H1 1830   0.859   1.747   0.515  2.3724  0.3961  1.0896
  608TIP3    H2 1831   0.803   1.878   0.566  1.0098  0.0133  0.5786
  609TIP3   OH2 1832   2.339   4.045   1.304 -0.1161 -0.5549  0.6770
  609TIP3    H1 1833   2.246   4.069   1.307  0.0558  0.3474 -0.6937
  609TIP3    H2 1834   2.341   3.954   1.333 -1.9223 -1.8699 -2.9730
  610TIP3   OH2 1835   5.650   2.105   1.287  0.3296  0.0494  0.0898
  610TIP3    H1 1836   5.682   2.023   1.249 -0.3765 -0.4536  0.5794
  610TIP3    H2 1837   5.569   2.082   1.332  0.8676  0.7330  1.4686
  611TIP3   OH2 1838   5.577   3.285   0.582 -0.1051 -0.3653  0.0416
  611TIP3    H1 1839   5.560   3.324   0.496 -0.8802 -0.2177  0.2615
  611TIP3    H2 1840   5.581   3.359   0.642 -1.0216 -0.5781  0.3701
  612TIP3   OH2 1841   5.001   3.231   0.615  0.0627 -0.0050 -0.4406
  612TIP3    H1 1842   5.024   3.180   0.693 -1.2140  1.1232  0.7150
  612TIP3    H2 1843   4.910   3.257   0.630 -0.1066  0.4523 -2.1961
  613TIP3   OH2 1844   4.130   3.487   3.776  0.0349 -0.2491  0.2885
  613TIP3    H1 1845   4.169   3.522   3.856 -1.3036 -2.4302  1.9536
  613TIP3    H2 1846   4.107   3.397   3.798 -1.9653 -0.3430 -2.0083
  614TIP3   OH2 1847   4.686   2.418   5.281  0.1544  0.0354  0.0800
  614TIP3    H1 1848   4.689   2.493   5.222  0.0073 -0.5865 -0.7265
  614TIP3    H2 1849   4.622   2.443   5.348 -0.7660  0.1686 -0.8315
  615TIP3   OH2 1850   5.609   3.887   5.146 -0.2392  0.5192 -0.6114
  615TIP3    H1 1851   5.670   3.871   5.218 -2.7140  2.0629  1.9279
  615TIP3    H2 1852   5.564   3.803   5.134 -0.3555  0.4730  0.1632
  616TIP3   OH2 1853   4.257   4.150   5.202  0.3376 -0.9856  0.0704
  616TIP3    H1 1854   4.301   4.066   5.189  0.9026 -0.5738 -0.6916
  616TIP3    H2 1855   4.266   4.195   5.118  0.2441 -0.0634  0.5534
  617TIP3   OH2 1856   3.416   3.123   1.453 -0.4992 -0.4335  0.0592
  617TIP3    H1 1857   3.425   3.050   1.515  0.5005  0.2574  0.7423
  617TIP3    H2 1858   3.418   3.201   1.508  0.3354  0.1931 -0.8393
  618TIP3   OH2 1859   5.744   4.653   1.361  0.7570 -0.4374 -0.1728
  618TIP3    H1 1860   5.831   4.642   1.400  0.6501  0.1961  0.2537
  618TIP3    H2 1861   5.684   4.655   1.435  0.6159  1.3677 -0.2990
  619TIP3   OH2 1862   0.226   2.406   1.777  0.1442 -0.0621 -0.3538
  619TIP3    H1 1863   0.298   2.466   1.757  0.0299 -0.8969 -3.6035
  619TIP3    H2 1864   0.267   2.331   1.820  0.8339  0.6024  0.1556
  620TIP3   OH2 1865   2.685   6.040   0.647 -0.3646  0.1977  0.1481
  620TIP3    H1 1866   2.592   6.018   0.649 -0.4550  0.4578 -1.1413
  620TIP3    H2 1867   2.689   6.123   0.599  0.7057 -0.7313 -1.4032
  621TIP3   OH2 1868   6.139   5.251   4.812  0.8040 -0.6566  0.1436
  621TIP3    H1 1869   6.047   5.275   4.822  1.7518  2.9333  1.2439
  621TIP3    H2 1870   6.167   5.224   4.899  0.7617 -1.8371 -0.2113
  622TIP3   OH2 1871   0.170   1.093   4.846 -0.1001 -0.3413  0.0523
  622TIP3    H1 1872   0.228   1.083   4.921 -0.5414 -0.4664  0.3795
  622TIP3    H2 1873   0.112   1.165   4.870  0.5860  0.4806 -0.7077
  623TIP3   OH2 1874   2.762   3.022   0.659 -0.2161  0.8237  0.1837
  623TIP3    H1 1875   2.716   3.054   0.582 -0.4426  2.1378  0.8621
  623TIP3    H2 1876   2.855   3.033   0.637 -0.2006 -0.9281 -0.7916
  624TIP3   OH2 1877   6.197   1.525   1.043  0.0493  0.7796 -0.0447
  624TIP3    H1 1878   6.247   1.453   1.081 -1.3179 -1.2206 -1.9090
  624TIP3    H2 1879   6.251   1.556   0.971 -0.5940 -0.2812 -1.0088
  625TIP3   OH2 1880   6.441   3.185   4.183  0.0053 -0.1695  0.4771
  625TIP3    H1 1881   6.530   3.151   4.172  0.6517  2.1778 -1.9073
  625TIP3    H2 1882   6.384   3.110   4.164  1.4084 -1.3449  0.7542
  626TIP3   OH2 1883   0.892   6.125   1.273  0.2308  0.3750 -0.1670
  626TIP3    H1 1884   0.972   6.131   1.326  1.1114  2.6995 -1.6935
  626TIP3    H2 1885   0.916   6.067   1.201 -0.0654 -0.4563  0.3973
  627TIP3   OH2 1886   2.547   1.654   1.651  0.9111  0.3545 -0.2797
  627TIP3    H1 1887   2.459   1.617   1.644  0.5096  1.5053 -1.4473
  627TIP3    H2 1888   2.554   1.683   1.742  0.2879 -0.2475 -0.0329
  628TIP3   OH2 1889   0.906   3.663   4.291  0.0058 -0.5854  0.4023
  628TIP3    H1 1890   0.949   3.578   4.280  0.5080 -0.3232  0.3427
  628TIP3    H2 1891   0.851   3.651   4.369 -0.3567 -1.1335  0.0726
  629TIP3   OH2 1892   2.895   0.285   0.054  0.4499 -0.0731  0.2555
  629TIP3    H1 1893   2.931   0.331  -0.022  2.4719 -1.8184  0.1235
  629TIP3    H2 1894   2.830   0.225   0.017  1.2850 -0.7743 -0.0834
  630TIP3   OH2 1895   3.082   1.743   0.212  0.0789  0.1529 -0.3713
  630TIP3    H1 1896   3.031   1.814   0.251 -1.0561  0.3257 -2.0765
  630TIP3    H2 1897   3.151   1.725   0.275 -1.3323  0.8135  1.3956
  631TIP3   OH2 1898   0.929   3.971   5.052  0.1166  0.0578 -0.1661
  631TIP3    H1 1899   0.910   3.895   5.107  1.1419  0.0466  0.1873
  631TIP3    H2 1900   1.010   3.948   5.006 -0.5612  0.2050 -1.4386
  632TIP3   OH2 1901   2.287   4.795   1.377  0.6745  0.4535  0.1223
  632TIP3    H1 1902   2.252   4.727   1.320  1.9916  0.3098 -0.5143
  632TIP3    H2 1903   2.228   4.869   1.365 -0.0317 -0.1428 -0.1339
  633TIP3   OH2 1904   2.971   0.973   0.707 -0.2046 -0.1865 -0.0839
  633TIP3    H1 1905   3.002   1.032   0.775 -1.2438 -1.8687  1.9235
  633TIP3    H2 1906   3.036   0.902   0.705 -0.1545 -0.1209 -0.8721
  634TIP3   OH2 1907   3.141   0.519   4.543  0.1859  0.1967  0.0851
  634TIP3    H1 1908   3.145   0.452   4.475  4.5751 -0.8246  1.2129
  634TIP3    H2 1909   3.223   0.567   4.535 -1.8673  4.0580  0.8139
  635TIP3   OH2 1910   4.436   5.329   1.798  0.2225 -0.2794 -0.0411
  635TIP3    H1 1911   4.348   5.339   1.760 -0.3173 -0.0012  1.2507
  635TIP3    H2 1912   4.433   5.381   1.878  1.2812 -1.0031  0.4757
  636TIP3   OH2 1913   3.855   3.089   1.654  0.2509 -0.5073 -0.2728
  636TIP3    H1 1914   3.872   3.094   1.748  1.0887 -0.6839 -0.4118
  636TIP3    H2 1915   3.802   3.167   1.635  1.1950  0.2361  0.1158
  637TIP3   OH2 1916   6.242   3.368   3.694  0.3476  0.4209  0.2213
  637TIP3    H1 1917   6.195   3.285   3.701 -1.4168  1.4038  0.1610
  637TIP3    H2 1918   6.297   3.371   3.772 -2.5993  1.0480  2.3668
  638TIP3   OH2 1919   2.824   3.631   1.757  0.2117  0.6810  0.0002
  638TIP3    H1 1920   2.736   3.664   1.774 -0.9771 -2.1566 -0.2950
  638TIP3    H2 1921   2.861   3.691   1.693 -1.4160  2.0335  0.3158
  639TIP3   OH2 1922   3.797   4.375   2.077  0.0556 -0.3417  0.3438
  639TIP3    H1 1923   3.764   4.450   2.028  1.1001  1.1734  1.9143
  639TIP3    H2 1924   3.721   4.318   2.089 -1.0201  1.0292  0.1736
  640TIP3   OH2 1925   6.436   5.604   4.641 -0.2952  0.4087  0.6291
  640TIP3    H1 1926   6.361   5.631   4.588 -0.3406  2.1241  1.5400
  640TIP3    H2 1927   6.399   5.546   4.708 -0.6336  0.3684  0.4082
  641TIP3   OH2 1928   2.422   2.942   0.863  0.0830 -0.6004  0.3899
  641TIP3    H1 1929   2.394   2.918   0.951 -0.9972  2.3869  0.9227
  641TIP3    H2 1930   2.476   3.021   0.876 -1.0736  0.5835 -1.7079
  642TIP3   OH2 1931   3.495   0.292  -0.005 -0.3118 -0.6999 -0.3270
  642TIP3    H1 1932   3.467   0.205   0.023 -1.3819 -0.3521 -0.3135
  642TIP3    H2 1933   3.456   0.352   0.058 -1.2519 -0.0494 -1.5113
  643TIP3   OH2 1934   5.091   4.511   4.733  0.3667  0.6408  0.4380
  643TIP3    H1 1935   5.165   4.571   4.734  0.2789  0.8220 -1.7176
  643TIP3    H2 1936   5.102   4.460   4.653 -1.0087 -0.4043  0.8804
  644TIP3   OH2 1937   3.768   2.285   0.999  0.3694  0.1477  0.2609
  644TIP3    H1 1938   3.803   2.265   0.912  0.2856  0.7366  0.0913
  644TIP3    H2 1939   3.792   2.209   1.053 -0.3376 -0.6152 -0.4906
  645TIP3   OH2 1940   1.422   5.917   0.039  0.3689  0.6602  0.5552
  645TIP3    H1 1941   1.469   5.857   0.096  0.9235  0.1895 -0.3961
  645TIP3    H2 1942   1.392   5.864  -0.034 -0.1777  1.2959  0.3062
  646TIP3   OH2 1943   1.756   5.747   0.661 -0.1367 -0.6008  0.0238
  646TIP3    H1 1944   1.812   5.815   0.625 -0.1279 -0.3353  0.5233
  646TIP3    H2 1945   1.695   5.794   0.718 -0.5129 -0.9458 -0.0911
  647TIP3   OH2 1946   2.351   2.239   4.880 -0.0509  0.0932  0.2292
  647TIP3    H1 1947   2.410   2.168   4.906  1.1538  0.5239 -1.2528
  647TIP3    H2 1948   2.292   2.198   4.816 -0.0876  0.1479  0.2281
  648TIP3   OH2 1949   3.064   0.048   0.056 -0.7413  0.2794 -0.0151
  648TIP3    H1 1950   3.000   0.118   0.044 -0.1767  1.3041  2.7864
  648TIP3    H2 1951   3.068   0.034   0.150  0.7089 -2.0962 -0.3801
  649TIP3   OH2 1952   6.450   0.478   0.431 -0.7399 -0.0110  0.7496
  649TIP3    H1 1953   6.433   0.559   0.478  2.6878  1.0504  0.3311
  649TIP3    H2 1954   6.467   0.506   0.341 -0.6815 -1.2984  0.3478
  650TIP3   OH2 1955   2.451   4.283   3.928  0.1201 -0.4843  0.1560
  650TIP3    H1 1956   2.425   4.194   3.901  1.5892 -1.8665  3.1011
  650TIP3    H2 1957   2.482   4.273   4.017  0.4696  3.0286  0.4925
  651TIP3   OH2 1958   0.067   0.178   4.172 -0.5385 -0.8005 -0.8428
  651TIP3    H1 1959   0.036   0.227   4.248 -1.2571 -1.0213 -0.9897
  651TIP3    H2 1960   0.113   0.103   4.209 -0.1861 -0.4744 -0.6206
  652TIP3   OH2 1961   3.167   2.500   1.274 -0.1355 -0.1139 -0.6435
  652TIP3    H1 1962   3.232   2.444   1.316  2.1243  2.4212 -0.5868
  652TIP3    H2 1963   3.108   2.526   1.346 -0.5448 -1.4876 -0.4693
  653TIP3   OH2 1964   1.864   3.992   0.183  0.2378  0.4263  0.0918
  653TIP3    H1 1965   1.956   4.010   0.162  0.0627  1.5673  0.2932
  653TIP3    H2 1966   1.817   4.070   0.154 -0.4746  0.4936  1.4192
  654TIP3   OH2 1967   3.369   0.908   1.110 -0.0550  0.2196 -0.0648
  654TIP3    H1 1968   3.336   0.846   1.175 -1.1107 -0.5182 -1.3086
  654TIP3    H2 1969   3.359   0.994   1.152 -0.3246 -0.2859  0.9120
  655TIP3   OH2 1970   4.603   2.504   1.781  0.2797  0.4958 -0.0980
  655TIP3    H1 1971   4.528   2.451   1.755  0.1295 -0.0061  1.2891
  655TIP3    H2 1972   4.679   2.448   1.767  0.0308 -0.5056  2.3773
  656TIP3   OH2 1973   5.631   1.086   4.904 -0.6301 -0.6767  0.3125
  656TIP3    H1 1974   5.615   1.034   4.983 -1.0597 -0.8134  0.1373
  656TIP3    H2 1975   5.698   1.150   4.930 -2.5396  0.8822  1.4863
  657TIP3   OH2 1976   1.699   5.883   2.129 -0.3170  0.1837  0.5491
  657TIP3    H1 1977   1.716   5.969   2.168  1.4260  1.3068 -2.4766
  657TIP3    H2 1978   1.638   5.901   2.058 -0.0511 -1.1012 -0.0152
  658TIP3   OH2 1979   3.220   4.199   1.436 -0.6849  0.3738 -0.1678
  658TIP3    H1 1980   3.272   4.256   1.380  0.4135  0.1066  0.5634
  658TIP3    H2 1981   3.130   4.209   1.404 -0.3506  1.7119 -0.7063
  659TIP3   OH2 1982   0.764   5.181   4.320 -0.2147  0.3461 -0.3215
  659TIP3    H1 1983   0.817   5.184   4.400  1.8700  0.2708 -1.6672
  659TIP3    H2 1984   0.784   5.096   4.281 -0.9930  0.5059 -1.0859
  660TIP3   OH2 1985   0.710   3.357   4.270  0.0268 -0.0815  0.1852
  660TIP3    H1 1986   0.652   3.393   4.337  0.6835  1.9378 -0.2750
  660TIP3    H2 1987   0.668   3.380   4.187  0.5973 -0.1275 -0.1257
  661TIP3   OH2 1988   1.807   4.897   5.140  0.7723  0.4541  0.0745
  661TIP3    H1 1989   1.821   4.833   5.210  0.4846 -0.3709 -0.6001
  661TIP3    H2 1990   1.754   4.966   5.180 -2.5315 -1.7829 -0.2716
  662TIP3   OH2 1991   0.931   3.901   4.426  0.1744 -0.0438 -0.2770
  662TIP3    H1 1992   0.919   3.829   4.364 -3.0633  0.3142 -0.1645
  662TIP3    H2 1993   0.959   3.859   4.507  0.6208 -0.9164 -0.8759
  663TIP3   OH2 1994   5.974   4.638   5.230 -0.1754  0.8779  0.1860
  663TIP3    H1 1995   5.883   4.611   5.219  0.1723 -0.8403  1.1579
  663TIP3    H2 1996   5.975   4.688   5.312 -0.0142 -0.4491  1.0208
  664TIP3   OH2 1997   3.668   1.951   0.576 -0.5094 -0.3161 -0.5172
  664TIP3    H1 1998   3.612   1.875   0.565 -1.2972 -0.1403  1.9003
  664TIP3    H2 1999   3.613   2.016   0.619  0.8469  0.7252 -0.2925
  665TIP3   OH2 2000   0.003   2.565   1.901  0.2045  0.2562 -0.5031
  665TIP3    H1 2001  -0.055   2.626   1.856  1.6426  0.3387 -2.2755
  665TIP3    H2 2002   0.091   2.587   1.870  0.7502 -2.7317 -1.2336
  666TIP3   OH2 2003   4.676   2.456   0.080  0.0002 -0.4884  0.1443
  666TIP3    H1 2004   4.606   2.411   0.127  0.6282 -0.5253  1.0421
  666TIP3    H2 2005   4.633   2.533   0.043 -0.7284 -1.0048 -0.1035
  667TIP3   OH2 2006   4.546   0.881   0.781 -0.0955  0.1110  0.6684
  667TIP3    H1 2007   4.606   0.916   0.847 -0.4423  0.3177  0.8800
  667TIP3    H2 2008   4.495   0.957   0.754  0.0519  0.0249  0.1562
  668TIP3   OH2 2009   0.764   4.479   5.115 -0.4600 -0.2727  0.0082
  668TIP3    H1 2010   0.834   4.415   5.104 -0.3467  0.0163 -1.0052
  668TIP3    H2 2011   0.768   4.504   5.207  0.3108 -0.7857  0.1138
  669TIP3   OH2 2012   3.694   2.958   0.985 -0.2441  0.0897  0.2819
  669TIP3    H1 2013   3.713   2.921   1.071  1.1550 -0.0682 -0.0881
  669TIP3    H2 2014   3.703   2.885   0.925 -0.9124  0.2714 -0.0496
  670TIP3   OH2 2015   4.813   2.045   1.353 -0.4489 -0.7132  0.6048
  670TIP3    H1 2016   4.894   2.095   1.361 -1.6638  1.0873  1.9210
  670TIP3    H2 2017   4.804   2.030   1.259  0.5294  0.5425  0.2978
  671TIP3   OH2 2018   4.127   0.484   4.619 -0.3274 -0.0083 -0.3011
  671TIP3    H1 2019   4.050   0.449   4.664 -0.5982 -0.1076 -0.8313
  671TIP3    H2 2020   4.197   0.480   4.683 -0.2169 -2.0573 -0.5202
  672TIP3   OH2 2021   4.551   5.166   5.134 -0.4881 -0.4202 -0.3518
  672TIP3    H1 2022   4.497   5.105   5.184 -1.7371  0.7705 -0.2199
  672TIP3    H2 2023   4.492   5.238   5.112  1.1145  1.0606  0.0661
  673TIP3   OH2 2024   3.456   1.864   0.776  0.8694 -0.0168 -0.4581
  673TIP3    H1 2025   3.487   1.863   0.867 -0.3022 -0.2749 -0.0528
  673TIP3    H2 2026   3.437   1.956   0.757 -0.7775 -0.2112  0.2180
  674TIP3   OH2 2027   4.801   1.033   0.044  0.1763  0.6040  0.4032
  674TIP3    H1 2028   4.894   1.042   0.020  0.0810  1.1278  0.2253
  674TIP3    H2 2029   4.799   0.956   0.101  0.2661 -1.2184 -1.9914
  675TIP3   OH2 2030   4.596   4.337   1.477 -0.3709  1.2285  0.3232
  675TIP3    H1 2031   4.541   4.359   1.401 -1.1038  2.6277  1.2313
  675TIP3    H2 2032   4.635   4.420   1.503 -0.7124  0.8952  1.9299
  676TIP3   OH2 2033   4.065   2.404   0.628 -0.3324 -0.3653  0.4547
  676TIP3    H1 2034   4.051   2.413   0.534  0.0919  1.3632  0.5346
  676TIP3    H2 2035   4.140   2.345   0.636  0.2372  0.2431 -0.3266
  677TIP3   OH2 2036   6.243   4.062   4.951 -0.7205 -0.3028  0.3922
  677TIP3    H1 2037   6.242   4.065   5.047 -1.4179  0.2930  0.3762
  677TIP3    H2 2038   6.150   4.055   4.927 -0.6760  1.3411 -0.2860
  678TIP3   OH2 2039   6.311   2.711   1.721  0.2102  0.2132 -0.0589
  678TIP3    H1 2040   6.321   2.737   1.630 -0.1614  1.6425  0.2931
  678TIP3    H2 2041   6.305   2.794   1.769 -0.3977 -0.5259  1.1670
  679TIP3   OH2 2042   5.137   0.479   1.085 -0.1031 -0.5226  0.2921
  679TIP3    H1 2043   5.231   0.472   1.097 -0.0931  0.5136  0.9488
  679TIP3    H2 2044   5.102   0.484   1.174 -0.8101 -1.2944  0.0594
  680TIP3   OH2 2045   0.914   5.091   5.166 -0.4062 -0.3744 -0.6512
  680TIP3    H1 2046   0.822   5.071   5.151 -0.5521  0.4901 -0.9474
  680TIP3    H2 2047   0.916   5.186   5.178  0.4536 -0.3811 -0.7028
  681TIP3   OH2 2048   3.700   2.269   1.459 -0.1200  0.0650  0.1265
  681TIP3    H1 2049   3.609   2.239   1.459 -0.3408  0.7315  0.6197
  681TIP3    H2 2050   3.695   2.361   1.436  0.4619  0.0201 -0.1815
  682TIP3   OH2 2051   3.267   0.123   4.319  0.5147  0.1083  0.1360
  682TIP3    H1 2052   3.242   0.201   4.367  1.7222  0.6198 -0.0607
  682TIP3    H2 2053   3.363   0.123   4.319  0.5301 -0.7201 -0.9042
  683TIP3   OH2 2054   5.592   2.604   2.455  0.6531  0.4553  0.0602
  683TIP3    H1 2055   5.623   2.628   2.367  2.6790 -0.0544  0.6244
  683TIP3    H2 2056   5.499   2.628   2.454  0.9631  1.7395 -1.7623
  684TIP3   OH2 2057   6.015   1.754   0.441  0.3314  0.1838 -0.1508
  684TIP3    H1 2058   5.966   1.684   0.396  0.7129  0.2736 -0.7089
  684TIP3    H2 2059   6.056   1.710   0.515 -1.3340  0.2822  0.8736
  685TIP3   OH2 2060   6.156   2.703   2.936 -0.8552  0.1245 -0.1607
  685TIP3    H1 2061   6.200   2.692   2.852 -1.3934 -0.1384 -0.4075
  685TIP3    H2 2062   6.091   2.771   2.920 -1.2423 -0.2207 -0.0711
  686TIP3   OH2 2063   0.411   1.868   1.574 -0.0817 -0.1043 -0.3869
  686TIP3    H1 2064   0.357   1.941   1.605 -1.0786 -0.5791 -0.9629
  686TIP3    H2 2065   0.380   1.793   1.625 -2.0652 -0.9978 -2.7675
  687TIP3   OH2 2066   0.406   4.022   4.366 -0.1805  0.4967  0.3917
  687TIP3    H1 2067   0.416   4.067   4.450  0.3189 -2.2556  1.8495
  687TIP3    H2 2068   0.312   4.016   4.353 -0.2769  0.2614  1.1513
  688TIP3   OH2 2069   1.503   2.919   1.357 -0.4499  0.5739 -0.0901
  688TIP3    H1 2070   1.491   2.926   1.262  0.9776  0.9013 -0.2588
  688TIP3    H2 2071   1.585   2.872   1.368 -0.5163  0.6853  0.9839
  689TIP3   OH2 2072   4.209   2.014   2.025  0.4266 -0.6189 -0.2506
  689TIP3    H1 2073   4.216   1.940   2.085 -0.5353 -0.6782 -0.2067
  689TIP3    H2 2074   4.243   2.089   2.074 -1.2773 -0.4709  0.7243
  690TIP3   OH2 2075   3.663   3.078   0.136 -0.4293  0.4913  0.0398
  690TIP3    H1 2076   3.571   3.054   0.143 -0.3582  0.6893  1.9133
  690TIP3    H2 2077   3.708   2.994   0.126 -0.8354  0.4280 -1.4157
  691TIP3   OH2 2078   4.525   4.699   0.813 -0.3298  0.7142  0.0228
  691TIP3    H1 2079   4.533   4.631   0.880  3.8046  0.2518 -0.7916
  691TIP3    H2 2080   4.526   4.781   0.863  3.0764  0.3884  0.6326
  692TIP3   OH2 2081   6.125   3.504   0.925  0.2099 -0.4348  0.2705
  692TIP3    H1 2082   6.208   3.542   0.951 -0.1221  0.0693  0.5997
  692TIP3    H2 2083   6.146   3.413   0.901  0.7958 -0.3962  0.6431
  693TIP3   OH2 2084   5.541   2.909   2.431  0.5887  0.0264  0.5455
  693TIP3    H1 2085   5.483   2.845   2.472 -0.8056  0.3790 -0.8346
  693TIP3    H2 2086   5.619   2.858   2.406 -0.5203 -1.1650 -0.5694
  694TIP3   OH2 2087   5.326   5.366   2.124  0.5426  0.4143 -0.1420
  694TIP3    H1 2088   5.272   5.331   2.053  0.0152  1.3855 -0.2286
  694TIP3    H2 2089   5.326   5.297   2.190  0.9580 -0.4580 -1.0375
  695TIP3   OH2 2090   5.469   4.475   4.608  0.4319  0.1313 -0.2769
  695TIP3    H1 2091   5.445   4.489   4.516  0.7176  0.0887 -0.3586
  695TIP3    H2 2092   5.420   4.541   4.656  0.8046  0.5973 -0.5330
  696TIP3   OH2 2093   0.550   1.412   0.657  0.7658 -0.3600  0.1292
  696TIP3    H1 2094   0.609   1.337   0.651 -1.8011 -2.5756  1.0570
  696TIP3    H2 2095   0.525   1.414   0.750  0.3484  1.2830 -0.0144
  697TIP3   OH2 2096   5.263   2.382   0.530  0.1731  0.0175 -0.3786
  697TIP3    H1 2097   5.350   2.363   0.497 -0.2579  0.3223 -1.7112
  697TIP3    H2 2098   5.204   2.355   0.460 -0.6569  2.3638 -0.6101
  698TIP3   OH2 2099   5.511   4.973   1.109 -0.3264 -0.3861 -0.2863
  698TIP3    H1 2100   5.482   5.063   1.129 -0.6643 -0.4983 -0.2568
  698TIP3    H2 2101   5.455   4.918   1.164  0.0309 -0.6033 -0.1427
  699TIP3   OH2 2102   5.883   1.714   1.494  0.3902  0.1414  0.1672
  699TIP3    H1 2103   5.975   1.723   1.468  0.4266  0.0066  0.2484
  699TIP3    H2 2104   5.875   1.623   1.523  0.4827  0.4416  1.1580
  700TIP3   OH2 2105   1.212   2.052   2.805  0.4357 -0.4042  0.2402
  700TIP3    H1 2106   1.119   2.032   2.793  0.1148  1.4420 -0.5398
  700TIP3    H2 2107   1.234   2.017   2.891 -0.5101 -2.4774 -0.3393
  701TIP3   OH2 2108   2.277   0.579   2.062  0.4534 -0.0995 -1.1503
  701TIP3    H1 2109   2.363   0.568   2.022  0.1264 -1.1122 -1.5709
  701TIP3    H2 2110   2.263   0.674   2.064  1.1149  0.0157 -2.0551
  702TIP3   OH2 2111   0.771   3.743   4.781  0.4389  0.5473  0.2130
  702TIP3    H1 2112   0.684   3.782   4.775  0.4063  0.5587  0.7939
  702TIP3    H2 2113   0.764   3.678   4.851 -0.0481 -1.8973 -2.0443
  703TIP3   OH2 2114   5.902   3.182   1.587 -0.1528 -0.0681  0.1236
  703TIP3    H1 2115   5.943   3.140   1.662  1.4775 -0.7344 -1.0949
  703TIP3    H2 2116   5.814   3.205   1.617  0.4904 -0.2454  2.2423
  704TIP3   OH2 2117   1.922   0.024   4.660 -0.1704 -0.3660 -0.0101
  704TIP3    H1 2118   1.929  -0.066   4.629 -0.6585 -0.7221  0.8792
  704TIP3    H2 2119   2.012   0.052   4.675  0.0470 -0.2962 -1.4328
  705TIP3   OH2 2120   1.092   4.676   0.422  0.3765 -0.2492  0.1476
  705TIP3    H1 2121   1.108   4.766   0.394  2.3891 -0.6732 -0.1578
  705TIP3    H2 2122   1.162   4.625   0.381 -1.5186 -2.1717 -0.7785
  706TIP3   OH2 2123   1.464   5.453   4.704 -0.7434  0.1510  0.5571
  706TIP3    H1 2124   1.474   5.522   4.639 -0.3559  0.7531  1.2375
  706TIP3    H2 2125   1.478   5.497   4.788 -0.5803 -0.7384  1.0099
  707TIP3   OH2 2126   5.743   5.178   5.274  0.5731 -0.0142  0.2787
  707TIP3    H1 2127   5.761   5.147   5.185  4.4824  0.5829  0.7608
  707TIP3    H2 2128   5.808   5.134   5.329  1.2653  3.0853  2.1162
  708TIP3   OH2 2129   4.391   3.369   1.168 -0.4502  0.0399 -0.0756
  708TIP3    H1 2130   4.313   3.314   1.154 -1.1160  0.7343  0.8907
  708TIP3    H2 2131   4.364   3.456   1.138 -0.1308  0.3453  0.5369
  709TIP3   OH2 2132   5.014   2.479   0.001  0.3064 -0.5134  0.1573
  709TIP3    H1 2133   4.975   2.404   0.044 -0.9305  0.7409  1.2650
  709TIP3    H2 2134   5.015   2.548   0.068  2.1532  0.2194 -0.5886
  710TIP3   OH2 2135   1.147   4.599   4.863  0.2431  0.2321  0.2139
  710TIP3    H1 2136   1.157   4.562   4.950 -1.0636 -0.5827  0.0260
  710TIP3    H2 2137   1.230   4.580   4.819 -0.2015 -2.0299  0.2867
  711TIP3   OH2 2138   4.463   1.675   0.042 -0.1546 -0.4110 -0.4032
  711TIP3    H1 2139   4.543   1.652   0.090 -0.8440 -0.4741  0.7338
  711TIP3    H2 2140   4.393   1.627   0.087 -1.3196  2.2235  0.7036
  712TIP3   OH2 2141   4.910   3.476   0.043  0.3716 -0.2298  0.4063
  712TIP3    H1 2142   4.909   3.428  -0.040  1.2856  2.7789 -1.4547
  712TIP3    H2 2143   4.827   3.455   0.085  0.5600 -3.0036 -0.5416
  713TIP3   OH2 2144   4.127   4.995   1.836  0.0802  0.1292 -0.3312
  713TIP3    H1 2145   4.124   5.027   1.746 -0.6963 -1.6437 -0.9519
  713TIP3    H2 2146   4.037   5.002   1.867 -0.0074 -1.0018 -0.3175
  714TIP3   OH2 2147   2.618   2.510   4.891  0.0953 -0.5020  0.1255
  714TIP3    H1 2148   2.655   2.466   4.815  1.5494  0.8099  0.0601
  714TIP3    H2 2149   2.523   2.502   4.879  0.3133 -1.1608 -1.3061
  715TIP3   OH2 2150   3.663   4.888   0.771  0.0271 -0.0580 -0.2864
  715TIP3    H1 2151   3.656   4.827   0.698  2.6612  1.6717 -2.0808
  715TIP3    H2 2152   3.726   4.954   0.742  2.0528  0.0750  3.9950
  716TIP3   OH2 2153   4.061   2.218   0.296  0.4777 -0.1287  0.1981
  716TIP3    H1 2154   3.974   2.225   0.337  0.4845  0.4138  0.1219
  716TIP3    H2 2155   4.091   2.130   0.318  0.3134  0.0198  1.0370
  717TIP3   OH2 2156   0.961   2.672   4.402  0.0695 -0.0301 -0.4063
  717TIP3    H1 2157   0.879   2.642   4.441  1.6498 -1.9861  1.5379
  717TIP3    H2 2158   1.017   2.693   4.476  1.3255  1.3199 -1.7162
  718TIP3   OH2 2159   5.883   3.794   0.138 -0.1434 -0.3970  0.5458
  718TIP3    H1 2160   5.929   3.805   0.221 -0.1776  1.3445  0.3452
  718TIP3    H2 2161   5.795   3.827   0.155 -0.0600  0.2604 -0.2627
  719TIP3   OH2 2162   6.030   3.192   1.842  0.5501  0.8408 -0.3116
  719TIP3    H1 2163   6.020   3.102   1.874  0.1219 -0.0206 -2.7394
  719TIP3    H2 2164   6.124   3.209   1.848  0.6632  0.1527 -0.0556
  720TIP3   OH2 2165   1.234   2.970   2.460  0.1810  0.4322  0.2119
  720TIP3    H1 2166   1.251   2.907   2.530  0.4405 -0.2768 -0.4718
  720TIP3    H2 2167   1.235   2.917   2.380  0.6336  1.3554 -0.3993
  721TIP3   OH2 2168   0.550   1.377   1.238  0.1874  0.1961  0.6645
  721TIP3    H1 2169   0.495   1.328   1.299  0.7084 -0.0736  0.9158
  721TIP3    H2 2170   0.628   1.323   1.228  0.0230  0.1476 -0.3894
  722TIP3   OH2 2171   6.193   3.814   1.052  0.0906 -0.2158  0.5126
  722TIP3    H1 2172   6.257   3.878   1.083  1.5142 -1.4060  0.0964
  722TIP3    H2 2173   6.246   3.743   1.014 -1.4988 -0.7361 -0.8035
  723TIP3   OH2 2174   5.797   3.451   1.347 -0.3962  0.1618 -0.3916
  723TIP3    H1 2175   5.791   3.452   1.252 -0.8528  1.9002 -0.3695
  723TIP3    H2 2176   5.866   3.513   1.368 -0.9052  0.4645  0.4420
  724TIP3   OH2 2177   4.537   3.570   1.521 -0.1561 -0.4732  0.0859
  724TIP3    H1 2178   4.559   3.485   1.482  3.2504  0.2850  0.2181
  724TIP3    H2 2179   4.621   3.604   1.553 -1.6549  2.4331  1.0546
  725TIP3   OH2 2180   5.686   5.355   0.745 -0.3489  0.2604 -0.1787
  725TIP3    H1 2181   5.613   5.299   0.717 -0.4833 -0.5599  1.7300
  725TIP3    H2 2182   5.716   5.397   0.665 -1.5322 -1.0524 -1.3417
  726TIP3   OH2 2183   0.541   3.122   1.038  0.0997  0.3447  0.2167
  726TIP3    H1 2184   0.561   3.094   0.949  2.7253  1.4547  0.4063
  726TIP3    H2 2185   0.546   3.042   1.091  1.4712  0.1446 -0.1939
  727TIP3   OH2 2186   1.302   3.246   1.607 -0.2204 -0.3130 -0.0728
  727TIP3    H1 2187   1.269   3.332   1.629 -0.2727 -0.0992 -0.9690
  727TIP3    H2 2188   1.326   3.207   1.691 -2.3172 -0.3041  0.5568
  728TIP3   OH2 2189   3.680   5.965   2.104 -0.4224 -0.0940 -0.1856
  728TIP3    H1 2190   3.758   5.972   2.048 -0.0801 -1.3870  0.1153
  728TIP3    H2 2191   3.607   5.986   2.046  0.1198  0.8433 -0.5428
  729TIP3   OH2 2192   5.917   5.081   1.637 -0.3800  0.1330  0.3135
  729TIP3    H1 2193   5.883   5.041   1.717 -1.5516 -0.8536 -0.6558
  729TIP3    H2 2194   5.888   5.023   1.567  0.3504  1.1622 -0.8702
  730TIP3   OH2 2195   6.451   1.940   2.389 -0.2680 -0.3416 -0.7592
  730TIP3    H1 2196   6.372   1.980   2.426  0.1712  2.1202 -2.3675
  730TIP3    H2 2197   6.461   1.981   2.303  2.5124 -0.9553 -0.7816
  731TIP3   OH2 2198   0.203   1.808   0.836  0.6013  0.1065  0.3772
  731TIP3    H1 2199   0.276   1.791   0.777  2.3863  1.7007  2.0683
  731TIP3    H2 2200   0.190   1.725   0.882  1.2322 -0.2317 -0.0504
  732TIP3   OH2 2201   5.739   4.363   3.342 -0.2202  0.6513 -0.0930
  732TIP3    H1 2202   5.675   4.350   3.272 -0.0574  0.7590 -0.2586
  732TIP3    H2 2203   5.824   4.356   3.299 -0.1206  1.9356 -0.1169
  733TIP3   OH2 2204   6.444   2.647   2.175  0.3627 -0.3958 -0.3799
  733TIP3    H1 2205   6.516   2.674   2.118  0.8224 -1.3165 -0.2465
  733TIP3    H2 2206   6.383   2.601   2.116  0.5113 -0.7449 -0.2671
  734TIP3   OH2 2207   5.686   3.527   2.677 -0.4337 -0.4978 -0.7268
  734TIP3    H1 2208   5.738   3.537   2.757 -1.1253 -1.6915 -0.1253
  734TIP3    H2 2209   5.597   3.511   2.707 -0.4603 -2.3455 -1.7097
  735TIP3   OH2 2210   4.626   4.178   2.861  0.5126 -0.2502 -0.0679
  735TIP3    H1 2211   4.716   4.162   2.834  0.7832 -0.5321  1.0171
  735TIP3    H2 2212   4.573   4.119   2.806  1.0942 -1.1380  0.3245
  736TIP3   OH2 2213   0.918   2.645   0.168 -0.0388  0.0215 -0.3229
  736TIP3    H1 2214   0.878   2.568   0.128 -0.8064  0.5544 -0.5802
  736TIP3    H2 2215   0.939   2.702   0.094 -0.0543  0.3390 -0.0809
  737TIP3   OH2 2216   0.768   3.318   2.189 -0.4190 -0.3046  0.6855
  737TIP3    H1 2217   0.747   3.232   2.225 -0.0750 -0.6964 -0.0373
  737TIP3    H2 2218   0.852   3.340   2.229  1.0174 -1.6789 -1.4248
  738TIP3   OH2 2219   3.799   0.891   4.017 -0.0416 -0.3086  0.0301
  738TIP3    H1 2220   3.892   0.870   4.015  0.1927  0.8196 -1.3861
  738TIP3    H2 2221   3.783   0.922   4.106  1.3733  1.4378 -0.3123
  739TIP3   OH2 2222   5.056   4.048   0.610  0.3536 -0.5180 -0.8360
  739TIP3    H1 2223   5.067   4.077   0.520  0.5641 -1.8415 -1.2419
  739TIP3    H2 2224   5.107   3.967   0.616 -0.1472 -0.7562  0.3017
  740TIP3   OH2 2225   0.217   4.013   1.943 -0.0012  0.2283  0.1648
  740TIP3    H1 2226   0.266   4.093   1.926  0.6266 -0.1835  0.0383
  740TIP3    H2 2227   0.268   3.966   2.009  1.4723 -1.7256 -2.2945
  741TIP3   OH2 2228   1.799   3.787   1.606 -0.2506 -0.1702  0.2344
  741TIP3    H1 2229   1.784   3.806   1.698  2.8568 -0.8287  0.9347
  741TIP3    H2 2230   1.829   3.870   1.569 -0.9755 -0.0401 -0.0639
  742TIP3   OH2 2231   1.705   1.872   1.356 -0.1334  0.8904 -0.0449
  742TIP3    H1 2232   1.789   1.910   1.333  0.9071 -1.9850 -1.2154
  742TIP3    H2 2233   1.666   1.845   1.273 -1.2921  0.3529  0.6484
  743TIP3   OH2 2234   5.615   4.322   3.110  0.4412  0.1649  0.3533
  743TIP3    H1 2235   5.680   4.253   3.094 -1.7895 -1.5559 -1.6806
  743TIP3    H2 2236   5.634   4.389   3.044  0.0473 -0.4202 -0.3597
  744TIP3   OH2 2237   0.443   2.879   1.187 -0.0822  0.1870 -0.3406
  744TIP3    H1 2238   0.520   2.837   1.151 -0.6388 -0.7919 -0.3965
  744TIP3    H2 2239   0.373   2.815   1.177 -0.3310  0.0273  2.1160
  745TIP3   OH2 2240   2.979   5.534   5.290 -0.8592  0.6619  0.1398
  745TIP3    H1 2241   3.060   5.486   5.307 -0.4994  1.6043  1.1863
  745TIP3    H2 2242   2.959   5.516   5.198 -0.0867 -0.4968  0.1835
  746TIP3   OH2 2243   3.119   3.774   1.576  0.8459  0.0306  0.0403
  746TIP3    H1 2244   3.173   3.730   1.643  0.5998 -1.3109 -0.6198
  746TIP3    H2 2245   3.168   3.762   1.495  2.1986  3.5051  0.2829
  747TIP3   OH2 2246   4.092   2.639   0.755 -0.1716  0.6921 -0.0310
  747TIP3    H1 2247   4.078   2.556   0.711 -0.0603  0.5807  0.1424
  747TIP3    H2 2248   4.050   2.628   0.840  0.1211  0.7000  0.1142
  748TIP3   OH2 2249   5.702   2.410   0.330  0.4437  0.5920 -0.0929
  748TIP3    H1 2250   5.721   2.386   0.239  0.6810  1.9672 -0.4137
  748TIP3    H2 2251   5.768   2.475   0.352 -0.4761  1.3038  0.6027
  749TIP3   OH2 2252   5.934   2.916   3.765 -0.4233 -0.8512 -0.5587
  749TIP3    H1 2253   5.959   2.843   3.708 -0.0445 -1.5810  0.5048
  749TIP3    H2 2254   5.855   2.884   3.810 -0.1329 -0.7005  0.0665
  750TIP3   OH2 2255   5.474   3.799   2.475  0.3030 -0.1557 -0.0238
  750TIP3    H1 2256   5.449   3.717   2.433  0.4128  0.0111 -0.4149
  750TIP3    H2 2257   5.436   3.794   2.563  0.6902 -0.8232  0.1132
  751TIP3   OH2 2258   5.146   4.684   1.661  0.4308  0.7859 -0.1956
  751TIP3    H1 2259   5.166   4.712   1.750 -0.6146  0.3914  0.1676
  751TIP3    H2 2260   5.230   4.659   1.624  1.0401  2.0334  0.2984
  752TIP3   OH2 2261   1.894   3.317   0.611 -0.1503 -0.2778 -0.0685
  752TIP3    H1 2262   1.948   3.238   0.612  0.8155  0.3774  0.4822
  752TIP3    H2 2263   1.808   3.287   0.580  0.4727 -1.3562 -0.7799
  753TIP3   OH2 2264   5.357   4.624   1.504 -0.5267 -0.3787  0.3429
  753TIP3    H1 2265   5.368   4.578   1.421 -0.8681  0.0381  0.0661
  753TIP3    H2 2266   5.443   4.617   1.546 -0.8315 -2.0353  0.7059
  754TIP3   OH2 2267   5.828   4.212   2.000  0.6461  0.6230  0.4494
  754TIP3    H1 2268   5.911   4.254   1.979  0.5658  0.7997  0.4923
  754TIP3    H2 2269   5.822   4.140   1.937  0.1531  1.4754 -0.4889
  755TIP3   OH2 2270   4.182   0.587   5.112  0.9853  0.0076  0.4818
  755TIP3    H1 2271   4.127   0.568   5.036  2.6416  0.5069 -0.8584
  755TIP3    H2 2272   4.152   0.526   5.179 -0.0673 -0.8799 -0.7697
  756TIP3   OH2 2273   0.104   2.145   1.656 -0.1609 -0.2199  0.4689
  756TIP3    H1 2274   0.103   2.087   1.580  2.2910 -0.4861  0.5949
  756TIP3    H2 2275   0.149   2.224   1.626 -2.8809  1.4078  0.4883
  757TIP3   OH2 2276   0.554   2.490   1.322  0.3908 -0.9059  0.1860
  757TIP3    H1 2277   0.556   2.540   1.403  1.4016  0.4618 -0.6631
  757TIP3    H2 2278   0.512   2.548   1.259  1.5623 -1.1218 -0.8128
  758TIP3   OH2 2279   1.753   5.158   4.808 -0.2832  0.0586  0.1255
  758TIP3    H1 2280   1.741   5.184   4.717  0.5551  1.9344  0.5303
  758TIP3    H2 2281   1.695   5.217   4.857 -0.7522 -0.9547  0.8120
  759TIP3   OH2 2282   5.493   4.772   0.937 -0.2798  0.3289  0.0290
  759TIP3    H1 2283   5.423   4.730   0.987  0.2661  1.1178  1.4826
  759TIP3    H2 2284   5.524   4.843   0.993  0.7670  0.8509 -1.1753
  760TIP3   OH2 2285   5.561   2.472   3.215  0.2432 -0.1326 -0.7826
  760TIP3    H1 2286   5.651   2.505   3.221  0.5195 -0.5869 -2.1542
  760TIP3    H2 2287   5.556   2.405   3.283  0.6094  0.6126  0.0033
  761TIP3   OH2 2288   3.439   2.153   1.328 -0.0981 -0.5221 -0.2600
  761TIP3    H1 2289   3.393   2.213   1.387  1.5982 -1.0744  1.7248
  761TIP3    H2 2290   3.453   2.204   1.248  0.2850  1.3520  0.9563
  762TIP3   OH2 2291   4.749   3.263   1.853 -0.4746  0.1174  0.2646
  762TIP3    H1 2292   4.786   3.300   1.773 -0.7439 -0.8524 -0.3228
  762TIP3    H2 2293   4.814   3.280   1.921  0.1621  0.1348 -0.3505
  763TIP3   OH2 2294   1.442   2.620   4.522  0.1921  0.3836 -0.2670
  763TIP3    H1 2295   1.521   2.619   4.575  1.4571 -1.1253 -2.1008
  763TIP3    H2 2296   1.414   2.528   4.520 -0.4347  0.5914 -1.3239
  764TIP3   OH2 2297   4.749   4.789   5.118  0.2452 -0.2667 -0.0143
  764TIP3    H1 2298   4.793   4.784   5.202  1.3342 -0.5916 -0.5986
  764TIP3    H2 2299   4.792   4.723   5.064 -1.2651 -0.9300 -0.4552
  765TIP3   OH2 2300   0.767   4.104   0.966  0.3389 -0.3483 -0.2705
  765TIP3    H1 2301   0.780   4.048   1.043 -0.5383 -0.5138 -0.2444
  765TIP3    H2 2302   0.798   4.190   0.993  0.8365 -0.6083 -0.0124
  766TIP3   OH2 2303   6.095   3.841   2.539  0.1679 -0.7274 -0.2757
  766TIP3    H1 2304   6.027   3.903   2.566  0.5449  0.0109 -1.0168
  766TIP3    H2 2305   6.121   3.870   2.452  3.8872  1.1152  1.3239
  767TIP3   OH2 2306   1.067   4.367   1.985 -0.0549 -0.3538 -0.0736
  767TIP3    H1 2307   1.092   4.348   2.075  1.2102  0.1567 -0.3035
  767TIP3    H2 2308   1.082   4.461   1.975 -2.5212  0.0765 -0.1017
  768TIP3   OH2 2309   1.009   3.375   3.627 -0.2802 -0.0367 -0.7058
  768TIP3    H1 2310   0.962   3.458   3.618  0.1253  0.1072 -1.4940
  768TIP3    H2 2311   1.018   3.342   3.538 -1.3366 -1.4366 -0.3185
  769TIP3   OH2 2312   5.965   3.286   3.030 -0.1367 -0.0316 -0.1888
  769TIP3    H1 2313   5.895   3.235   2.989 -1.3434  1.0038  0.5617
  769TIP3    H2 2314   5.920   3.350   3.085  1.4094  0.2667  0.7737
  770TIP3   OH2 2315   0.549   4.078   1.678  0.3041 -0.2894  0.0881
  770TIP3    H1 2316   0.561   4.007   1.615  2.0372 -0.9521  1.1420
  770TIP3    H2 2317   0.636   4.118   1.685 -0.4578  1.4022  0.1567
  771TIP3   OH2 2318   5.062   1.446   1.069  0.7631  1.0367  0.1562
  771TIP3    H1 2319   5.011   1.525   1.084  0.8614  1.4471 -1.5634
  771TIP3    H2 2320   5.060   1.433   0.974 -0.0573 -1.5533  0.4685
  772TIP3   OH2 2321   5.881   4.039   3.706 -0.2006 -0.3997 -0.3657
  772TIP3    H1 2322   5.951   4.005   3.650 -0.7041 -1.1671 -0.5481
  772TIP3    H2 2323   5.922   4.055   3.790  0.3287 -0.2697 -0.6507
  773TIP3   OH2 2324   1.455   0.376   1.075  0.1077 -0.3445  0.0450
  773TIP3    H1 2325   1.477   0.310   1.009 -0.4584 -0.7985  0.3031
  773TIP3    H2 2326   1.431   0.325   1.153 -1.3746  0.1347 -0.0829
  774TIP3   OH2 2327   2.899   0.500   1.855 -0.9001  0.2703  0.5509
  774TIP3    H1 2328   2.810   0.530   1.836 -0.7227 -1.5067 -3.6367
  774TIP3    H2 2329   2.953   0.539   1.787  0.8242 -1.9272  0.5795
  775TIP3   OH2 2330   1.202   5.227   2.774 -0.4124 -0.0294  0.2252
  775TIP3    H1 2331   1.202   5.184   2.689  2.6211  2.4588 -1.1526
  775TIP3    H2 2332   1.138   5.298   2.765  0.9724  1.1399 -0.5049
  776TIP3   OH2 2333   4.147   3.730   1.405  0.2748 -0.0024  0.2033
  776TIP3    H1 2334   4.130   3.636   1.404 -1.1346  0.2179 -2.8042
  776TIP3    H2 2335   4.063   3.770   1.428  0.4438  0.5572 -0.1195
  777TIP3   OH2 2336   2.269   4.681   2.811 -0.1773 -0.5218 -0.5149
  777TIP3    H1 2337   2.208   4.699   2.740  0.8554  0.9639 -1.0313
  777TIP3    H2 2338   2.229   4.721   2.888 -0.4220 -0.5822 -0.6106
  778TIP3   OH2 2339   5.885   3.737   1.015 -0.0090  0.0007  0.4240
  778TIP3    H1 2340   5.908   3.793   0.941 -0.9933  1.0206  0.8790
  778TIP3    H2 2341   5.947   3.762   1.084 -0.9944  1.1317  0.9031
  779TIP3   OH2 2342   4.065   5.397   2.312 -0.5808 -0.1055 -0.8146
  779TIP3    H1 2343   3.973   5.404   2.337 -0.9835  0.8202 -2.4964
  779TIP3    H2 2344   4.067   5.423   2.220  1.2918 -0.5905 -0.9255
  780TIP3   OH2 2345   5.436   2.775   1.613  0.6820 -0.4507 -0.5460
  780TIP3    H1 2346   5.490   2.725   1.552  0.1146  1.6581 -2.8645
  780TIP3    H2 2347   5.468   2.865   1.605 -0.2098  0.0628  1.4032
  781TIP3   OH2 2348   5.209   4.898   2.513 -0.4047  0.3700  0.0022
  781TIP3    H1 2349   5.270   4.902   2.587 -2.5828  0.2230  1.8619
  781TIP3    H2 2350   5.211   4.806   2.485  1.5384  0.7299 -1.1185
  782TIP3   OH2 2351   6.069   5.168   2.867  0.0976  0.2037  0.3544
  782TIP3    H1 2352   6.117   5.132   2.942 -0.5552 -0.4653  0.4662
  782TIP3    H2 2353   6.008   5.231   2.906 -1.6342 -1.5907  0.6317
  783TIP3   OH2 2354   6.409   5.223   1.013 -0.0573 -0.6118 -0.2904
  783TIP3    H1 2355   6.498   5.245   1.037 -0.1810 -2.5270  2.0823
  783TIP3    H2 2356   6.377   5.299   0.965  2.0325  1.0826  0.9499
  784TIP3   OH2 2357   0.100   4.512   1.200  0.4312 -0.2624 -0.3633
  784TIP3    H1 2358   0.131   4.538   1.286 -0.7410 -0.7249  0.2027
  784TIP3    H2 2359   0.164   4.448   1.169 -0.4745 -1.9365  1.2012
  785TIP3   OH2 2360   4.332   0.424   4.807  0.1635  0.4227 -0.4338
  785TIP3    H1 2361   4.281   0.364   4.862  0.7573 -0.5044 -0.8911
  785TIP3    H2 2362   4.423   0.406   4.830  0.3303  1.4877 -0.2311
  786TIP3   OH2 2363   1.295   4.315   1.597 -0.2045  0.0438 -0.5128
  786TIP3    H1 2364   1.248   4.316   1.514  1.6173 -0.0402 -1.5837
  786TIP3    H2 2365   1.337   4.229   1.599 -0.8081 -0.2167  0.8251
  787TIP3   OH2 2366   3.453   1.151   4.963  0.3810  0.1037 -0.6080
  787TIP3    H1 2367   3.412   1.092   4.899  0.9509  0.1593 -1.0292
  787TIP3    H2 2368   3.519   1.097   5.007 -0.9545 -0.3131  0.9025
  788TIP3   OH2 2369   2.872   5.662   4.585 -0.1153 -0.6148  0.7454
  788TIP3    H1 2370   2.944   5.622   4.635  0.2031 -3.5458 -1.8974
  788TIP3    H2 2371   2.915   5.714   4.518 -0.3867 -2.2992 -0.7819
  789TIP3   OH2 2372   4.935   4.212   0.810  0.3984  0.0406 -0.6027
  789TIP3    H1 2373   4.980   4.175   0.733  0.9147 -1.2054  0.2873
  789TIP3    H2 2374   4.998   4.204   0.881 -1.6705 -2.9668  0.9734
  790TIP3   OH2 2375   0.348   3.859   1.131  0.3615 -0.2178 -0.3427
  790TIP3    H1 2376   0.339   3.932   1.070 -0.5205  1.2534  1.4835
  790TIP3    H2 2377   0.431   3.875   1.176 -1.1555  1.2730  2.0428
  791TIP3   OH2 2378   2.337   3.046   0.448  0.1680  0.5266 -0.2845
  791TIP3    H1 2379   2.328   3.119   0.509 -0.5327  0.6506 -0.5301
  791TIP3    H2 2380   2.421   3.060   0.404  0.7038  0.4094  0.6825
  792TIP3   OH2 2381   1.880   2.522   0.444  0.8421 -0.3611 -0.2953
  792TIP3    H1 2382   1.809   2.487   0.497  0.8208 -0.2745 -0.2666
  792TIP3    H2 2383   1.860   2.494   0.355  2.2649 -2.7828  0.0982
  793TIP3   OH2 2384   6.157   2.924   3.240 -0.0789  0.5450  0.6997
  793TIP3    H1 2385   6.237   2.871   3.243 -1.6758 -2.1616 -1.7991
  793TIP3    H2 2386   6.159   2.967   3.155 -1.6646 -0.2625  0.2178
  794TIP3   OH2 2387   5.261   4.069   3.832 -0.7296  0.2961 -0.2509
  794TIP3    H1 2388   5.314   4.045   3.908 -0.9841  0.1305 -0.1215
  794TIP3    H2 2389   5.182   4.109   3.870 -0.9044  0.1173 -0.4247
  795TIP3   OH2 2390   2.186   1.966   0.584 -0.2458 -0.4806 -0.3596
  795TIP3    H1 2391   2.215   1.876   0.599 -1.4815 -0.7620  0.4030
  795TIP3    H2 2392   2.150   1.965   0.496  0.2588 -0.5895 -0.5686
  796TIP3   OH2 2393   5.700   4.511   2.888 -0.6411 -0.1722  0.0479
  796TIP3    H1 2394   5.705   4.583   2.825  0.1161 -0.4605 -0.2281
  796TIP3    H2 2395   5.789   4.476   2.891 -1.0641 -1.2465  0.0101
  797TIP3   OH2 2396   3.264   5.127   4.638  0.3588 -0.2553  0.0002
  797TIP3    H1 2397   3.182   5.100   4.679 -0.0605 -0.5500 -1.0427
  797TIP3    H2 2398   3.265   5.223   4.649 -0.9662 -0.0585 -1.5481
  798TIP3   OH2 2399   5.369   2.401   0.141 -0.6172 -0.2437 -0.0887
  798TIP3    H1 2400   5.419   2.446   0.073 -0.0315 -1.4538 -0.4752
  798TIP3    H2 2401   5.395   2.445   0.222  0.0451  0.0408 -0.4484
  799TIP3   OH2 2402   1.618   4.205   2.922 -0.8989 -0.0494  0.8482
  799TIP3    H1 2403   1.635   4.179   2.831 -1.0889  0.3988  0.6841
  799TIP3    H2 2404   1.534   4.251   2.919  0.3911  2.3937  0.7861
  800TIP3   OH2 2405   6.335   2.191   2.764  0.5300  0.0108  0.9008
  800TIP3    H1 2406   6.378   2.148   2.838  0.4746 -0.5290  0.6266
  800TIP3    H2 2407   6.404   2.203   2.700  0.6793  0.9214  1.2309
  801TIP3   OH2 2408   2.148   5.045   4.719 -0.2119 -0.7270 -0.4285
  801TIP3    H1 2409   2.101   5.004   4.792 -0.5210  1.8157  0.8425
  801TIP3    H2 2410   2.235   5.005   4.720 -1.1381 -2.8164 -0.5174
  802TIP3   OH2 2411   1.216   5.220   1.763 -0.0334  0.0112  0.1155
  802TIP3    H1 2412   1.249   5.290   1.706  0.5298  0.5593  1.0993
  802TIP3    H2 2413   1.166   5.266   1.831  0.4406 -0.5270  0.8408
  803TIP3   OH2 2414   5.643   4.140   2.238 -0.2688 -0.4042  0.0533
  803TIP3    H1 2415   5.735   4.132   2.262 -0.1588  2.2272  0.6535
  803TIP3    H2 2416   5.636   4.096   2.153  2.2528  2.1522 -1.5789
  804TIP3   OH2 2417   0.476   2.505   0.408  0.4409 -0.4717 -0.2710
  804TIP3    H1 2418   0.453   2.598   0.409  0.8260 -0.3857  0.7374
  804TIP3    H2 2419   0.448   2.474   0.322  0.7700  0.6940 -0.8003
  805TIP3   OH2 2420   0.077   1.944   1.441  0.2400  0.2265 -0.0927
  805TIP3    H1 2421   0.083   2.012   1.373 -1.5286 -0.0160 -0.5242
  805TIP3    H2 2422   0.110   1.865   1.398  1.7675  0.6804  0.2292
  806TIP3   OH2 2423   0.879   3.277   2.492  0.8585 -0.4980 -0.7595
  806TIP3    H1 2424   0.856   3.313   2.406 -1.0901 -2.3192 -1.0548
  806TIP3    H2 2425   0.910   3.189   2.473  1.4605 -0.5247  0.3292
  807TIP3   OH2 2426   4.577   2.685   2.731 -0.8055  0.2057 -0.3883
  807TIP3    H1 2427   4.609   2.762   2.778 -0.6699  0.1720 -0.4272
  807TIP3    H2 2428   4.619   2.611   2.775  0.6438  0.2604 -1.6214
  808TIP3   OH2 2429   6.410   3.393   1.979  0.2923 -0.1406  0.3989
  808TIP3    H1 2430   6.389   3.373   2.070 -1.0260  1.6495  0.5041
  808TIP3    H2 2431   6.473   3.465   1.983 -0.8319  0.8918 -0.1090
  809TIP3   OH2 2432   2.064   1.449   1.391  0.4025 -0.3056  0.2893
  809TIP3    H1 2433   2.059   1.359   1.423 -1.2450 -0.6097 -0.7237
  809TIP3    H2 2434   1.996   1.453   1.323  1.4023  1.3130 -0.6321
  810TIP3   OH2 2435   3.936   4.188   0.495  0.2412 -0.1583 -0.4020
  810TIP3    H1 2436   4.024   4.212   0.467  1.7457 -1.0880  3.2302
  810TIP3    H2 2437   3.943   4.096   0.521 -1.6420 -0.0781  0.4973
  811TIP3   OH2 2438   1.247   5.634   0.510  0.1506 -0.4538  0.1504
  811TIP3    H1 2439   1.259   5.539   0.512 -0.0791 -0.4914 -0.1143
  811TIP3    H2 2440   1.266   5.663   0.599 -0.7735 -0.8670  0.4818
  812TIP3   OH2 2441   5.305   3.585   0.779  0.3901  0.0340 -0.5980
  812TIP3    H1 2442   5.284   3.498   0.814 -2.4381  0.5730 -0.9130
  812TIP3    H2 2443   5.323   3.570   0.686 -0.1926 -0.1853 -0.6735
  813TIP3   OH2 2444   4.290   0.564   4.191  1.0626 -0.1985 -0.1134
  813TIP3    H1 2445   4.351   0.506   4.236  0.2501 -1.9331 -1.2024
  813TIP3    H2 2446   4.237   0.602   4.261  1.2383 -1.1946  0.5678
  814TIP3   OH2 2447   1.936   2.837   1.653  0.5148 -0.2211  0.1569
  814TIP3    H1 2448   1.902   2.895   1.585  0.8960 -0.2657 -0.0687
  814TIP3    H2 2449   1.862   2.780   1.674 -0.5809  1.8172  2.0030
  815TIP3   OH2 2450   3.554   0.164   4.348 -0.4434  0.3814  0.2720
  815TIP3    H1 2451   3.630   0.154   4.291 -0.2513 -0.5201  0.6829
  815TIP3    H2 2452   3.558   0.089   4.407 -2.2701 -0.2525 -0.4042
  816TIP3   OH2 2453   3.329   0.184   2.184 -1.0371  0.1021 -0.1650
  816TIP3    H1 2454   3.381   0.163   2.262  0.8622  0.3316 -1.3309
  816TIP3    H2 2455   3.277   0.260   2.210  0.5873  1.0280  0.4743
  817TIP3   OH2 2456   3.177   4.788   0.760 -0.1973 -0.7227 -0.4123
  817TIP3    H1 2457   3.158   4.786   0.854 -0.7102  0.1670 -0.4950
  817TIP3    H2 2458   3.166   4.879   0.735  3.5109 -0.2576 -0.6066
  818TIP3   OH2 2459   2.157   0.813   4.494  0.1752 -0.2180 -0.2313
  818TIP3    H1 2460   2.212   0.844   4.566  1.2882 -1.5503 -0.4956
  818TIP3    H2 2461   2.109   0.738   4.531 -1.0157  0.5599 -0.1812
  819TIP3   OH2 2462   1.751   3.817   1.861  0.2305 -0.0510 -0.6420
  819TIP3    H1 2463   1.750   3.765   1.941 -1.1899 -0.3549 -0.8518
  819TIP3    H2 2464   1.717   3.903   1.887 -0.2523 -0.1548 -0.9121
  820TIP3   OH2 2465   5.917   2.461   1.106 -0.0672  0.2387  0.1754
  820TIP3    H1 2466   5.852   2.508   1.054 -1.4220 -2.0730 -0.3349
  820TIP3    H2 2467   5.957   2.399   1.045  1.0685  0.1482  0.9991
  821TIP3   OH2 2468   5.783   4.013   1.818 -0.1901  0.2048  0.3027
  821TIP3    H1 2469   5.742   4.022   1.732 -0.5579  0.9153  0.5506
  821TIP3    H2 2470   5.724   3.955   1.866 -0.3937  0.4466  0.3412
  822TIP3   OH2 2471   1.681   3.142   1.212  0.2680 -0.8643 -0.9786
  822TIP3    H1 2472   1.595   3.157   1.250  0.4141  0.3967 -1.1441
  822TIP3    H2 2473   1.731   3.221   1.231  1.4998 -1.7030 -0.5974
  823TIP3   OH2 2474   2.244   1.298   4.965  0.1894 -0.2053 -0.0873
  823TIP3    H1 2475   2.325   1.342   4.939 -1.6981  2.0859 -2.3330
  823TIP3    H2 2476   2.199   1.280   4.883 -2.4329  0.2459  1.1887
  824TIP3   OH2 2477   0.037   1.775   0.610  0.4332  0.7565 -0.2558
  824TIP3    H1 2478   0.076   1.792   0.696 -0.5357  0.6392  0.2195
  824TIP3    H2 2479   0.085   1.700   0.576 -0.3083 -0.2701  0.9348
  825TIP3   OH2 2480   3.390   2.338   2.298 -0.0011 -0.1344  0.0152
  825TIP3    H1 2481   3.419   2.426   2.323 -1.4037  0.6503 -1.0456
  825TIP3    H2 2482   3.302   2.330   2.336 -0.3160 -0.6456 -0.7957
  826TIP3   OH2 2483   1.516   2.950   1.679  0.0343  0.3936 -0.0805
  826TIP3    H1 2484   1.534   2.894   1.755 -1.0630  0.4426  0.2229
  826TIP3    H2 2485   1.533   2.894   1.603  2.2531  0.6873  0.1744
  827TIP3   OH2 2486   2.654   2.413   0.138 -0.6398 -0.2058  0.1367
  827TIP3    H1 2487   2.607   2.331   0.124  0.2463 -0.7693  0.4210
  827TIP3    H2 2488   2.726   2.390   0.197  1.4659  0.1048 -2.2086
  828TIP3   OH2 2489   1.861   3.520   1.681  0.3070 -0.1601 -0.2245
  828TIP3    H1 2490   1.811   3.515   1.762  0.3773 -0.0847 -0.1769
  828TIP3    H2 2491   1.874   3.613   1.666  0.8588 -0.1998  0.0237
  829TIP3   OH2 2492   0.614   3.738   2.472  0.1089 -0.4103  0.4201
  829TIP3    H1 2493   0.603   3.712   2.564  0.0524 -0.2072  0.4704
  829TIP3    H2 2494   0.582   3.662   2.422  2.1903 -1.4205  0.5507
  830TIP3   OH2 2495   2.618   2.711   1.872 -0.4567 -0.0847 -0.1653
  830TIP3    H1 2496   2.583   2.672   1.792  0.2097  0.5667 -0.7841
  830TIP3    H2 2497   2.541   2.734   1.923 -0.8850 -0.6671 -0.5344
  831TIP3   OH2 2498   0.580   5.665   1.527 -0.3260  0.3913  0.0471
  831TIP3    H1 2499   0.488   5.690   1.519 -0.8622 -1.7333 -0.6481
  831TIP3    H2 2500   0.623   5.710   1.454 -0.6027  2.1869  0.9524
  832TIP3   OH2 2501   1.832   0.231   4.252  0.4118 -0.1156 -0.4650
  832TIP3    H1 2502   1.818   0.304   4.312 -0.4621  0.1774 -1.0138
  832TIP3    H2 2503   1.927   0.220   4.249  0.4846  0.1311  0.6523
  833TIP3   OH2 2504   3.331   2.955   2.471  0.5216  0.1888 -0.0329
  833TIP3    H1 2505   3.366   2.969   2.559  1.0076 -1.4846  0.0633
  833TIP3    H2 2506   3.261   2.891   2.484  0.9563 -0.4745 -0.9267
  834TIP3   OH2 2507   5.952   3.869   0.373 -0.4959 -0.1298  0.6185
  834TIP3    H1 2508   5.959   3.958   0.338 -1.7069 -1.4008 -3.0333
  834TIP3    H2 2509   5.866   3.867   0.416 -0.7998  0.2597  0.0377
  835TIP3   OH2 2510   5.877   2.875   0.270  0.0225 -0.2729  0.5351
  835TIP3    H1 2511   5.891   2.848   0.360 -1.6642  0.6115  1.0681
  835TIP3    H2 2512   5.812   2.813   0.236 -0.4197  0.2968  0.3528
  836TIP3   OH2 2513   0.554   0.413   5.198 -0.0238 -0.1291  0.2010
  836TIP3    H1 2514   0.615   0.373   5.136 -0.3847 -0.0873 -0.1792
  836TIP3    H2 2515   0.528   0.341   5.256 -1.0698 -0.5753 -0.7946
  837TIP3   OH2 2516   0.142   1.941   1.084  0.2669 -0.4539 -0.1945
  837TIP3    H1 2517   0.140   2.032   1.054  2.0017 -0.4099 -0.2534
  837TIP3    H2 2518   0.184   1.893   1.013 -0.1940 -1.2120  0.0414
  838TIP3   OH2 2519   5.723   2.922   0.899  0.6300 -0.5946 -0.4724
  838TIP3    H1 2520   5.716   2.954   0.989 -0.2486 -2.4789  0.1468
  838TIP3    H2 2521   5.646   2.958   0.855 -0.6028 -2.1577  0.3417
  839TIP3   OH2 2522   1.489   4.445   1.155 -0.7498  0.7482 -0.2784
  839TIP3    H1 2523   1.450   4.530   1.135  0.9152  1.9443  1.3880
  839TIP3    H2 2524   1.582   4.464   1.170 -0.4094 -1.3268  0.4508
  840TIP3   OH2 2525   4.359   2.505   3.813  0.1284  0.1366 -0.0946
  840TIP3    H1 2526   4.439   2.506   3.866 -0.4009  0.0524  0.7077
  840TIP3    H2 2527   4.373   2.433   3.751  0.9239  0.4987 -0.3386
  841TIP3   OH2 2528   2.452   2.527   1.423  0.0577 -0.0324 -0.0627
  841TIP3    H1 2529   2.358   2.530   1.406  0.0193  0.2254  0.1805
  841TIP3    H2 2530   2.493   2.535   1.337 -0.1347  0.8207 -0.0822
  842TIP3   OH2 2531   0.138   3.596   0.668 -0.2944  0.3037  0.3653
  842TIP3    H1 2532   0.213   3.538   0.666 -0.5843 -0.0243 -1.5408
  842TIP3    H2 2533   0.080   3.559   0.735 -0.1172 -1.1241 -0.2741
  843TIP3   OH2 2534   0.814   1.749   1.639 -0.0806 -0.3017 -0.0853
  843TIP3    H1 2535   0.830   1.668   1.590  1.3519  0.0478 -0.2231
  843TIP3    H2 2536   0.796   1.814   1.571  0.4226 -0.1452 -0.0716
  844TIP3   OH2 2537   0.817   4.592   1.846  0.4352 -0.0284  0.7023
  844TIP3    H1 2538   0.842   4.543   1.768 -1.4544  0.0345  0.0300
  844TIP3    H2 2539   0.758   4.534   1.894  1.7279 -0.1437  2.2043
  845TIP3   OH2 2540   4.382   4.991   5.264 -0.2397 -0.2441 -0.0519
  845TIP3    H1 2541   4.308   5.041   5.298 -0.4827 -0.2092 -0.6238
  845TIP3    H2 2542   4.409   4.934   5.337 -0.0355  0.6273  0.5606
  846TIP3   OH2 2543   2.077   4.388   1.215  0.0972  0.4501  0.5774
  846TIP3    H1 2544   2.144   4.397   1.147 -0.3676  0.0592  0.0675
  846TIP3    H2 2545   2.016   4.460   1.199 -0.3614 -0.0193  0.1791
  847TIP3   OH2 2546   2.514   5.506   5.120  0.0540  0.3869 -0.3777
  847TIP3    H1 2547   2.483   5.416   5.117  0.5178  0.1429  1.7163
  847TIP3    H2 2548   2.595   5.503   5.170  0.7439  1.7882 -1.3666
  848TIP3   OH2 2549   2.914   5.391   3.747  0.0585 -0.3878 -0.5845
  848TIP3    H1 2550   2.907   5.303   3.709  0.7032  0.3434 -2.4521
  848TIP3    H2 2551   2.824   5.411   3.775  0.0133 -1.8639  0.4434
  849TIP3   OH2 2552   1.408   2.663   1.669  0.1654  0.8991 -0.2737
  849TIP3    H1 2553   1.418   2.668   1.574  3.1658  0.5063 -0.0484
  849TIP3    H2 2554   1.397   2.570   1.688 -3.1933  1.2336 -0.4208
  850TIP3   OH2 2555   1.987   4.071   1.098 -0.0015  0.7418  0.2009
  850TIP3    H1 2556   1.939   4.153   1.112 -0.6390  0.3179  0.5216
  850TIP3    H2 2557   2.056   4.072   1.164 -0.8067  0.4189  1.0596
  851TIP3   OH2 2558   6.038   5.265   4.349  0.8259  0.1077  0.6731
  851TIP3    H1 2559   6.059   5.347   4.305 -1.1053  0.7182  0.8492
  851TIP3    H2 2560   6.111   5.251   4.410  2.1083  0.6942 -0.7097
  852TIP3   OH2 2561   6.089   4.729   0.482  0.5381 -0.0975 -0.4107
  852TIP3    H1 2562   6.033   4.687   0.548 -0.3286 -0.1784 -1.1941
  852TIP3    H2 2563   6.152   4.780   0.533  1.3163 -1.9683  0.5608
  853TIP3   OH2 2564   0.666   4.146   2.788 -0.1565  0.0684  0.3874
  853TIP3    H1 2565   0.612   4.069   2.768 -0.7751  1.6007 -4.2266
  853TIP3    H2 2566   0.604   4.213   2.816 -0.0218  0.0650  0.6993
  854TIP3   OH2 2567   4.210   1.731   4.262  0.3941 -0.1105 -0.1938
  854TIP3    H1 2568   4.159   1.801   4.303  0.4125  1.1457 -2.2446
  854TIP3    H2 2569   4.275   1.708   4.327  0.6586  2.0908  0.3769
  855TIP3   OH2 2570   5.785   4.068   0.657 -0.3704 -0.1752  0.1728
  855TIP3    H1 2571   5.807   4.160   0.648  0.4163 -0.4326 -0.5828
  855TIP3    H2 2572   5.776   4.036   0.567  1.7876 -1.4144  0.3529
  856TIP3   OH2 2573   5.771   3.649   2.389  0.2138  0.5166  0.3850
  856TIP3    H1 2574   5.708   3.584   2.421 -0.5485 -0.0648 -2.1737
  856TIP3    H2 2575   5.849   3.598   2.368  0.4477  0.7769  0.6319
  857TIP3   OH2 2576   3.176   3.425   2.578 -0.3423  0.4463  0.0856
  857TIP3    H1 2577   3.160   3.345   2.528  1.8270  0.1938 -0.2513
  857TIP3    H2 2578   3.191   3.394   2.667 -0.7548  0.5832  0.2006
  858TIP3   OH2 2579   3.523   3.167   1.029 -0.3684  0.2594  0.2160
  858TIP3    H1 2580   3.598   3.109   1.013  0.3609  1.6327 -1.5196
  858TIP3    H2 2581   3.563   3.251   1.052 -1.3941  0.6429  0.5867
  859TIP3   OH2 2582   2.365   1.022   0.192 -0.3357 -0.7864 -0.5281
  859TIP3    H1 2583   2.292   1.072   0.229  0.2894 -0.6822  0.5740
  859TIP3    H2 2584   2.332   0.932   0.185 -0.3465 -0.8695  0.5974
  860TIP3   OH2 2585   5.812   1.274   4.924 -0.5452  0.4254  0.4123
  860TIP3    H1 2586   5.815   1.325   5.005  0.6815 -0.2651  0.8112
  860TIP3    H2 2587   5.835   1.336   4.856 -2.6648  1.2766  0.4518
  861TIP3   OH2 2588   2.613   3.085   0.413  0.4962 -0.5885  0.2729
  861TIP3    H1 2589   2.657   3.011   0.370 -1.3453 -1.3549 -0.3262
  861TIP3    H2 2590   2.642   3.162   0.364  2.6022 -0.8468  1.0332
  862TIP3   OH2 2591   4.292   5.643   4.908 -0.2807  0.3008  0.5120
  862TIP3    H1 2592   4.265   5.682   4.825  0.2996 -0.9179 -0.2715
  862TIP3    H2 2593   4.212   5.639   4.961 -0.6024  1.3072  0.1045
  863TIP3   OH2 2594   5.431   2.857   2.785  0.1386 -0.4301 -0.2118
  863TIP3    H1 2595   5.337   2.841   2.774  0.2401 -0.1976 -1.4760
  863TIP3    H2 2596   5.471   2.770   2.781  0.1945 -0.3453 -2.0504
  864TIP3   OH2 2597   1.052   2.599   2.626  0.2178 -0.0182 -0.1449
  864TIP3    H1 2598   1.088   2.541   2.559  0.4293  0.4648 -0.4480
  864TIP3    H2 2599   0.975   2.639   2.586 -0.4609 -0.7687  0.3782
  865TIP3   OH2 2600   2.402   2.800   2.350  0.1784  0.6205 -0.3105
  865TIP3    H1 2601   2.457   2.879   2.351 -0.3402  0.9791 -0.0913
  865TIP3    H2 2602   2.448   2.740   2.292  0.7922  0.9342 -0.1570
  866TIP3   OH2 2603   0.422   2.614   3.192  0.0837  0.6453  0.2347
  866TIP3    H1 2604   0.516   2.620   3.211  0.0582  1.4099  0.1545
  866TIP3    H2 2605   0.418   2.569   3.107  0.1677 -3.2541  2.2289
  867TIP3   OH2 2606   2.871   5.748   1.776  0.0736  0.5120  0.1412
  867TIP3    H1 2607   2.959   5.777   1.751  1.1571 -1.2876  1.7311
  867TIP3    H2 2608   2.853   5.674   1.718  0.1482  0.0797  0.6642
  868TIP3   OH2 2609   2.019   3.210   0.279  0.1341  0.0425 -0.2427
  868TIP3    H1 2610   2.106   3.175   0.259  0.5053  1.1739 -0.6373
  868TIP3    H2 2611   1.969   3.134   0.309  1.2263 -0.6361 -0.1110
  869TIP3   OH2 2612   0.357   2.289   1.488  0.5848 -0.4562 -0.1103
  869TIP3    H1 2613   0.369   2.374   1.529 -1.6582 -0.4050  0.4506
  869TIP3    H2 2614   0.329   2.309   1.398  1.1293 -0.6087 -0.3196
  870TIP3   OH2 2615   5.989   3.504   3.790  0.1376  0.4349  0.2918
  870TIP3    H1 2616   6.078   3.489   3.759 -0.5745 -0.1368 -1.5238
  870TIP3    H2 2617   5.991   3.480   3.883  1.7379 -0.0569  0.1350
  871TIP3   OH2 2618   5.996   1.599   4.381  0.3913  0.1339 -0.0643
  871TIP3    H1 2619   6.040   1.593   4.297 -0.0833  1.6717 -0.4351
  871TIP3    H2 2620   6.066   1.598   4.446  0.7327 -1.4955 -0.4479
  872TIP3   OH2 2621   6.044   2.898   1.950 -0.1957 -0.4408  0.0194
  872TIP3    H1 2622   6.068   2.938   2.034  0.4970 -0.3885 -0.1984
  872TIP3    H2 2623   6.119   2.916   1.893 -2.2477  2.8461 -1.7694
  873TIP3   OH2 2624   3.197   4.702   4.755  0.0385 -0.2391  0.2822
  873TIP3    H1 2625   3.282   4.658   4.754 -0.4919 -1.2675 -0.6349
  873TIP3    H2 2626   3.135   4.634   4.728 -0.7780  1.1113 -1.3317
  874TIP3   OH2 2627   0.886   3.663   0.448 -0.0768  0.1743  0.3506
  874TIP3    H1 2628   0.868   3.642   0.539  0.4416 -1.2107  0.1454
  874TIP3    H2 2629   0.890   3.759   0.446  0.2300  0.2070  1.8391
  875TIP3   OH2 2630   6.462   3.018   1.026 -0.1568 -0.1626 -0.0013
  875TIP3    H1 2631   6.383   2.988   1.070  1.2673  2.0194  4.2457
  875TIP3    H2 2632   6.524   2.946   1.035 -0.7592 -0.7927 -0.8853
  876TIP3   OH2 2633   0.480   2.250   2.562  0.6319 -0.1156  0.1016
  876TIP3    H1 2634   0.433   2.215   2.638  0.4636  1.4933  0.7664
  876TIP3    H2 2635   0.415   2.251   2.492 -0.2393  1.7318  0.9136
  877TIP3   OH2 2636   6.508   3.241   1.403  0.7006 -0.2687 -0.5535
  877TIP3    H1 2637   6.510   3.229   1.308 -2.9415 -1.3696 -0.5712
  877TIP3    H2 2638   6.453   3.318   1.417 -0.9948 -1.6690  0.7275
  878TIP3   OH2 2639   5.824   0.087   4.961  0.2009  0.2876  0.4090
  878TIP3    H1 2640   5.822   0.179   4.985 -0.8173  0.4148 -0.1050
  878TIP3    H2 2641   5.842   0.087   4.867 -0.5046  0.0005  0.2700
  879TIP3   OH2 2642   2.079   3.591   0.198 -0.1732 -0.4666 -0.0897
  879TIP3    H1 2643   2.155   3.561   0.247 -0.5877 -0.2260  0.6961
  879TIP3    H2 2644   2.007   3.536   0.227 -0.7198  0.6049  0.6130
  880TIP3   OH2 2645   1.788   3.303   1.405 -0.1393 -0.3099  0.4053
  880TIP3    H1 2646   1.871   3.349   1.418  0.4516 -1.0098 -0.8089
  880TIP3    H2 2647   1.722   3.363   1.441  0.8309  0.5164  0.8359
  881TIP3   OH2 2648   0.012   0.957   5.131 -0.2917 -0.0253 -0.5399
  881TIP3    H1 2649   0.065   1.020   5.083  1.6391 -0.4577  0.9469
  881TIP3    H2 2650  -0.071   1.002   5.147  0.5001  1.5691 -0.8371
  882TIP3   OH2 2651   2.467   4.700   1.556 -0.2805  0.3379  0.2114
  882TIP3    H1 2652   2.402   4.725   1.491 -1.1236 -1.9356  0.1141
  882TIP3    H2 2653   2.471   4.774   1.617 -0.9516  1.6292 -1.2967
  883TIP3   OH2 2654   4.975   3.634   2.176 -0.2070 -0.3656  0.2004
  883TIP3    H1 2655   4.919   3.559   2.196  0.3368 -0.7822  0.1809
  883TIP3    H2 2656   5.016   3.611   2.092  0.4781 -0.3408  0.5292
  884TIP3   OH2 2657   4.361   5.222   3.307  0.5021  0.4261 -0.6621
  884TIP3    H1 2658   4.299   5.150   3.304 -0.4832  1.2706 -0.7979
  884TIP3    H2 2659   4.447   5.180   3.300  0.0127 -0.8551  0.7954
  885TIP3   OH2 2660   1.427   3.190   1.382 -0.0722 -0.3001 -0.2531
  885TIP3    H1 2661   1.455   3.102   1.356  1.8516  0.0112  0.6687
  885TIP3    H2 2662   1.408   3.182   1.476  1.3548  0.5504  0.1192
  886TIP3   OH2 2663   2.314   2.752   1.182 -0.5115 -0.2778  0.0521
  886TIP3    H1 2664   2.329   2.759   1.276 -0.1446 -1.8765  0.1171
  886TIP3    H2 2665   2.303   2.843   1.153 -3.0772  0.1173  2.0310
  887TIP3   OH2 2666   6.162   2.442   2.807  0.7981  0.0681 -0.5925
  887TIP3    H1 2667   6.118   2.371   2.853 -0.2406 -0.3420 -2.1547
  887TIP3    H2 2668   6.249   2.408   2.787  1.8042  0.7925  2.3001
  888TIP3   OH2 2669   4.895   2.444   0.272 -0.2009  0.3772 -0.0987
  888TIP3    H1 2670   4.889   2.536   0.297 -0.6622  0.0912  0.8864
  888TIP3    H2 2671   4.825   2.432   0.208 -1.0786  0.3725  0.8576
  889TIP3   OH2 2672   0.232   5.485   0.584  0.0823  0.0651  0.0903
  889TIP3    H1 2673   0.221   5.391   0.592 -3.5345  0.4139 -0.0764
  889TIP3    H2 2674   0.237   5.517   0.674 -1.0058 -0.0633  0.2002
  890TIP3   OH2 2675   1.717   4.234   0.926 -0.4489 -0.3663 -0.3825
  890TIP3    H1 2676   1.681   4.149   0.952 -2.3229  0.9344  1.4711
  890TIP3    H2 2677   1.765   4.264   1.003 -0.4548  0.5785 -0.7394
  891TIP3   OH2 2678   1.182   0.584   0.821 -0.1226 -0.3941 -0.1958
  891TIP3    H1 2679   1.103   0.571   0.769 -1.0904  1.3225  0.8004
  891TIP3    H2 2680   1.244   0.625   0.761 -0.4887 -0.4228 -0.5939
  892TIP3   OH2 2681   2.994   4.734   1.249 -0.0314  0.0566 -0.1445
  892TIP3    H1 2682   2.969   4.743   1.157  0.5426 -0.7874 -0.3904
  892TIP3    H2 2683   3.028   4.645   1.256 -1.6004 -0.4613  1.2553
  893TIP3   OH2 2684   2.174   3.842   0.193  0.1305 -0.2653 -0.1755
  893TIP3    H1 2685   2.236   3.843   0.120  0.2071  0.0091 -0.1070
  893TIP3    H2 2686   2.142   3.752   0.196 -1.0743  0.0928 -1.5548
  894TIP3   OH2 2687   0.417   4.824   1.349 -0.1724 -0.4609 -0.0637
  894TIP3    H1 2688   0.457   4.771   1.281  1.0703 -0.0786  0.3681
  894TIP3    H2 2689   0.467   4.906   1.349 -0.3059 -0.3728  1.1506
  895TIP3   OH2 2690   2.598   2.802   0.699  0.3974 -0.0675 -0.4143
  895TIP3    H1 2691   2.676   2.857   0.696  0.5173 -0.1495  0.7035
  895TIP3    H2 2692   2.544   2.841   0.767 -0.2321 -0.4021 -0.7225
  896TIP3   OH2 2693   5.607   6.095   2.939  0.6330  0.0297 -0.4196
  896TIP3    H1 2694   5.580   6.173   2.988 -0.7371 -0.1691 -0.8405
  896TIP3    H2 2695   5.602   6.024   3.002 -0.9515 -0.1942 -0.7661
  897TIP3   OH2 2696   1.301   3.452   0.288  0.3259 -0.4081  0.5159
  897TIP3    H1 2697   1.273   3.542   0.277 -0.7230 -0.8880 -0.8330
  897TIP3    H2 2698   1.248   3.402   0.226  1.5694 -1.8235  0.5583
  898TIP3   OH2 2699   6.361   3.846   3.189  0.2640 -0.5891  0.1761
  898TIP3    H1 2700   6.373   3.800   3.106 -0.1706 -0.2593 -0.0735
  898TIP3    H2 2701   6.321   3.930   3.164  1.4821  0.1237  0.5669
  899TIP3   OH2 2702   1.593   0.172   5.249 -0.1186 -0.5320 -0.8611
  899TIP3    H1 2703   1.545   0.118   5.312  0.1560 -0.5381 -0.6573
  899TIP3    H2 2704   1.536   0.174   5.172 -0.6984 -0.0925 -0.4269
  900TIP3   OH2 2705   1.725   3.494   1.912  0.0355  0.3096 -0.0509
  900TIP3    H1 2706   1.731   3.580   1.955 -1.9154  1.0944 -1.2766
  900TIP3    H2 2707   1.729   3.431   1.984  1.3147  1.4171  0.8763
  901TIP3   OH2 2708   1.381   3.373   0.758  0.2698  0.8497 -0.2741
  901TIP3    H1 2709   1.420   3.405   0.677 -1.5860  0.5954 -1.3158
  901TIP3    H2 2710   1.325   3.444   0.787  0.2458  0.5953  0.3010
  902TIP3   OH2 2711   0.925   2.578   0.743  0.1457  0.8987 -0.4859
  902TIP3    H1 2712   0.863   2.540   0.681 -0.4267  2.7346 -1.0837
  902TIP3    H2 2713   0.905   2.536   0.826  0.5693 -1.2058 -1.4307
  903TIP3   OH2 2714   4.064   2.193   4.374 -0.2695 -0.0182 -0.4544
  903TIP3    H1 2715   4.140   2.252   4.364 -0.2764 -0.2338 -1.8815
  903TIP3    H2 2716   4.067   2.167   4.466 -0.0711  1.9486  0.1297
  904TIP3   OH2 2717   1.991   5.882   5.021  0.3136 -0.2197  0.1997
  904TIP3    H1 2718   1.956   5.962   5.060  0.4884  0.3433 -0.7861
  904TIP3    H2 2719   2.069   5.911   4.974 -0.8460 -0.5934 -2.0071
  905TIP3   OH2 2720   1.376   5.896   0.963  0.6186 -0.1701  0.4549
  905TIP3    H1 2721   1.328   5.969   0.926  0.3109 -0.8479 -0.5078
  905TIP3    H2 2722   1.381   5.915   1.057 -2.7320 -0.7377  0.8102
  906TIP3   OH2 2723   1.743   5.451   1.502 -0.0333  0.2391 -0.2488
  906TIP3    H1 2724   1.711   5.416   1.419  0.6654 -0.7986 -0.0958
  906TIP3    H2 2725   1.825   5.496   1.479  0.7654 -1.0401  0.0355
  907TIP3   OH2 2726   2.506   5.413   2.562 -0.4982 -0.2165  0.8301
  907TIP3    H1 2727   2.482   5.339   2.507 -0.2339 -0.0949  0.5560
  907TIP3    H2 2728   2.449   5.485   2.532 -1.8011 -0.6960  2.0695
  908TIP3   OH2 2729   2.928   5.218   5.215 -0.3425  0.2949  0.1220
  908TIP3    H1 2730   2.896   5.252   5.298 -0.8115  0.2330 -0.0291
  908TIP3    H2 2731   2.896   5.282   5.150 -1.3551 -0.5007 -0.1788
  909TIP3   OH2 2732   5.160   1.832   3.758 -0.1314 -0.2939  0.2091
  909TIP3    H1 2733   5.100   1.808   3.687 -0.9601  1.2083  0.3754
  909TIP3    H2 2734   5.116   1.801   3.837  0.5554 -1.5227  0.1122
  910TIP3   OH2 2735   2.087   4.439   0.524 -0.0631 -0.3663 -0.3716
  910TIP3    H1 2736   2.132   4.374   0.470 -0.8752 -0.2975 -1.1370
  910TIP3    H2 2737   2.136   4.520   0.509 -0.1791 -0.3868 -0.8783
  911TIP3   OH2 2738   1.093   2.568   3.054  0.0370 -0.3273 -0.0325
  911TIP3    H1 2739   1.119   2.504   3.120 -1.5263 -0.6514  0.3055
  911TIP3    H2 2740   1.082   2.518   2.973  0.7319 -0.1460 -0.2403
  912TIP3   OH2 2741   0.227   1.354   4.747  0.4870 -0.4228  0.1191
  912TIP3    H1 2742   0.174   1.405   4.809 -0.6221 -1.5038  0.0722
  912TIP3    H2 2743   0.236   1.268   4.788 -0.2545 -1.1438 -1.2097
  913TIP3   OH2 2744   1.332   2.765   3.133  0.1722  0.2454  0.4352
  913TIP3    H1 2745   1.419   2.753   3.094  0.2049  0.9288  0.2921
  913TIP3    H2 2746   1.344   2.746   3.225  0.7906  1.6996  0.6724
  914TIP3   OH2 2747   0.823   3.324   1.080 -0.2521 -0.1362 -0.1662
  914TIP3    H1 2748   0.784   3.333   0.993 -0.0649  1.1963 -0.1210
  914TIP3    H2 2749   0.900   3.380   1.078 -1.2572  1.3665  1.4550
  915TIP3   OH2 2750   5.250   1.594   4.475  0.3632 -0.3894 -0.0501
  915TIP3    H1 2751   5.317   1.633   4.419 -0.9056  1.9803  0.0267
  915TIP3    H2 2752   5.229   1.662   4.539  0.0735 -2.2078  1.8200
  916TIP3   OH2 2753   1.277   5.512   2.070 -0.0558  0.6470  0.1141
  916TIP3    H1 2754   1.352   5.463   2.037  0.2183  1.3625 -0.3377
  916TIP3    H2 2755   1.267   5.482   2.161  0.4083  0.1236 -0.0045
  917TIP3   OH2 2756   1.092   4.164   1.039  0.2106  0.0909  0.5341
  917TIP3    H1 2757   1.178   4.204   1.027  0.5315 -0.7274  0.0476
  917TIP3    H2 2758   1.032   4.238   1.051  0.8803  0.6856  0.2277
  918TIP3   OH2 2759   2.974   3.830   0.851  0.6556 -0.2422  0.2935
  918TIP3    H1 2760   2.928   3.852   0.932 -0.1718  0.7100 -0.4298
  918TIP3    H2 2761   2.944   3.742   0.830 -1.7281  0.7837 -0.7758
  919TIP3   OH2 2762   1.627   3.205   0.541 -0.0916  0.1699 -1.0715
  919TIP3    H1 2763   1.569   3.276   0.512 -2.4334 -1.4792 -0.5750
  919TIP3    H2 2764   1.601   3.190   0.632  0.9701 -0.7869 -0.9232
  920TIP3   OH2 2765   6.231   1.635   0.557  0.1656 -0.2828  0.0969
  920TIP3    H1 2766   6.212   1.559   0.501  1.7861 -2.0049  1.7997
  920TIP3    H2 2767   6.317   1.665   0.529  0.3538 -0.2577  0.6938
  921TIP3   OH2 2768   2.517   5.056   1.947  0.0989 -0.4946  0.5496
  921TIP3    H1 2769   2.604   5.047   1.985  0.1009  2.4184  1.3375
  921TIP3    H2 2770   2.488   5.144   1.971 -1.8401 -0.2703 -2.2357
  922TIP3   OH2 2771   2.113   3.504   2.997 -0.6299 -0.5641 -0.1625
  922TIP3    H1 2772   2.146   3.435   3.054  0.5361  0.6567  0.6604
  922TIP3    H2 2773   2.105   3.462   2.911 -0.1686 -1.7775  0.3756
  923TIP3   OH2 2774   2.196   3.300   1.210  0.1441 -0.5229 -0.0728
  923TIP3    H1 2775   2.166   3.328   1.124 -0.6317 -1.3913 -0.0943
  923TIP3    H2 2776   2.124   3.322   1.270  0.9189  0.6284  0.4706
  924TIP3   OH2 2777   1.451   5.953   2.519 -0.0450 -0.0708  0.5662
  924TIP3    H1 2778   1.409   5.884   2.467  2.0647 -0.8520 -0.1383
  924TIP3    H2 2779   1.533   5.915   2.548  0.3976  1.5864  1.5570
  925TIP3   OH2 2780   2.122   6.021   3.037 -0.3517  0.3326  0.4622
  925TIP3    H1 2781   2.061   6.090   3.062 -0.6190 -0.2264  1.3661
  925TIP3    H2 2782   2.115   6.016   2.942 -1.4009  0.5637  0.5231
  926TIP3   OH2 2783   0.700   2.604   1.552 -0.4742 -0.2777 -0.5909
  926TIP3    H1 2784   0.751   2.525   1.534 -1.0899 -1.0502  0.9571
  926TIP3    H2 2785   0.759   2.676   1.529  0.6877 -1.1752 -0.4768
  927TIP3   OH2 2786   2.606   4.560   1.160  0.1654 -0.4079 -0.3459
  927TIP3    H1 2787   2.537   4.504   1.124 -1.2234  1.1154 -0.0770
  927TIP3    H2 2788   2.599   4.548   1.255 -0.7879  0.9744 -0.2354
  928TIP3   OH2 2789   0.956   5.381   1.107  0.2384  0.3096  0.3620
  928TIP3    H1 2790   1.012   5.314   1.148  1.1236  1.2199  0.6561
  928TIP3    H2 2791   1.013   5.422   1.042 -0.7220 -0.1325 -0.7742
  929TIP3   OH2 2792   1.055   5.491   1.888  0.5344 -0.3142  0.3873
  929TIP3    H1 2793   1.025   5.581   1.871  1.5886 -0.3011 -1.4890
  929TIP3    H2 2794   1.134   5.502   1.941  0.7429 -0.1233  0.0404
  930TIP3   OH2 2795   0.544   4.656   0.222 -0.1519 -0.0531  0.0920
  930TIP3    H1 2796   0.601   4.598   0.272  2.6695  1.3494 -1.4379
  930TIP3    H2 2797   0.542   4.619   0.134 -0.1597  0.9305 -0.3235
  931TIP3   OH2 2798   6.433   0.337   4.377  0.1691 -0.0596  0.0769
  931TIP3    H1 2799   6.396   0.251   4.395  1.2621 -0.5632 -0.0571
  931TIP3    H2 2800   6.377   0.398   4.426 -0.6920 -0.8197  0.0534
  932TIP3   OH2 2801   1.688   5.405   1.244  0.3775  0.0772 -0.4738
  932TIP3    H1 2802   1.707   5.349   1.169  0.1451 -0.0243 -0.4592
  932TIP3    H2 2803   1.699   5.494   1.211 -0.4353  0.0537 -0.8316
  933TIP3   OH2 2804   1.535   3.204   1.779  0.3006 -0.0406 -0.2448
  933TIP3    H1 2805   1.605   3.190   1.843  2.8281  1.7375 -2.5045
  933TIP3    H2 2806   1.537   3.126   1.724  0.6686  0.1253 -0.4648
  934TIP3   OH2 2807   3.186   3.453   1.096  0.1847  0.2577  0.2966
  934TIP3    H1 2808   3.214   3.376   1.146  1.7994 -0.3385 -1.4236
  934TIP3    H2 2809   3.147   3.416   1.017  1.9120  1.1683 -1.0226
  935TIP3   OH2 2810   1.536   4.022   2.206 -0.1082 -0.1727 -0.4064
  935TIP3    H1 2811   1.514   4.114   2.224 -0.7877 -0.4198  0.0343
  935TIP3    H2 2812   1.499   3.974   2.280 -0.0041 -0.8382 -0.7900
  936TIP3   OH2 2813   1.425   4.655   0.566 -0.0172  0.4660 -0.2922
  936TIP3    H1 2814   1.512   4.654   0.607 -0.2915  0.5997  0.2911
  936TIP3    H2 2815   1.436   4.711   0.488  1.1333 -1.8014 -1.8110
  937TIP3   OH2 2816   2.154   5.132   2.350 -0.5917  0.7529  0.4568
  937TIP3    H1 2817   2.144   5.220   2.313 -1.4384 -0.0340 -1.2252
  937TIP3    H2 2818   2.067   5.094   2.345 -0.0811 -0.4401  0.5661
  938TIP3   OH2 2819   0.811   4.036   0.696  0.3970  0.2416 -0.1809
  938TIP3    H1 2820   0.791   4.038   0.790 -0.7811  0.3450 -0.4212
  938TIP3    H2 2821   0.800   4.126   0.667 -0.5385 -0.0247 -0.6697
  939TIP3   OH2 2822   0.876   4.317   1.133 -0.0051 -0.1825 -0.2191
  939TIP3    H1 2823   0.815   4.371   1.083  0.4022  0.0090 -0.5088
  939TIP3    H2 2824   0.884   4.362   1.217 -0.3791 -0.2902 -0.1241
  940TIP3   OH2 2825   0.363   1.601   1.789 -0.1906  0.6572  0.0961
  940TIP3    H1 2826   0.303   1.532   1.817 -0.3988  0.4114 -0.9418
  940TIP3    H2 2827   0.306   1.670   1.754  0.1901 -0.7118 -3.4364
  941TIP3   OH2 2828   1.779   0.692   0.362 -0.1075 -0.4610 -0.0437
  941TIP3    H1 2829   1.740   0.732   0.284  1.3132 -0.4328 -0.7708
  941TIP3    H2 2830   1.747   0.744   0.435 -1.9996 -0.9004 -0.5474
  942TIP3   OH2 2831   5.691   0.269   4.612  0.6535 -0.1694 -0.2148
  942TIP3    H1 2832   5.739   0.186   4.609  1.5688  0.3788 -1.4010
  942TIP3    H2 2833   5.760   0.336   4.610 -0.1474  0.6416 -2.0251
  943TIP3   OH2 2834   1.758   3.543   3.345 -0.1726  0.6112  0.3028
  943TIP3    H1 2835   1.830   3.507   3.293  0.8221  0.5544  1.6824
  943TIP3    H2 2836   1.713   3.603   3.286  1.2283  0.9275 -0.4618
  944TIP3   OH2 2837   1.600   5.804   0.262 -0.1408  0.1746  0.2896
  944TIP3    H1 2838   1.630   5.764   0.180 -0.0547 -0.0907  0.4466
  944TIP3    H2 2839   1.631   5.744   0.330 -2.9689 -1.3238  0.3287
  945TIP3   OH2 2840   3.112   2.914   2.801 -0.1018  0.2157 -0.2001
  945TIP3    H1 2841   3.196   2.956   2.782 -0.2714  1.1141  0.9788
  945TIP3    H2 2842   3.119   2.827   2.762  0.3943  1.2112 -2.3927
  946TIP3   OH2 2843   0.360   3.832   2.128  0.1381  0.0044 -0.2210
  946TIP3    H1 2844   0.322   3.752   2.165  1.7423 -0.3730  0.6427
  946TIP3    H2 2845   0.425   3.801   2.066  1.4478  0.6337  0.8219
  947TIP3   OH2 2846   0.484   4.147   1.166  0.4485 -0.0602  0.1881
  947TIP3    H1 2847   0.459   4.107   1.249 -1.0785 -1.8082 -1.0595
  947TIP3    H2 2848   0.555   4.092   1.133 -0.1626 -0.4330 -0.5046
  948TIP3   OH2 2849   2.142   2.385   2.308  0.8900 -0.4069  0.1909
  948TIP3    H1 2850   2.062   2.437   2.303  0.8202 -0.5079  0.2692
  948TIP3    H2 2851   2.210   2.448   2.334  0.7182 -0.4476  0.7460
  949TIP3   OH2 2852   1.316   3.377   3.465 -0.6813  0.0641  0.1616
  949TIP3    H1 2853   1.402   3.342   3.441 -0.3303  0.2520  1.1437
  949TIP3    H2 2854   1.321   3.391   3.559 -1.9288 -0.2963  0.2841
  950TIP3   OH2 2855   1.674   3.984   1.013 -0.1353 -0.3735 -0.1458
  950TIP3    H1 2856   1.727   3.905   1.008  0.5691  0.0254  0.8264
  950TIP3    H2 2857   1.584   3.953   1.019 -0.1924 -1.0374 -3.4866
  951TIP3   OH2 2858   1.328   1.520   2.739 -0.2146 -0.1111 -0.7236
  951TIP3    H1 2859   1.354   1.485   2.654 -1.5897  0.5921 -1.4515
  951TIP3    H2 2860   1.409   1.527   2.788  0.5502 -0.8044 -1.8748
  952TIP3   OH2 2861   1.815   4.761   3.301  0.2913  0.7555  0.1158
  952TIP3    H1 2862   1.909   4.778   3.298  0.8196 -1.8966  0.7515
  952TIP3    H2 2863   1.797   4.710   3.223 -0.5134  0.7213  0.3220
  953TIP3   OH2 2864   6.201   1.186   4.666  0.2235  0.2516  0.2275
  953TIP3    H1 2865   6.228   1.271   4.699 -1.6876  0.6304  0.8957
  953TIP3    H2 2866   6.129   1.159   4.724 -0.0316 -1.2216 -0.7431
  954TIP3   OH2 2867   2.839   2.668   0.391 -0.3542 -0.3608 -0.3846
  954TIP3    H1 2868   2.841   2.614   0.312 -1.0089  0.6508 -1.0974
  954TIP3    H2 2869   2.747   2.694   0.400  0.0335  1.0141 -0.3053
  955TIP3   OH2 2870   4.570   3.155   0.171 -0.2160  0.3171 -0.1451
  955TIP3    H1 2871   4.624   3.224   0.210 -0.3988  1.4198 -1.7824
  955TIP3    H2 2872   4.541   3.102   0.245  0.1236  1.8785  1.1207
  956TIP3   OH2 2873   0.004   4.024   2.569  0.2620 -0.1983  0.1186
  956TIP3    H1 2874   0.058   3.966   2.623  1.6269  1.4988  0.6232
  956TIP3    H2 2875   0.063   4.055   2.501 -1.2281 -1.6517 -1.9094
  957TIP3   OH2 2876   3.396   5.936   3.464 -0.4198 -0.4079 -0.5372
  957TIP3    H1 2877   3.474   5.893   3.499  0.5446  0.9548 -0.9216
  957TIP3    H2 2878   3.380   5.892   3.380 -0.4828 -1.1556 -0.1350
  958TIP3   OH2 2879   0.599   2.124   1.128 -0.1311 -0.7122  0.4001
  958TIP3    H1 2880   0.615   2.043   1.079  2.5987 -0.2746  0.4852
  958TIP3    H2 2881   0.549   2.096   1.205  0.5261 -2.2606  0.2806
  959TIP3   OH2 2882   2.608   3.132   1.659 -0.4339 -0.1316 -0.0623
  959TIP3    H1 2883   2.646   3.124   1.572 -0.1043  2.4485 -0.2154
  959TIP3    H2 2884   2.678   3.104   1.718  0.5534  1.3362 -0.4963
  960TIP3   OH2 2885   2.814   4.690   1.039  0.1837 -0.0107  0.4480
  960TIP3    H1 2886   2.736   4.641   1.066  1.1382 -0.9370  1.5882
  960TIP3    H2 2887   2.802   4.703   0.945 -0.8610 -1.0571  0.4190
  961TIP3   OH2 2888   4.260   5.739   2.012  0.2552 -0.4319 -0.3242
  961TIP3    H1 2889   4.243   5.833   2.012  0.0860 -0.4620 -0.2589
  961TIP3    H2 2890   4.178   5.700   2.041  0.7655 -0.5206  1.0655
  962TIP3   OH2 2891   3.103   2.292   1.678 -0.4188  0.1397  0.0495
  962TIP3    H1 2892   3.018   2.275   1.720  0.4263 -1.0343  1.3132
  962TIP3    H2 2893   3.112   2.221   1.613  0.0131 -0.2936  0.5761
  963TIP3   OH2 2894   2.346   2.701   0.032 -0.3704 -0.6548 -1.0140
  963TIP3    H1 2895   2.435   2.686  -0.001  0.9792  1.6505  1.3582
  963TIP3    H2 2896   2.323   2.788  -0.000 -0.1480  0.4274  1.5996
  964TIP3   OH2 2897   0.596   3.837   1.531 -0.0242  0.6241 -0.2864
  964TIP3    H1 2898   0.549   3.756   1.508  2.5480 -1.2727  0.9533
  964TIP3    H2 2899   0.640   3.862   1.450 -0.9924  0.9403 -0.7319
  965TIP3   OH2 2900   1.709   4.276   0.551  0.0848  0.2230  0.4123
  965TIP3    H1 2901   1.781   4.236   0.599 -0.4134 -0.1364  0.8668
  965TIP3    H2 2902   1.631   4.249   0.599 -0.4439 -0.4155 -0.7853
  966TIP3   OH2 2903   2.740   1.421   1.142  0.3684 -0.1925 -0.4115
  966TIP3    H1 2904   2.780   1.456   1.221  0.3905  1.1646 -1.0109
  966TIP3    H2 2905   2.658   1.470   1.133  0.9603  0.5512 -1.8923
  967TIP3   OH2 2906   3.694   3.462   5.230  0.2241  1.1233  0.3098
  967TIP3    H1 2907   3.759   3.401   5.195 -0.9874 -0.5339  0.8377
  967TIP3    H2 2908   3.621   3.457   5.168 -0.8776  0.1473  1.6464
  968TIP3   OH2 2909   3.010   2.985   0.864  0.4376 -0.5911 -0.2120
  968TIP3    H1 2910   2.925   3.004   0.904  0.4573 -1.5048  0.2845
  968TIP3    H2 2911   3.070   3.047   0.904 -0.3373  1.3416 -1.9576
  969TIP3   OH2 2912   1.071   2.713   0.951  0.4321 -0.1034 -0.3531
  969TIP3    H1 2913   1.006   2.773   0.915 -0.3466  0.8002  2.4933
  969TIP3    H2 2914   1.024   2.630   0.963  0.0914  0.2322  0.6558
  970TIP3   OH2 2915   2.859   4.431   1.321 -0.2411  0.0196  0.0034
  970TIP3    H1 2916   2.790   4.486   1.359 -0.0371  1.7324 -1.9785
  970TIP3    H2 2917   2.834   4.422   1.229  0.1656 -2.6050  0.1328
  971TIP3   OH2 2918   1.923   3.165   3.857  0.1569 -0.3415 -0.0633
  971TIP3    H1 2919   2.007   3.210   3.862  0.7179 -1.2674 -0.8905
  971TIP3    H2 2920   1.945   3.072   3.864 -0.6642 -0.6552 -1.4065
  972TIP3   OH2 2921   3.406   1.632   2.457 -0.2265  0.3198 -0.0866
  972TIP3    H1 2922   3.433   1.586   2.536  0.2844 -0.5418 -0.7432
  972TIP3    H2 2923   3.316   1.602   2.441 -0.8319  1.5565  0.9225
  973TIP3   OH2 2924   1.284   1.805   0.505  0.2001  0.1256 -0.5207
  973TIP3    H1 2925   1.275   1.734   0.442  1.3740 -0.9264  0.4804
  973TIP3    H2 2926   1.298   1.883   0.451 -1.4427 -0.3350 -1.6303
  974TIP3   OH2 2927   1.388   3.412   1.173 -0.5790  0.1720 -0.0153
  974TIP3    H1 2928   1.388   3.323   1.210 -1.9435 -0.6389 -1.8824
  974TIP3    H2 2929   1.396   3.399   1.079 -0.9639  2.0320 -0.3191
  975TIP3   OH2 2930   1.501   3.443   0.508  0.8432 -0.1716  0.3558
  975TIP3    H1 2931   1.532   3.533   0.516  0.8701 -0.1746  0.2757
  975TIP3    H2 2932   1.431   3.447   0.443  0.2338 -0.0491  1.0100
  976TIP3   OH2 2933   2.049   2.691   2.632  0.8082  0.4137  0.7551
  976TIP3    H1 2934   2.119   2.681   2.696  0.3610  2.0434  1.5371
  976TIP3    H2 2935   2.014   2.779   2.649  0.3157  0.6455 -1.3602
  977TIP3   OH2 2936   6.119   4.936   4.240  0.1938 -0.0678 -0.5859
  977TIP3    H1 2937   6.040   4.988   4.255  0.2069  0.2763 -1.6662
  977TIP3    H2 2938   6.154   4.920   4.328 -1.1912 -0.4053 -0.0784
  978TIP3   OH2 2939   1.505   1.989   1.551  0.0305 -0.5213  0.4775
  978TIP3    H1 2940   1.569   1.960   1.486 -0.9973  2.0982 -1.8268
  978TIP3    H2 2941   1.430   1.930   1.538 -1.9577  2.7104 -4.0054
  979TIP3   OH2 2942   0.053   0.099   4.810  0.4299  0.6165  0.2149
  979TIP3    H1 2943  -0.027   0.073   4.856  0.7601 -0.2122  0.3289
  979TIP3    H2 2944   0.026   0.171   4.754 -0.8317 -0.9288 -1.2204
  980TIP3   OH2 2945   0.758   3.484   2.775  0.2008 -0.1465  0.2542
  980TIP3    H1 2946   0.670   3.517   2.755  0.6505  0.5840 -0.5305
  980TIP3    H2 2947   0.817   3.537   2.721  1.1915 -0.1225  1.3440
  981TIP3   OH2 2948   2.227   5.164   3.856  0.3948 -0.1348  0.8867
  981TIP3    H1 2949   2.245   5.191   3.766 -2.6878  1.3942  0.6794
  981TIP3    H2 2950   2.179   5.082   3.847 -0.3327  0.2646  1.1270
  982TIP3   OH2 2951   5.949   3.872   0.765  0.5223 -0.6025 -0.0390
  982TIP3    H1 2952   6.026   3.855   0.711  2.0615  0.4359  1.7231
  982TIP3    H2 2953   5.906   3.947   0.724  2.1223  0.6882  0.5799
  983TIP3   OH2 2954   2.192   4.169   0.808  0.4184  0.2150 -0.2413
  983TIP3    H1 2955   2.230   4.138   0.890 -0.7670 -1.4305 -0.3045
  983TIP3    H2 2956   2.268   4.193   0.754  1.2801 -0.7499  0.5224
  984TIP3   OH2 2957   1.789   3.370   4.944  0.2863 -0.0324 -0.0131
  984TIP3    H1 2958   1.879   3.386   4.970  0.1018 -0.6141  1.0320
  984TIP3    H2 2959   1.742   3.355   5.027 -1.3221  2.9471 -0.3108
  985TIP3   OH2 2960   2.020   2.539   1.604 -0.5620 -0.2380  0.5380
  985TIP3    H1 2961   2.067   2.607   1.653 -1.6879  0.6973  0.3610
  985TIP3    H2 2962   2.039   2.558   1.512 -0.2997 -0.5888  0.5232
  986TIP3   OH2 2963   0.300   5.483   2.502  0.4218 -0.2400  0.3439
  986TIP3    H1 2964   0.331   5.394   2.483  0.2868 -0.2025 -0.0619
  986TIP3    H2 2965   0.272   5.517   2.417 -0.1325 -0.0426  0.6024
  987TIP3   OH2 2966   2.823   0.202   2.908  0.5939 -0.4827  0.4627
  987TIP3    H1 2967   2.735   0.240   2.908  0.6775 -0.2890  0.5203
  987TIP3    H2 2968   2.821   0.138   2.837  0.9330  0.7743 -0.7196
  988TIP3   OH2 2969   0.487   5.224   0.716 -0.0705  0.0973 -0.2620
  988TIP3    H1 2970   0.459   5.229   0.625 -0.2322 -0.0529 -0.2222
  988TIP3    H2 2971   0.421   5.169   0.758  0.4708 -0.5393 -0.2346
  989TIP3   OH2 2972   0.924   5.329   1.699  0.6988 -0.2603 -0.1853
  989TIP3    H1 2973   0.953   5.385   1.771  0.0279 -0.1789  0.0268
  989TIP3    H2 2974   0.924   5.387   1.623  0.3358 -0.0584 -0.0326
  990TIP3   OH2 2975   1.168   1.741   5.040  0.1370  0.2860  0.3196
  990TIP3    H1 2976   1.217   1.682   4.983 -1.7200 -1.4993  0.5197
  990TIP3    H2 2977   1.171   1.698   5.126 -1.1494  0.5252  0.4874
  991TIP3   OH2 2978   0.450   0.788   4.939 -0.3237 -0.2207 -0.4005
  991TIP3    H1 2979   0.457   0.881   4.962  0.1880 -0.6848  1.3950
  991TIP3    H2 2980   0.398   0.787   4.859  2.8370  1.9043 -2.6365
  992TIP3   OH2 2981   1.057   3.356   0.859 -0.1419 -0.2387 -0.2627
  992TIP3    H1 2982   1.089   3.302   0.931  0.3906  1.7833  1.0767
  992TIP3    H2 2983   1.011   3.428   0.902  0.8882  1.4498 -1.8817
  993TIP3   OH2 2984   0.823   4.293   0.640 -0.0401  0.1106  0.6317
  993TIP3    H1 2985   0.863   4.344   0.711 -0.1925  0.7847  0.2401
  993TIP3    H2 2986   0.740   4.339   0.622  0.0347 -0.0144 -0.0295
  994TIP3   OH2 2987   1.838   2.899   1.970  0.1704  0.1039  0.6547
  994TIP3    H1 2988   1.933   2.897   1.971  0.1681 -0.0659  0.5340
  994TIP3    H2 2989   1.814   2.948   2.049  0.3378 -0.7845  1.2667
  995TIP3   OH2 2990   1.922   2.606   0.927 -0.3071 -0.1275  0.0334
  995TIP3    H1 2991   1.940   2.660   1.004  0.7936 -0.2436 -0.1296
  995TIP3    H2 2992   1.936   2.516   0.957 -1.4399 -0.2783  0.1170
  996TIP3   OH2 2993   4.357   2.139   5.211  0.1977 -0.1757  0.3632
  996TIP3    H1 2994   4.398   2.107   5.130 -2.3812 -0.5373 -0.8578
  996TIP3    H2 2995   4.341   2.232   5.195  0.2125 -0.1152  0.6948
  997TIP3   OH2 2996   0.936   2.533   2.177 -0.1837  0.4543  0.1721
  997TIP3    H1 2997   0.989   2.453   2.172  0.9145  1.1236  0.9170
  997TIP3    H2 2998   0.978   2.593   2.115 -0.1479  0.9458  0.6718
  998TIP3   OH2 2999   2.186   4.386   1.755 -0.2638  0.5248  0.3739
  998TIP3    H1 3000   2.278   4.407   1.739 -0.3715  0.2550 -0.6439
  998TIP3    H2 3001   2.149   4.376   1.667 -0.6827 -1.9641  0.8067
  999TIP3   OH2 3002   2.267   0.838   1.347 -0.3891  0.1089  0.1348
  999TIP3    H1 3003   2.324   0.887   1.287 -1.1311  1.7020  0.7218
  999TIP3    H2 3004   2.304   0.750   1.347  1.3179  0.7919 -0.4903
 1000TIP3   OH2 3005   3.261   4.031   4.135 -0.0433  0.2054  0.0505
 1000TIP3    H1 3006   3.206   4.082   4.075  0.8268  1.5002  0.3348
 1000TIP3    H2 3007   3.326   3.990   4.078 -1.0166 -0.9845 -0.2345
 1001TIP3   OH2 3008   6.323   4.299   3.048 -0.1721  0.4297 -1.0435
 1001TIP3    H1 3009   6.249   4.356   3.066 -0.8196 -0.6235 -0.2850
 1001TIP3    H2 3010   6.380   4.307   3.124 -0.8091 -0.7488 -0.4147
 1002TIP3   OH2 3011   0.160   0.708   4.757 -0.6067 -0.0464 -0.3204
 1002TIP3    H1 3012   0.226   0.751   4.703 -1.1575 -0.5988 -1.4748
 1002TIP3    H2 3013   0.089   0.771   4.764 -0.4084  0.1377 -0.0052
 1003TIP3   OH2 3014   3.938   5.003   5.100  0.4759 -0.0371  0.0664
 1003TIP3    H1 3015   3.992   4.969   5.028  0.7134  0.7283 -0.1119
 1003TIP3    H2 3016   3.857   4.952   5.093  0.2833  0.4015 -1.0751
 1004TIP3   OH2 3017   1.331   3.919   2.346  0.3157  0.9545  0.4157
 1004TIP3    H1 3018   1.239   3.937   2.365  0.1106  1.2682 -0.8280
 1004TIP3    H2 3019   1.339   3.824   2.350 -0.3351  0.8465 -0.6131
 1005TIP3   OH2 3020   2.729   2.122   2.672  0.0925  0.2843 -0.8177
 1005TIP3    H1 3021   2.779   2.091   2.597 -0.4044 -0.7116 -0.7445
 1005TIP3    H2 3022   2.642   2.083   2.661  0.2162 -0.4241  0.6345
 1006TIP3   OH2 3023   2.381   2.490   2.106 -0.4787  0.0717  0.4954
 1006TIP3    H1 3024   2.442   2.563   2.122  0.5595 -0.8066  0.5822
 1006TIP3    H2 3025   2.344   2.471   2.192  1.7601 -1.6983  1.1119
 1007TIP3   OH2 3026   2.939   5.272   0.295 -0.3054  0.0997  0.0114
 1007TIP3    H1 3027   2.932   5.183   0.328 -1.4254  0.1011 -0.2040
 1007TIP3    H2 3028   2.958   5.325   0.372 -1.1336 -0.1315  0.3780
 1008TIP3   OH2 3029   2.504   4.612   3.547  0.3478 -0.5898  0.3741
 1008TIP3    H1 3030   2.487   4.548   3.478 -1.3830 -0.3679  0.5792
 1008TIP3    H2 3031   2.456   4.580   3.623 -2.1214  1.8651 -0.0421
 1009TIP3   OH2 3032   4.806   5.795   3.516  0.4044 -0.3555  0.6016
 1009TIP3    H1 3033   4.811   5.735   3.591  1.5033 -0.0960  0.7416
 1009TIP3    H2 3034   4.731   5.851   3.535  1.2538  0.3410  1.9931
 1010TIP3   OH2 3035   2.623   3.131   0.882 -0.1864 -0.9630 -0.1033
 1010TIP3    H1 3036   2.579   3.213   0.860  0.7878 -0.4624 -0.2151
 1010TIP3    H2 3037   2.660   3.100   0.799  1.8149 -0.0815  0.4361
 1011TIP3   OH2 3038   2.573   4.631   2.045 -0.0382  0.5626 -0.0461
 1011TIP3    H1 3039   2.492   4.680   2.039 -1.0976 -1.1517 -0.0763
 1011TIP3    H2 3040   2.637   4.694   2.078 -1.6702  1.6097  1.1860
 1012TIP3   OH2 3041   6.114   5.547   3.993  0.4794 -0.1185 -0.0059
 1012TIP3    H1 3042   6.030   5.580   3.960  0.3452 -0.5321 -0.0899
 1012TIP3    H2 3043   6.170   5.624   3.998 -0.4887  0.4882  1.8372
 1013TIP3   OH2 3044   3.792   3.579   0.617  0.4132  0.0485 -0.0202
 1013TIP3    H1 3045   3.746   3.503   0.653 -1.2356  0.4209 -1.3045
 1013TIP3    H2 3046   3.723   3.633   0.578  1.7492  1.4316 -0.5143
 1014TIP3   OH2 3047   0.852   1.423   4.933 -0.4868 -0.6512  0.1796
 1014TIP3    H1 3048   0.878   1.516   4.935  0.1051 -0.8389  2.1735
 1014TIP3    H2 3049   0.815   1.407   5.019 -1.3024 -2.0955 -0.4239
 1015TIP3   OH2 3050   1.585   1.856   0.746 -0.1041  0.3525 -0.2578
 1015TIP3    H1 3051   1.499   1.897   0.743  0.1128  0.7591 -0.9878
 1015TIP3    H2 3052   1.568   1.764   0.726 -0.3465  0.4619 -0.5526
 1016TIP3   OH2 3053   4.779   3.396   5.020 -0.4446  0.1417 -0.1479
 1016TIP3    H1 3054   4.858   3.341   5.018 -0.0271  0.7026  0.6601
 1016TIP3    H2 3055   4.737   3.380   4.936  0.8053  0.2263 -0.8021
 1017TIP3   OH2 3056   2.399   2.631   1.681 -0.2645  0.2217  0.3161
 1017TIP3    H1 3057   2.405   2.573   1.605 -0.1554  1.5180 -0.7002
 1017TIP3    H2 3058   2.326   2.597   1.732 -0.2793 -0.7259 -0.3293
 1018TIP3   OH2 3059   2.626   1.962   4.692  0.0424  0.2654  0.2174
 1018TIP3    H1 3060   2.689   2.028   4.662 -0.2583  0.4320 -0.0419
 1018TIP3    H2 3061   2.675   1.879   4.689  0.4368  0.4822  0.6051
 1019TIP3   OH2 3062   2.342   2.579   0.286  0.2086 -0.3928  0.3184
 1019TIP3    H1 3063   2.358   2.486   0.273  1.3090 -0.0978 -0.4870
 1019TIP3    H2 3064   2.339   2.616   0.198  0.3865  0.4319  0.6539
 1020TIP3   OH2 3065   5.160   5.141   2.811 -0.3824  0.2634  0.3217
 1020TIP3    H1 3066   5.067   5.121   2.823 -0.3494  0.0959  0.3000
 1020TIP3    H2 3067   5.202   5.056   2.799 -0.3193  0.3823 -0.3245
 1021TIP3   OH2 3068   4.277   4.886   0.884 -0.1490  0.0907  0.0221
 1021TIP3    H1 3069   4.362   4.870   0.924 -0.9712  0.0625  1.7970
 1021TIP3    H2 3070   4.285   4.975   0.847  0.5890  0.1545  0.3128
 1022TIP3   OH2 3071   1.322   0.056   4.414  0.1749  0.0797 -0.3149
 1022TIP3    H1 3072   1.250   0.093   4.363  1.6501  2.0029 -1.0708
 1022TIP3    H2 3073   1.394   0.118   4.402  1.1849 -0.4811  2.4791
 1023TIP3   OH2 3074   1.720   2.160   4.492 -0.0111 -0.6717 -0.0127
 1023TIP3    H1 3075   1.628   2.137   4.477  0.0745  0.0861 -1.8052
 1023TIP3    H2 3076   1.722   2.255   4.488  0.9956 -0.7252 -0.8744
 1024TIP3   OH2 3077   1.184   4.615   1.346 -0.3538 -0.0198 -0.3189
 1024TIP3    H1 3078   1.105   4.668   1.349 -0.6743 -0.4010 -1.9200
 1024TIP3    H2 3079   1.245   4.665   1.293  0.0763 -0.2664 -0.0589
 1025TIP3   OH2 3080   0.442   0.122   5.079  0.1649 -0.0217  0.1520
 1025TIP3    H1 3081   0.479   0.080   5.002  0.8695 -0.8002  0.9078
 1025TIP3    H2 3082   0.509   0.112   5.147  0.4640  2.5211  0.2929
 1026TIP3   OH2 3083   4.564   4.268   5.281  0.4863 -0.0513  0.3621
 1026TIP3    H1 3084   4.531   4.202   5.341 -0.0232 -0.1463 -0.0155
 1026TIP3    H2 3085   4.645   4.232   5.246 -0.9623 -1.5052 -1.5968
 1027TIP3   OH2 3086   4.284   4.328   1.017  0.1355  0.9762 -0.0223
 1027TIP3    H1 3087   4.370   4.303   0.983  0.1783  1.6595 -0.4275
 1027TIP3    H2 3088   4.233   4.247   1.015  0.1975  0.9499 -1.5772
 1028TIP3   OH2 3089   3.956   1.550   3.747 -0.0809  0.2142  0.1142
 1028TIP3    H1 3090   3.968   1.642   3.772  1.5881 -0.0675  0.3936
 1028TIP3    H2 3091   4.031   1.505   3.785 -0.2084 -1.0553 -1.1203
 1029TIP3   OH2 3092   3.260   3.837   0.632 -0.1207 -0.0712 -0.0375
 1029TIP3    H1 3093   3.242   3.921   0.675 -1.9803 -0.7000  0.4416
 1029TIP3    H2 3094   3.229   3.771   0.694 -0.5624 -1.0481 -1.2793
 1030TIP3   OH2 3095   0.213   0.092   2.554  0.1606 -0.2379 -0.9225
 1030TIP3    H1 3096   0.146   0.141   2.507 -0.7665 -0.3404  0.2884
 1030TIP3    H2 3097   0.250   0.033   2.489  0.4897  1.2543 -2.1052
 1031TIP3   OH2 3098   3.266   5.141   4.978  0.2930  0.1179 -0.1074
 1031TIP3    H1 3099   3.360   5.158   4.976  0.3454 -0.0101  0.8379
 1031TIP3    H2 3100   3.259   5.045   4.976  0.2694  0.0541  1.8265
 1032TIP3   OH2 3101   3.473   2.712  -0.012 -0.4061  0.2880  0.0458
 1032TIP3    H1 3102   3.398   2.662  -0.045 -1.3226  2.4502 -1.2825
 1032TIP3    H2 3103   3.480   2.687   0.080 -3.2686  0.6058  0.3987
 1033TIP3   OH2 3104   4.106   1.041   0.256 -0.0634 -0.4436  0.2494
 1033TIP3    H1 3105   4.163   0.973   0.221  0.1811  1.4758 -3.3259
 1033TIP3    H2 3106   4.142   1.059   0.343  1.4409 -3.0371  0.2186
 1034TIP3   OH2 3107   0.897   6.029   2.786 -0.0623 -0.0884  0.1261
 1034TIP3    H1 3108   0.981   5.997   2.754 -0.8409 -2.0880 -0.0134
 1034TIP3    H2 3109   0.866   6.089   2.718  1.6103  1.3144  0.5687
 1035TIP3   OH2 3110   2.528   3.632   4.716  0.5134 -0.1879 -0.0139
 1035TIP3    H1 3111   2.593   3.701   4.703 -0.9424  1.4285  0.9410
 1035TIP3    H2 3112   2.515   3.595   4.629  0.9124  1.1557 -0.6644
 1036TIP3   OH2 3113   3.374   5.348   1.581 -0.3255 -0.1368 -0.0984
 1036TIP3    H1 3114   3.279   5.334   1.583 -0.1995 -1.0106  0.6734
 1036TIP3    H2 3115   3.385   5.435   1.543 -1.2536 -1.5310 -3.7532
 1037TIP3   OH2 3116   5.460   5.156   3.181 -0.2131  0.4048 -0.1032
 1037TIP3    H1 3117   5.549   5.150   3.215 -0.1808  2.1145  0.1881
 1037TIP3    H2 3118   5.447   5.250   3.167 -2.4970  0.3380  1.3125
 1038TIP3   OH2 3119   2.230   2.611   2.439 -0.2051 -0.2591  0.1841
 1038TIP3    H1 3120   2.292   2.668   2.392  1.5302 -1.4045  1.0336
 1038TIP3    H2 3121   2.180   2.670   2.494 -0.1284  0.7393 -0.8056
 1039TIP3   OH2 3122   1.792   4.572   1.096 -0.0646  0.7418  0.8134
 1039TIP3    H1 3123   1.878   4.608   1.072 -0.6431  0.7719 -1.4108
 1039TIP3    H2 3124   1.730   4.642   1.073 -0.9482 -0.5300 -0.8389
 1040TIP3   OH2 3125   1.718   3.222   4.158 -0.5240  0.3277 -0.4850
 1040TIP3    H1 3126   1.738   3.284   4.088 -0.3382 -1.3498 -1.9471
 1040TIP3    H2 3127   1.780   3.151   4.145  0.6378  0.7449  2.4249
 1041TIP3   OH2 3128   2.483   4.368   2.047  0.0167 -0.1138  0.2591
 1041TIP3    H1 3129   2.518   4.341   1.962  1.3647 -0.7453  0.9904
 1041TIP3    H2 3130   2.510   4.459   2.056  1.1789 -0.4854  0.6486
 1042TIP3   OH2 3131   4.256   2.141   1.754 -0.6118  0.0502  0.3459
 1042TIP3    H1 3132   4.163   2.156   1.771 -0.3787 -0.3436  1.9881
 1042TIP3    H2 3133   4.290   2.100   1.834  0.9742  0.1618 -0.2419
 1043TIP3   OH2 3134   0.366   5.627   4.989  0.0869  0.1691  0.6100
 1043TIP3    H1 3135   0.290   5.644   4.934  1.6781 -1.5419 -2.2429
 1043TIP3    H2 3136   0.387   5.713   5.027 -1.5702  1.2272 -0.7798
 1044TIP3   OH2 3137   1.929   1.003   4.563 -0.4275  0.2011 -0.2889
 1044TIP3    H1 3138   1.895   1.017   4.651 -0.3723  0.1386 -0.2573
 1044TIP3    H2 3139   1.988   0.928   4.571  0.2523  0.7395 -0.1994
 1045TIP3   OH2 3140   2.112   2.670   0.498 -0.1638  0.3930  0.1279
 1045TIP3    H1 3141   2.052   2.603   0.464 -1.3466  0.9281  1.1203
 1045TIP3    H2 3142   2.060   2.718   0.562  1.3528  0.8352  1.0520
 1046TIP3   OH2 3143   2.907   1.675   1.110 -0.7762  0.2036  0.2244
 1046TIP3    H1 3144   2.835   1.686   1.049 -1.3784 -0.2596  0.8448
 1046TIP3    H2 3145   2.890   1.740   1.179 -1.5627 -1.0834  1.2710
 1047TIP3   OH2 3146   0.846   1.267   5.191  0.1248  0.2015  0.6424
 1047TIP3    H1 3147   0.775   1.309   5.239  0.7051  0.5835  1.1834
 1047TIP3    H2 3148   0.811   1.182   5.166  0.2251 -0.5494  2.8941
 1048TIP3   OH2 3149   0.995   3.209   0.166  0.1326 -0.4244 -0.0138
 1048TIP3    H1 3150   1.051   3.143   0.208 -1.2778 -1.2109  0.6791
 1048TIP3    H2 3151   0.920   3.159   0.133 -0.7830  0.7838  0.2036
 1049TIP3   OH2 3152   3.246   2.022   2.572 -0.0761 -0.0976  0.4295
 1049TIP3    H1 3153   3.342   2.019   2.573 -0.1096 -1.5195 -0.3220
 1049TIP3    H2 3154   3.219   1.936   2.602 -1.1214 -0.3174 -1.1305
 1050TIP3   OH2 3155   3.898   5.119   1.914 -0.1373  0.0781  0.3604
 1050TIP3    H1 3156   3.830   5.096   1.852  0.2937 -1.9350  0.6108
 1050TIP3    H2 3157   3.921   5.210   1.893 -1.8740  0.2891 -0.6409
 1051TIP3   OH2 3158   3.097   4.875   1.001 -0.1187 -0.2319 -0.3659
 1051TIP3    H1 3159   3.117   4.950   1.058  2.3089 -0.3926 -0.9176
 1051TIP3    H2 3160   3.020   4.902   0.951 -0.6945  0.9501  1.1227
 1052TIP3   OH2 3161   2.327   2.498   0.600 -0.1367 -0.0602  0.0900
 1052TIP3    H1 3162   2.259   2.497   0.667 -0.2628  0.5938 -0.0177
 1052TIP3    H2 3163   2.409   2.486   0.647 -0.2661 -0.0942  0.3053
 1053TIP3   OH2 3164   2.318   3.272   1.479 -0.2213  0.7793  0.3678
 1053TIP3    H1 3165   2.282   3.260   1.391 -0.8120  0.8887  0.5966
 1053TIP3    H2 3166   2.381   3.345   1.469 -0.6540  1.1215  0.1410
 1054TIP3   OH2 3167   4.481   5.254   3.611  0.0118 -0.1845  0.1814
 1054TIP3    H1 3168   4.459   5.161   3.617 -3.2110  0.6854  3.0129
 1054TIP3    H2 3169   4.441   5.283   3.529  1.3157 -1.2954 -0.8853
 1055TIP3   OH2 3170  -0.003   1.196   1.538 -0.0584 -0.4512  0.3348
 1055TIP3    H1 3171   0.057   1.121   1.536  0.4037 -0.1160  1.2303
 1055TIP3    H2 3172  -0.053   1.183   1.618  0.9468  0.9049  1.2002
 1056TIP3   OH2 3173   2.420   2.256   2.299  0.0759 -0.9212 -0.0244
 1056TIP3    H1 3174   2.435   2.211   2.382  1.2223 -0.1561  0.1882
 1056TIP3    H2 3175   2.327   2.242   2.281 -0.4951  0.0265  2.0593
 1057TIP3   OH2 3176   2.000   2.775   0.718 -0.0528 -0.6071 -0.6651
 1057TIP3    H1 3177   2.008   2.704   0.782  1.3582  0.1099 -0.0167
 1057TIP3    H2 3178   1.931   2.831   0.753 -0.6733 -1.2754 -0.8073
 1058TIP3   OH2 3179   5.035   5.456   4.550 -0.8905 -0.8053  0.5330
 1058TIP3    H1 3180   4.975   5.505   4.607  0.2508  0.3509  0.7615
 1058TIP3    H2 3181   5.101   5.520   4.524 -0.6693 -1.6560 -1.0594
 1059TIP3   OH2 3182   3.217   0.780   3.810 -0.4300 -0.1739 -0.0627
 1059TIP3    H1 3183   3.137   0.816   3.772 -1.4633 -0.6642  1.5833
 1059TIP3    H2 3184   3.237   0.704   3.756 -2.4748 -1.4734  0.9528
 1060TIP3   OH2 3185   2.993   4.378   0.315  0.0033  0.3752  0.3092
 1060TIP3    H1 3186   3.036   4.309   0.265  2.2606  2.2595 -0.4577
 1060TIP3    H2 3187   3.000   4.350   0.406 -1.4554 -1.6364 -0.1649
 1061TIP3   OH2 3188   3.102   5.828   0.661 -0.3545  0.1548 -0.2226
 1061TIP3    H1 3189   3.010   5.823   0.635 -0.5085 -1.8611  0.6217
 1061TIP3    H2 3190   3.134   5.909   0.620 -2.1788  0.2567 -1.5182
 1062TIP3   OH2 3191   4.408   4.283   0.165  0.1598 -0.0618  0.1068
 1062TIP3    H1 3192   4.344   4.352   0.179 -0.7329 -0.9171  0.3046
 1062TIP3    H2 3193   4.384   4.245   0.080  0.0078 -0.7976  0.4721
 1063TIP3   OH2 3194   6.302   1.655   5.200 -0.0154  0.5420 -0.3577
 1063TIP3    H1 3195   6.339   1.712   5.266  1.2323  0.9855 -1.4336
 1063TIP3    H2 3196   6.340   1.569   5.217  2.1009  1.1400 -1.8848
 1064TIP3   OH2 3197   2.960   1.666   4.950  0.1629  0.0680  0.0497
 1064TIP3    H1 3198   3.017   1.740   4.931 -1.8259  1.9535  1.1541
 1064TIP3    H2 3199   3.000   1.625   5.027  1.5754 -0.3591 -0.8962
 1065TIP3   OH2 3200   2.704   4.043   0.341 -0.3179 -0.1900  0.3787
 1065TIP3    H1 3201   2.613   4.013   0.348 -0.4516 -0.1437 -0.8921
 1065TIP3    H2 3202   2.747   3.975   0.289 -0.4234  1.3589 -1.8280
 1066TIP3   OH2 3203   2.103   3.479   0.531 -0.3963  0.5897 -0.6203
 1066TIP3    H1 3204   2.012   3.459   0.550  0.3387 -1.4552  0.9219
 1066TIP3    H2 3205   2.119   3.562   0.575 -0.9672 -0.0580  0.8265
 1067TIP3   OH2 3206   2.390   4.851   2.087  0.2818 -0.2783 -0.0568
 1067TIP3    H1 3207   2.323   4.825   2.024 -0.1144  0.0880  0.2079
 1067TIP3    H2 3208   2.453   4.901   2.035  0.1809 -0.3477 -0.2462
 1068TIP3   OH2 3209   5.423   5.726   0.992  0.3518 -0.1981 -0.3112
 1068TIP3    H1 3210   5.396   5.756   1.080  2.7383  0.9218  0.0768
 1068TIP3    H2 3211   5.456   5.805   0.950 -1.8224 -0.4941 -2.6836
 1069TIP3   OH2 3212   2.325   4.823   1.052  0.3317  0.3574  0.1336
 1069TIP3    H1 3213   2.365   4.759   0.993  0.6535  0.1522  0.5699
 1069TIP3    H2 3214   2.363   4.907   1.027  0.4735  0.2679  0.0526
 1070TIP3   OH2 3215   2.814   0.337   3.184 -0.4188 -0.2482  0.6896
 1070TIP3    H1 3216   2.773   0.422   3.171  1.0588  0.7855  2.4474
 1070TIP3    H2 3217   2.815   0.296   3.097 -0.0803  2.0231 -0.3990
 1071TIP3   OH2 3218   0.715   0.650   5.205  0.6681  0.3386 -0.0861
 1071TIP3    H1 3219   0.798   0.606   5.224 -0.6337 -1.9156  0.6105
 1071TIP3    H2 3220   0.648   0.582   5.219 -1.3846  2.4195  0.4946
 1072TIP3   OH2 3221   0.705   0.379   2.368  0.2426  0.0199 -0.0749
 1072TIP3    H1 3222   0.664   0.298   2.398  1.5468 -1.6524 -2.6666
 1072TIP3    H2 3223   0.775   0.395   2.431  0.0970 -0.9734  0.3467
 1073TIP3   OH2 3224   1.595   0.959   4.598 -0.0756 -0.2969  0.4973
 1073TIP3    H1 3225   1.555   1.025   4.541  1.8741 -0.4790 -1.1379
 1073TIP3    H2 3226   1.608   1.004   4.681  2.0647  1.7226 -0.8609
 1074TIP3   OH2 3227   1.692   0.471   5.285  0.1000  0.5173 -0.1450
 1074TIP3    H1 3228   1.645   0.489   5.204  0.5989  2.3745 -0.0659
 1074TIP3    H2 3229   1.710   0.377   5.283 -2.1765  0.0631 -0.9290
 1075TIP3   OH2 3230   4.094   4.441   2.460  0.2072 -0.3482 -0.5251
 1075TIP3    H1 3231   4.053   4.509   2.512  1.3543 -1.0694  1.3808
 1075TIP3    H2 3232   4.170   4.483   2.420 -0.3343  0.0512 -1.1372
 1076TIP3   OH2 3233   4.007   4.588   0.736 -0.1777 -0.2369  0.2115
 1076TIP3    H1 3234   4.071   4.624   0.674 -1.0636  1.0007 -0.0033
 1076TIP3    H2 3235   4.043   4.503   0.761  1.2933  0.2197 -0.3027
 1077TIP3   OH2 3236   2.552   2.519   0.735 -0.4156  0.1134 -0.2575
 1077TIP3    H1 3237   2.622   2.477   0.787 -0.6986  0.7790  0.6832
 1077TIP3    H2 3238   2.576   2.612   0.734  0.1338 -0.0298 -2.2080
 1078TIP3   OH2 3239   3.039   2.266   0.480 -0.8094 -0.0380 -0.1896
 1078TIP3    H1 3240   2.982   2.217   0.539  0.4790 -0.3178  0.8606
 1078TIP3    H2 3241   3.028   2.357   0.507  1.6128 -0.3703  2.2099
 1079TIP3   OH2 3242   4.199   4.010   2.957 -0.1084  0.2031  0.0031
 1079TIP3    H1 3243   4.291   4.017   2.980  0.2816 -0.8535 -1.1660
 1079TIP3    H2 3244   4.162   4.096   2.977  1.1657  0.6886  0.3021
 1080TIP3   OH2 3245   0.068   5.333   4.883 -0.4190  0.3753 -0.3281
 1080TIP3    H1 3246   0.034   5.423   4.882 -0.9484  0.1795  0.2205
 1080TIP3    H2 3247   0.030   5.293   4.805  0.7412  0.9664 -1.2147
 1081TIP3   OH2 3248   1.057   3.859   0.110  0.3410 -0.1812  0.1545
 1081TIP3    H1 3249   1.020   3.939   0.148 -0.0874 -0.9438  1.3937
 1081TIP3    H2 3250   1.016   3.852   0.024  0.6858  1.1398 -0.1280
 1082TIP3   OH2 3251   1.308   4.614   3.697  0.1852 -0.3910 -0.1707
 1082TIP3    H1 3252   1.294   4.708   3.698 -1.4155 -0.6024 -0.6116
 1082TIP3    H2 3253   1.403   4.603   3.699  0.3625  1.2073  0.9801
 1083TIP3   OH2 3254   1.348   0.199   4.832  0.1436  0.4599 -0.4909
 1083TIP3    H1 3255   1.268   0.245   4.857 -1.6426 -1.9632 -1.4971
 1083TIP3    H2 3256   1.385   0.169   4.915 -1.4833 -0.7283 -0.1674
 1084TIP3   OH2 3257   5.135   5.227   4.699  0.4158 -0.2960 -0.3815
 1084TIP3    H1 3258   5.195   5.163   4.661 -0.1033 -0.9092 -0.1866
 1084TIP3    H2 3259   5.099   5.273   4.623  1.7535  0.6552 -0.4558
 1085TIP3   OH2 3260   1.167   4.269   1.365 -0.0199 -0.1446  0.0596
 1085TIP3    H1 3261   1.161   4.320   1.285  0.5367 -1.8727 -1.1152
 1085TIP3    H2 3262   1.231   4.201   1.346  0.9535  0.0746  2.3466
 1086TIP3   OH2 3263   2.442   3.911   0.362  0.3691 -0.0515 -0.2621
 1086TIP3    H1 3264   2.365   3.946   0.407  1.0943  0.1568  0.8549
 1086TIP3    H2 3265   2.407   3.864   0.287 -0.9594 -1.3299  1.1221
 1087TIP3   OH2 3266   2.577   4.890   0.304 -0.3071  0.5802 -0.3403
 1087TIP3    H1 3267   2.664   4.855   0.285 -0.2836  0.0062  0.7880
 1087TIP3    H2 3268   2.516   4.823   0.273 -0.2796 -0.1415  1.1196
 1088TIP3   OH2 3269   2.033   5.611   1.802  0.1601  0.0523  0.3894
 1088TIP3    H1 3270   1.996   5.679   1.858  1.1587 -0.7964  2.1050
 1088TIP3    H2 3271   2.077   5.659   1.732 -0.3848  1.1497  0.7891
 1089TIP3   OH2 3272   1.115   2.760   2.135  0.4508  0.2745  0.2858
 1089TIP3    H1 3273   1.184   2.710   2.178  2.0216  1.7594 -0.4261
 1089TIP3    H2 3274   1.121   2.736   2.043 -1.8928 -1.7392  0.6203
 1090TIP3   OH2 3275   2.969   4.170   1.310  0.2158  0.4244  0.3502
 1090TIP3    H1 3276   2.932   4.258   1.305 -1.0129  0.1397  3.2293
 1090TIP3    H2 3277   2.895   4.112   1.292  1.1896 -0.0379 -2.3186
 1091TIP3   OH2 3278   5.242   4.938   0.858  0.5658  0.1758 -0.3766
 1091TIP3    H1 3279   5.323   4.886   0.860  0.6389  0.3236  2.3966
 1091TIP3    H2 3280   5.181   4.884   0.809  0.8716 -2.2860  1.8176
 1092TIP3   OH2 3281   1.464   3.839   1.417  0.1130  0.3916 -0.1407
 1092TIP3    H1 3282   1.537   3.868   1.363 -0.4862  1.0168 -0.6192
 1092TIP3    H2 3283   1.458   3.745   1.402  1.2847  0.2039  0.4717
 1093TIP3   OH2 3284   4.099   6.075   2.455  0.1629  0.1411 -0.2843
 1093TIP3    H1 3285   4.075   6.114   2.539  0.3940 -0.8745  0.2597
 1093TIP3    H2 3286   4.092   6.147   2.393  0.5083  1.0348  0.6891
 1094TIP3   OH2 3287   2.065   3.314   2.317  0.1903 -0.5394  0.1077
 1094TIP3    H1 3288   2.149   3.268   2.322 -1.1626 -2.9098  2.1309
 1094TIP3    H2 3289   2.038   3.323   2.409 -2.2230 -0.6225 -0.5775
 1095TIP3   OH2 3290   6.226   5.806   4.007  0.1814  0.0538  0.6767
 1095TIP3    H1 3291   6.320   5.792   4.015  0.0043 -0.7387  1.3131
 1095TIP3    H2 3292   6.207   5.874   4.071  0.3750  0.4780  0.2919
 1096TIP3   OH2 3293   3.841   3.597   0.929 -0.3927 -0.3152 -0.3475
 1096TIP3    H1 3294   3.933   3.582   0.948 -0.7197 -2.1378 -0.0845
 1096TIP3    H2 3295   3.826   3.688   0.952  1.6890  0.4343 -1.8064
 1097TIP3   OH2 3296   3.778   5.703   0.418  0.1309 -0.4169 -0.7103
 1097TIP3    H1 3297   3.774   5.608   0.416  0.3351 -0.4203 -0.9796
 1097TIP3    H2 3298   3.695   5.732   0.381  1.0256 -0.4917 -2.8361
 1098TIP3   OH2 3299   3.158   5.067   0.709  0.5187  0.6151  0.0887
 1098TIP3    H1 3300   3.190   5.152   0.741  0.9751  0.3511  0.3466
 1098TIP3    H2 3301   3.179   5.067   0.616 -0.8047  1.3835 -0.2249
 1099TIP3   OH2 3302   3.164   1.859   1.108 -0.3295 -0.8095 -0.0379
 1099TIP3    H1 3303   3.162   1.921   1.036 -0.4247 -1.0586 -0.2464
 1099TIP3    H2 3304   3.084   1.876   1.158 -0.7195 -1.2629 -0.5065
 1100TIP3   OH2 3305   2.565   3.692   0.473  0.0642  0.3026 -1.2389
 1100TIP3    H1 3306   2.521   3.774   0.453  1.1469  1.0909 -0.4971
 1100TIP3    H2 3307   2.636   3.718   0.532 -0.1126 -1.2877 -0.3177
 1101TIP3   OH2 3308   2.049   2.692   0.082  0.1932 -0.0072  0.4327
 1101TIP3    H1 3309   1.979   2.758   0.082 -0.7385 -0.9910  0.0122
 1101TIP3    H2 3310   2.122   2.736   0.040 -1.2246 -0.0581 -2.1599
 1102TIP3   OH2 3311   2.259   1.726   4.870  0.1283 -0.1196 -0.1079
 1102TIP3    H1 3312   2.204   1.718   4.792 -1.5077 -1.6285  1.1599
 1102TIP3    H2 3313   2.303   1.641   4.877  0.5500  0.1381  0.4000
 1103TIP3   OH2 3314   4.076   3.524   1.732  0.5079 -0.1409  0.0106
 1103TIP3    H1 3315   4.166   3.550   1.712  0.2320  0.7271 -0.1596
 1103TIP3    H2 3316   4.079   3.501   1.825  0.9923 -0.5167 -0.0929
 1104TIP3   OH2 3317   3.463   2.947   1.697 -0.1566  0.5561  0.5351
 1104TIP3    H1 3318   3.384   2.997   1.713 -1.0396 -0.2964 -1.0593
 1104TIP3    H2 3319   3.446   2.861   1.735  0.4081  0.6965  1.1121
 1105TIP3   OH2 3320   4.086   3.955   1.860  0.3371  0.1401 -0.0209
 1105TIP3    H1 3321   4.159   3.995   1.908 -0.2814  2.3439 -0.8431
 1105TIP3    H2 3322   4.124   3.931   1.775  0.9101 -1.8262  0.7647
 1106TIP3   OH2 3323   0.130   4.879   4.207  0.1777 -0.8280 -0.1233
 1106TIP3    H1 3324   0.042   4.904   4.179  1.0872 -0.8425 -3.0876
 1106TIP3    H2 3325   0.128   4.783   4.209 -0.2628 -0.8001  1.1681
 1107TIP3   OH2 3326   4.371   2.128   2.602 -0.8769 -0.2751 -0.1932
 1107TIP3    H1 3327   4.381   2.186   2.677 -0.1369 -0.3634 -0.2188
 1107TIP3    H2 3328   4.291   2.158   2.559  0.0772  1.4313 -0.8253
 1108TIP3   OH2 3329   0.264   5.890   0.842  0.2551  0.0507  0.0190
 1108TIP3    H1 3330   0.330   5.906   0.909  0.5140  1.9748 -0.6588
 1108TIP3    H2 3331   0.269   5.967   0.785 -2.2150 -0.0276 -0.3439
 1109TIP3   OH2 3332   3.870   3.329   1.127 -0.6058 -0.2084  0.6983
 1109TIP3    H1 3333   3.824   3.265   1.182  0.1536 -0.2944  1.2442
 1109TIP3    H2 3334   3.819   3.410   1.136 -1.1268 -0.5260  0.6253
 1110TIP3   OH2 3335   1.707   0.029   1.373 -0.0694  0.2350 -0.5435
 1110TIP3    H1 3336   1.680   0.118   1.396  2.6766  0.6642  1.2952
 1110TIP3    H2 3337   1.728   0.034   1.280 -1.1413  1.1920 -0.7460
 1111TIP3   OH2 3338   4.540   3.561   0.512 -0.1481  0.0485  0.8645
 1111TIP3    H1 3339   4.491   3.561   0.594 -0.8156 -0.6208  0.4706
 1111TIP3    H2 3340   4.475   3.544   0.445  0.6079 -0.7624  0.3215
 1112TIP3   OH2 3341   2.081   4.969   1.308 -0.7364  0.1684  0.5227
 1112TIP3    H1 3342   2.041   5.039   1.360 -0.8202  0.0535  0.6137
 1112TIP3    H2 3343   2.029   4.966   1.228 -0.5538  0.4052  0.3929
 1113TIP3   OH2 3344   3.380   2.890   1.004  0.3074 -0.2607  0.3404
 1113TIP3    H1 3345   3.389   2.884   1.099 -0.4797  0.2313  0.4479
 1113TIP3    H2 3346   3.447   2.953   0.978  0.4212 -0.2786  0.5890
 1114TIP3   OH2 3347   2.234   2.169   5.163 -0.7559  0.9726  0.2878
 1114TIP3    H1 3348   2.246   2.170   5.068 -0.8839  0.1392  0.2587
 1114TIP3    H2 3349   2.140   2.182   5.175 -0.9383 -0.1999  0.2455
 1115TIP3   OH2 3350   3.710   2.555   1.108 -0.3684  0.1693 -0.4169
 1115TIP3    H1 3351   3.700   2.463   1.081  1.4982  0.2789 -1.5436
 1115TIP3    H2 3352   3.695   2.553   1.202  3.9742 -2.0494  0.3472
 1116TIP3   OH2 3353   4.058   3.902   1.086 -0.0080 -0.0897  0.0325
 1116TIP3    H1 3354   4.098   3.895   1.173 -0.7143  3.5745  0.7264
 1116TIP3    H2 3355   3.971   3.864   1.097 -0.1000  0.3688  0.9227
 1117TIP3   OH2 3356   2.092   2.780   2.146  0.6081 -0.0403 -0.6092
 1117TIP3    H1 3357   2.100   2.833   2.225 -0.2307  0.3734 -0.7972
 1117TIP3    H2 3358   2.136   2.831   2.078 -0.6510  0.6588 -0.9034
 1118TIP3   OH2 3359   2.556   1.273   5.230 -0.0668  0.0360 -0.0503
 1118TIP3    H1 3360   2.591   1.348   5.181 -0.8015  0.8342  0.6576
 1118TIP3    H2 3361   2.535   1.307   5.316 -0.3987 -0.9904  0.2849
 1119TIP3   OH2 3362   2.568   4.342   2.369 -0.5649  0.4656  0.8227
 1119TIP3    H1 3363   2.554   4.255   2.407  0.0142  0.0884  0.1945
 1119TIP3    H2 3364   2.588   4.324   2.277 -0.5027  1.2734  0.6795
 1120TIP3   OH2 3365   4.552   4.686   4.435 -0.3997 -0.5686  0.3751
 1120TIP3    H1 3366   4.527   4.696   4.343 -0.6868 -1.0849  0.3938
 1120TIP3    H2 3367   4.635   4.639   4.432  0.6386  1.2436  0.3093
 1121TIP3   OH2 3368   3.797   5.138   0.771  0.3915 -0.3261  0.3334
 1121TIP3    H1 3369   3.828   5.137   0.862  1.9573  0.5792 -0.1872
 1121TIP3    H2 3370   3.874   5.120   0.718 -0.5600 -1.1012 -0.8308
 1122TIP3   OH2 3371   2.817   5.140   4.455 -0.2132  0.2488 -0.2849
 1122TIP3    H1 3372   2.874   5.197   4.508 -1.7366  0.4205  1.2341
 1122TIP3    H2 3373   2.732   5.185   4.455 -0.6776 -0.6066 -1.4836
 1123TIP3   OH2 3374   1.878   2.586   2.137  0.4990  0.2314  0.2844
 1123TIP3    H1 3375   1.876   2.546   2.049  2.3646  2.0800 -0.6352
 1123TIP3    H2 3376   1.945   2.654   2.131 -0.4926  1.4765  2.7007
 1124TIP3   OH2 3377   4.245   4.723   0.627  0.1258  0.3006 -0.2484
 1124TIP3    H1 3378   4.275   4.756   0.712 -2.2629  0.2928  0.6443
 1124TIP3    H2 3379   4.246   4.799   0.569  1.9128  0.2748 -0.2705
 1125TIP3   OH2 3380   2.318   5.179   0.934 -0.1188  0.2493 -0.0274
 1125TIP3    H1 3381   2.320   5.146   1.024  1.3032  0.7310  0.1156
 1125TIP3    H2 3382   2.233   5.222   0.926 -0.5706 -0.4708  0.8369
 1126TIP3   OH2 3383   4.853   5.244   0.214 -0.0524 -0.2482  0.0602
 1126TIP3    H1 3384   4.763   5.212   0.203  0.0968 -0.2352 -1.3052
 1126TIP3    H2 3385   4.900   5.209   0.138  0.8606  0.5884  0.2320
 1127TIP3   OH2 3386   1.840   4.779   1.294 -0.2019 -0.5568  0.2233
 1127TIP3    H1 3387   1.839   4.831   1.213 -1.3210 -2.1225 -0.7999
 1127TIP3    H2 3388   1.904   4.710   1.278 -1.9818 -2.1562 -0.1981
 1128TIP3   OH2 3389   3.175   2.437   2.433 -0.3637  0.4208 -0.2815
 1128TIP3    H1 3390   3.235   2.395   2.495 -1.9957 -1.0657  0.3312
 1128TIP3    H2 3391   3.110   2.480   2.489 -3.0583 -2.6816 -0.8997
 1129TIP3   OH2 3392   5.831   1.518   0.408  0.8354  0.3868  0.1554
 1129TIP3    H1 3393   5.783   1.449   0.453  1.7797 -0.2984  0.1226
 1129TIP3    H2 3394   5.854   1.480   0.323  2.5643  0.2330  0.6765
 1130TIP3   OH2 3395   1.711   2.422   3.110 -0.0823 -0.2378  0.0926
 1130TIP3    H1 3396   1.652   2.477   3.058  2.2393  0.2979 -2.1070
 1130TIP3    H2 3397   1.693   2.446   3.201 -2.5784  0.5417 -0.5742
 1131TIP3   OH2 3398   1.297   1.556   4.896 -0.3812  0.0059 -0.0346
 1131TIP3    H1 3399   1.381   1.555   4.851 -0.6846  0.6829 -0.6232
 1131TIP3    H2 3400   1.268   1.465   4.897  1.2298 -0.5283  1.8240
 1132TIP3   OH2 3401   3.002   3.052   2.101 -0.3050  0.3585  0.3908
 1132TIP3    H1 3402   3.001   3.054   2.197  0.4457  0.5462  0.3942
 1132TIP3    H2 3403   3.016   3.143   2.075  1.1793  0.0589  0.1242
 1133TIP3   OH2 3404   4.036   5.757   0.564 -0.2984  0.6266  0.0247
 1133TIP3    H1 3405   3.957   5.741   0.512  0.0198  1.3310 -0.6786
 1133TIP3    H2 3406   4.055   5.850   0.551  1.9849 -0.0497 -1.7120
 1134TIP3   OH2 3407   2.631   3.726   1.165 -0.1046 -0.2917  0.3245
 1134TIP3    H1 3408   2.555   3.671   1.147  2.0322 -2.1062 -3.9664
 1134TIP3    H2 3409   2.691   3.668   1.213  0.1130 -0.1115  0.2723
 1135TIP3   OH2 3410   3.347   3.504   0.470 -0.1213 -0.1874  0.0166
 1135TIP3    H1 3411   3.414   3.447   0.507  1.9728  2.6832  0.7959
 1135TIP3    H2 3412   3.395   3.577   0.431 -2.6864  0.8523 -1.3806
 1136TIP3   OH2 3413   0.113   1.924   0.349  0.0296 -0.8597 -0.3629
 1136TIP3    H1 3414   0.105   1.890   0.438 -1.9008 -0.8704 -0.5379
 1136TIP3    H2 3415   0.089   1.851   0.292  1.2252 -0.8413 -0.9197
 1137TIP3   OH2 3416   1.536   1.069   4.356  0.3826 -0.2170  0.1091
 1137TIP3    H1 3417   1.535   1.164   4.366  2.3132 -0.3563  1.8275
 1137TIP3    H2 3418   1.589   1.054   4.277  0.3585  0.1223  0.0279
 1138TIP3   OH2 3419   5.071   5.878   3.554  0.5456 -0.2060 -0.5036
 1138TIP3    H1 3420   5.074   5.804   3.614  3.6809 -1.2346 -1.7726
 1138TIP3    H2 3421   4.991   5.866   3.503  0.6689 -2.3366 -0.2058
 1139TIP3   OH2 3422   2.829   2.096   1.761  0.0509  0.5707 -0.1312
 1139TIP3    H1 3423   2.751   2.080   1.813 -0.6068 -1.1321 -1.5992
 1139TIP3    H2 3424   2.822   2.188   1.734 -1.1645  0.5827  0.2139
 1140TIP3   OH2 3425   0.038   5.243   4.597  0.0759  0.0152 -0.5581
 1140TIP3    H1 3426   0.048   5.322   4.544 -1.1802  0.8035  0.3648
 1140TIP3    H2 3427   0.128   5.209   4.607  0.6051  1.2639 -1.0237
 1141TIP3   OH2 3428   6.425   1.823   1.828 -0.6632 -0.4547 -0.3402
 1141TIP3    H1 3429   6.382   1.780   1.754 -0.3348  0.3162 -0.9905
 1141TIP3    H2 3430   6.462   1.752   1.879 -0.4440 -0.9658 -1.2072
 1142TIP3   OH2 3431   3.951   2.986   1.255  0.1229  0.4354  0.7113
 1142TIP3    H1 3432   3.904   3.050   1.308 -1.8405 -0.1720 -0.2584
 1142TIP3    H2 3433   3.889   2.915   1.241  1.0435 -0.0423 -1.2321
 1143TIP3   OH2 3434   3.506   3.421   0.114  0.2752  0.0717  0.6252
 1143TIP3    H1 3435   3.555   3.349   0.076  0.9793  0.2932  1.1002
 1143TIP3    H2 3436   3.426   3.381   0.148 -0.0319 -0.2329 -0.4583
 1144TIP3   OH2 3437   4.166   6.053   0.853 -0.0246  0.5745  0.0937
 1144TIP3    H1 3438   4.261   6.062   0.849  0.2209 -1.6761  0.2669
 1144TIP3    H2 3439   4.136   6.074   0.764  0.7486  0.1166 -0.2806
 1145TIP3   OH2 3440   5.441   3.393   3.477 -0.7034  0.0048 -0.5395
 1145TIP3    H1 3441   5.400   3.470   3.517 -1.0957 -1.2782  1.5753
 1145TIP3    H2 3442   5.511   3.430   3.423 -0.9094  1.8661  0.3960
 1146TIP3   OH2 3443   1.859   0.434   4.972  0.3264  0.4197 -1.0507
 1146TIP3    H1 3444   1.827   0.385   4.896 -0.5069 -0.4235 -0.1786
 1146TIP3    H2 3445   1.814   0.393   5.047  1.2732  1.1153 -0.0923
 1147TIP3   OH2 3446   5.925   0.434   0.425 -0.1010 -0.3160  0.0985
 1147TIP3    H1 3447   5.896   0.518   0.390 -1.3832 -0.8301 -0.1244
 1147TIP3    H2 3448   5.981   0.456   0.499 -1.7266  0.7307  1.0455
 1148TIP3   OH2 3449   0.110   5.512   3.156  0.1647 -0.3383 -0.5283
 1148TIP3    H1 3450   0.067   5.538   3.074 -0.8402 -0.2784  0.0030
 1148TIP3    H2 3451   0.129   5.419   3.144  0.6900 -0.1643 -1.1095
 1149TIP3   OH2 3452   2.147   1.630   5.117  0.2611 -0.2032 -0.2908
 1149TIP3    H1 3453   2.208   1.559   5.140  1.2009  0.5967 -0.3161
 1149TIP3    H2 3454   2.203   1.706   5.102 -0.7961  0.7192  0.3702
 1150TIP3   OH2 3455   3.979   5.503   1.492  0.1611 -0.0439 -0.6593
 1150TIP3    H1 3456   3.953   5.486   1.401 -1.0675  2.0338 -0.7201
 1150TIP3    H2 3457   4.057   5.558   1.484  0.9738 -1.1341 -0.4329
 1151TIP3   OH2 3458   5.737   6.065   1.053  0.0049  0.1695  0.0982
 1151TIP3    H1 3459   5.679   6.112   1.113 -0.8800  1.0207 -1.3994
 1151TIP3    H2 3460   5.686   5.988   1.026 -0.1986  0.5978 -0.7502
 1152TIP3   OH2 3461   6.034   4.982   1.255 -0.3995  0.3808 -0.7900
 1152TIP3    H1 3462   5.968   4.948   1.194 -2.2904  0.4509  1.1627
 1152TIP3    H2 3463   6.013   4.941   1.339  2.3329  0.0698 -0.2012
 1153TIP3   OH2 3464   5.075   4.139   0.366 -0.0691  0.2610  0.4569
 1153TIP3    H1 3465   5.007   4.111   0.304 -0.9496  0.1188  1.4726
 1153TIP3    H2 3466   5.077   4.234   0.357  0.5241  0.1618 -0.5228
 1154TIP3   OH2 3467   6.369   0.250   2.703 -0.3578  0.0945 -0.1519
 1154TIP3    H1 3468   6.276   0.240   2.727 -0.4098  2.4535  0.7021
 1154TIP3    H2 3469   6.412   0.273   2.785  0.7084  0.7584 -0.8953
 1155TIP3   OH2 3470   3.369   4.938   1.688 -0.3529  0.0450 -0.2161
 1155TIP3    H1 3471   3.370   4.947   1.592 -0.6618 -3.4167 -0.6008
 1155TIP3    H2 3472   3.461   4.938   1.713 -0.2548  0.3482 -0.5713
 1156TIP3   OH2 3473   5.619   3.511   4.352 -0.7432 -0.1052 -0.1343
 1156TIP3    H1 3474   5.606   3.429   4.305 -0.6629 -0.4225  0.3964
 1156TIP3    H2 3475   5.666   3.486   4.431  1.6771  0.7842 -1.2278
 1157TIP3   OH2 3476   2.681   0.636   0.022  0.3508  0.1059 -0.6257
 1157TIP3    H1 3477   2.710   0.565   0.079 -1.3075 -0.1620 -0.0860
 1157TIP3    H2 3478   2.603   0.671   0.065  0.4316  1.4336 -1.5329
 1158TIP3   OH2 3479   1.458   2.419   5.203 -0.1393 -0.0991 -0.0178
 1158TIP3    H1 3480   1.435   2.383   5.118 -1.1442  1.7937 -0.5881
 1158TIP3    H2 3481   1.552   2.402   5.212  0.0223 -0.1039 -1.6149
 1159TIP3   OH2 3482   1.404   5.765   5.217 -0.0475  0.5299 -0.0717
 1159TIP3    H1 3483   1.496   5.770   5.243  0.1818 -2.7179 -0.0779
 1159TIP3    H2 3484   1.407   5.736   5.126 -1.0896 -0.2068  0.1232
 1160TIP3   OH2 3485   4.687   4.093   0.851  0.1215 -0.1572  0.0156
 1160TIP3    H1 3486   4.773   4.129   0.829 -0.8631  1.9442 -0.4514
 1160TIP3    H2 3487   4.699   3.998   0.844  1.4482  0.2059 -3.7011
 1161TIP3   OH2 3488   4.299   3.380   1.950  0.0862 -0.0303 -0.1032
 1161TIP3    H1 3489   4.385   3.417   1.932  1.1503 -1.5190  1.7195
 1161TIP3    H2 3490   4.292   3.305   1.891 -0.3805  0.6799 -0.9519
 1162TIP3   OH2 3491   2.946   4.311   0.662  0.1685 -0.5555 -0.4847
 1162TIP3    H1 3492   2.987   4.392   0.691 -2.0832  1.2502 -2.1254
 1162TIP3    H2 3493   2.978   4.244   0.723  1.5503  1.6777  1.3074
 1163TIP3   OH2 3494   5.368   4.147   1.292 -0.3757 -0.3377 -0.0001
 1163TIP3    H1 3495   5.361   4.147   1.388 -0.6031  0.9838  0.0042
 1163TIP3    H2 3496   5.283   4.118   1.261 -0.6613  0.2793  0.1971
 1164TIP3   OH2 3497   4.298   4.788   1.765  0.1124 -0.0752 -0.6162
 1164TIP3    H1 3498   4.264   4.704   1.794  0.5133  0.1748  0.6115
 1164TIP3    H2 3499   4.226   4.850   1.778 -0.1558 -0.2093 -1.4423
 1165TIP3   OH2 3500   5.271   3.074   1.413  0.3746 -0.2467  0.7780
 1165TIP3    H1 3501   5.302   2.990   1.378 -0.3760 -0.7185  1.2502
 1165TIP3    H2 3502   5.351   3.126   1.424  0.5340  0.3340 -2.7140
 1166TIP3   OH2 3503   3.760   3.191   0.461 -0.3899 -0.3305 -0.0311
 1166TIP3    H1 3504   3.708   3.160   0.386  0.5061 -1.0864 -0.3549
 1166TIP3    H2 3505   3.706   3.260   0.500 -1.3882 -0.7132 -0.6856
 1167TIP3   OH2 3506   6.259   5.362   1.718  0.4601 -0.1138 -0.1593
 1167TIP3    H1 3507   6.217   5.442   1.751  0.0000 -1.3044  2.2575
 1167TIP3    H2 3508   6.205   5.291   1.752  3.2873 -1.6268  1.3470
 1168TIP3   OH2 3509   1.677   4.415   0.298  0.5879 -0.4020 -0.7652
 1168TIP3    H1 3510   1.716   4.368   0.372 -0.0804  0.5815  0.2252
 1168TIP3    H2 3511   1.607   4.358   0.267 -0.0949 -0.1405  0.3021
 1169TIP3   OH2 3512   5.302   5.344   2.420  0.5659  0.0165  0.1659
 1169TIP3    H1 3513   5.339   5.339   2.508  0.9348  1.0991  0.0914
 1169TIP3    H2 3514   5.319   5.435   2.393 -3.0669  0.8953  0.5282
 1170TIP3   OH2 3515   4.830   3.852   2.253 -0.5729  0.0638 -0.4931
 1170TIP3    H1 3516   4.837   3.778   2.193  0.1926 -0.2715 -0.0116
 1170TIP3    H2 3517   4.872   3.821   2.334 -3.6553 -0.3403  1.0265
 1171TIP3   OH2 3518   3.485   3.559   5.061  0.2323 -0.2519  0.1116
 1171TIP3    H1 3519   3.561   3.607   5.029 -0.6148  0.7323 -0.4216
 1171TIP3    H2 3520   3.411   3.597   5.015 -0.8213  0.0966  2.0315
 1172TIP3   OH2 3521   2.775   0.277   0.955  0.3974 -0.2344 -0.3949
 1172TIP3    H1 3522   2.690   0.284   1.000  0.3700  2.7789 -0.8654
 1172TIP3    H2 3523   2.775   0.188   0.919 -1.9640 -0.7660  0.8023
 1173TIP3   OH2 3524   2.533   2.050   4.922 -0.2668 -0.1667  0.3656
 1173TIP3    H1 3525   2.550   1.975   4.979  1.6789  1.3797  1.8790
 1173TIP3    H2 3526   2.572   2.025   4.838 -0.9437 -1.4274  0.4082
 1174TIP3   OH2 3527   4.044   1.465   4.542  0.7859  0.3110  0.1310
 1174TIP3    H1 3528   3.961   1.430   4.509 -0.1651  1.5139  1.1941
 1174TIP3    H2 3529   4.020   1.549   4.580  2.0456 -0.5231  2.8326
 1175TIP3   OH2 3530   3.414  -0.029   0.854 -0.5291 -0.1213  0.0258
 1175TIP3    H1 3531   3.447   0.053   0.816  1.3192  0.6117  2.9992
 1175TIP3    H2 3532   3.322  -0.011   0.873 -0.7647  0.4214 -1.5031
 1176TIP3   OH2 3533   3.707   5.287   2.459 -0.0728  0.5142  0.1787
 1176TIP3    H1 3534   3.714   5.318   2.549  1.8552  0.1391  0.1925
 1176TIP3    H2 3535   3.739   5.197   2.463 -0.2640  0.4008 -0.8348
 1177TIP3   OH2 3536   3.456   0.466   3.403  0.9472 -0.0229 -0.1424
 1177TIP3    H1 3537   3.488   0.487   3.315  0.5562 -1.4616 -0.6343
 1177TIP3    H2 3538   3.455   0.371   3.406  0.9995  0.0171  1.4509
 1178TIP3   OH2 3539   4.724   4.912   1.954 -0.7051 -0.1453 -0.7016
 1178TIP3    H1 3540   4.725   5.005   1.929 -0.0481 -0.0190 -0.2253
 1178TIP3    H2 3541   4.755   4.911   2.045 -1.1382 -0.7913 -0.5601
 1179TIP3   OH2 3542   2.575   5.661   1.076 -0.0688  0.4744 -0.1017
 1179TIP3    H1 3543   2.663   5.626   1.093  0.6001  2.1786  0.0068
 1179TIP3    H2 3544   2.540   5.679   1.163  0.1569  1.4612 -0.2183
 1180TIP3   OH2 3545   0.607   3.873   1.180 -0.2982 -0.0242  0.2560
 1180TIP3    H1 3546   0.597   3.778   1.191 -1.2646  0.2023  1.3976
 1180TIP3    H2 3547   0.702   3.886   1.174 -0.1219 -0.9926  0.7936
 1181TIP3   OH2 3548   1.879   4.542   1.478 -0.7483 -0.3480  0.5173
 1181TIP3    H1 3549   1.889   4.637   1.471  1.1798 -0.6504 -1.3966
 1181TIP3    H2 3550   1.785   4.529   1.488 -1.0901  1.7340  0.3305
 1182TIP3   OH2 3551   2.704   4.875   2.070 -0.1949 -0.3159  0.8115
 1182TIP3    H1 3552   2.725   4.909   2.157  1.4069  0.4274  0.1507
 1182TIP3    H2 3553   2.761   4.924   2.010 -1.7731 -0.3041 -0.7484
 1183TIP3   OH2 3554   6.436   3.962   1.517 -0.1044  0.3020  0.0840
 1183TIP3    H1 3555   6.476   3.908   1.449  0.0301  1.1657 -0.5463
 1183TIP3    H2 3556   6.510   4.011   1.554 -0.7048  3.0700 -2.1527
 1184TIP3   OH2 3557   2.272   3.008   1.080  0.3556 -0.1617  0.0956
 1184TIP3    H1 3558   2.275   3.070   1.007 -0.3171 -0.3167 -0.0629
 1184TIP3    H2 3559   2.182   3.012   1.112  0.4297 -0.7158  0.3834
 1185TIP3   OH2 3560   5.406   5.314   1.259 -0.2010  0.1352  0.1938
 1185TIP3    H1 3561   5.480   5.295   1.203  0.5545 -0.0575  1.2437
 1185TIP3    H2 3562   5.344   5.242   1.242  0.6411 -0.7092  0.6800
 1186TIP3   OH2 3563   0.612   5.203   1.541  0.2610  0.1648  0.1977
 1186TIP3    H1 3564   0.544   5.142   1.570 -1.6673  2.4065  0.5838
 1186TIP3    H2 3565   0.609   5.275   1.604  2.3753  0.7430 -0.3163
 1187TIP3   OH2 3566   1.214   1.314   4.822 -0.0763 -0.3723  0.1274
 1187TIP3    H1 3567   1.290   1.306   4.764  0.3602 -1.3636  0.7984
 1187TIP3    H2 3568   1.145   1.265   4.778 -0.1301  0.0039 -0.1954
 1188TIP3   OH2 3569   2.763   5.670   2.446 -0.6354 -0.2413  0.3294
 1188TIP3    H1 3570   2.766   5.578   2.471  1.4256 -0.0272  0.9611
 1188TIP3    H2 3571   2.854   5.694   2.428 -1.3227  1.2500 -1.4345
 1189TIP3   OH2 3572   3.184   4.241   2.216  0.0792  0.3699  0.0231
 1189TIP3    H1 3573   3.117   4.307   2.230 -1.0150 -0.8295  0.5784
 1189TIP3    H2 3574   3.265   4.290   2.204 -0.9442  1.8552 -0.9773
 1190TIP3   OH2 3575   6.074   5.803   2.770  0.0264  0.6541  0.8481
 1190TIP3    H1 3576   5.983   5.779   2.791 -0.7530  1.3566 -1.6174
 1190TIP3    H2 3577   6.070   5.897   2.753  0.9068  0.3979 -0.8263
 1191TIP3   OH2 3578   2.308   4.138   1.850  0.2228  0.3244  0.0896
 1191TIP3    H1 3579   2.266   4.224   1.847  1.8174  1.1325  0.4714
 1191TIP3    H2 3580   2.305   4.114   1.942 -1.8494 -0.8816 -0.2530
 1192TIP3   OH2 3581   3.004   2.238   0.774 -0.0067 -0.1656 -0.3777
 1192TIP3    H1 3582   3.031   2.312   0.828  1.3840 -0.6685 -0.3630
 1192TIP3    H2 3583   3.045   2.162   0.815 -0.9321 -0.8728 -0.7407
 1193TIP3   OH2 3584   5.082   3.751   0.726  0.2897 -0.3444 -0.1751
 1193TIP3    H1 3585   5.034   3.767   0.807 -0.4641 -0.1444 -0.6656
 1193TIP3    H2 3586   5.162   3.707   0.755  1.5864  2.6822  1.0046
 1194TIP3   OH2 3587   0.875   3.981   1.211  0.4438 -0.0544 -0.0958
 1194TIP3    H1 3588   0.893   3.957   1.302 -1.8032  2.3373  1.0437
 1194TIP3    H2 3589   0.924   4.062   1.199 -0.8316  0.6697 -0.3987
 1195TIP3   OH2 3590   0.801   1.894   5.059  0.0671  0.1292  0.1959
 1195TIP3    H1 3591   0.778   1.959   5.125  1.2698  0.6275  0.1321
 1195TIP3    H2 3592   0.729   1.897   4.996 -0.3126  0.7739  0.6593
 1196TIP3   OH2 3593   1.687   1.596   0.465  0.0191 -0.8388 -0.3944
 1196TIP3    H1 3594   1.612   1.619   0.520 -0.0141  0.9753 -1.1545
 1196TIP3    H2 3595   1.722   1.516   0.504 -1.4653 -0.9231  0.8076
 1197TIP3   OH2 3596   1.133   5.067   3.124  0.0154  0.2479  0.4720
 1197TIP3    H1 3597   1.169   4.984   3.156 -0.1600  0.3195  0.8597
 1197TIP3    H2 3598   1.055   5.081   3.178 -0.7266 -0.0205 -0.5189
 1198TIP3   OH2 3599   1.583   4.749   1.396 -0.1656  0.0974  1.0941
 1198TIP3    H1 3600   1.603   4.683   1.462  0.1661  0.3495  1.2503
 1198TIP3    H2 3601   1.667   4.765   1.352 -0.5705 -0.7322 -0.0064
 1199TIP3   OH2 3602   4.752   1.587   4.897 -0.6533  0.5120  0.0318
 1199TIP3    H1 3603   4.659   1.578   4.876 -0.3646 -0.6521 -0.8379
 1199TIP3    H2 3604   4.797   1.534   4.830  0.5854  0.4532  0.8852
 1200TIP3   OH2 3605   1.976   0.745   2.099 -0.6286 -0.1942  0.1032
 1200TIP3    H1 3606   1.900   0.741   2.156 -0.5694 -2.0023  0.0543
 1200TIP3    H2 3607   1.950   0.804   2.028 -1.6104 -0.0086  0.6192
 1201TIP3   OH2 3608   1.150   4.934   0.363 -0.5106 -0.2516  0.3533
 1201TIP3    H1 3609   1.208   5.002   0.328  0.0727 -0.5237  0.7830
 1201TIP3    H2 3610   1.159   4.941   0.458 -2.2241  0.6029  0.4630
 1202TIP3   OH2 3611   0.468   3.674   0.927 -0.5145  0.2671  0.4308
 1202TIP3    H1 3612   0.415   3.729   0.983 -0.6990 -0.2703  0.7817
 1202TIP3    H2 3613   0.498   3.603   0.983  0.3611  0.4209  0.1764
 1203TIP3   OH2 3614   2.684   4.440   1.844  0.3195 -0.0444  0.4327
 1203TIP3    H1 3615   2.751   4.372   1.842  0.7427  0.3460  0.8968
 1203TIP3    H2 3616   2.717   4.503   1.908 -0.9810 -0.3538  1.4288
 1204TIP3   OH2 3617   0.037   4.546   0.891  0.2596  0.0980  1.0915
 1204TIP3    H1 3618   0.100   4.549   0.963 -0.5885  2.6999  1.7936
 1204TIP3    H2 3619  -0.018   4.470   0.911  0.5585  0.2900  2.7633
 1205TIP3   OH2 3620   5.387   1.735   4.076 -0.0795  0.2195  0.4235
 1205TIP3    H1 3621   5.415   1.782   3.997  0.8910 -0.8339  0.1170
 1205TIP3    H2 3622   5.329   1.796   4.121  1.2229  1.7585  0.0853
 1206TIP3   OH2 3623   6.354   2.257   0.064 -0.1372  0.5952 -0.0302
 1206TIP3    H1 3624   6.310   2.322   0.118 -0.7458 -0.1559  0.3918
 1206TIP3    H2 3625   6.446   2.284   0.063 -0.7799  2.9035 -1.9722
 1207TIP3   OH2 3626   2.868   0.090   1.440 -0.3229 -0.2216  0.2693
 1207TIP3    H1 3627   2.906   0.176   1.455 -0.8027  0.0778 -0.2497
 1207TIP3    H2 3628   2.920   0.053   1.369 -0.2725 -0.2700  0.3306
 1208TIP3   OH2 3629   5.956   0.955   1.925  0.2303  0.2614 -0.5663
 1208TIP3    H1 3630   6.043   0.956   1.965 -0.1430 -1.9663  0.3864
 1208TIP3    H2 3631   5.940   0.863   1.904 -2.7471  0.2794  1.2692
 1209TIP3   OH2 3632   5.342   0.185   2.717  0.2539  0.5808 -0.1852
 1209TIP3    H1 3633   5.283   0.128   2.766  1.5476 -0.0611  0.6474
 1209TIP3    H2 3634   5.350   0.263   2.772  0.8657  0.3017  0.1265
 1210TIP3   OH2 3635   2.808   3.855   0.161 -0.1641 -0.6875  0.8019
 1210TIP3    H1 3636   2.801   3.828   0.069 -1.2695 -0.2476  0.7434
 1210TIP3    H2 3637   2.896   3.829   0.187  0.6036  0.2921 -0.7374
 1211TIP3   OH2 3638   0.323   3.917   3.215  0.3783 -0.2968  0.2275
 1211TIP3    H1 3639   0.259   3.938   3.147  0.0604 -0.7867  0.3709
 1211TIP3    H2 3640   0.302   3.975   3.288 -0.7914 -1.4056  0.8002
 1212TIP3   OH2 3641   1.864   5.492   0.804 -0.4376 -0.3561 -0.1741
 1212TIP3    H1 3642   1.846   5.440   0.726 -0.9372 -0.0935 -0.2362
 1212TIP3    H2 3643   1.882   5.580   0.770 -0.8753 -0.1906  0.0220
 1213TIP3   OH2 3644   6.385   5.807   0.785  0.6668  0.0203 -0.4215
 1213TIP3    H1 3645   6.354   5.885   0.739 -0.8699 -1.1239 -1.4183
 1213TIP3    H2 3646   6.414   5.838   0.870  1.8449  1.9309 -1.4961
 1214TIP3   OH2 3647   0.025   3.918   0.046 -0.1532 -0.5192 -0.2185
 1214TIP3    H1 3648   0.026   3.871   0.129 -1.1108  0.0336  0.1139
 1214TIP3    H2 3649   0.008   4.009   0.070 -1.3056 -0.4991 -1.0821
 1215TIP3   OH2 3650   2.264   4.397   0.947 -0.4037 -0.3303  0.2602
 1215TIP3    H1 3651   2.222   4.318   0.915 -0.7352 -0.8678  2.0121
 1215TIP3    H2 3652   2.247   4.462   0.879 -1.5468 -1.3141 -0.4114
 1216TIP3   OH2 3653   1.958   5.645   0.071 -0.1509  0.3127  0.0386
 1216TIP3    H1 3654   2.043   5.685   0.054  0.3602 -0.4315  0.7943
 1216TIP3    H2 3655   1.963   5.560   0.029 -1.7482  1.5505 -2.7693
 1217TIP3   OH2 3656   3.011   5.016   3.228 -0.4956 -0.5771 -0.3297
 1217TIP3    H1 3657   3.060   4.995   3.308 -0.3333  0.2547 -0.2138
 1217TIP3    H2 3658   2.960   4.936   3.211  1.2862 -1.6394 -0.7580
 1218TIP3   OH2 3659   0.625   3.247   1.300 -0.6213 -0.4539  0.3691
 1218TIP3    H1 3660   0.565   3.232   1.227 -0.1955 -2.3729  0.3955
 1218TIP3    H2 3661   0.712   3.252   1.259 -0.7641  2.7119  0.2817
 1219TIP3   OH2 3662   2.510   0.358   1.559  0.6787 -0.6707 -0.3312
 1219TIP3    H1 3663   2.459   0.279   1.542 -0.5022 -0.5062  2.1807
 1219TIP3    H2 3664   2.448   0.430   1.552  0.7578 -0.3694  1.6478
 1220TIP3   OH2 3665   2.938   0.580   1.393  0.7375  0.6834  0.1038
 1220TIP3    H1 3666   2.958   0.606   1.303 -0.7915  0.3257 -0.3531
 1220TIP3    H2 3667   2.862   0.523   1.385  0.4122  0.8851  1.6485
 1221TIP3   OH2 3668   6.068   3.945   3.516 -0.2286  0.4526  0.4873
 1221TIP3    H1 3669   6.119   3.865   3.503  0.4162  0.8720  0.4219
 1221TIP3    H2 3670   6.065   3.986   3.430 -1.2654  0.0849  0.3442
 1222TIP3   OH2 3671   1.032   3.943   1.721  0.0824  0.1599 -0.0616
 1222TIP3    H1 3672   1.115   3.896   1.727 -1.0250 -1.6717  1.1512
 1222TIP3    H2 3673   1.046   4.023   1.771  0.5175 -1.0131  1.7162
 1223TIP3   OH2 3674   1.889   5.270   2.012  0.0228  0.4500 -0.1596
 1223TIP3    H1 3675   1.843   5.299   2.091  0.5040  2.8276 -0.6953
 1223TIP3    H2 3676   1.829   5.293   1.940  0.6744  0.6904 -0.6372
 1224TIP3   OH2 3677   4.729   3.815   1.349 -0.5301  0.4963  0.2778
 1224TIP3    H1 3678   4.638   3.822   1.378 -0.7505  1.6668 -0.6478
 1224TIP3    H2 3679   4.774   3.770   1.421 -1.6627  0.6648  1.1025
 1225TIP3   OH2 3680   4.105   0.195   2.524  0.1784 -0.0199  0.1739
 1225TIP3    H1 3681   4.044   0.146   2.578  1.5327 -1.7145  0.2248
 1225TIP3    H2 3682   4.059   0.209   2.441 -1.7142  2.1563  1.5503
 1226TIP3   OH2 3683   1.281   0.586   3.815  0.5405 -0.6684  0.5507
 1226TIP3    H1 3684   1.328   0.669   3.820  1.1032 -0.9900  0.6869
 1226TIP3    H2 3685   1.197   0.608   3.776  1.6948 -0.4436 -1.9427
 1227TIP3   OH2 3686   2.376   5.375   1.182  0.1607 -0.2582 -0.3695
 1227TIP3    H1 3687   2.385   5.281   1.192  2.6743 -0.0505 -0.4679
 1227TIP3    H2 3688   2.431   5.413   1.251 -0.1698  1.1482 -0.8443
 1228TIP3   OH2 3689   2.337   4.183   2.967  0.6183  0.0300  0.7045
 1228TIP3    H1 3690   2.324   4.236   2.889  1.3487  0.5065  0.8989
 1228TIP3    H2 3691   2.387   4.239   3.026 -0.2103 -0.2077  1.6454
 1229TIP3   OH2 3692   1.817   5.413   2.241  0.5432 -0.5298 -0.1814
 1229TIP3    H1 3693   1.802   5.504   2.268  0.6724 -0.4879 -0.2513
 1229TIP3    H2 3694   1.887   5.383   2.298  1.0719 -0.3261 -0.7174
 1230TIP3   OH2 3695   1.022   5.844   0.712  0.0464  0.3125  0.0119
 1230TIP3    H1 3696   1.110   5.808   0.724 -0.0159 -0.1979 -0.9636
 1230TIP3    H2 3697   0.964   5.778   0.751  0.1318  0.9297  1.1830
 1231TIP3   OH2 3698   6.286   4.373   0.990 -0.6840 -0.1058  0.1101
 1231TIP3    H1 3699   6.210   4.317   1.002 -0.3158 -0.9257 -1.2429
 1231TIP3    H2 3700   6.323   4.346   0.906  1.2488  0.0858  0.8561
 1232TIP3   OH2 3701   1.958   3.900   0.554 -0.5594  0.2063  0.0361
 1232TIP3    H1 3702   1.872   3.925   0.521 -0.0992  1.9704  0.1536
 1232TIP3    H2 3703   1.951   3.909   0.649 -0.9647 -1.9888  0.2469
 1233TIP3   OH2 3704   1.462   4.081   1.595  0.5367 -0.2395 -0.2795
 1233TIP3    H1 3705   1.457   3.991   1.562 -3.8527  0.0035 -0.4774
 1233TIP3    H2 3706   1.466   4.070   1.691  0.3755 -0.6397 -0.3158
 1234TIP3   OH2 3707   2.632   4.502   1.438  0.2859  0.3876  0.4009
 1234TIP3    H1 3708   2.594   4.540   1.517 -0.4286  0.9787 -0.2154
 1234TIP3    H2 3709   2.645   4.410   1.459  1.3589  0.8168  1.6632
 1235TIP3   OH2 3710   2.894   0.811   4.986  0.5547 -0.3743 -0.0788
 1235TIP3    H1 3711   2.815   0.837   4.940  1.5292  1.1814 -0.9365
 1235TIP3    H2 3712   2.907   0.719   4.961 -1.0972 -0.7223  0.2861
 1236TIP3   OH2 3713   3.594   3.436   1.148 -0.1133  0.5808  0.6303
 1236TIP3    H1 3714   3.643   3.501   1.198 -0.3595 -0.2143  1.9196
 1236TIP3    H2 3715   3.503   3.463   1.158 -0.0850  1.0363 -0.2906
 1237TIP3   OH2 3716   1.020   2.096   2.100 -0.4890  0.2128 -0.0803
 1237TIP3    H1 3717   0.950   2.074   2.161  1.1717 -2.3372  1.0224
 1237TIP3    H2 3718   1.055   2.012   2.071  2.5947  1.3619  0.0079
 1238TIP3   OH2 3719   5.473   5.931   4.130  0.4605  0.0318  0.6174
 1238TIP3    H1 3720   5.395   5.960   4.177  0.1991  0.8740 -0.3148
 1238TIP3    H2 3721   5.500   6.007   4.079  1.7925 -0.3110  0.7965
 1239TIP3   OH2 3722   1.717   2.037   0.273 -0.3302  0.0377  0.0321
 1239TIP3    H1 3723   1.738   2.061   0.182  0.0243 -1.4427 -0.2872
 1239TIP3    H2 3724   1.777   1.965   0.293 -0.9936 -0.2106  1.1591
 1240TIP3   OH2 3725   1.973   4.424   1.925  0.3200  0.2485 -0.3517
 1240TIP3    H1 3726   2.052   4.411   1.873 -0.2056  1.4150 -1.4825
 1240TIP3    H2 3727   1.902   4.392   1.869 -0.1297  0.3631  0.1491
 1241TIP3   OH2 3728   1.372   4.102   1.294 -0.0896  0.1055  0.5379
 1241TIP3    H1 3729   1.412   4.065   1.373 -0.8556 -1.7458  0.0782
 1241TIP3    H2 3730   1.380   4.033   1.228  0.6534  1.6788 -1.0623
 1242TIP3   OH2 3731   1.689   4.683   2.848 -0.0930  0.0732 -0.2492
 1242TIP3    H1 3732   1.731   4.600   2.827  0.2267 -0.0005  0.6397
 1242TIP3    H2 3733   1.747   4.723   2.912 -1.8398 -0.4689  1.7336
 1243TIP3   OH2 3734   1.182   3.366   2.012 -0.3199  0.3844 -0.3698
 1243TIP3    H1 3735   1.276   3.349   2.001 -0.5012  0.7233 -2.5867
 1243TIP3    H2 3736   1.160   3.322   2.095  2.0652  1.4883  0.9127
 1244TIP3   OH2 3737   0.880   5.968   1.635 -0.5539  0.3115  0.5537
 1244TIP3    H1 3738   0.960   5.971   1.583 -1.1190  2.2317 -0.2171
 1244TIP3    H2 3739   0.910   5.962   1.726  0.4727  1.2400  0.2785
 1245TIP3   OH2 3740   1.151   2.492   5.174 -0.5656 -0.6954 -0.3401
 1245TIP3    H1 3741   1.126   2.430   5.105 -0.7607 -0.3601 -0.5697
 1245TIP3    H2 3742   1.227   2.452   5.215 -0.1626 -0.6641 -1.0576
 1246TIP3   OH2 3743   3.354   4.639   0.591  0.0250 -0.0544  0.0992
 1246TIP3    H1 3744   3.323   4.554   0.623  2.1842 -0.1786  2.0443
 1246TIP3    H2 3745   3.315   4.703   0.651 -1.3925  0.3222 -1.2084
 1247TIP3   OH2 3746   2.471   5.514   0.694  0.1570 -0.7090 -0.1634
 1247TIP3    H1 3747   2.402   5.549   0.750 -1.4838 -2.1191 -1.2526
 1247TIP3    H2 3748   2.510   5.444   0.746 -0.8295 -1.4884 -0.4621
 1248TIP3   OH2 3749   2.217   5.734   1.627  0.6700 -0.2104 -0.2356
 1248TIP3    H1 3750   2.289   5.704   1.682  0.0021  0.6913  1.1660
 1248TIP3    H2 3751   2.244   5.820   1.595 -0.6838  1.1715  2.1520
 1249TIP3   OH2 3752   2.333   0.886   4.693 -0.0446  0.3241  0.2976
 1249TIP3    H1 3753   2.387   0.859   4.768  1.2319 -0.6474 -0.9517
 1249TIP3    H2 3754   2.381   0.959   4.654  0.5095 -0.6930 -0.9554
 1250TIP3   OH2 3755   3.454   5.229   2.307 -0.0425 -0.1917 -0.7432
 1250TIP3    H1 3756   3.521   5.243   2.240 -1.4259  0.1894 -2.0751
 1250TIP3    H2 3757   3.462   5.304   2.365  0.3849  0.0804 -1.1528
 1251TIP3   OH2 3758   1.099   1.258   5.064 -0.3290 -0.1054 -0.1474
 1251TIP3    H1 3759   1.010   1.287   5.084  0.2238  0.9413  0.8936
 1251TIP3    H2 3760   1.116   1.292   4.976 -0.3814  1.1395  0.3051
 1252TIP3   OH2 3761   3.888   4.847   2.165 -0.2801  0.0684  0.1698
 1252TIP3    H1 3762   3.813   4.852   2.224  0.1699  1.5747  0.6418
 1252TIP3    H2 3763   3.913   4.938   2.150  0.4093 -0.3493 -1.3415
 1253TIP3   OH2 3764   2.169   5.123   0.183  0.0592  0.0003  0.2299
 1253TIP3    H1 3765   2.202   5.193   0.127 -0.9762  0.3259  0.0153
 1253TIP3    H2 3766   2.246   5.067   0.200  0.1631 -0.7135 -2.3954
 1254TIP3   OH2 3767   0.767   5.375   1.385  0.0423 -0.0245 -0.1305
 1254TIP3    H1 3768   0.828   5.347   1.316 -2.6119 -0.8594 -2.2294
 1254TIP3    H2 3769   0.727   5.294   1.417 -0.9562  0.5986  0.2432
 1255TIP3   OH2 3770   0.604   2.777   4.106 -0.2261 -0.7013  0.1810
 1255TIP3    H1 3771   0.650   2.828   4.172  0.4014  0.3314 -1.0289
 1255TIP3    H2 3772   0.520   2.755   4.146 -1.2626  2.8378  0.0725
 1256TIP3   OH2 3773   1.688   4.408   0.016  0.3079 -0.1365 -0.1977
 1256TIP3    H1 3774   1.697   4.457   0.098 -0.8091 -0.4960  0.1415
 1256TIP3    H2 3775   1.778   4.391  -0.012  0.6962  0.8153  0.4584
 1257TIP3   OH2 3776   2.156   2.367   4.650 -0.4542 -0.3290 -0.2468
 1257TIP3    H1 3777   2.138   2.450   4.605 -1.0812 -0.7318 -0.7502
 1257TIP3    H2 3778   2.150   2.301   4.581 -1.0127 -0.9067  0.3453
 1258TIP3   OH2 3779   3.341   5.446   0.757 -0.6768 -0.3597 -0.3183
 1258TIP3    H1 3780   3.401   5.383   0.797  0.4737  0.6685 -0.3887
 1258TIP3    H2 3781   3.356   5.436   0.663  1.9364  2.2934 -0.2500
 1259TIP3   OH2 3782   2.160   5.652   0.534  0.3514 -0.6419 -0.1168
 1259TIP3    H1 3783   2.115   5.678   0.614  0.7953 -2.0375  0.5988
 1259TIP3    H2 3784   2.095   5.663   0.465  0.3295  1.7133  0.2511
 1260TIP3   OH2 3785   3.309   5.000   3.123 -0.0899 -0.5061 -0.2224
 1260TIP3    H1 3786   3.374   4.931   3.108 -0.3732 -0.8642  0.2192
 1260TIP3    H2 3787   3.254   4.967   3.193 -0.6804 -0.1428 -0.5126
 1261TIP3   OH2 3788   5.129   0.796   2.782 -0.0173 -0.1463  0.2084
 1261TIP3    H1 3789   5.160   0.887   2.784  0.3068 -0.2244 -0.7490
 1261TIP3    H2 3790   5.209   0.744   2.769 -0.3583 -0.4784 -0.5515
 1262TIP3   OH2 3791   0.688   2.115   5.189  0.4002  0.1873 -0.0989
 1262TIP3    H1 3792   0.630   2.065   5.246  0.3342 -0.5640 -0.8095
 1262TIP3    H2 3793   0.660   2.206   5.200 -0.7946 -0.1445 -0.2975
 1263TIP3   OH2 3794   0.708   5.477   3.216  0.2510 -0.2492  0.2332
 1263TIP3    H1 3795   0.741   5.558   3.178 -3.4555  2.8862  3.3342
 1263TIP3    H2 3796   0.636   5.451   3.158  0.8856 -0.9090 -0.2753
 1264TIP3   OH2 3797   2.087   5.339   0.913  0.1336 -0.0096 -0.6588
 1264TIP3    H1 3798   2.162   5.397   0.900  1.8634 -2.4095 -1.9578
 1264TIP3    H2 3799   2.011   5.389   0.883  1.4837  1.7646 -1.1574
 1265TIP3   OH2 3800   6.411   0.838   1.431 -0.7227 -0.1097  0.2184
 1265TIP3    H1 3801   6.350   0.892   1.380  1.5182  1.0433 -1.3467
 1265TIP3    H2 3802   6.472   0.901   1.468  0.3619 -1.3619  0.5650
 1266TIP3   OH2 3803   0.943   2.839   3.751 -0.0606 -0.1776 -0.2022
 1266TIP3    H1 3804   0.984   2.878   3.673  1.2235 -0.8079  0.1412
 1266TIP3    H2 3805   0.852   2.824   3.725 -0.9774  4.2872  0.1165
 1267TIP3   OH2 3806   1.023   0.699   4.966 -0.0022 -0.3333 -0.2000
 1267TIP3    H1 3807   0.986   0.727   5.050 -0.4129  0.4469 -0.6342
 1267TIP3    H2 3808   0.955   0.721   4.902  1.2138  1.1118 -1.0110
 1268TIP3   OH2 3809   1.299   3.370   5.097 -0.3039  0.0527 -0.4386
 1268TIP3    H1 3810   1.317   3.316   5.019  0.7171 -0.9984  0.5039
 1268TIP3    H2 3811   1.207   3.394   5.088 -0.5582 -1.1414 -1.3199
 1269TIP3   OH2 3812   1.155   0.615   1.554 -0.2665  0.3505 -0.2571
 1269TIP3    H1 3813   1.228   0.568   1.514  0.0860 -1.2746  2.1314
 1269TIP3    H2 3814   1.169   0.605   1.648 -2.8774  1.1046  0.2686
 1270TIP3   OH2 3815   0.633   2.663   3.706 -0.0546  0.8036 -0.1307
 1270TIP3    H1 3816   0.696   2.675   3.635 -0.5506  0.0980 -0.7007
 1270TIP3    H2 3817   0.548   2.671   3.664 -0.3625 -0.5423  0.1937
 1271TIP3   OH2 3818   3.333   0.273   1.351 -0.2416  0.3653 -0.2786
 1271TIP3    H1 3819   3.421   0.290   1.315  0.2300 -0.1783  0.6037
 1271TIP3    H2 3820   3.290   0.359   1.350  0.3707  0.6763 -0.5183
 1272TIP3   OH2 3821   5.219   0.442   0.816  0.9057  0.1611 -0.9461
 1272TIP3    H1 3822   5.145   0.431   0.875  1.4451  1.9640  0.0989
 1272TIP3    H2 3823   5.227   0.358   0.771 -1.1482 -0.3633 -0.3515
 1273TIP3   OH2 3824   3.180   5.786   1.573 -0.1185 -0.2405  0.3710
 1273TIP3    H1 3825   3.241   5.713   1.580  1.7600  1.3648  1.5874
 1273TIP3    H2 3826   3.191   5.818   1.483 -1.1698 -1.6278 -0.2545
 1274TIP3   OH2 3827   0.851   0.630   4.367 -0.1783 -0.2835  0.5398
 1274TIP3    H1 3828   0.778   0.591   4.319  0.0984 -0.2296  0.0688
 1274TIP3    H2 3829   0.894   0.556   4.409 -0.7141 -0.2745  1.1113
 1275TIP3   OH2 3830   2.456   0.315   0.814 -0.2489  0.2484 -0.2225
 1275TIP3    H1 3831   2.520   0.348   0.750 -1.2272  0.7971 -0.9247
 1275TIP3    H2 3832   2.461   0.376   0.887  0.2132  0.1487 -0.1700
 1276TIP3   OH2 3833   0.488   1.047   4.986 -0.2259  0.6446 -0.6077
 1276TIP3    H1 3834   0.466   1.117   5.048 -1.6262 -0.7157  0.4509
 1276TIP3    H2 3835   0.497   1.092   4.902 -0.1727  2.2288  0.2217
 1277TIP3   OH2 3836   4.058   4.662   1.761 -0.6635  0.7975  0.4714
 1277TIP3    H1 3837   4.018   4.658   1.848 -1.8060 -3.4796 -0.1894
 1277TIP3    H2 3838   3.985   4.676   1.701 -0.3765 -0.4482 -0.1729
 1278TIP3   OH2 3839   0.982   1.809   4.371  0.3320  0.3222  0.0778
 1278TIP3    H1 3840   0.962   1.715   4.375 -0.3885  0.4847  0.2917
 1278TIP3    H2 3841   0.956   1.843   4.457  0.6097  0.7149  0.0087
 1279TIP3   OH2 3842   4.228   3.999   0.720  0.0454 -0.4353 -0.0939
 1279TIP3    H1 3843   4.232   4.044   0.635  0.6911 -0.5091 -0.1084
 1279TIP3    H2 3844   4.299   4.039   0.771 -1.9349  1.4407  1.3223
 1280TIP3   OH2 3845   3.138   4.293   1.025  0.3512  0.0449 -0.4690
 1280TIP3    H1 3846   3.060   4.267   0.976  0.0127  0.7085 -0.2988
 1280TIP3    H2 3847   3.133   4.389   1.028  0.5203  0.0210  0.6085
 1281TIP3   OH2 3848   1.907   4.220   0.724  0.6632  0.4726 -0.7107
 1281TIP3    H1 3849   1.999   4.211   0.750  0.3129 -1.3828 -0.0054
 1281TIP3    H2 3850   1.859   4.215   0.806 -0.2643 -2.0785 -1.3636
 1282TIP3   OH2 3851   3.398   6.067   2.527 -0.5026  0.4642  0.5514
 1282TIP3    H1 3852   3.435   5.988   2.565 -0.3992  0.9277  1.4191
 1282TIP3    H2 3853   3.385   6.045   2.435 -0.7445 -0.6553  0.8459
 1283TIP3   OH2 3854   4.418   5.993   5.166 -0.1589  0.2477  0.0470
 1283TIP3    H1 3855   4.480   5.985   5.094  1.3935  2.4927  1.0600
 1283TIP3    H2 3856   4.341   6.035   5.127  0.5520  1.1707 -0.3937
 1284TIP3   OH2 3857   0.095   1.424   4.007 -0.2324 -0.0520 -0.2476
 1284TIP3    H1 3858   0.129   1.513   3.996 -0.7114  0.0710 -0.7802
 1284TIP3    H2 3859   0.166   1.367   3.976  0.6163  0.0819  1.4017
 1285TIP3   OH2 3860   0.815   0.050   3.280  0.2977  0.1747  0.5323
 1285TIP3    H1 3861   0.829   0.107   3.204  1.2863 -0.2326  0.4018
 1285TIP3    H2 3862   0.784  -0.032   3.243 -1.0134  0.5741  0.7136
 1286TIP3   OH2 3863   2.687   0.975   2.988 -0.0669 -0.2060 -0.5492
 1286TIP3    H1 3864   2.615   1.030   2.958  0.1480  0.9319  0.9923
 1286TIP3    H2 3865   2.743   1.033   3.039  2.2012 -0.9639 -2.0902
 1287TIP3   OH2 3866   5.597   3.415   3.067 -0.2688 -0.2023 -0.2188
 1287TIP3    H1 3867   5.577   3.342   3.125 -0.6981  0.3030  0.2747
 1287TIP3    H2 3868   5.541   3.486   3.098  1.5179  0.9236  0.5490
 1288TIP3   OH2 3869   1.843   0.328   2.133  0.4332  0.1187 -0.2550
 1288TIP3    H1 3870   1.791   0.288   2.064 -0.3654  0.8636 -0.0919
 1288TIP3    H2 3871   1.793   0.405   2.160  1.6720  0.9203 -0.1807
 1289TIP3   OH2 3872   0.826   5.797   3.681 -0.2651  0.0714 -0.1433
 1289TIP3    H1 3873   0.846   5.723   3.624  0.7542 -0.2015  0.5509
 1289TIP3    H2 3874   0.904   5.853   3.675 -0.9196  0.9696 -0.4667
 1290TIP3   OH2 3875   4.359   5.355   5.033 -0.0410 -0.0965 -0.0518
 1290TIP3    H1 3876   4.374   5.417   5.105 -0.1190 -0.8092  0.5788
 1290TIP3    H2 3877   4.285   5.302   5.062 -0.0490 -0.4081 -0.6491
 1291TIP3   OH2 3878   4.670   4.874   2.719  0.0643  0.0284  0.3929
 1291TIP3    H1 3879   4.624   4.817   2.782 -0.3282 -0.4603 -0.3262
 1291TIP3    H2 3880   4.611   4.879   2.644  1.5657 -1.3338 -0.9071
 1292TIP3   OH2 3881   0.672   4.941   3.337 -0.1142 -0.1644  0.8939
 1292TIP3    H1 3882   0.690   4.860   3.385 -0.2452 -0.4325  0.4982
 1292TIP3    H2 3883   0.595   4.978   3.379 -1.3398 -1.3416 -0.2574
 1293TIP3   OH2 3884   0.369   6.139   2.593  0.0893 -0.2274 -0.3175
 1293TIP3    H1 3885   0.282   6.153   2.556  0.2079  0.5009 -0.3270
 1293TIP3    H2 3886   0.400   6.058   2.551  0.0748  0.3846 -1.5250
 1294TIP3   OH2 3887   0.404   5.903   2.212  0.2842  0.3230  0.0863
 1294TIP3    H1 3888   0.351   5.938   2.141  0.5067 -0.3759 -0.4298
 1294TIP3    H2 3889   0.481   5.867   2.169 -0.5689 -2.0123  0.4606
 1295TIP3   OH2 3890   1.170   0.714   3.137 -0.1123 -0.0238 -0.4770
 1295TIP3    H1 3891   1.106   0.673   3.195 -1.2931  0.5285 -1.3714
 1295TIP3    H2 3892   1.168   0.662   3.057  1.2391 -0.5591 -0.1819
 1296TIP3   OH2 3893   2.699   1.274   3.468 -0.0616 -0.0883 -0.5646
 1296TIP3    H1 3894   2.716   1.249   3.558 -1.9228  1.5515  0.2854
 1296TIP3    H2 3895   2.656   1.360   3.474 -2.2646 -0.9387 -2.8531
 1297TIP3   OH2 3896   0.447   3.951   2.381  0.1628  0.0458 -0.2508
 1297TIP3    H1 3897   0.502   3.873   2.394  0.1313  0.2356  1.1524
 1297TIP3    H2 3898   0.402   3.935   2.299 -0.1234 -1.5951  0.2017
 1298TIP3   OH2 3899   0.163   4.415   3.673  0.1215 -0.2236  0.2565
 1298TIP3    H1 3900   0.159   4.327   3.635  0.7470  0.6806 -1.9987
 1298TIP3    H2 3901   0.072   4.444   3.676 -0.0815 -0.9079  0.9469
 1299TIP3   OH2 3902   1.802   1.047   0.681  0.1261  0.2276 -0.2793
 1299TIP3    H1 3903   1.729   1.092   0.723 -1.6916 -1.0636 -1.9408
 1299TIP3    H2 3904   1.852   1.008   0.753 -1.3961  0.2715  0.8200
 1300TIP3   OH2 3905   3.229   0.227   3.772 -0.4815 -0.2870 -0.1218
 1300TIP3    H1 3906   3.139   0.219   3.743 -0.6488  0.6152  0.1473
 1300TIP3    H2 3907   3.280   0.243   3.693 -0.5613 -0.6930 -0.2584
 1301TIP3   OH2 3908   1.361   0.932   1.401 -0.1897 -0.4828  0.6330
 1301TIP3    H1 3909   1.300   0.993   1.442  1.0482  0.7852  0.6273
 1301TIP3    H2 3910   1.407   0.891   1.474  0.3831  0.0788  0.5978
 1302TIP3   OH2 3911   4.554   5.124   4.004 -0.4102  0.8143 -0.0584
 1302TIP3    H1 3912   4.551   5.219   4.015  1.8012  0.7542  1.4023
 1302TIP3    H2 3913   4.571   5.090   4.092 -1.3493 -0.9510 -0.5353
 1303TIP3   OH2 3914  -0.005   5.838   5.005  0.1603  0.3570  0.5925
 1303TIP3    H1 3915   0.086   5.835   4.976 -0.7356  1.3219 -2.5832
 1303TIP3    H2 3916  -0.022   5.932   5.019 -1.4561  0.6582 -2.8929
 1304TIP3   OH2 3917   2.498   1.476   3.416 -0.2156  0.6824 -0.1998
 1304TIP3    H1 3918   2.481   1.545   3.480  2.0006  0.2626  0.8874
 1304TIP3    H2 3919   2.462   1.396   3.455 -0.3361  0.7218 -0.2299
 1305TIP3   OH2 3920   5.367   0.320   4.854 -0.1071 -0.0924  0.4225
 1305TIP3    H1 3921   5.403   0.409   4.844  1.4350 -0.6332  0.9461
 1305TIP3    H2 3922   5.365   0.306   4.949 -0.1698 -0.6800  0.3345
 1306TIP3   OH2 3923   0.786   0.461   3.377  0.3877  0.0119  0.3385
 1306TIP3    H1 3924   0.767   0.427   3.464  0.6845 -1.5982 -0.1920
 1306TIP3    H2 3925   0.700   0.482   3.340 -0.0342 -2.3963 -0.1621
 1307TIP3   OH2 3926   2.602   0.478   3.405 -0.0238  0.4445 -0.0053
 1307TIP3    H1 3927   2.638   0.391   3.420 -0.6932  0.2595  0.5632
 1307TIP3    H2 3928   2.665   0.538   3.445  0.2138  0.1951 -0.0058
 1308TIP3   OH2 3929   2.488   1.645   3.174  0.1954  0.1157  0.1852
 1308TIP3    H1 3930   2.450   1.599   3.249  2.4237  0.0383  1.3051
 1308TIP3    H2 3931   2.414   1.664   3.117 -1.3552 -0.9571  1.8137
 1309TIP3   OH2 3932   2.796   0.271   3.442  0.1069  0.1915  0.1904
 1309TIP3    H1 3933   2.784   0.293   3.349 -2.4132  0.0249  0.4482
 1309TIP3    H2 3934   2.799   0.175   3.444  1.7801  0.2248  0.1254
 1310TIP3   OH2 3935   6.215   6.075   2.526 -0.0021  0.1825  0.4797
 1310TIP3    H1 3936   6.129   6.056   2.564  0.1564 -0.4594  0.5291
 1310TIP3    H2 3937   6.274   6.076   2.601 -0.0697  1.2737  0.5215
 1311TIP3   OH2 3938   2.360   1.043   4.286  0.1024  0.5018 -0.1479
 1311TIP3    H1 3939   2.349   1.136   4.266  0.2128  0.6121  0.2951
 1311TIP3    H2 3940   2.432   1.015   4.230  0.2013  0.7302 -0.1349
 1312TIP3   OH2 3941   5.608   5.753   2.682 -0.3506  0.6037 -0.4703
 1312TIP3    H1 3942   5.620   5.714   2.595  0.0376 -0.4360  0.0281
 1312TIP3    H2 3943   5.518   5.734   2.705 -0.1332 -0.1102 -0.1860
 1313TIP3   OH2 3944   2.354   1.166   3.498 -0.3676  0.2520  0.1077
 1313TIP3    H1 3945   2.276   1.113   3.517 -0.5911  0.0971 -1.2269
 1313TIP3    H2 3946   2.391   1.127   3.419 -0.6270  2.1764 -1.0092
 1314TIP3   OH2 3947   5.990   2.647   2.082 -0.4735  0.4072 -0.0577
 1314TIP3    H1 3948   6.062   2.586   2.097  1.0510  2.3147  0.7147
 1314TIP3    H2 3949   6.004   2.679   1.993 -0.8974  0.1035 -0.2335
 1315TIP3   OH2 3950   4.376   0.259   3.529  0.4525 -0.1324  0.5511
 1315TIP3    H1 3951   4.408   0.310   3.455 -1.2767 -0.9361 -0.7867
 1315TIP3    H2 3952   4.347   0.324   3.593  1.5601  0.5676  0.3424
 1316TIP3   OH2 3953   5.232   5.977   2.699  0.6395 -0.4303  0.6358
 1316TIP3    H1 3954   5.191   5.937   2.622  1.0699 -1.1847  0.7949
 1316TIP3    H2 3955   5.305   5.919   2.720  1.2831  0.4627  0.8589
 1317TIP3   OH2 3956   1.049   6.098   2.506  0.1048 -0.0042 -0.3199
 1317TIP3    H1 3957   0.995   6.032   2.463 -0.1132 -0.8895  1.2887
 1317TIP3    H2 3958   1.139   6.070   2.488  0.0151 -0.7321  0.3316
 1318TIP3   OH2 3959   6.276   4.647   4.108  0.2107  0.3295 -0.4191
 1318TIP3    H1 3960   6.293   4.694   4.190  1.5238 -0.1269 -0.4215
 1318TIP3    H2 3961   6.315   4.561   4.121 -1.6842 -0.5884 -0.6324
 1319TIP3   OH2 3962   5.346   5.677   2.718 -0.4944 -0.3490 -0.3170
 1319TIP3    H1 3963   5.316   5.678   2.808 -0.6733 -1.9436 -0.3414
 1319TIP3    H2 3964   5.359   5.584   2.698  1.8990  0.1263 -1.1486
 1320TIP3   OH2 3965   3.185   0.937   4.513 -0.5807  0.4077 -0.5894
 1320TIP3    H1 3966   3.099   0.905   4.540  0.1174 -0.8826  0.1265
 1320TIP3    H2 3967   3.205   1.008   4.574  0.2309 -1.3611  1.2658
 1321TIP3   OH2 3968   2.533   5.019   0.860 -0.2335  0.2882 -0.7825
 1321TIP3    H1 3969   2.473   5.093   0.866 -0.2881  0.2629 -0.9893
 1321TIP3    H2 3970   2.603   5.040   0.922 -0.5750  0.2022 -0.3665
 1322TIP3   OH2 3971   4.542   0.295   2.421 -0.3468  0.5283 -0.0184
 1322TIP3    H1 3972   4.551   0.289   2.326  0.4723  0.8318  0.0380
 1322TIP3    H2 3973   4.463   0.348   2.435 -0.7054  0.1314 -0.5235
 1323TIP3   OH2 3974   6.067   1.165   2.729 -0.3172 -0.2482 -0.4818
 1323TIP3    H1 3975   6.151   1.133   2.697 -0.6528 -0.5443 -1.0959
 1323TIP3    H2 3976   6.012   1.169   2.650 -0.5593  0.9661 -0.2507
 1324TIP3   OH2 3977   0.492   5.109   3.512  0.3432  0.1546 -0.1631
 1324TIP3    H1 3978   0.408   5.065   3.525  0.2758 -0.5016 -2.6448
 1324TIP3    H2 3979   0.468   5.198   3.484  0.4544 -0.0379 -0.8879
 1325TIP3   OH2 3980   0.613   4.950   1.865 -0.2718  0.0393 -0.2180
 1325TIP3    H1 3981   0.702   4.947   1.899 -0.9745  0.5759  1.7291
 1325TIP3    H2 3982   0.594   4.860   1.838  0.3580 -0.3590  0.6575
 1326TIP3   OH2 3983   5.683   6.026   2.663 -0.5062  0.8804 -0.0138
 1326TIP3    H1 3984   5.658   5.933   2.657 -0.1695  0.6216  2.1434
 1326TIP3    H2 3985   5.660   6.051   2.753  4.8471  1.2180  1.4383
 1327TIP3   OH2 3986   0.585   0.475   3.190  0.1737  1.5620 -0.5850
 1327TIP3    H1 3987   0.496   0.499   3.216  0.2894  1.1296  0.2343
 1327TIP3    H2 3988   0.574   0.397   3.136  0.2269  0.0009  1.6010
 1328TIP3   OH2 3989   5.552   5.424   4.071 -0.5283 -0.8156  0.0060
 1328TIP3    H1 3990   5.622   5.366   4.042  0.4948 -0.2284  1.2936
 1328TIP3    H2 3991   5.594   5.510   4.080 -1.8328 -0.0455 -1.0231
 1329TIP3   OH2 3992   1.552   1.220   2.740  0.3258 -0.6964 -0.0741
 1329TIP3    H1 3993   1.640   1.196   2.768  0.2016  0.0148  0.9503
 1329TIP3    H2 3994   1.553   1.316   2.738  0.3784 -0.7165 -2.6840
 1330TIP3   OH2 3995   1.387   1.342   3.469 -0.3595  0.0447  0.0992
 1330TIP3    H1 3996   1.482   1.340   3.462 -0.3145  1.8576 -0.0530
 1330TIP3    H2 3997   1.359   1.259   3.430  1.1230 -0.3164 -0.2465
 1331TIP3   OH2 3998   2.119   1.062   2.501  0.3804  0.0244  0.3671
 1331TIP3    H1 3999   2.161   1.137   2.459 -3.5821  1.9810 -0.3105
 1331TIP3    H2 4000   2.138   0.988   2.442  0.1373  1.4925 -1.5879
 1332TIP3   OH2 4001   5.022   1.130   4.504 -0.8671 -0.3243 -0.1767
 1332TIP3    H1 4002   5.088   1.096   4.444 -0.3760 -2.2847  1.4503
 1332TIP3    H2 4003   5.072   1.174   4.572 -1.3942  0.9870 -0.6077
 1333TIP3   OH2 4004   6.252   5.414   2.839  0.1633  0.4574  0.1013
 1333TIP3    H1 4005   6.176   5.366   2.873 -0.6419  0.5032 -1.5868
 1333TIP3    H2 4006   6.215   5.476   2.777  1.7435 -0.8579 -2.2154
 1334TIP3   OH2 4007   1.900   1.037   3.142  0.0013  0.4458 -0.0781
 1334TIP3    H1 4008   1.861   0.957   3.106 -1.0483  1.2456 -0.7340
 1334TIP3    H2 4009   1.967   1.061   3.078  0.6978 -0.2022  0.3947
 1335TIP3   OH2 4010   1.778   1.534   2.284  0.2422 -0.2056 -0.4714
 1335TIP3    H1 4011   1.804   1.594   2.353  0.9386 -2.6187  1.4240
 1335TIP3    H2 4012   1.682   1.535   2.286  0.2564 -0.5097  0.7813
 1336TIP3   OH2 4013   1.797   0.852   4.342 -0.0764  0.6295 -0.3030
 1336TIP3    H1 4014   1.859   0.920   4.368 -0.4952  0.0012  2.4517
 1336TIP3    H2 4015   1.835   0.814   4.262  0.7924  3.2051 -1.1763
 1337TIP3   OH2 4016   2.894   0.307   0.639  0.2156 -0.7209 -0.0940
 1337TIP3    H1 4017   2.862   0.231   0.590 -0.5645  1.3424 -2.9063
 1337TIP3    H2 4018   2.969   0.338   0.588  1.1647 -0.1729  1.5934
 1338TIP3   OH2 4019   0.699   1.151   0.638  0.2248  0.0282 -0.6608
 1338TIP3    H1 4020   0.728   1.061   0.625  0.7618  0.3403 -1.6434
 1338TIP3    H2 4021   0.757   1.203   0.583  0.7125  1.1067  0.8349
 1339TIP3   OH2 4022   6.234   1.161   0.652 -0.1587  0.1956 -0.3796
 1339TIP3    H1 4023   6.309   1.208   0.616  0.4238 -0.5043 -0.0817
 1339TIP3    H2 4024   6.219   1.202   0.737  0.4526 -0.2665 -0.0485
 1340TIP3   OH2 4025   1.414   2.158   4.377  0.0236 -0.1099  0.1675
 1340TIP3    H1 4026   1.384   2.092   4.440  0.8437 -0.6644 -0.0067
 1340TIP3    H2 4027   1.410   2.241   4.425  1.2018 -0.6083  1.1660
 1341TIP3   OH2 4028   3.807   6.135   3.962  0.3827  0.1401 -0.1163
 1341TIP3    H1 4029   3.885   6.149   4.016  0.5226 -0.6055 -0.1082
 1341TIP3    H2 4030   3.743   6.098   4.023 -0.2724  1.5709  0.0712
 1342TIP3   OH2 4031   0.815   0.260   3.091 -0.2083  0.1072 -0.1169
 1342TIP3    H1 4032   0.906   0.279   3.066  0.1823  0.9653  1.7871
 1342TIP3    H2 4033   0.800   0.316   3.167 -2.4475  0.1865 -0.5854
 1343TIP3   OH2 4034   1.564   0.668   1.962  0.6108  0.2046 -0.7066
 1343TIP3    H1 4035   1.481   0.689   1.920 -0.3101 -2.6066 -0.4006
 1343TIP3    H2 4036   1.548   0.678   2.056  1.4531  2.3866 -0.7749
 1344TIP3   OH2 4037   3.166   0.845   4.985  0.5962  0.3529  0.1771
 1344TIP3    H1 4038   3.161   0.758   4.946 -0.2208  1.3542 -2.0701
 1344TIP3    H2 4039   3.075   0.875   4.989  0.7830  0.7680  1.7622
 1345TIP3   OH2 4040   3.081   5.386   0.077 -0.0285  0.1770  0.7381
 1345TIP3    H1 4041   3.020   5.337   0.133 -2.0786 -0.1568 -1.7023
 1345TIP3    H2 4042   3.099   5.328   0.004  0.5973  1.5769 -0.2434
 1346TIP3   OH2 4043   2.334   2.960   5.136  0.2931  0.2112  0.4239
 1346TIP3    H1 4044   2.281   2.953   5.215 -0.2402  0.0656  0.0609
 1346TIP3    H2 4045   2.270   2.966   5.065  0.7662 -2.0672 -0.2145
 1347TIP3   OH2 4046   4.470   2.071   0.206  1.0014  0.3850  0.0601
 1347TIP3    H1 4047   4.471   2.166   0.220 -0.7825  0.2998  0.8858
 1347TIP3    H2 4048   4.551   2.041   0.247  1.0507  1.4252  0.7719
 1348TIP3   OH2 4049   3.726   0.676   3.261 -0.1493  0.1879  0.1785
 1348TIP3    H1 4050   3.663   0.609   3.232 -0.2145 -0.0359  0.8439
 1348TIP3    H2 4051   3.760   0.643   3.344  0.8072  0.3405 -0.1423
 1349TIP3   OH2 4052   1.546   0.567   2.791 -0.2473 -1.1441  0.3561
 1349TIP3    H1 4053   1.600   0.569   2.713 -0.5927  0.4833  0.1311
 1349TIP3    H2 4054   1.493   0.488   2.782 -3.4428  1.2009 -3.2911
 1350TIP3   OH2 4055   1.550   1.129   2.373  0.3383 -0.0554  0.1005
 1350TIP3    H1 4056   1.624   1.158   2.427  0.6087 -1.3418  0.4350
 1350TIP3    H2 4057   1.578   1.147   2.283 -0.3224  2.5913  0.3669
 1351TIP3   OH2 4058   2.235   5.992   1.508  0.3961  0.3800 -0.5431
 1351TIP3    H1 4059   2.319   6.001   1.462  0.3922 -2.3987 -1.2130
 1351TIP3    H2 4060   2.259   5.991   1.601  1.2176 -1.0442 -0.7441
 1352TIP3   OH2 4061   6.345   5.274   3.321  0.5441 -0.3556  0.1856
 1352TIP3    H1 4062   6.434   5.297   3.292  0.8137 -1.1987  0.3268
 1352TIP3    H2 4063   6.306   5.232   3.245 -0.3474  1.5784 -0.4493
 1353TIP3   OH2 4064   6.261   5.881   4.324 -0.1335 -0.0877 -0.6036
 1353TIP3    H1 4065   6.356   5.889   4.332 -0.2631  0.3042  0.7768
 1353TIP3    H2 4066   6.240   5.798   4.367 -0.4739  0.1288 -0.3496
 1354TIP3   OH2 4067   1.951   0.769   4.140 -0.3835  0.6905 -0.2944
 1354TIP3    H1 4068   1.947   0.776   4.044 -3.0312  1.8796 -0.1536
 1354TIP3    H2 4069   1.977   0.679   4.157 -0.7343  0.2169 -2.1461
 1355TIP3   OH2 4070   5.037   2.557   3.338  0.6970  0.2656 -0.7984
 1355TIP3    H1 4071   5.027   2.612   3.260  1.0788  1.3377 -0.0954
 1355TIP3    H2 4072   4.955   2.569   3.387  1.1305  0.8718 -0.2230
 1356TIP3   OH2 4073   5.431   0.599   5.198 -0.0887 -0.1425  0.1405
 1356TIP3    H1 4074   5.341   0.631   5.199 -0.1693 -0.2514  3.5317
 1356TIP3    H2 4075   5.426   0.512   5.238  1.5445  0.0127  0.7359
 1357TIP3   OH2 4076   2.229   0.722   3.933  0.2690 -0.0620  0.2970
 1357TIP3    H1 4077   2.310   0.752   3.890 -0.1488 -1.4909 -1.5695
 1357TIP3    H2 4078   2.238   0.752   4.024  2.1586  1.1963 -0.2544
 1358TIP3   OH2 4079   1.617   5.698   4.101 -0.1538 -0.4453  1.0116
 1358TIP3    H1 4080   1.583   5.621   4.146  0.1374 -0.2367  1.5951
 1358TIP3    H2 4081   1.704   5.671   4.070 -0.6930 -0.8636 -0.1737
 1359TIP3   OH2 4082   1.331   2.591   1.982  0.4135 -0.1844 -0.2596
 1359TIP3    H1 4083   1.314   2.499   2.002 -1.5385  0.1123 -0.4425
 1359TIP3    H2 4084   1.420   2.607   2.012  0.4025 -1.8721  0.6810
 1360TIP3   OH2 4085   4.193   4.723   5.059  0.1633 -0.2899  0.0172
 1360TIP3    H1 4086   4.285   4.750   5.050 -0.0474  1.0598  1.6251
 1360TIP3    H2 4087   4.179   4.718   5.154 -0.9486 -2.1846 -0.2232
 1361TIP3   OH2 4088   5.495   5.218   0.975 -0.2839 -0.2311 -0.1247
 1361TIP3    H1 4089   5.551   5.268   0.915 -0.0331 -2.0680 -1.4826
 1361TIP3    H2 4090   5.407   5.230   0.941 -0.2783 -0.3198 -0.1714
 1362TIP3   OH2 4091   1.520   2.361   0.648  0.2223 -0.5567  0.0840
 1362TIP3    H1 4092   1.438   2.341   0.602  0.7505 -0.8356 -0.7477
 1362TIP3    H2 4093   1.519   2.456   0.660 -0.5733 -0.6485  0.7378
 1363TIP3   OH2 4094   5.042   4.493   3.744  0.1501 -0.0036 -0.0391
 1363TIP3    H1 4095   5.101   4.567   3.761  0.1630 -0.5604  2.5736
 1363TIP3    H2 4096   5.086   4.442   3.675  1.4557  0.9678  0.0515
 1364TIP3   OH2 4097   3.987   1.168   3.973  0.0781 -0.2468 -0.9588
 1364TIP3    H1 4098   4.027   1.157   3.887 -0.7468  2.2939 -1.6868
 1364TIP3    H2 4099   4.052   1.217   4.024  1.0751 -2.7756  0.2894
 1365TIP3   OH2 4100   1.116   1.042   3.850 -0.0349 -0.1549  0.3650
 1365TIP3    H1 4101   1.024   1.017   3.864  0.8664 -4.1833 -0.3901
 1365TIP3    H2 4102   1.163   1.001   3.922  1.5399 -0.5671 -0.8803
 1366TIP3   OH2 4103   1.511   1.590   2.263 -0.4199  0.2731  0.2594
 1366TIP3    H1 4104   1.517   1.677   2.301 -2.5026  0.7783 -0.4853
 1366TIP3    H2 4105   1.426   1.557   2.292 -0.1088 -1.0878 -0.3301
 1367TIP3   OH2 4106   2.615   0.093   3.705 -0.2942  0.2221  0.6494
 1367TIP3    H1 4107   2.698   0.059   3.674 -0.8465 -0.4563 -0.1156
 1367TIP3    H2 4108   2.572   0.128   3.627 -0.5360  0.9581  1.1128
 1368TIP3   OH2 4109   2.087   5.850   4.226 -0.2078  0.1772 -0.5615
 1368TIP3    H1 4110   2.091   5.756   4.209  0.4388 -0.0061  0.5814
 1368TIP3    H2 4111   2.172   5.884   4.199 -0.9682  0.7043 -2.4229
 1369TIP3   OH2 4112   5.602   5.139   2.748  0.3299  0.4638  0.6382
 1369TIP3    H1 4113   5.552   5.188   2.813  0.6785  2.0365 -0.2606
 1369TIP3    H2 4114   5.620   5.202   2.678  0.9108 -0.9013 -0.4782
 1370TIP3   OH2 4115   3.286   1.584   0.042  0.0145 -0.2288  0.7558
 1370TIP3    H1 4116   3.228   1.655   0.071 -0.6457 -1.4167  2.3618
 1370TIP3    H2 4117   3.239   1.543  -0.030  0.8398  1.5645 -0.8531
 1371TIP3   OH2 4118   1.778   2.297   3.708  0.2880 -0.5056  0.8095
 1371TIP3    H1 4119   1.731   2.380   3.705 -0.8283 -1.1303  0.7682
 1371TIP3    H2 4120   1.818   2.295   3.795 -1.3010 -0.7933  1.5496
 1372TIP3   OH2 4121   1.421   0.512   3.520  0.7157 -0.0692 -0.0781
 1372TIP3    H1 4122   1.394   0.459   3.595  1.3849  0.0012  0.2195
 1372TIP3    H2 4123   1.410   0.454   3.444 -0.2160 -0.0528  0.0417
 1373TIP3   OH2 4124   3.796   5.348   4.891 -0.0409  0.3484 -0.3739
 1373TIP3    H1 4125   3.708   5.316   4.871  0.6731 -1.1306 -1.2120
 1373TIP3    H2 4126   3.795   5.362   4.986 -0.8210 -0.7726 -0.2072
 1374TIP3   OH2 4127   1.864   0.731   3.258  0.2039  0.1324 -0.3123
 1374TIP3    H1 4128   1.938   0.687   3.299 -0.2009  0.7289  1.0805
 1374TIP3    H2 4129   1.811   0.661   3.222  1.0547 -0.3369 -0.6863
 1375TIP3   OH2 4130   6.198   0.110   3.131 -0.1361  0.4047 -0.1472
 1375TIP3    H1 4131   6.190   0.172   3.059  0.6808  0.1174 -0.4990
 1375TIP3    H2 4132   6.272   0.053   3.106  0.7174  0.8359  1.3033
 1376TIP3   OH2 4133   5.661   6.017   3.739  0.0382 -0.8901  0.3287
 1376TIP3    H1 4134   5.575   5.992   3.773 -0.5303  0.6036  0.0301
 1376TIP3    H2 4135   5.711   6.043   3.816 -0.0852 -0.8731  0.4031
 1377TIP3   OH2 4136   3.740   4.005   2.642 -0.3612 -0.0526 -0.6434
 1377TIP3    H1 4137   3.817   3.992   2.697 -0.3626  0.2141 -0.5784
 1377TIP3    H2 4138   3.677   4.049   2.698  0.1615  1.5417 -1.2679
 1378TIP3   OH2 4139   4.848   5.067   4.412  0.0461  0.3070 -0.0816
 1378TIP3    H1 4140   4.779   5.132   4.420  1.5500  1.9073  0.2874
 1378TIP3    H2 4141   4.873   5.068   4.320 -0.7095 -0.5960 -0.3056
 1379TIP3   OH2 4142   0.635   2.057   3.874  0.7859 -0.1537 -0.1964
 1379TIP3    H1 4143   0.716   2.081   3.828  1.8084 -1.9398  0.6295
 1379TIP3    H2 4144   0.597   1.987   3.821 -0.9708  1.5923 -1.3263
 1380TIP3   OH2 4145   0.207   0.634   4.236  0.1378 -0.0394  0.1790
 1380TIP3    H1 4146   0.170   0.691   4.304  0.1603  2.5138 -1.8347
 1380TIP3    H2 4147   0.133   0.582   4.206  0.2771 -1.6903  2.5827
 1381TIP3   OH2 4148   3.663   6.051   4.202 -0.3893 -0.4147  0.2897
 1381TIP3    H1 4149   3.576   6.021   4.227 -0.9411  0.6203 -0.3678
 1381TIP3    H2 4150   3.675   6.133   4.250 -0.0684 -0.1798 -0.1907
 1382TIP3   OH2 4151   4.238   0.830   3.103  0.6424  0.5611  0.0448
 1382TIP3    H1 4152   4.266   0.741   3.126  0.0832  0.3343 -0.1450
 1382TIP3    H2 4153   4.292   0.853   3.028 -0.8931 -0.5722 -1.4653
 1383TIP3   OH2 4154   1.527   0.098   2.940 -0.3507  0.3765  0.4943
 1383TIP3    H1 4155   1.506   0.192   2.940 -2.0334  0.0160  1.0190
 1383TIP3    H2 4156   1.442   0.055   2.934  0.3514 -1.1438  1.3975
 1384TIP3   OH2 4157   0.282   0.328   3.042  0.2357 -0.0460 -0.7271
 1384TIP3    H1 4158   0.283   0.423   3.028 -0.1786 -0.2656 -2.3116
 1384TIP3    H2 4159   0.359   0.296   2.996 -0.4699 -0.6461 -1.5040
 1385TIP3   OH2 4160   4.386   1.588   3.019 -0.3876 -0.0816  0.0969
 1385TIP3    H1 4161   4.335   1.652   2.969 -0.0343  0.2690  0.1863
 1385TIP3    H2 4162   4.343   1.504   3.001 -0.4298  0.0822 -0.5834
 1386TIP3   OH2 4163   2.363   5.698   1.914 -0.2285 -0.4284  0.0593
 1386TIP3    H1 4164   2.440   5.736   1.955 -1.2075  1.8074 -0.1049
 1386TIP3    H2 4165   2.296   5.699   1.983 -0.2716 -1.8587  0.0501
 1387TIP3   OH2 4166   2.747   6.024   3.533  0.1371  0.6225 -0.4397
 1387TIP3    H1 4167   2.791   5.941   3.554 -1.2443 -0.7893 -2.8780
 1387TIP3    H2 4168   2.815   6.090   3.545  1.3869 -0.9085  1.1596
 1388TIP3   OH2 4169   2.657   1.042   0.984  0.3423 -0.2046 -0.2154
 1388TIP3    H1 4170   2.700   0.968   0.941  3.0088  1.2210 -0.0827
 1388TIP3    H2 4171   2.688   1.119   0.937 -1.3022  0.9665  0.5474
 1389TIP3   OH2 4172   2.647   1.844   3.432 -0.3710  0.2977  0.0967
 1389TIP3    H1 4173   2.557   1.872   3.449 -0.4600  1.4107 -2.0487
 1389TIP3    H2 4174   2.641   1.748   3.424 -1.3082  0.3345  0.3136
 1390TIP3   OH2 4175   2.305   1.806   4.150  0.2709 -0.0148  0.2658
 1390TIP3    H1 4176   2.230   1.775   4.100  0.0124  0.5714  0.2873
 1390TIP3    H2 4177   2.315   1.741   4.220 -0.3472  0.0256  0.3926
 1391TIP3   OH2 4178   5.769   5.507   2.856 -0.2383  0.0807 -0.0970
 1391TIP3    H1 4179   5.776   5.528   2.763  0.4934 -0.7933 -0.2385
 1391TIP3    H2 4180   5.834   5.564   2.898  0.8838 -0.9806 -0.3534
 1392TIP3   OH2 4181   1.637   0.999   3.606 -0.3986 -0.6656 -0.7951
 1392TIP3    H1 4182   1.699   0.978   3.536 -2.3131 -0.3156 -2.6522
 1392TIP3    H2 4183   1.582   0.922   3.612 -0.5483 -0.4965  0.0100
 1393TIP3   OH2 4184   1.376   5.980   4.155  0.3398  0.4077 -0.4761
 1393TIP3    H1 4185   1.371   5.885   4.145  2.9124  0.4810 -3.5079
 1393TIP3    H2 4186   1.303   6.014   4.103  1.1333  0.1049 -1.8415
 1394TIP3   OH2 4187   2.599   0.066   2.854  0.1740  0.3127  0.6683
 1394TIP3    H1 4188   2.571   0.157   2.864 -3.5228 -0.6403  0.0426
 1394TIP3    H2 4189   2.575   0.044   2.764  1.9541 -0.9943  0.4917
 1395TIP3   OH2 4190   2.882   0.333   3.705 -0.0631  0.6688  0.2823
 1395TIP3    H1 4191   2.882   0.312   3.612  0.2642  0.6800  0.2790
 1395TIP3    H2 4192   2.897   0.249   3.749  1.4491  0.9102  0.2620
 1396TIP3   OH2 4193   6.314   5.458   4.855 -0.2191 -0.0848 -0.1338
 1396TIP3    H1 4194   6.255   5.383   4.848 -0.9004  0.4801 -0.4471
 1396TIP3    H2 4195   6.275   5.513   4.923  0.9283 -0.5957  0.9562
 1397TIP3   OH2 4196   5.550   6.123   3.516  0.1370 -0.1195 -0.3307
 1397TIP3    H1 4197   5.581   6.077   3.594  1.2728 -0.0960 -0.7577
 1397TIP3    H2 4198   5.462   6.088   3.501 -0.1651  0.0143  1.0604
 1398TIP3   OH2 4199   4.456   5.740   2.915  0.4319 -0.7163  0.3872
 1398TIP3    H1 4200   4.421   5.662   2.872 -0.5465 -0.2761  0.3879
 1398TIP3    H2 4201   4.411   5.813   2.873  2.1398 -0.0827 -0.3694
 1399TIP3   OH2 4202   0.245   5.816   2.591  0.3662  0.1591  0.5945
 1399TIP3    H1 4203   0.255   5.767   2.673 -0.3965  0.4574  0.8608
 1399TIP3    H2 4204   0.157   5.851   2.594 -0.3146 -1.3120 -1.1701
 1400TIP3   OH2 4205   5.685   1.125   4.309  0.0223 -0.1025 -0.1216
 1400TIP3    H1 4206   5.590   1.133   4.319  0.0962 -0.3973  0.8830
 1400TIP3    H2 4207   5.712   1.207   4.267 -0.5662  0.3585  0.3924
 1401TIP3   OH2 4208   6.102   4.466   2.479 -0.3136  0.5529 -0.1483
 1401TIP3    H1 4209   6.155   4.387   2.487  0.2958  1.1149  1.5701
 1401TIP3    H2 4210   6.012   4.435   2.488 -0.0205  0.1834  1.8075
 1402TIP3   OH2 4211   2.279   0.215   4.045 -0.0932 -0.3653 -0.0102
 1402TIP3    H1 4212   2.234   0.138   4.010  0.1590 -0.6724  0.3412
 1402TIP3    H2 4213   2.247   0.287   3.991 -0.7429 -0.6314  0.0114
 1403TIP3   OH2 4214   2.246   1.966   2.951 -0.2482  0.2453  0.4908
 1403TIP3    H1 4215   2.330   2.012   2.960 -0.7764  1.5238 -0.8734
 1403TIP3    H2 4216   2.187   2.031   2.914 -1.1982 -1.3183 -0.8447
 1404TIP3   OH2 4217   1.642   5.825   4.368  0.0171  0.0880 -0.0226
 1404TIP3    H1 4218   1.729   5.865   4.370  0.0549  0.0422 -0.7226
 1404TIP3    H2 4219   1.638   5.779   4.284 -0.4247 -0.4950  0.3118
 1405TIP3   OH2 4220   3.017   3.889   4.555 -0.4405  0.8584  0.0629
 1405TIP3    H1 4221   2.982   3.802   4.573  1.5503 -0.7731 -3.4366
 1405TIP3    H2 4222   2.945   3.949   4.576 -1.9311 -1.6086  2.2538
 1406TIP3   OH2 4223   1.439   0.616   0.932 -0.0323  0.7927  0.5285
 1406TIP3    H1 4224   1.490   0.540   0.959 -1.7536 -0.2014  1.0373
 1406TIP3    H2 4225   1.358   0.611   0.983 -0.4556  2.5945  0.0848
 1407TIP3   OH2 4226   2.152   1.011   2.774  0.4107 -0.4162  0.1068
 1407TIP3    H1 4227   2.128   0.921   2.752 -0.5345 -0.1950  0.2215
 1407TIP3    H2 4228   2.155   1.057   2.690  1.8251 -0.7599 -0.0550
 1408TIP3   OH2 4229   0.600   0.257   0.059  0.2027 -0.0485  0.4058
 1408TIP3    H1 4230   0.580   0.251  -0.034 -0.6544  0.9129  0.5186
 1408TIP3    H2 4231   0.571   0.174   0.096 -2.0874  0.6727  0.2834
 1409TIP3   OH2 4232   3.435   0.874   0.840 -0.6424  0.5511  0.3759
 1409TIP3    H1 4233   3.481   0.952   0.808  1.6382 -0.4213  1.1886
 1409TIP3    H2 4234   3.400   0.900   0.925 -0.2908  0.8336  0.4360
 1410TIP3   OH2 4235   3.148   1.346   2.704  0.3394 -0.3587  0.1392
 1410TIP3    H1 4236   3.179   1.283   2.770  1.3739 -0.3131 -0.2880
 1410TIP3    H2 4237   3.217   1.412   2.701  0.4619 -0.5447 -1.2371
 1411TIP3   OH2 4238   0.409   5.513   4.052 -0.3785  0.1432 -0.1907
 1411TIP3    H1 4239   0.348   5.504   3.979  0.1057 -0.9774 -0.4605
 1411TIP3    H2 4240   0.493   5.535   4.010 -0.3167  0.4485  0.0930
 1412TIP3   OH2 4241   4.541   0.283   2.136 -0.0584  0.0434 -0.4034
 1412TIP3    H1 4242   4.507   0.208   2.087  0.3403 -1.0485  0.9822
 1412TIP3    H2 4243   4.635   0.283   2.117  0.2593 -0.9634  1.1133
 1413TIP3   OH2 4244   3.836   1.422   1.077  0.1537  0.3729 -0.2568
 1413TIP3    H1 4245   3.891   1.366   1.022  0.7020 -0.6065  1.2466
 1413TIP3    H2 4246   3.776   1.464   1.016 -0.1088 -1.6681 -1.4744
 1414TIP3   OH2 4247   4.823   1.727   3.212 -0.3320  0.2750  0.6024
 1414TIP3    H1 4248   4.820   1.632   3.222 -1.7788  0.4128  1.5548
 1414TIP3    H2 4249   4.777   1.761   3.289 -3.4253  1.6290 -1.7579
 1415TIP3   OH2 4250   3.759   4.886   0.370 -0.2879 -0.5652 -0.1572
 1415TIP3    H1 4251   3.706   4.815   0.405 -0.5898 -0.6044 -0.7000
 1415TIP3    H2 4252   3.726   4.900   0.282 -0.4610  0.4763  0.0670
 1416TIP3   OH2 4253   4.568   0.068   3.514 -0.1883 -0.0148 -0.0862
 1416TIP3    H1 4254   4.640   0.119   3.550 -0.7199 -0.7505  2.1061
 1416TIP3    H2 4255   4.491   0.123   3.527 -0.5202 -0.6750  0.7456
 1417TIP3   OH2 4256   2.916   6.069   3.172  0.1822 -0.6339 -0.0365
 1417TIP3    H1 4257   2.915   5.984   3.215  0.5389  0.1553  1.5503
 1417TIP3    H2 4258   2.824   6.097   3.171  0.1817 -0.6309  0.2333
 1418TIP3   OH2 4259   0.937   4.689   3.062  0.1306 -0.6022  0.0959
 1418TIP3    H1 4260   0.871   4.758   3.066  0.7460 -0.0088  0.1656
 1418TIP3    H2 4261   0.985   4.706   2.981  0.4909 -0.7506  0.2731
 1419TIP3   OH2 4262   1.424   5.732   3.860 -0.2586 -0.2554 -0.7080
 1419TIP3    H1 4263   1.480   5.701   3.932 -0.7066  0.8984  0.1527
 1419TIP3    H2 4264   1.459   5.819   3.839 -1.6874  0.4631 -0.1855
 1420TIP3   OH2 4265   4.524   1.574   3.482  0.0833  0.0863 -0.2632
 1420TIP3    H1 4266   4.615   1.600   3.494 -0.3584  0.6695  2.1296
 1420TIP3    H2 4267   4.523   1.479   3.499  0.2492  0.0940 -0.2155
 1421TIP3   OH2 4268   5.521   5.381   2.892 -0.0279 -0.6853  0.2894
 1421TIP3    H1 4269   5.609   5.420   2.888  0.2994 -1.3754  0.6429
 1421TIP3    H2 4270   5.482   5.417   2.971  0.1067 -0.7256  0.3744
 1422TIP3   OH2 4271   1.401   5.893   1.218  0.2616 -0.2016 -0.0721
 1422TIP3    H1 4272   1.339   5.920   1.287  0.9621 -0.3349  0.6157
 1422TIP3    H2 4273   1.461   5.834   1.263  0.8595 -0.1065 -0.7574
 1423TIP3   OH2 4274   0.668   2.215   3.149 -0.0254 -0.2006  0.2696
 1423TIP3    H1 4275   0.658   2.128   3.186 -0.3264 -0.3058 -0.0577
 1423TIP3    H2 4276   0.613   2.215   3.071  0.5867  0.0254 -0.1729
 1424TIP3   OH2 4277   3.006   0.695   2.291 -0.0048 -0.2167  0.3289
 1424TIP3    H1 4278   2.959   0.774   2.316  2.4399  1.3168  0.2254
 1424TIP3    H2 4279   3.035   0.656   2.374  0.6921  0.2117  0.2926
 1425TIP3   OH2 4280   4.069   0.513   3.416 -0.2699  0.1929 -0.2084
 1425TIP3    H1 4281   4.074   0.608   3.408  0.3752  0.0981 -0.9806
 1425TIP3    H2 4282   4.082   0.480   3.327 -0.8811 -0.6074 -0.0155
 1426TIP3   OH2 4283   1.715   5.907   3.131  0.7606 -0.3570 -0.7420
 1426TIP3    H1 4284   1.795   5.859   3.154  0.7393 -0.8274 -1.6346
 1426TIP3    H2 4285   1.712   5.904   3.035  0.6359  1.2317 -0.8023
 1427TIP3   OH2 4286   4.828   1.604   2.780 -0.2920  0.4979  0.1882
 1427TIP3    H1 4287   4.915   1.622   2.744  0.1540 -0.3375  0.8234
 1427TIP3    H2 4288   4.795   1.530   2.730  0.6518 -1.1675  1.9650
 1428TIP3   OH2 4289   4.688   5.553   4.194  0.6734  0.3376  0.2928
 1428TIP3    H1 4290   4.724   5.608   4.125 -0.2625  1.5866  0.7887
 1428TIP3    H2 4291   4.765   5.524   4.244  1.1338  1.6028  0.3354
 1429TIP3   OH2 4292   5.783   2.719   2.256  0.1144  0.4343  0.0484
 1429TIP3    H1 4293   5.827   2.722   2.341 -1.6199  0.3235  0.9658
 1429TIP3    H2 4294   5.854   2.705   2.193  1.2811 -0.7066  1.5765
 1430TIP3   OH2 4295   5.995   2.221   1.916 -0.1272  0.3533 -0.0399
 1430TIP3    H1 4296   6.005   2.144   1.861 -0.9133 -0.4192  0.8737
 1430TIP3    H2 4297   5.900   2.235   1.920 -0.1364 -0.1834  1.9008
 1431TIP3   OH2 4298   2.128   5.641   3.293 -0.0794  0.5107  0.2511
 1431TIP3    H1 4299   2.155   5.733   3.288  0.0521  0.5883  2.1149
 1431TIP3    H2 4300   2.062   5.639   3.362  1.7455 -1.2136  2.0101
 1432TIP3   OH2 4301   3.596   0.326   2.293 -0.3364 -0.1283  0.2313
 1432TIP3    H1 4302   3.520   0.377   2.321 -1.1196 -1.9032  1.3891
 1432TIP3    H2 4303   3.592   0.246   2.345  0.5768 -1.6191 -1.9219
 1433TIP3   OH2 4304   2.020   5.594   4.063 -0.3350  0.1520  0.4167
 1433TIP3    H1 4305   2.063   5.565   3.982 -1.5163  2.0105 -0.9018
 1433TIP3    H2 4306   1.948   5.532   4.075 -0.0278 -0.2559  0.1785
 1434TIP3   OH2 4307   4.252   3.152   1.810 -0.2387 -0.5009  0.1627
 1434TIP3    H1 4308   4.313   3.129   1.740  1.1492  0.5764  0.9807
 1434TIP3    H2 4309   4.169   3.112   1.784  0.8302 -2.0910 -0.9357
 1435TIP3   OH2 4310   5.238   0.650   2.375  0.7306 -0.6188  0.1890
 1435TIP3    H1 4311   5.235   0.742   2.401  1.4603  0.0596 -1.9950
 1435TIP3    H2 4312   5.155   0.634   2.331  0.8737 -0.8238 -0.0108
 1436TIP3   OH2 4313   4.329   1.396   2.823  0.5313 -0.5307 -0.3498
 1436TIP3    H1 4314   4.408   1.342   2.831  0.1482 -0.9143  1.1561
 1436TIP3    H2 4315   4.353   1.465   2.761  1.2707 -2.0009 -1.7136
 1437TIP3   OH2 4316   5.806   5.770   4.519 -0.0338 -0.3159  0.5204
 1437TIP3    H1 4317   5.895   5.802   4.502 -0.3653  0.0124 -0.6716
 1437TIP3    H2 4318   5.752   5.816   4.455 -0.4879 -3.3674 -1.3870
 1438TIP3   OH2 4319   2.723   0.828   3.237 -0.2867  0.0499  0.6165
 1438TIP3    H1 4320   2.636   0.789   3.231  0.1045 -0.8423  0.7989
 1438TIP3    H2 4321   2.729   0.884   3.159 -0.4157 -1.0874 -0.2118
 1439TIP3   OH2 4322   4.555   0.478   3.414 -0.3050  0.1700  0.4811
 1439TIP3    H1 4323   4.642   0.487   3.376  0.3079 -0.4439  1.7090
 1439TIP3    H2 4324   4.571   0.455   3.505 -1.7654 -1.3045  0.3763
 1440TIP3   OH2 4325   1.253   5.412   3.682 -0.0027  0.0749  0.0422
 1440TIP3    H1 4326   1.170   5.365   3.673 -0.3560  0.8778 -1.0529
 1440TIP3    H2 4327   1.243   5.488   3.625  1.2620  0.4978  0.3745
 1441TIP3   OH2 4328   0.024   5.905   4.267 -0.3183 -0.5454 -0.7312
 1441TIP3    H1 4329   0.080   5.842   4.313  1.2215  0.5973 -0.9975
 1441TIP3    H2 4330   0.019   5.871   4.178  1.3158  0.1790 -1.1316
 1442TIP3   OH2 4331   1.468   5.862   3.443  0.8487 -0.5059  0.5794
 1442TIP3    H1 4332   1.549   5.890   3.486  0.9784 -0.9475  0.6297
 1442TIP3    H2 4333   1.492   5.781   3.398  0.9054  0.3360 -0.9450
 1443TIP3   OH2 4334   3.031   4.661   4.320  0.2012 -0.3768 -0.0388
 1443TIP3    H1 4335   3.011   4.748   4.354  0.0591 -0.7838  0.9263
 1443TIP3    H2 4336   3.040   4.674   4.225  0.5717  0.7585  0.1434
 1444TIP3   OH2 4337   1.463   5.053   1.964 -0.0687 -0.2788  1.1061
 1444TIP3    H1 4338   1.454   4.987   1.895 -0.3920 -0.5571  1.4174
 1444TIP3    H2 4339   1.550   5.038   2.000  0.5158  0.5249  0.0751
 1445TIP3   OH2 4340   3.730   1.414   3.653 -0.0708 -0.4373  0.0926
 1445TIP3    H1 4341   3.802   1.475   3.670  0.4305 -0.6889 -1.0681
 1445TIP3    H2 4342   3.669   1.464   3.599  0.0557 -0.7733 -0.3640
 1446TIP3   OH2 4343   3.350   0.403   2.861 -0.1012  0.0986  0.2808
 1446TIP3    H1 4344   3.436   0.371   2.833 -0.2901  0.5777 -0.8648
 1446TIP3    H2 4345   3.288   0.348   2.814 -0.4337 -0.3376  1.2102
 1447TIP3   OH2 4346   2.872   1.472   4.772 -0.4351  0.1875  0.5790
 1447TIP3    H1 4347   2.949   1.428   4.738 -0.8267  0.1263 -0.2370
 1447TIP3    H2 4348   2.906   1.547   4.820  0.1964 -0.5875  1.3483
 1448TIP3   OH2 4349   5.005   6.094   2.403 -0.2622 -0.4144  1.2103
 1448TIP3    H1 4350   5.086   6.121   2.446 -1.0082 -0.0298  2.3788
 1448TIP3    H2 4351   5.009   5.998   2.404 -0.3387 -0.4110  2.2538
 1449TIP3   OH2 4352   0.589   5.539   2.553  0.3318  0.1689 -0.5646
 1449TIP3    H1 4353   0.497   5.550   2.573  0.2324 -0.9506 -0.4236
 1449TIP3    H2 4354   0.591   5.496   2.468  0.7221 -0.1428 -0.4017
 1450TIP3   OH2 4355   2.218   5.392   3.260  0.7149  0.0787  0.3569
 1450TIP3    H1 4356   2.282   5.414   3.192  0.7090  0.2594  0.4095
 1450TIP3    H2 4357   2.174   5.475   3.279  1.6428  0.3064  1.5429
 1451TIP3   OH2 4358   2.066   1.748   2.708  0.1426 -0.0228  0.3484
 1451TIP3    H1 4359   2.159   1.728   2.718 -0.1821 -0.6765  2.1514
 1451TIP3    H2 4360   2.049   1.818   2.771 -0.4995  0.3930 -0.2806
 1452TIP3   OH2 4361   1.085   4.752   2.134 -0.3634  0.0072  0.1368
 1452TIP3    H1 4362   1.143   4.826   2.118 -0.4370  0.0483  0.0628
 1452TIP3    H2 4363   1.103   4.692   2.062 -2.3126  1.1843 -1.3716
 1453TIP3   OH2 4364   1.999   3.456   2.592 -0.0840 -0.2526  0.6358
 1453TIP3    H1 4365   2.069   3.398   2.623  0.2169  0.0916  0.5980
 1453TIP3    H2 4366   1.925   3.436   2.649 -0.3374 -1.4942 -0.1042
 1454TIP3   OH2 4367   5.005   3.652   3.257  0.6709 -0.2276  0.5683
 1454TIP3    H1 4368   4.957   3.703   3.192 -0.6045 -1.5273  0.4663
 1454TIP3    H2 4369   4.947   3.651   3.333  2.7152  2.4042  2.2453
 1455TIP3   OH2 4370   4.278   1.017   5.045  0.1431 -0.1863  0.4036
 1455TIP3    H1 4371   4.232   0.969   4.976 -0.2566  1.6159 -0.6056
 1455TIP3    H2 4372   4.292   0.952   5.114 -0.8751 -1.6132 -0.7079
 1456TIP3   OH2 4373   2.392   5.129   3.073 -0.3841  0.1378 -0.1247
 1456TIP3    H1 4374   2.348   5.063   3.020 -0.3877  1.1664 -1.4387
 1456TIP3    H2 4375   2.348   5.126   3.158 -2.2861  0.4129 -1.0856
 1457TIP3   OH2 4376   1.950   5.912   1.937  0.6166 -0.3348 -0.6680
 1457TIP3    H1 4377   1.928   5.970   1.864  1.1280 -1.4954 -1.7655
 1457TIP3    H2 4378   1.897   5.944   2.010 -0.2280  0.5721 -1.6566
 1458TIP3   OH2 4379   0.665   4.518   2.971  0.4510 -0.0732 -0.1410
 1458TIP3    H1 4380   0.596   4.468   2.928 -0.2077 -1.4567  2.3842
 1458TIP3    H2 4381   0.729   4.536   2.902 -0.5004 -2.2764 -1.6491
 1459TIP3   OH2 4382   3.338   5.657   4.203 -0.3133 -0.5201  0.1609
 1459TIP3    H1 4383   3.423   5.611   4.202  0.3125  0.6294 -0.0318
 1459TIP3    H2 4384   3.294   5.628   4.123 -0.6953 -2.1979  0.9563
 1460TIP3   OH2 4385   1.514   6.037   1.975 -0.1791  0.5092  0.4044
 1460TIP3    H1 4386   1.453   5.973   1.937 -0.3851  1.0964 -0.2549
 1460TIP3    H2 4387   1.547   6.087   1.901  1.0671  0.2477  0.7714
 1461TIP3   OH2 4388   5.761   6.065   3.326  0.7920  0.2490  0.5002
 1461TIP3    H1 4389   5.714   6.138   3.286  0.4898 -0.0494  0.3134
 1461TIP3    H2 4390   5.701   6.030   3.391 -1.0245 -2.9034 -2.7086
 1462TIP3   OH2 4391   1.038   4.885   1.600 -0.4122  0.0494 -0.2928
 1462TIP3    H1 4392   0.980   4.961   1.606  1.3919  1.6122 -1.8509
 1462TIP3    H2 4393   1.125   4.920   1.620  0.2663 -1.8946  0.2587
 1463TIP3   OH2 4394   3.447   0.782   3.007 -0.2527  0.0246  0.4158
 1463TIP3    H1 4395   3.484   0.720   3.070 -0.0967 -0.1201  0.1819
 1463TIP3    H2 4396   3.519   0.801   2.947 -1.1759 -2.0516 -1.4282
 1464TIP3   OH2 4397   3.018   6.023   2.414 -0.3414 -0.0277 -0.3551
 1464TIP3    H1 4398   3.012   6.041   2.508 -0.9153 -0.3999 -0.3217
 1464TIP3    H2 4399   3.066   6.098   2.379 -0.3197  0.2236  0.2036
 1465TIP3   OH2 4400   3.750   1.772   3.680 -0.3546 -0.4987 -0.3358
 1465TIP3    H1 4401   3.786   1.768   3.592 -1.4958  0.8145 -0.8850
 1465TIP3    H2 4402   3.658   1.796   3.667 -0.6055 -0.5936  1.1899
 1466TIP3   OH2 4403   0.553   5.431   4.861  0.0892 -0.2491  0.4232
 1466TIP3    H1 4404   0.482   5.491   4.879  0.1688  0.6214 -1.9639
 1466TIP3    H2 4405   0.555   5.423   4.765  1.3706 -2.4673  0.5758
 1467TIP3   OH2 4406   1.594   5.110   3.815  0.2921 -0.2723 -0.9709
 1467TIP3    H1 4407   1.525   5.134   3.753  0.5400 -1.1260 -1.5786
 1467TIP3    H2 4408   1.607   5.016   3.802  1.2306 -0.2086 -0.5252
 1468TIP3   OH2 4409   3.544   0.059   2.360 -0.1353  0.2868  0.3972
 1468TIP3    H1 4410   3.557  -0.000   2.433  0.1727 -0.0872  0.0452
 1468TIP3    H2 4411   3.495   0.009   2.296 -1.5674  1.0483  0.8851
 1469TIP3   OH2 4412   5.094   1.582   1.994 -0.2734 -0.3412  0.5933
 1469TIP3    H1 4413   5.087   1.490   1.966  0.6238 -0.2561  0.0964
 1469TIP3    H2 4414   5.021   1.626   1.950 -1.4869 -1.0558  1.8378
 1470TIP3   OH2 4415   3.573   1.349   2.300 -0.2748  0.2334 -0.0306
 1470TIP3    H1 4416   3.485   1.325   2.270  0.2072 -2.8756  0.8771
 1470TIP3    H2 4417   3.571   1.337   2.395  0.8312  1.2003  0.1283
 1471TIP3   OH2 4418   2.263   1.802   1.687  0.1074  0.1773 -0.2261
 1471TIP3    H1 4419   2.183   1.760   1.655 -0.2561  0.4257  0.3535
 1471TIP3    H2 4420   2.293   1.856   1.613  0.0317 -0.3152 -0.6230
 1472TIP3   OH2 4421   2.523   0.754   2.984  0.3785 -0.3192 -0.0314
 1472TIP3    H1 4422   2.479   0.727   2.903  0.8927  0.0869 -0.4481
 1472TIP3    H2 4423   2.563   0.838   2.962  1.3476 -0.6741  0.3521
 1473TIP3   OH2 4424   6.474   4.718   2.749  0.1233  0.1119  0.1074
 1473TIP3    H1 4425   6.431   4.661   2.685  1.3090  0.7205 -1.2700
 1473TIP3    H2 4426   6.535   4.770   2.697  1.1778  0.5644  1.7653
 1474TIP3   OH2 4427   3.189   1.470   2.433 -0.2387  0.0628 -0.5949
 1474TIP3    H1 4428   3.147   1.477   2.347 -1.2002  1.9410  0.0166
 1474TIP3    H2 4429   3.119   1.481   2.496 -0.1352 -4.6084  0.5537
 1475TIP3   OH2 4430   4.093   0.097   3.067  0.7889  0.0165  0.4559
 1475TIP3    H1 4431   4.054   0.057   3.145 -0.1494  1.5162  0.7718
 1475TIP3    H2 4432   4.039   0.065   2.994  0.4968  0.1090  0.6294
 1476TIP3   OH2 4433   0.738   6.010   1.950  0.6480 -0.4868  0.3009
 1476TIP3    H1 4434   0.711   6.101   1.944 -0.0714 -0.7478 -0.5352
 1476TIP3    H2 4435   0.830   6.013   1.976  0.5481  0.4619  0.5485
 1477TIP3   OH2 4436   2.131   6.138   3.819 -0.3918  0.2835 -0.2289
 1477TIP3    H1 4437   2.078   6.077   3.871 -1.5635  1.8998  0.5309
 1477TIP3    H2 4438   2.155   6.089   3.741 -3.8660 -0.2108 -1.0631
 1478TIP3   OH2 4439   0.856   0.042   1.150 -0.0285  0.6430  0.6858
 1478TIP3    H1 4440   0.783  -0.007   1.188  1.3180 -0.7307  1.5764
 1478TIP3    H2 4441   0.849   0.027   1.055  0.7923 -1.9505  1.0012
 1479TIP3   OH2 4442   2.832   2.844   1.772 -0.7082  0.6089 -0.2935
 1479TIP3    H1 4443   2.760   2.817   1.829  0.2054  0.3934  0.7734
 1479TIP3    H2 4444   2.909   2.798   1.807  0.1530  1.6986 -0.7303
 1480TIP3   OH2 4445   3.929   1.875   2.852  0.1007  0.3008  0.1052
 1480TIP3    H1 4446   3.925   1.902   2.760  0.8570  1.2401  0.3326
 1480TIP3    H2 4447   3.937   1.957   2.900 -0.1488 -0.1989  0.9992
 1481TIP3   OH2 4448   0.267   4.210   2.815 -0.1619  0.5758 -0.4606
 1481TIP3    H1 4449   0.176   4.242   2.811  0.4124  2.2680 -0.4094
 1481TIP3    H2 4450   0.295   4.205   2.724  0.1151  1.3339 -0.4225
 1482TIP3   OH2 4451   4.747   1.719   1.701  0.7975  0.4121  0.0763
 1482TIP3    H1 4452   4.774   1.758   1.617 -1.5556 -0.9920 -1.4039
 1482TIP3    H2 4453   4.675   1.775   1.731  1.8985  1.1490  1.4067
 1483TIP3   OH2 4454   1.781   0.424   3.832 -0.2526  0.0095  0.0462
 1483TIP3    H1 4455   1.830   0.367   3.773 -0.2203 -1.3342  1.3513
 1483TIP3    H2 4456   1.820   0.511   3.820  0.7774 -0.5526 -0.7527
 1484TIP3   OH2 4457   1.677   0.543   0.121 -0.2285 -0.1424 -0.2196
 1484TIP3    H1 4458   1.615   0.557   0.193 -0.9439  1.3794 -1.0948
 1484TIP3    H2 4459   1.622   0.511   0.049  0.1266  0.5130 -0.7818
 1485TIP3   OH2 4460   1.995   3.667   3.437  0.2591  0.0521 -0.1075
 1485TIP3    H1 4461   2.084   3.634   3.423  0.4401  1.2714 -1.9679
 1485TIP3    H2 4462   1.939   3.591   3.417  0.7825  0.0382 -1.5749
 1486TIP3   OH2 4463   0.278   4.101   3.401 -0.0710 -0.4044 -0.4439
 1486TIP3    H1 4464   0.203   4.094   3.460 -0.8097  1.7008 -1.0744
 1486TIP3    H2 4465   0.335   4.167   3.442 -0.2454  0.5547 -1.6933
 1487TIP3   OH2 4466   3.729   4.337   4.498  0.2884 -0.2888 -0.2099
 1487TIP3    H1 4467   3.661   4.400   4.520 -0.5229 -1.1325 -0.3011
 1487TIP3    H2 4468   3.798   4.390   4.457 -0.9884  0.3272 -1.5656
 1488TIP3   OH2 4469   5.157   5.106   1.335 -0.3529  0.5858 -0.3434
 1488TIP3    H1 4470   5.120   5.103   1.246 -0.1595  0.1141 -0.4074
 1488TIP3    H2 4471   5.098   5.052   1.387 -0.4475  0.8372 -0.1895
 1489TIP3   OH2 4472   3.790   0.496   2.258 -0.1080  0.2913 -0.3563
 1489TIP3    H1 4473   3.754   0.537   2.179 -2.4152  0.5428  0.8164
 1489TIP3    H2 4474   3.750   0.409   2.261 -0.3419  0.4355  0.7744
 1490TIP3   OH2 4475   0.773   4.433   3.197  0.4577  0.0894  0.0123
 1490TIP3    H1 4476   0.780   4.526   3.222  1.1316  0.6359 -2.0589
 1490TIP3    H2 4477   0.730   4.435   3.111  0.3696 -1.5291  0.0138
 1491TIP3   OH2 4478   5.632   0.002   1.958 -0.5012  0.3088 -0.3341
 1491TIP3    H1 4479   5.590   0.019   2.042  0.1305  0.8674 -0.1293
 1491TIP3    H2 4480   5.570   0.035   1.893 -1.1388 -0.4237 -0.1117
 1492TIP3   OH2 4481   2.879   1.847   3.972 -0.0290 -0.4001 -0.3616
 1492TIP3    H1 4482   2.822   1.770   3.969 -0.3333 -0.1386 -1.3170
 1492TIP3    H2 4483   2.911   1.849   4.062  0.6283 -2.1193 -0.5358
 1493TIP3   OH2 4484   2.892   1.925   0.316 -0.1979  0.4134  0.0436
 1493TIP3    H1 4485   2.839   1.948   0.239  0.5654  1.0927 -0.2812
 1493TIP3    H2 4486   2.849   1.970   0.388 -1.2502 -0.6811  0.1201
 1494TIP3   OH2 4487   3.532   4.431   3.119 -0.3187 -0.4305 -0.1827
 1494TIP3    H1 4488   3.520   4.434   3.024  1.3887 -0.6178 -0.4202
 1494TIP3    H2 4489   3.448   4.458   3.154 -0.3734  1.6321 -1.7770
 1495TIP3   OH2 4490   4.604   0.896   2.263 -0.4643  0.3072 -0.2128
 1495TIP3    H1 4491   4.654   0.974   2.238  1.0187 -0.6469 -0.3042
 1495TIP3    H2 4492   4.647   0.824   2.216 -1.4980 -0.6396  0.2603
 1496TIP3   OH2 4493   5.358   4.918   4.167 -0.3033 -0.3290  0.3609
 1496TIP3    H1 4494   5.353   4.938   4.073 -1.1603 -1.6531  0.1128
 1496TIP3    H2 4495   5.386   5.000   4.207  0.4523  0.1514 -1.0982
 1497TIP3   OH2 4496   5.683   5.822   3.106 -0.4085  0.3512 -0.1409
 1497TIP3    H1 4497   5.607   5.874   3.130 -0.1281  0.1532  1.1979
 1497TIP3    H2 4498   5.653   5.731   3.114 -0.3963  0.2797 -0.8402
 1498TIP3   OH2 4499   1.692   5.908   3.581 -0.1900  0.3046 -0.1703
 1498TIP3    H1 4500   1.659   5.998   3.577  0.1144  0.4072 -0.4007
 1498TIP3    H2 4501   1.786   5.917   3.597 -0.2671  0.0124  0.4922
 1499TIP3   OH2 4502   4.066   1.103   3.729  0.2596 -0.4241 -0.5900
 1499TIP3    H1 4503   3.975   1.078   3.744  0.0951  0.5920  0.1247
 1499TIP3    H2 4504   4.083   1.078   3.638 -1.2365  0.9230 -1.2542
 1500TIP3   OH2 4505   4.947   0.837   3.743  0.2172  0.3451  1.0956
 1500TIP3    H1 4506   4.903   0.763   3.703 -0.7426  1.7868 -0.6238
 1500TIP3    H2 4507   4.962   0.898   3.670  5.7978 -0.3749  1.3758
 1501TIP3   OH2 4508   4.150   0.667   4.417 -0.1042  0.9745  0.4453
 1501TIP3    H1 4509   4.147   0.593   4.478 -0.4572  0.0994 -0.6156
 1501TIP3    H2 4510   4.101   0.736   4.461 -0.1523  0.4358  1.2525
 1502TIP3   OH2 4511   1.356   5.178   2.998  0.2159 -0.0909  0.0542
 1502TIP3    H1 4512   1.308   5.201   2.918 -0.8706 -1.6471  0.2270
 1502TIP3    H2 4513   1.288   5.160   3.062  1.0867  2.0775  1.6496
 1503TIP3   OH2 4514   2.961   2.139   4.090 -0.4642 -0.0200  0.6386
 1503TIP3    H1 4515   2.912   2.110   4.013 -1.4993 -0.3981  1.4186
 1503TIP3    H2 4516   3.028   2.197   4.056 -0.8758 -0.2319 -0.5546
 1504TIP3   OH2 4517   2.298   1.718   0.126 -0.0155  0.6351 -0.5819
 1504TIP3    H1 4518   2.353   1.755   0.196 -0.1552 -1.0482  0.4481
 1504TIP3    H2 4519   2.349   1.645   0.092 -0.4082  0.8036 -1.5382
 1505TIP3   OH2 4520   1.494   2.550   2.942 -0.9082 -0.2768  0.0696
 1505TIP3    H1 4521   1.426   2.525   2.880 -0.3488 -1.2672 -0.1624
 1505TIP3    H2 4522   1.568   2.576   2.887 -0.7904 -0.0660  0.3257
 1506TIP3   OH2 4523   4.824   5.948   0.373 -0.3829  0.2226 -0.4943
 1506TIP3    H1 4524   4.821   5.853   0.381 -1.2155  0.3088  0.2560
 1506TIP3    H2 4525   4.748   5.971   0.320 -0.2177  0.4815 -0.6244
 1507TIP3   OH2 4526   2.482   1.045   4.549 -0.5274  0.2239  0.2281
 1507TIP3    H1 4527   2.549   1.112   4.561 -0.9575  0.6666  0.1691
 1507TIP3    H2 4528   2.455   1.055   4.458  0.1610 -0.7373 -0.0913
 1508TIP3   OH2 4529   2.988   2.146   1.100  0.0456 -0.0769 -0.1780
 1508TIP3    H1 4530   3.026   2.233   1.087 -2.1954  0.8159 -0.8717
 1508TIP3    H2 4531   2.935   2.130   1.022 -1.4419 -1.0749  1.0022
 1509TIP3   OH2 4532   5.559   5.409   5.055  0.3285 -0.0496  0.3275
 1509TIP3    H1 4533   5.630   5.438   5.112 -0.7640 -0.3594  1.8839
 1509TIP3    H2 4534   5.526   5.489   5.014 -0.4024  0.4926  1.9348
 1510TIP3   OH2 4535   3.560   0.990   3.410 -0.6223  0.2858  0.5629
 1510TIP3    H1 4536   3.542   1.053   3.481 -1.9588  0.9952 -0.3793
 1510TIP3    H2 4537   3.479   0.989   3.359  0.2696 -0.3586 -0.8469
 1511TIP3   OH2 4538   2.403   0.106   0.148  0.1203  0.4209 -0.0430
 1511TIP3    H1 4539   2.345   0.051   0.095 -0.7419 -1.3035  2.6001
 1511TIP3    H2 4540   2.490   0.069   0.135 -0.2924 -0.8914  0.8154
 1512TIP3   OH2 4541   2.960   1.298   2.335 -0.0620 -0.2836  0.2608
 1512TIP3    H1 4542   2.910   1.339   2.404 -0.4512  0.0360 -0.2088
 1512TIP3    H2 4543   3.015   1.234   2.380 -2.3104 -2.0386  0.5997
 1513TIP3   OH2 4544   0.589   4.679   3.429 -0.2926 -0.5651 -0.0368
 1513TIP3    H1 4545   0.504   4.681   3.472 -1.0866  2.2352 -1.6178
 1513TIP3    H2 4546   0.568   4.678   3.335  1.4221 -0.9122 -0.4358
 1514TIP3   OH2 4547   3.622   1.753   3.225  0.3360 -0.0963  0.0984
 1514TIP3    H1 4548   3.605   1.797   3.141  0.0520  0.2801  0.3511
 1514TIP3    H2 4549   3.565   1.797   3.287  1.6015  0.5974  0.7897
 1515TIP3   OH2 4550   0.431   4.438   1.441  0.1679  0.8720 -0.4783
 1515TIP3    H1 4551   0.357   4.492   1.466 -1.2377 -0.0672 -2.4444
 1515TIP3    H2 4552   0.502   4.465   1.499 -2.2726  0.3174  2.9313
 1516TIP3   OH2 4553   3.081   0.833   3.579  0.3047 -0.0103 -0.4635
 1516TIP3    H1 4554   3.080   0.739   3.561 -0.3295  0.1133 -1.0811
 1516TIP3    H2 4555   3.076   0.874   3.493 -3.2213  0.5865 -0.0329
 1517TIP3   OH2 4556   0.518   4.717   3.743  0.1515  0.5186 -0.4306
 1517TIP3    H1 4557   0.434   4.683   3.712  0.1673 -0.3522  0.4414
 1517TIP3    H2 4558   0.526   4.683   3.833  1.6105  0.2626 -0.6426
 1518TIP3   OH2 4559   2.070   0.057   3.351 -0.9004 -0.2524 -0.6678
 1518TIP3    H1 4560   2.144   0.019   3.305  0.5998  0.9100  0.7450
 1518TIP3    H2 4561   1.996   0.046   3.290 -0.1202 -3.5611 -1.1053
 1519TIP3   OH2 4562   1.938   0.329   4.674  0.1651  0.0401  0.1528
 1519TIP3    H1 4563   1.866   0.277   4.709  1.6635 -0.4386  2.6649
 1519TIP3    H2 4564   1.976   0.276   4.604 -3.0327  1.1122 -2.5283
 1520TIP3   OH2 4565   1.283   5.664   3.062  0.7014  0.2207 -0.0688
 1520TIP3    H1 4566   1.304   5.757   3.064  1.5877  0.0048  0.8736
 1520TIP3    H2 4567   1.317   5.629   3.145  0.3190 -0.9240 -0.3799
 1521TIP3   OH2 4568   2.948   1.676   2.298 -0.5301 -0.2922 -0.4005
 1521TIP3    H1 4569   2.911   1.632   2.375 -0.0771 -0.1423 -0.0984
 1521TIP3    H2 4570   2.876   1.678   2.235 -1.0249 -0.0262  0.1766
 1522TIP3   OH2 4571   3.130   0.225   4.550  0.5488 -0.2766 -0.4762
 1522TIP3    H1 4572   3.156   0.134   4.565 -1.6758 -0.7673  0.6003
 1522TIP3    H2 4573   3.162   0.272   4.626 -1.2845 -0.8085  0.6538
 1523TIP3   OH2 4574   1.889   5.670   3.423  0.8717 -0.0629 -0.4326
 1523TIP3    H1 4575   1.891   5.740   3.488  1.1408 -0.0292 -0.4742
 1523TIP3    H2 4576   1.842   5.599   3.465  0.3791  0.2333 -0.4806
 1524TIP3   OH2 4577   0.405   5.603   4.325  0.0911  0.0099 -0.1845
 1524TIP3    H1 4578   0.419   5.565   4.238  0.3829  0.2454 -0.2440
 1524TIP3    H2 4579   0.473   5.565   4.379 -1.2562 -1.6045  0.4223
 1525TIP3   OH2 4580   0.904   5.083   3.299 -0.0865 -0.1020 -0.6662
 1525TIP3    H1 4581   0.961   5.019   3.341 -0.2833 -0.2032 -0.5525
 1525TIP3    H2 4582   0.816   5.049   3.312 -0.0019 -1.7087 -3.7259
 1526TIP3   OH2 4583   2.905   1.202   1.665 -0.2798 -0.0945 -0.8821
 1526TIP3    H1 4584   2.842   1.153   1.717 -1.3280  1.5057 -0.6259
 1526TIP3    H2 4585   2.985   1.202   1.718 -0.5198 -0.7856 -0.5114
 1527TIP3   OH2 4586   3.614   2.127   3.636  0.6942  1.0295 -0.1859
 1527TIP3    H1 4587   3.520   2.122   3.654  1.3075 -3.4034  2.5444
 1527TIP3    H2 4588   3.619   2.145   3.543 -2.9155 -1.4690 -0.9952
 1528TIP3   OH2 4589   2.993   2.409   3.792 -0.3035 -0.0536 -0.5376
 1528TIP3    H1 4590   3.070   2.420   3.847  0.5493  0.9132 -1.8915
 1528TIP3    H2 4591   2.980   2.315   3.788  0.2341 -0.1827  0.4652
 1529TIP3   OH2 4592   5.500   1.087   3.613  0.6502 -0.2136 -0.2640
 1529TIP3    H1 4593   5.550   1.034   3.551  0.5567  0.1534 -0.6596
 1529TIP3    H2 4594   5.558   1.160   3.634 -0.3285  1.1303 -2.0360
 1530TIP3   OH2 4595   4.035   1.785   3.858  0.2848 -0.2699  0.0281
 1530TIP3    H1 4596   4.124   1.797   3.891  0.1614 -0.8188  0.5669
 1530TIP3    H2 4597   3.981   1.782   3.937 -0.1346 -0.5766 -0.2701
 1531TIP3   OH2 4598   4.785   0.218   3.647 -0.2516 -0.5002 -0.6279
 1531TIP3    H1 4599   4.867   0.252   3.682 -0.1192 -0.0110 -1.3964
 1531TIP3    H2 4600   4.724   0.291   3.654 -0.6322 -0.8664 -0.0450
 1532TIP3   OH2 4601   4.106   1.253   1.281 -0.0023  0.7209 -0.6169
 1532TIP3    H1 4602   4.165   1.268   1.355 -1.7499 -2.0910  1.4369
 1532TIP3    H2 4603   4.164   1.246   1.206  2.3641 -1.9892  1.3399
 1533TIP3   OH2 4604   3.303   1.051   3.273  0.2318  0.2218 -0.7185
 1533TIP3    H1 4605   3.265   0.964   3.265  0.0284  0.3429 -1.0845
 1533TIP3    H2 4606   3.246   1.108   3.221  0.8106  0.4331 -1.1307
 1534TIP3   OH2 4607   5.759   3.692   3.738  0.9412  0.4866  0.6580
 1534TIP3    H1 4608   5.759   3.707   3.833  0.2975 -1.4293  0.9985
 1534TIP3    H2 4609   5.820   3.619   3.726 -1.2200 -1.2879 -0.0106
 1535TIP3   OH2 4610   3.647   0.567   3.970  0.3227  0.0850  0.2252
 1535TIP3    H1 4611   3.697   0.649   3.975  0.8228 -0.3338  2.7109
 1535TIP3    H2 4612   3.713   0.499   3.959  0.1001 -0.2102  0.7135
 1536TIP3   OH2 4613   1.967   5.968   3.964  0.3015 -1.0000 -0.4130
 1536TIP3    H1 4614   1.884   5.986   4.009  0.4173 -1.0877 -0.1647
 1536TIP3    H2 4615   2.025   5.936   4.033  1.6799  2.4530  0.1271
 1537TIP3   OH2 4616   5.182   1.037   1.169  0.1447 -0.5712  0.3702
 1537TIP3    H1 4617   5.094   1.058   1.200 -0.0224 -0.0191 -0.4512
 1537TIP3    H2 4618   5.172   1.029   1.074  1.4116  1.7706  0.0013
 1538TIP3   OH2 4619   2.387   1.940   3.496  0.1456 -0.2872  0.0828
 1538TIP3    H1 4620   2.309   1.972   3.451 -0.3366 -0.0986  1.0366
 1538TIP3    H2 4621   2.425   2.018   3.537  0.5564 -0.4629  0.0416
 1539TIP3   OH2 4622   1.669   0.428   2.530 -0.3253 -0.7129 -0.8523
 1539TIP3    H1 4623   1.624   0.365   2.586 -0.6242 -0.8513 -1.2472
 1539TIP3    H2 4624   1.758   0.392   2.521  0.4127  0.4653  1.3572
 1540TIP3   OH2 4625   4.145   2.006   5.305  0.2966 -0.4676  0.4370
 1540TIP3    H1 4626   4.201   2.076   5.270 -0.9870  0.4378  0.1461
 1540TIP3    H2 4627   4.206   1.938   5.333  1.4139 -0.9891 -3.0239
 1541TIP3   OH2 4628   0.237   1.285   3.806  0.2856  0.4080  0.2248
 1541TIP3    H1 4629   0.270   1.262   3.719  0.2368 -0.5928  0.4651
 1541TIP3    H2 4630   0.221   1.201   3.849  1.2249  0.8822  1.5580
 1542TIP3   OH2 4631   6.016   0.690   1.570 -0.1525  0.1214  0.0570
 1542TIP3    H1 4632   6.086   0.702   1.633 -0.2109 -0.2864  0.1992
 1542TIP3    H2 4633   6.015   0.771   1.519  2.4603 -1.0766 -1.9735
 1543TIP3   OH2 4634   1.790   5.803   2.867 -0.2873  0.2119 -0.1970
 1543TIP3    H1 4635   1.854   5.758   2.922 -0.2629  0.9224  0.3629
 1543TIP3    H2 4636   1.764   5.738   2.802  0.0722 -0.4733  0.3407
 1544TIP3   OH2 4637   2.352   0.289   3.386  0.3450 -0.2546  0.0754
 1544TIP3    H1 4638   2.341   0.194   3.391  0.7199 -0.3946 -1.3787
 1544TIP3    H2 4639   2.416   0.310   3.454 -2.0007 -0.6240  2.4799
 1545TIP3   OH2 4640   3.094   4.456   2.544  0.3681  0.5198  0.5951
 1545TIP3    H1 4641   3.022   4.499   2.591  0.6541  0.7510  0.8213
 1545TIP3    H2 4642   3.141   4.408   2.611  0.1078 -0.0718  0.3565
 1546TIP3   OH2 4643   5.415   4.522   0.236 -0.6497  0.4749 -0.1133
 1546TIP3    H1 4644   5.474   4.563   0.299 -2.6871  0.9557  1.5457
 1546TIP3    H2 4645   5.404   4.586   0.167 -0.3329  0.9475  0.2750
 1547TIP3   OH2 4646   1.206   5.319   3.383 -0.5187  0.6212  0.2271
 1547TIP3    H1 4647   1.178   5.284   3.468  0.2049  1.3467  0.7793
 1547TIP3    H2 4648   1.129   5.310   3.327 -0.6878 -0.7903  0.6713
 1548TIP3   OH2 4649   3.010   0.783   4.198  0.1225 -0.5361 -0.0550
 1548TIP3    H1 4650   2.952   0.800   4.124 -0.0103  1.0400  0.4020
 1548TIP3    H2 4651   2.962   0.718   4.251 -1.3211  0.8743  0.4037
 1549TIP3   OH2 4652   4.098   1.707   1.592 -0.4041 -0.0102 -0.0578
 1549TIP3    H1 4653   4.051   1.687   1.673 -2.2797  0.9386 -0.8825
 1549TIP3    H2 4654   4.085   1.629   1.537  0.5530 -0.5003  0.4009
 1550TIP3   OH2 4655   2.573   0.923   4.194 -0.3922  0.0805  0.1398
 1550TIP3    H1 4656   2.607   0.888   4.111  1.4283  0.4051  0.7124
 1550TIP3    H2 4657   2.636   0.992   4.218 -1.8638  1.1676  0.9130
 1551TIP3   OH2 4658   0.501   6.134   3.363 -0.5710 -0.0660  0.1341
 1551TIP3    H1 4659   0.541   6.078   3.429 -1.1628 -0.1442  0.4341
 1551TIP3    H2 4660   0.408   6.138   3.389 -0.9485 -0.6758 -1.0867
 1552TIP3   OH2 4661   3.518   1.100   4.066 -0.2674 -0.1134  0.3684
 1552TIP3    H1 4662   3.608   1.099   4.099  0.0894  0.4468 -0.5934
 1552TIP3    H2 4663   3.514   1.026   4.006  0.4147  1.6311 -1.8722
 1553TIP3   OH2 4664   1.801   1.222   4.905  0.4584 -0.0349 -0.3063
 1553TIP3    H1 4665   1.740   1.229   4.832  0.1697 -1.3796 -0.2124
 1553TIP3    H2 4666   1.840   1.135   4.894  0.8205 -0.0123  0.8245
 1554TIP3   OH2 4667   2.085   0.055   3.919 -0.2247  0.4210 -0.3601
 1554TIP3    H1 4668   1.990   0.059   3.935 -0.2572 -0.1311 -0.4081
 1554TIP3    H2 4669   2.093   0.044   3.824 -0.0648  2.3037 -0.5717
 1555TIP3   OH2 4670   1.615   2.044   4.831  0.4621  0.3915 -0.0998
 1555TIP3    H1 4671   1.669   1.982   4.781 -1.0597 -0.9786 -0.0647
 1555TIP3    H2 4672   1.653   2.043   4.919 -0.1166 -1.2293  0.1590
 1556TIP3   OH2 4673   1.629   1.238   3.477  0.1271 -0.8431  0.0801
 1556TIP3    H1 4674   1.646   1.166   3.538  1.6140 -1.5415 -1.1233
 1556TIP3    H2 4675   1.660   1.206   3.392  0.1937  0.9721 -0.6117
 1557TIP3   OH2 4676   2.636   1.904   4.175 -0.1523 -0.0477 -0.3110
 1557TIP3    H1 4677   2.671   1.925   4.261  0.0408 -0.0563 -0.3874
 1557TIP3    H2 4678   2.694   1.836   4.142  0.5137  0.8263 -0.9618
 1558TIP3   OH2 4679   4.262   0.494   3.653 -0.4750 -0.4959  0.1969
 1558TIP3    H1 4680   4.210   0.510   3.731  0.7962  1.8187  0.6251
 1558TIP3    H2 4681   4.198   0.491   3.581 -1.2355  2.0412  0.7399
 1559TIP3   OH2 4682   3.818   2.900   3.584  0.0638  0.1632 -0.1370
 1559TIP3    H1 4683   3.814   2.995   3.581  1.1377  0.2300  0.0837
 1559TIP3    H2 4684   3.852   2.874   3.498 -0.5703 -0.0398 -0.3246
 1560TIP3   OH2 4685   2.419   5.547   3.922 -0.4874 -0.3268  0.4922
 1560TIP3    H1 4686   2.329   5.514   3.918 -0.8230  0.6959 -0.9496
 1560TIP3    H2 4687   2.412   5.639   3.896  1.1583 -0.6228 -1.1241
 1561TIP3   OH2 4688   3.160   1.294   3.099 -0.3508  0.0808 -0.0024
 1561TIP3    H1 4689   3.112   1.352   3.040  0.1155  0.1281 -0.3370
 1561TIP3    H2 4690   3.215   1.352   3.151  2.1115 -0.2418 -2.1639
 1562TIP3   OH2 4691   5.706   5.662   4.049  0.1835 -0.0588  0.0043
 1562TIP3    H1 4692   5.712   5.737   4.109  0.1245  0.6796 -0.8924
 1562TIP3    H2 4693   5.728   5.699   3.963 -0.9363 -0.8250 -0.6235
 1563TIP3   OH2 4694   6.238   3.409   2.456  0.0376 -0.8434 -0.2670
 1563TIP3    H1 4695   6.218   3.342   2.523 -4.1902 -0.7423 -1.2961
 1563TIP3    H2 4696   6.232   3.492   2.503 -1.1178 -0.8705 -0.3539
 1564TIP3   OH2 4697   4.246   0.383   2.226 -0.0621  0.0109 -0.4278
 1564TIP3    H1 4698   4.308   0.444   2.266 -0.2427  1.0317 -1.6602
 1564TIP3    H2 4699   4.190   0.439   2.171 -0.6511 -1.1785 -1.0511
 1565TIP3   OH2 4700   1.113   1.228   1.402  0.1576 -0.1878 -0.2442
 1565TIP3    H1 4701   1.150   1.313   1.377 -1.2192  0.6782  0.6087
 1565TIP3    H2 4702   1.160   1.205   1.483 -0.1889  0.2644  0.0913
 1566TIP3   OH2 4703   4.961   0.741   2.487 -0.3172  0.3361 -0.0553
 1566TIP3    H1 4704   4.885   0.789   2.519 -0.0288  0.2526  0.7649
 1566TIP3    H2 4705   5.024   0.745   2.559  0.0487 -0.5032 -0.3212
 1567TIP3   OH2 4706   6.032   0.937   1.213  0.3985 -0.2217  0.2667
 1567TIP3    H1 4707   5.967   0.952   1.282 -0.6974  0.5391 -0.9034
 1567TIP3    H2 4708   6.112   0.979   1.245 -0.2388  0.5455  0.8616
 1568TIP3   OH2 4709   5.115   1.781   3.279 -0.0129 -0.4726 -0.1354
 1568TIP3    H1 4710   5.033   1.794   3.231  0.1744  0.7821 -0.1210
 1568TIP3    H2 4711   5.182   1.815   3.220  0.5594 -1.8958 -0.3308
 1569TIP3   OH2 4712   3.653   6.009   1.642  0.2507  0.2023 -0.2591
 1569TIP3    H1 4713   3.669   5.990   1.549  0.7425 -3.8418  0.5424
 1569TIP3    H2 4714   3.707   5.946   1.689 -1.7160  0.6502  2.7744
 1570TIP3   OH2 4715   0.347   2.188   3.214 -0.3825  0.5426  0.1521
 1570TIP3    H1 4716   0.437   2.155   3.221 -0.0009  1.9425  2.6115
 1570TIP3    H2 4717   0.298   2.117   3.173  1.8427 -0.2485 -1.2391
 1571TIP3   OH2 4718   4.174   2.928   3.497 -0.1452 -0.1713  0.1956
 1571TIP3    H1 4719   4.099   2.876   3.466  1.9500 -1.8478 -2.1955
 1571TIP3    H2 4720   4.203   2.883   3.576 -0.5967 -0.5127  0.1667
 1572TIP3   OH2 4721   4.534   2.949   0.427 -0.4637  0.1154 -0.2656
 1572TIP3    H1 4722   4.564   2.859   0.436  2.4133  0.7855 -2.2952
 1572TIP3    H2 4723   4.485   2.967   0.507  0.6624 -2.5930  1.0815
 1573TIP3   OH2 4724   3.119   0.271   3.531  0.0005 -0.2721  0.2428
 1573TIP3    H1 4725   3.134   0.178   3.514 -1.1943 -0.4461  0.1027
 1573TIP3    H2 4726   3.143   0.315   3.450 -2.4799 -0.7792 -0.8011
 1574TIP3   OH2 4727   4.852   2.195   3.528 -0.2913 -0.2649 -0.5062
 1574TIP3    H1 4728   4.843   2.218   3.436  0.0831  0.3904 -0.3860
 1574TIP3    H2 4729   4.893   2.272   3.568  1.2484 -1.2490 -0.1496
 1575TIP3   OH2 4730   6.273   2.132   1.629  0.1892 -0.2543  0.7959
 1575TIP3    H1 4731   6.271   2.046   1.586  0.2674 -0.2008  0.6849
 1575TIP3    H2 4732   6.366   2.147   1.648  0.2155 -0.0333  0.4903
 1576TIP3   OH2 4733   1.571   3.440   0.203 -0.4877 -0.6225 -0.4905
 1576TIP3    H1 4734   1.512   3.428   0.278 -0.8819 -2.3223 -1.0535
 1576TIP3    H2 4735   1.540   3.520   0.161 -0.2699  0.3466  1.1504
 1577TIP3   OH2 4736   5.353   0.800   4.391  0.0637  0.4651 -0.3602
 1577TIP3    H1 4737   5.437   0.755   4.403  0.2328  1.1687  1.1150
 1577TIP3    H2 4738   5.317   0.762   4.310  1.2022 -0.7548 -0.3061
 1578TIP3   OH2 4739   4.243   2.961   1.221  0.2262  0.6351 -0.2983
 1578TIP3    H1 4740   4.148   2.962   1.220  0.1496 -1.5075  0.5639
 1578TIP3    H2 4741   4.266   2.972   1.313  0.7671  0.2876 -0.3857
 1579TIP3   OH2 4742   4.176   1.413   1.815  0.1077 -0.3487 -0.3297
 1579TIP3    H1 4743   4.088   1.376   1.805  0.8559 -2.1099 -0.4437
 1579TIP3    H2 4744   4.161   1.508   1.824 -1.8225 -0.6718  0.0202
 1580TIP3   OH2 4745   3.819   2.148   2.582 -0.2176  0.4885  0.3857
 1580TIP3    H1 4746   3.812   2.207   2.657 -0.7461  2.7723 -1.4065
 1580TIP3    H2 4747   3.773   2.193   2.512  0.0722 -1.7169 -1.2617
 1581TIP3   OH2 4748   4.179   1.327   4.120  0.3129 -0.3627 -0.3955
 1581TIP3    H1 4749   4.205   1.299   4.208 -0.2019 -2.0659 -0.7782
 1581TIP3    H2 4750   4.133   1.410   4.134 -0.4821 -1.0282  1.0372
 1582TIP3   OH2 4751   5.399   1.583   2.480 -0.4217 -0.4241  0.3519
 1582TIP3    H1 4752   5.430   1.564   2.569 -1.9440 -2.5861  0.4597
 1582TIP3    H2 4753   5.421   1.504   2.430  0.3242  0.7338 -1.1800
 1583TIP3   OH2 4754   5.002   0.100   3.946  0.0654 -0.4503 -0.6942
 1583TIP3    H1 4755   5.003   0.151   3.865 -0.5236 -0.0739 -0.4628
 1583TIP3    H2 4756   5.054   0.022   3.926  2.2115  0.9187 -0.6047
 1584TIP3   OH2 4757   5.770   3.039   1.387 -0.7868 -0.0004 -0.7348
 1584TIP3    H1 4758   5.782   3.088   1.306 -0.1363  0.9167 -0.0896
 1584TIP3    H2 4759   5.818   3.089   1.453 -2.0120 -0.2857  0.3923
 1585TIP3   OH2 4760   4.247   0.826   3.767 -0.1748  0.1447  0.1813
 1585TIP3    H1 4761   4.300   0.759   3.809 -0.8895  0.1462  1.1076
 1585TIP3    H2 4762   4.228   0.791   3.680  0.2590 -0.4241  0.3141
 1586TIP3   OH2 4763   0.519   2.700   1.893 -0.4033 -0.5143 -0.2013
 1586TIP3    H1 4764   0.605   2.669   1.866  0.2295  0.9604  0.0926
 1586TIP3    H2 4765   0.496   2.766   1.828 -0.2630  0.7929  1.0571
 1587TIP3   OH2 4766   1.688   5.316   1.777 -0.2425 -0.1885  0.3576
 1587TIP3    H1 4767   1.688   5.235   1.725  1.2784 -0.1920  0.3462
 1587TIP3    H2 4768   1.692   5.386   1.712 -0.3673 -0.1341  0.4093
 1588TIP3   OH2 4769   2.585   5.042   2.874 -0.3111  0.4624  0.5245
 1588TIP3    H1 4770   2.554   5.112   2.932 -1.5435  0.8250 -0.5258
 1588TIP3    H2 4771   2.542   4.963   2.906  0.4334  0.3320  1.2073
 1589TIP3   OH2 4772   4.429   3.354   0.743 -0.6334  0.1191 -0.0344
 1589TIP3    H1 4773   4.354   3.305   0.710  0.1745  1.6458 -4.3960
 1589TIP3    H2 4774   4.399   3.445   0.745  0.3279  0.4273  0.7273
 1590TIP3   OH2 4775   0.549   1.648   3.911  0.1786  0.2133  0.0471
 1590TIP3    H1 4776   0.488   1.575   3.925 -1.9364  2.2428  1.7936
 1590TIP3    H2 4777   0.602   1.650   3.990 -0.9427  1.6410  0.7730
 1591TIP3   OH2 4778   4.793   1.763   2.374 -0.5385  0.3103 -0.2429
 1591TIP3    H1 4779   4.745   1.693   2.418 -0.2821  0.1505 -0.2130
 1591TIP3    H2 4780   4.826   1.819   2.444  1.0630 -0.7217 -0.1372
 1592TIP3   OH2 4781   4.820   6.050   1.499  0.7144  0.2270 -0.4464
 1592TIP3    H1 4782   4.841   6.143   1.501 -0.8692  0.5671  0.5239
 1592TIP3    H2 4783   4.881   6.014   1.434  1.6197  1.8504 -0.5322
 1593TIP3   OH2 4784   0.347   1.619   1.116  0.7175 -0.2221  0.5888
 1593TIP3    H1 4785   0.403   1.695   1.098  0.2534  0.1996  0.8940
 1593TIP3    H2 4786   0.377   1.552   1.054 -0.1024  0.8229 -0.9834
 1594TIP3   OH2 4787   5.092   0.630   3.301 -0.1660 -0.1377 -0.1996
 1594TIP3    H1 4788   5.158   0.561   3.295 -0.9636 -1.1399  2.0139
 1594TIP3    H2 4789   5.072   0.651   3.210  1.0863 -1.8751 -0.9143
 1595TIP3   OH2 4790   4.416   0.638   0.735 -0.0521 -0.1801  0.0910
 1595TIP3    H1 4791   4.441   0.728   0.754  1.2652  0.0514 -2.4783
 1595TIP3    H2 4792   4.464   0.585   0.798  4.0052  0.5332 -2.2535
 1596TIP3   OH2 4793   6.072   3.114   0.620 -0.7127 -0.5042 -1.0791
 1596TIP3    H1 4794   6.048   3.022   0.616  0.4052 -0.8157 -0.8945
 1596TIP3    H2 4795   5.989   3.161   0.622 -1.2921 -1.4633 -2.1076
 1597TIP3   OH2 4796   5.640   1.723   0.365 -0.1341  0.1456 -0.0114
 1597TIP3    H1 4797   5.664   1.779   0.292 -0.8486  0.6349  0.1166
 1597TIP3    H2 4798   5.706   1.654   0.366  1.1551  1.3590  0.2412
 1598TIP3   OH2 4799   1.433   0.325   3.304  0.0517 -0.2191 -0.5784
 1598TIP3    H1 4800   1.526   0.303   3.311  0.6372  2.6187  1.4173
 1598TIP3    H2 4801   1.423   0.355   3.214  1.6730  1.7948 -0.1399
 1599TIP3   OH2 4802   4.806   4.293   1.796  0.2557  0.2965 -0.6442
 1599TIP3    H1 4803   4.729   4.346   1.777 -0.7145 -0.7224  0.4037
 1599TIP3    H2 4804   4.871   4.356   1.829 -1.2123  0.7106  1.5284
 1600TIP3   OH2 4805   2.534   0.129   4.093 -0.2550 -0.4673 -0.0198
 1600TIP3    H1 4806   2.527   0.060   4.026  0.4755  0.4456 -1.0699
 1600TIP3    H2 4807   2.446   0.167   4.098 -0.1112  0.0443 -1.1273
 1601TIP3   OH2 4808   4.138   2.641   5.107 -0.2184  0.2188  0.1603
 1601TIP3    H1 4809   4.047   2.669   5.121 -0.7145 -1.4127  0.3341
 1601TIP3    H2 4810   4.143   2.623   5.013 -0.4139 -0.8001  0.3377
 1602TIP3   OH2 4811   5.525   0.624   2.801 -0.2319 -0.3203  0.8954
 1602TIP3    H1 4812   5.456   0.581   2.751  1.0817 -0.4195 -0.8626
 1602TIP3    H2 4813   5.501   0.717   2.801 -0.1656 -0.3041 -0.0486
 1603TIP3   OH2 4814   4.890   0.654   2.875  0.0733 -0.2046  0.9908
 1603TIP3    H1 4815   4.942   0.690   2.947  2.6848 -2.5423  0.3492
 1603TIP3    H2 4816   4.948   0.656   2.799 -1.2082 -1.6340 -0.0723
 1604TIP3   OH2 4817   0.361   1.189   1.338 -0.2187 -0.0645 -0.1856
 1604TIP3    H1 4818   0.368   1.095   1.321  2.4876  0.2988 -1.2533
 1604TIP3    H2 4819   0.318   1.225   1.261  2.6367  0.1351 -1.7358
 1605TIP3   OH2 4820   0.919   5.977   5.005 -0.2222  0.0623 -0.7449
 1605TIP3    H1 4821   1.006   6.009   5.031 -0.4860  1.2024 -1.2132
 1605TIP3    H2 4822   0.936   5.912   4.937  0.3196 -0.6248  0.0358
 1606TIP3   OH2 4823   5.445   1.950   0.568  0.4687 -0.3984 -0.3579
 1606TIP3    H1 4824   5.431   1.863   0.607 -0.2480  0.0633  0.4438
 1606TIP3    H2 4825   5.357   1.988   0.563  0.7147  0.0482 -1.2584
 1607TIP3   OH2 4826   4.872   2.062   2.449 -0.1985 -0.1666  0.4551
 1607TIP3    H1 4827   4.854   2.123   2.377  0.2125  0.8945  1.2332
 1607TIP3    H2 4828   4.797   2.072   2.508 -1.7560 -2.8448 -0.9976
 1608TIP3   OH2 4829   5.490   2.574   0.361  0.5717  0.1860  0.0799
 1608TIP3    H1 4830   5.508   2.649   0.418 -0.2080 -0.4584  1.2079
 1608TIP3    H2 4831   5.567   2.518   0.370 -0.6612 -1.2012  2.6596
 1609TIP3   OH2 4832   5.894   2.271   3.300 -0.1909 -0.0498  0.5363
 1609TIP3    H1 4833   5.957   2.231   3.360 -0.6720  2.1935  2.5898
 1609TIP3    H2 4834   5.808   2.252   3.339 -0.5981  0.2220 -0.2140
 1610TIP3   OH2 4835   4.418   0.851   2.455 -0.2279  0.3010  0.2379
 1610TIP3    H1 4836   4.490   0.893   2.408 -0.1568 -2.0550 -1.9128
 1610TIP3    H2 4837   4.442   0.758   2.457 -3.2569 -0.5793 -0.7038
 1611TIP3   OH2 4838   2.856   1.848   2.049  0.2482 -0.3221 -0.5677
 1611TIP3    H1 4839   2.920   1.895   1.997  1.6877 -0.8561  0.6927
 1611TIP3    H2 4840   2.868   1.756   2.024 -0.6059 -0.3534 -0.9166
 1612TIP3   OH2 4841   2.237   4.698   0.552  0.4498 -0.1385  0.6334
 1612TIP3    H1 4842   2.320   4.736   0.526 -0.1507  0.7552  0.0157
 1612TIP3    H2 4843   2.179   4.713   0.477  0.1007 -1.9551  0.4989
 1613TIP3   OH2 4844   0.945   1.578   4.655 -0.0487 -0.2920 -0.1800
 1613TIP3    H1 4845   1.025   1.624   4.630 -0.4232  0.3279 -0.2589
 1613TIP3    H2 4846   0.931   1.602   4.747  1.4818 -2.7878  0.7680
 1614TIP3   OH2 4847   4.061   3.594   0.521  0.1240  0.1556 -0.8180
 1614TIP3    H1 4848   4.041   3.644   0.441 -1.2935 -1.1591 -1.2979
 1614TIP3    H2 4849   3.978   3.590   0.568  0.2359 -1.7167 -0.7690
 1615TIP3   OH2 4850   2.920   0.937   2.400 -0.0544  0.8988  0.3129
 1615TIP3    H1 4851   2.830   0.968   2.389 -0.4715 -0.5806 -0.6820
 1615TIP3    H2 4852   2.965   1.009   2.444 -1.3101  2.3376 -0.6961
 1616TIP3   OH2 4853   5.685   3.094   2.562  0.0333  0.1324  0.1688
 1616TIP3    H1 4854   5.631   3.020   2.535 -0.2611  0.1963  0.5755
 1616TIP3    H2 4855   5.681   3.093   2.658  0.6700  0.1986  0.1975
 1617TIP3   OH2 4856   4.813   1.794   1.438  0.2973 -0.1913  0.2913
 1617TIP3    H1 4857   4.748   1.766   1.373  1.4116 -0.3463 -0.7676
 1617TIP3    H2 4858   4.818   1.889   1.427  0.9844 -0.3001 -0.3101
 1618TIP3   OH2 4859   5.884   1.706   0.080  0.2486  0.2537  0.6247
 1618TIP3    H1 4860   5.866   1.782   0.134 -0.0654  1.5348 -1.2409
 1618TIP3    H2 4861   5.974   1.720   0.048 -0.6830  1.1053 -1.7010
 1619TIP3   OH2 4862   3.377   2.332   2.616  0.2661 -0.4404  0.5297
 1619TIP3    H1 4863   3.440   2.288   2.558  0.4091  1.1423 -0.5249
 1619TIP3    H2 4864   3.370   2.273   2.691 -1.2422 -3.4131 -1.8283
 1620TIP3   OH2 4865   4.812   2.336   1.708  0.0703  0.0045 -0.4980
 1620TIP3    H1 4866   4.824   2.243   1.688 -1.5848  0.0056 -1.6201
 1620TIP3    H2 4867   4.885   2.358   1.766  0.4132 -2.0157 -0.1259
 1621TIP3   OH2 4868   4.988   0.110   2.507 -0.0663  0.3704 -0.1100
 1621TIP3    H1 4869   4.893   0.121   2.510  0.1939  2.5476  0.8941
 1621TIP3    H2 4870   5.005   0.033   2.561 -1.2331  0.1674 -0.0220
 1622TIP3   OH2 4871   4.162   1.497   3.344 -0.6326  0.2467 -0.3238
 1622TIP3    H1 4872   4.193   1.453   3.423  1.0648  0.2367 -0.9724
 1622TIP3    H2 4873   4.160   1.590   3.367 -0.0125  0.2557 -0.3119
 1623TIP3   OH2 4874   3.948   0.341   0.560 -0.1975  0.5447 -0.0483
 1623TIP3    H1 4875   3.979   0.260   0.519  0.2614  0.1748  1.0158
 1623TIP3    H2 4876   3.857   0.348   0.530  0.0300  0.1194 -0.8744
 1624TIP3   OH2 4877   4.774   1.613   0.875  0.0997 -0.4313  0.5470
 1624TIP3    H1 4878   4.746   1.691   0.923  2.0288  0.4644  0.2844
 1624TIP3    H2 4879   4.715   1.544   0.904 -2.0536  1.2684  0.2983
 1625TIP3   OH2 4880   4.518   2.104   4.614  0.3464 -0.0758  0.4112
 1625TIP3    H1 4881   4.427   2.078   4.625 -0.0142  1.0878  0.2276
 1625TIP3    H2 4882   4.555   2.039   4.555 -0.4027 -0.4664  0.3714
 1626TIP3   OH2 4883   5.953   3.020   2.504  0.2859  0.3200 -0.1894
 1626TIP3    H1 4884   5.873   3.059   2.539 -0.7282  0.7931 -2.8818
 1626TIP3    H2 4885   5.932   2.928   2.491  0.8539  0.0188  0.9668
 1627TIP3   OH2 4886   4.038   3.489   2.036  0.4227  0.1399  0.1127
 1627TIP3    H1 4887   4.060   3.578   2.065  0.9016  0.8758 -2.4203
 1627TIP3    H2 4888   4.123   3.447   2.021  0.2047  0.8584 -3.3598
 1628TIP3   OH2 4889   3.619   0.392   2.795  0.5080  0.1620  0.2798
 1628TIP3    H1 4890   3.705   0.381   2.837 -0.5272 -0.7035  2.2702
 1628TIP3    H2 4891   3.591   0.480   2.821 -0.0360 -0.2893  1.2488
 1629TIP3   OH2 4892   4.048   0.563   1.669  0.0726 -0.6556 -0.1240
 1629TIP3    H1 4893   4.040   0.611   1.751 -1.5148 -0.4976 -0.3459
 1629TIP3    H2 4894   4.113   0.495   1.686  0.8171  0.2734  0.8151
 1630TIP3   OH2 4895   3.008   0.892   1.912 -0.5760  0.1040  0.3055
 1630TIP3    H1 4896   2.936   0.829   1.901  0.2534 -0.8833  0.3773
 1630TIP3    H2 4897   3.046   0.869   1.997  0.2210  0.1939 -0.0276
 1631TIP3   OH2 4898   4.665   1.695   2.118  0.2616 -0.3191 -0.2589
 1631TIP3    H1 4899   4.678   1.745   2.198 -0.2584  0.4488 -0.6466
 1631TIP3    H2 4900   4.572   1.672   2.119  0.4938 -1.2703 -0.0909
 1632TIP3   OH2 4901   5.482   0.284   0.924 -0.0665  0.1058 -0.2795
 1632TIP3    H1 4902   5.393   0.294   0.891 -1.2119 -2.1655  1.9368
 1632TIP3    H2 4903   5.478   0.317   1.014  1.4279  0.2480 -0.2489
 1633TIP3   OH2 4904   0.915   5.694   2.015  0.2677 -0.2626  0.2494
 1633TIP3    H1 4905   0.919   5.642   2.096  1.4320 -2.0067 -0.8822
 1633TIP3    H2 4906   0.847   5.652   1.963  1.2394 -0.6921 -0.6883
 1634TIP3   OH2 4907   3.410   1.807   2.085 -0.2595 -0.2582  0.4327
 1634TIP3    H1 4908   3.454   1.745   2.142 -1.2247 -1.6491 -0.3095
 1634TIP3    H2 4909   3.318   1.781   2.088 -0.4010  0.0121 -1.2902
 1635TIP3   OH2 4910   4.894   1.497   1.800  0.2352  0.8669 -0.1795
 1635TIP3    H1 4911   4.889   1.409   1.762  0.4136  1.1674 -0.9058
 1635TIP3    H2 4912   4.829   1.548   1.751  1.2037  1.5225 -0.7987
 1636TIP3   OH2 4913   0.105   3.798   3.814  0.1074 -0.4554 -0.4886
 1636TIP3    H1 4914   0.047   3.822   3.742 -0.9070  0.2363  0.5504
 1636TIP3    H2 4915   0.123   3.881   3.858  2.2366 -0.5877 -1.0419
 1637TIP3   OH2 4916   1.880   5.941   4.378  0.7735 -0.2596  0.7495
 1637TIP3    H1 4917   1.946   5.906   4.319  0.8361  0.7132  0.2200
 1637TIP3    H2 4918   1.928   5.966   4.456  1.2291  1.4608 -0.0530
 1638TIP3   OH2 4919   5.173   1.749   2.559 -0.2444 -0.5355 -0.0452
 1638TIP3    H1 4920   5.090   1.794   2.575 -1.8797 -2.8354 -1.7315
 1638TIP3    H2 4921   5.183   1.690   2.634  1.3553  1.7829  1.6149
 1639TIP3   OH2 4922   5.231   2.220   1.742  0.1989 -0.0053  0.0972
 1639TIP3    H1 4923   5.207   2.243   1.652  1.2307 -0.7017 -0.3574
 1639TIP3    H2 4924   5.225   2.125   1.745  0.4037 -0.0003  0.7039
 1640TIP3   OH2 4925   0.470   1.142   4.117 -0.0410 -0.9965  0.0478
 1640TIP3    H1 4926   0.463   1.082   4.191  3.2644 -1.8744 -0.2650
 1640TIP3    H2 4927   0.544   1.199   4.139  0.3973 -0.6521 -2.1501
 1641TIP3   OH2 4928   3.539   0.739   0.432 -0.1782  0.0139 -0.1196
 1641TIP3    H1 4929   3.542   0.688   0.513 -3.0950  0.9810  0.6365
 1641TIP3    H2 4930   3.447   0.736   0.405 -0.3358  4.4540 -0.3477
 1642TIP3   OH2 4931   3.615   0.137   2.691 -0.4513 -0.3826 -0.1535
 1642TIP3    H1 4932   3.636   0.107   2.780  0.1994  1.1557  0.2185
 1642TIP3    H2 4933   3.601   0.231   2.700 -0.7024 -0.2729 -1.6349
 1643TIP3   OH2 4934   3.838   4.289   2.518  0.5205  0.4842 -0.2731
 1643TIP3    H1 4935   3.835   4.215   2.457  1.9742  1.0991 -1.1091
 1643TIP3    H2 4936   3.913   4.271   2.574  0.5153  1.0331 -0.0897
 1644TIP3   OH2 4937   3.382   0.491   2.395 -0.6033 -0.1379  0.0621
 1644TIP3    H1 4938   3.360   0.574   2.355 -0.8429  0.6042  1.6764
 1644TIP3    H2 4939   3.333   0.491   2.478  0.2613 -1.3881  0.5932
 1645TIP3   OH2 4940   0.358   1.224   3.248 -0.3640  0.2638  0.6555
 1645TIP3    H1 4941   0.445   1.184   3.254 -0.6878 -0.5994 -0.3981
 1645TIP3    H2 4942   0.352   1.279   3.327  1.8294  1.7344 -0.1545
 1646TIP3   OH2 4943   4.143   0.312   4.376 -0.4594  0.6927 -0.1270
 1646TIP3    H1 4944   4.141   0.354   4.461  0.4682 -0.1297  0.3028
 1646TIP3    H2 4945   4.064   0.257   4.375  0.2170 -0.3178  0.7347
 1647TIP3   OH2 4946   5.964   1.285   4.500 -0.5869  0.3695 -0.1670
 1647TIP3    H1 4947   5.928   1.197   4.491  2.5648 -1.0235  0.1077
 1647TIP3    H2 4948   6.059   1.272   4.506  0.0069  3.8293 -0.7057
 1648TIP3   OH2 4949   5.294   1.752   1.901 -0.5325  0.3059  1.1249
 1648TIP3    H1 4950   5.342   1.699   1.838 -0.8734  1.2469  0.0527
 1648TIP3    H2 4951   5.219   1.698   1.927  0.0187 -0.3815  1.3172
 1649TIP3   OH2 4952   5.852   0.547   1.348  0.2437 -0.6796 -0.2574
 1649TIP3    H1 4953   5.853   0.590   1.262 -0.8236  0.3186  0.2035
 1649TIP3    H2 4954   5.875   0.617   1.409 -1.5772 -0.7225  0.5158
 1650TIP3   OH2 4955   5.434   2.467   3.635 -0.1721 -0.1434 -0.0624
 1650TIP3    H1 4956   5.383   2.491   3.713 -0.6553  2.4353 -1.1230
 1650TIP3    H2 4957   5.434   2.371   3.636 -0.9509 -0.1788  2.5909
 1651TIP3   OH2 4958   0.670   2.932   1.387  0.2116  0.0429  0.2836
 1651TIP3    H1 4959   0.658   2.883   1.306  1.8336  0.1845 -0.0566
 1651TIP3    H2 4960   0.581   2.955   1.414 -0.3179  0.5176 -1.7614
 1652TIP3   OH2 4961   5.199   1.729   2.225  0.2254 -0.3965 -0.5947
 1652TIP3    H1 4962   5.165   1.660   2.169  0.0078  0.1093 -1.0872
 1652TIP3    H2 4963   5.132   1.798   2.221 -0.5114 -0.9511  1.4428
 1653TIP3   OH2 4964   5.518   1.755   2.100  0.3383  0.0312  0.1971
 1653TIP3    H1 4965   5.435   1.746   2.053  0.7880  1.4543 -0.9115
 1653TIP3    H2 4966   5.508   1.834   2.152  0.4106 -0.6953  1.3223
 1654TIP3   OH2 4967   2.253   5.895   3.263  0.8889 -0.8695 -0.2461
 1654TIP3    H1 4968   2.348   5.902   3.263  0.6918  2.7463 -0.6140
 1654TIP3    H2 4969   2.225   5.939   3.183 -1.2108  0.2891  1.0831
 1655TIP3   OH2 4970   4.638   2.783   2.145 -0.4968  0.1676 -0.1358
 1655TIP3    H1 4971   4.676   2.761   2.060 -2.3480 -0.4250 -0.8369
 1655TIP3    H2 4972   4.588   2.705   2.170 -1.9222  1.2146  0.3584
 1656TIP3   OH2 4973   3.908   1.953   5.175 -0.1834 -0.4140  0.1325
 1656TIP3    H1 4974   3.994   1.941   5.216 -0.7962 -0.0736  1.5316
 1656TIP3    H2 4975   3.845   1.927   5.243 -1.2693  1.8251  0.0293
 1657TIP3   OH2 4976   3.395   3.635   1.125 -0.2795  0.5523  0.4482
 1657TIP3    H1 4977   3.326   3.571   1.110 -0.3930  0.4324  1.4432
 1657TIP3    H2 4978   3.375   3.707   1.065 -1.1939  0.4648  0.6464
 1658TIP3   OH2 4979   0.746   4.442   0.278  0.3540 -0.0385  0.3813
 1658TIP3    H1 4980   0.794   4.488   0.347 -1.7936 -0.5580  2.2743
 1658TIP3    H2 4981   0.736   4.353   0.311 -1.0177 -0.1908 -0.4202
 1659TIP3   OH2 4982   5.304   4.021   2.954  0.0515  0.0223 -0.2105
 1659TIP3    H1 4983   5.316   4.033   3.049 -1.4048  0.9536 -0.1333
 1659TIP3    H2 4984   5.220   4.062   2.935  0.0862 -0.6231 -1.8332
 1660TIP3   OH2 4985   2.488   3.059   1.259  0.1082 -0.3327 -0.3913
 1660TIP3    H1 4986   2.414   3.001   1.277 -0.6788  0.3608 -1.3375
 1660TIP3    H2 4987   2.460   3.110   1.183  0.9071  1.0887  0.2533
 1661TIP3   OH2 4988   2.861   4.864   0.265  0.6307 -0.3502  0.2542
 1661TIP3    H1 4989   2.916   4.796   0.226 -0.5647 -1.0433 -0.2652
 1661TIP3    H2 4990   2.887   4.867   0.357  1.3879 -0.8062  0.0563
 1662TIP3   OH2 4991   4.769   1.435   4.174  0.4298 -0.1617  0.4657
 1662TIP3    H1 4992   4.687   1.403   4.136  0.5484  0.3287 -0.2081
 1662TIP3    H2 4993   4.821   1.356   4.191  0.8771 -0.3087 -1.5492
 1663TIP3   OH2 4994   0.338   1.362   1.567 -0.1109 -0.2625  0.4288
 1663TIP3    H1 4995   0.346   1.318   1.482 -1.0169 -0.4934  0.4649
 1663TIP3    H2 4996   0.363   1.296   1.631  1.6693  0.2459  0.2750
 1664TIP3   OH2 4997   5.676   2.758   3.152  0.3814 -0.7685  0.2390
 1664TIP3    H1 4998   5.744   2.721   3.209  0.8563 -1.4903 -0.7829
 1664TIP3    H2 4999   5.678   2.703   3.074 -1.7106 -1.0818  0.3862
 1665TIP3   OH2 5000   3.791   3.678   2.453 -0.4834  0.0407  0.3033
 1665TIP3    H1 5001   3.842   3.758   2.465 -0.9473  0.0025  2.9542
 1665TIP3    H2 5002   3.780   3.669   2.358 -0.5598  3.1878 -0.0125
 1666TIP3   OH2 5003   6.220   2.199   0.863 -0.2421  0.2904 -0.2885
 1666TIP3    H1 5004   6.278   2.142   0.812  0.6413  0.4592  0.5279
 1666TIP3    H2 5005   6.186   2.143   0.933 -0.3849  0.4271 -0.2470
 1667TIP3   OH2 5006   4.665   1.455   3.096  0.0457 -0.1631 -0.1118
 1667TIP3    H1 5007   4.606   1.509   3.044  0.8901  0.1264 -0.7955
 1667TIP3    H2 5008   4.717   1.407   3.031 -0.2029 -1.2510  0.4888
 1668TIP3   OH2 5009   0.278   2.292   2.386 -0.7303  0.0897  0.1677
 1668TIP3    H1 5010   0.345   2.315   2.321 -0.5479 -2.2644 -0.5186
 1668TIP3    H2 5011   0.202   2.267   2.334 -2.4430  3.3458  0.9402
 1669TIP3   OH2 5012   6.019   1.706   2.569 -0.0285 -0.1275  0.2855
 1669TIP3    H1 5013   5.994   1.613   2.572 -0.6970  0.0157 -0.5559
 1669TIP3    H2 5014   5.961   1.748   2.633 -0.1504 -0.1951  0.2195
 1670TIP3   OH2 5015   3.487   1.301   2.608  0.1564  0.0025 -0.2858
 1670TIP3    H1 5016   3.452   1.226   2.656  1.6988 -0.8966 -0.5322
 1670TIP3    H2 5017   3.578   1.306   2.635 -0.0169  2.0127 -0.0145
 1671TIP3   OH2 5018   5.383   1.982   3.548 -0.0541  0.3776  0.0891
 1671TIP3    H1 5019   5.412   1.893   3.567 -0.1567  0.1194 -0.9542
 1671TIP3    H2 5020   5.289   1.973   3.529 -0.0506  0.6976 -0.0822
 1672TIP3   OH2 5021   0.020   2.318   2.262  0.5461 -0.0782  0.2231
 1672TIP3    H1 5022   0.009   2.251   2.194 -1.9551  0.5272 -0.0352
 1672TIP3    H2 5023   0.019   2.401   2.214 -1.5552  0.3755  0.9721
 1673TIP3   OH2 5024   2.675   4.320   3.770  0.0687  0.3489  0.2123
 1673TIP3    H1 5025   2.713   4.388   3.825 -0.3140 -0.7188  1.8401
 1673TIP3    H2 5026   2.588   4.304   3.808  0.7493 -2.1058  0.7992
 1674TIP3   OH2 5027   6.491   0.918   4.748 -0.4681  0.5806 -0.3878
 1674TIP3    H1 5028   6.444   0.960   4.676 -1.2125 -0.1982 -0.3527
 1674TIP3    H2 5029   6.561   0.980   4.769  2.5890 -1.1626 -4.7536
 1675TIP3   OH2 5030   5.743   1.138   2.827  0.3090 -0.3946  0.3174
 1675TIP3    H1 5031   5.723   1.093   2.744 -0.1605 -0.3961  0.4325
 1675TIP3    H2 5032   5.826   1.100   2.855 -0.3078 -1.5153  0.6417
 1676TIP3   OH2 5033   0.314   1.615   2.316  0.0078  0.0754  0.4420
 1676TIP3    H1 5034   0.302   1.530   2.357 -1.6189  0.4578  0.7918
 1676TIP3    H2 5035   0.375   1.661   2.374  0.3794 -0.5992  0.5954
 1677TIP3   OH2 5036   5.045   1.279   1.300  0.0504  0.1043 -0.0024
 1677TIP3    H1 5037   5.079   1.347   1.241  0.0264  0.2972  0.2061
 1677TIP3    H2 5038   5.115   1.265   1.363  0.2845 -0.4739 -0.3798
 1678TIP3   OH2 5039   6.311   1.686   3.270 -0.0698 -0.1550 -0.2234
 1678TIP3    H1 5040   6.348   1.621   3.330  0.2869  0.3388  0.1004
 1678TIP3    H2 5041   6.285   1.758   3.327 -1.2794 -0.3771 -0.4796
 1679TIP3   OH2 5042   3.032   0.664   1.649 -0.2851 -0.2366 -0.0826
 1679TIP3    H1 5043   2.994   0.748   1.674 -2.1451 -0.5277 -1.8083
 1679TIP3    H2 5044   2.999   0.649   1.561  2.3753 -1.4163 -0.9032
 1680TIP3   OH2 5045   3.830   2.901   2.114  0.1661  0.2867  0.3240
 1680TIP3    H1 5046   3.828   2.903   2.209  1.2553  1.6743  0.3426
 1680TIP3    H2 5047   3.746   2.937   2.087  0.8313  2.2259  0.7774
 1681TIP3   OH2 5048   4.454   1.556   3.808  0.3352  0.4491  0.2637
 1681TIP3    H1 5049   4.439   1.561   3.713 -0.2521 -1.0763  0.2612
 1681TIP3    H2 5050   4.537   1.601   3.821 -0.3356  2.0454 -0.7679
 1682TIP3   OH2 5051   3.615   0.282   1.590  0.2806 -0.4407 -0.2777
 1682TIP3    H1 5052   3.687   0.321   1.542  0.7670 -1.9606 -0.8029
 1682TIP3    H2 5053   3.589   0.206   1.538 -1.4108 -0.1775  0.1230
 1683TIP3   OH2 5054   5.504   2.746   3.373  0.3772  0.0062 -0.3178
 1683TIP3    H1 5055   5.556   2.738   3.293 -0.9639  2.0403 -1.4563
 1683TIP3    H2 5056   5.424   2.790   3.345  0.2462  1.5458  2.3003
 1684TIP3   OH2 5057   1.251   5.035   0.620  0.4762 -0.0536  0.7940
 1684TIP3    H1 5058   1.303   5.012   0.698 -1.6925  0.1301  2.3499
 1684TIP3    H2 5059   1.271   5.128   0.605  1.4393 -0.2712  0.7153
 1685TIP3   OH2 5060   5.013   1.772   4.004 -0.2624  0.2299  0.0942
 1685TIP3    H1 5061   4.927   1.732   3.986  0.6007 -1.1603 -1.0376
 1685TIP3    H2 5062   5.037   1.737   4.090 -0.0074 -0.8231 -0.4039
 1686TIP3   OH2 5063   4.771   3.562   0.705  0.2408 -0.1760  0.5963
 1686TIP3    H1 5064   4.781   3.480   0.753  0.9246 -0.7875 -0.5741
 1686TIP3    H2 5065   4.689   3.551   0.656 -1.6291  1.2997  3.2352
 1687TIP3   OH2 5066   3.502   0.836   4.742 -0.3161 -0.2717 -0.1526
 1687TIP3    H1 5067   3.471   0.756   4.699  0.2211 -0.4182 -0.2619
 1687TIP3    H2 5068   3.591   0.817   4.769 -0.5418 -0.0581  0.7431
 1688TIP3   OH2 5069   4.279   1.702   1.855  0.2988 -0.2582 -0.5016
 1688TIP3    H1 5070   4.345   1.768   1.835 -0.3600  0.3037 -0.8713
 1688TIP3    H2 5071   4.196   1.750   1.853 -0.0412 -0.7713  0.8434
 1689TIP3   OH2 5072   6.117   2.529   4.284  0.0538 -0.8414 -0.2183
 1689TIP3    H1 5073   6.132   2.624   4.279  0.0798 -0.8756 -0.7341
 1689TIP3    H2 5074   6.039   2.520   4.339  0.6085 -0.5603  0.6323
 1690TIP3   OH2 5075   6.428   1.417   2.205  0.5851 -0.1165 -0.1916
 1690TIP3    H1 5076   6.377   1.491   2.239 -1.0404 -0.7321 -1.2415
 1690TIP3    H2 5077   6.469   1.378   2.283  0.7293  1.3381  0.4714
 1691TIP3   OH2 5078   3.424   2.612   2.371  0.0169  0.8443 -0.1996
 1691TIP3    H1 5079   3.504   2.607   2.424  0.1732 -0.3125 -0.5248
 1691TIP3    H2 5080   3.378   2.689   2.404  1.2152  1.4589  0.0632
 1692TIP3   OH2 5081   4.817   0.625   3.568 -0.0423 -0.0711  0.3775
 1692TIP3    H1 5082   4.813   0.532   3.589  1.5346  0.0781  1.4614
 1692TIP3    H2 5083   4.866   0.628   3.486 -2.3152 -0.3525 -1.0170
 1693TIP3   OH2 5084   4.385   1.351   4.701  0.5730 -0.3704 -0.0481
 1693TIP3    H1 5085   4.410   1.287   4.768  1.6855  0.9374  0.7981
 1693TIP3    H2 5086   4.289   1.346   4.699  0.5962 -1.3772  0.6786
 1694TIP3   OH2 5087   5.987   0.828   2.790 -0.0211  0.3925 -0.2912
 1694TIP3    H1 5088   5.961   0.771   2.717  0.9593 -2.7529  1.7458
 1694TIP3    H2 5089   6.083   0.823   2.791  0.0196  1.2440  0.6286
 1695TIP3   OH2 5090   4.049   2.478   2.505 -0.3963  0.0327 -0.0960
 1695TIP3    H1 5091   3.980   2.531   2.466  0.9278  2.8575  1.2291
 1695TIP3    H2 5092   4.015   2.452   2.591 -1.5240 -2.3714 -1.2245
 1696TIP3   OH2 5093   2.401   5.431   3.041  0.6542 -0.9142 -0.1788
 1696TIP3    H1 5094   2.464   5.503   3.031  0.0362 -0.3662 -0.2350
 1696TIP3    H2 5095   2.396   5.392   2.954 -1.9975  1.5448 -1.2420
 1697TIP3   OH2 5096   3.917   1.508   3.212 -0.5582 -0.0702  0.8470
 1697TIP3    H1 5097   3.887   1.417   3.211  0.8710 -0.5597  0.7722
 1697TIP3    H2 5098   4.006   1.503   3.248  0.6942  0.9118 -1.9495
 1698TIP3   OH2 5099   3.927   4.508   2.979 -0.0419 -0.4467  0.7535
 1698TIP3    H1 5100   3.852   4.531   3.033  0.0556 -0.0764  0.7324
 1698TIP3    H2 5101   3.957   4.424   3.013 -0.3456 -0.4992  0.8883
 1699TIP3   OH2 5102   5.242   2.628   3.540  0.6399  0.7080 -0.2821
 1699TIP3    H1 5103   5.223   2.576   3.462 -0.3001  0.5416  0.0576
 1699TIP3    H2 5104   5.163   2.622   3.593  1.5809  0.1673  1.0630
 1700TIP3   OH2 5105   4.840   1.444   3.287 -0.1914  0.5732  0.1848
 1700TIP3    H1 5106   4.763   1.445   3.231  0.2732  1.5521 -0.4646
 1700TIP3    H2 5107   4.913   1.424   3.228  0.4224  2.4675  0.2518
 1701TIP3   OH2 5108   4.756   1.413   2.045  0.6753  0.0092  0.0873
 1701TIP3    H1 5109   4.807   1.436   1.968 -0.5915 -0.2804 -0.8582
 1701TIP3    H2 5110   4.718   1.495   2.075  0.5505  0.0026 -0.0532
 1702TIP3   OH2 5111   5.733   1.689   1.940 -0.2807 -0.1875 -0.5445
 1702TIP3    H1 5112   5.649   1.702   1.985  0.1141  0.4100  0.0307
 1702TIP3    H2 5113   5.733   1.596   1.916 -0.5800 -0.4637  0.5159
 1703TIP3   OH2 5114   6.110   3.446   1.731 -0.2252 -0.3073  0.1532
 1703TIP3    H1 5115   6.182   3.499   1.697 -1.0116  0.2406 -0.6655
 1703TIP3    H2 5116   6.103   3.372   1.671 -0.2717 -0.4197  0.2956
 1704TIP3   OH2 5117   5.708   1.346   0.568  0.1489 -0.2660  0.1645
 1704TIP3    H1 5118   5.794   1.327   0.605  0.0998 -0.3138  0.2538
 1704TIP3    H2 5119   5.655   1.371   0.644  0.7708  2.2827 -0.1820
 1705TIP3   OH2 5120   5.461   0.033   1.727  0.2117  0.6218  0.1679
 1705TIP3    H1 5121   5.489   0.124   1.735  1.1852  0.5336 -1.8895
 1705TIP3    H2 5122   5.440   0.023   1.634 -1.0044 -0.9478  0.5964
 1706TIP3   OH2 5123   2.767   2.736   3.032 -0.3100 -0.4151 -0.5466
 1706TIP3    H1 5124   2.763   2.704   2.942  0.4836 -0.1531 -0.6748
 1706TIP3    H2 5125   2.701   2.805   3.036 -0.1741 -0.2639 -0.9876
 1707TIP3   OH2 5126   4.569   0.047   4.147  0.1083  0.1281  0.0435
 1707TIP3    H1 5127   4.529  -0.041   4.145  2.2670 -0.8787  0.4176
 1707TIP3    H2 5128   4.660   0.033   4.121  0.5458  2.2331  0.3732
 1708TIP3   OH2 5129   0.147   1.701   4.005 -0.1069 -0.5658 -0.3882
 1708TIP3    H1 5130   0.054   1.722   4.005  0.1304  0.5929 -1.7965
 1708TIP3    H2 5131   0.190   1.784   3.981  1.2373 -1.2257 -0.3002
 1709TIP3   OH2 5132   6.475   1.505   4.525  0.4468 -0.2631 -1.0574
 1709TIP3    H1 5133   6.416   1.490   4.452  0.4790 -0.4142 -1.0537
 1709TIP3    H2 5134   6.419   1.534   4.597  0.2811 -1.1162 -0.8367
 1710TIP3   OH2 5135   6.245   1.583   2.614  0.4447 -0.4225  0.0456
 1710TIP3    H1 5136   6.260   1.604   2.521  0.0323 -0.2800  0.0087
 1710TIP3    H2 5137   6.175   1.643   2.640  0.5248 -0.5017  0.4354
 1711TIP3   OH2 5138   4.274   2.952   2.107 -0.6677 -0.0257  0.0336
 1711TIP3    H1 5139   4.314   2.938   2.021 -1.5808 -1.4422 -0.1693
 1711TIP3    H2 5140   4.236   2.868   2.130 -1.2453  0.6008  1.4189
 1712TIP3   OH2 5141   5.514   1.177   0.435 -0.0073 -0.1452 -0.4252
 1712TIP3    H1 5142   5.548   1.087   0.429  1.4273  0.4504 -1.5120
 1712TIP3    H2 5143   5.590   1.230   0.457 -0.4941  1.0374 -1.5051
 1713TIP3   OH2 5144   6.213   0.284   5.208  0.3593  0.0309 -0.2367
 1713TIP3    H1 5145   6.209   0.258   5.300 -1.3146 -1.7916 -0.8040
 1713TIP3    H2 5146   6.128   0.327   5.192  0.1005 -0.8647 -1.2756
 1714TIP3   OH2 5147   5.428   2.657   3.067 -0.1077  0.2188  0.1248
 1714TIP3    H1 5148   5.485   2.645   2.992  0.8557  1.3555  0.6675
 1714TIP3    H2 5149   5.465   2.600   3.135 -0.3075  0.0649  0.1054
 1715TIP3   OH2 5150   2.262   5.810   0.917  0.3799 -0.1185  0.3332
 1715TIP3    H1 5151   2.350   5.838   0.893  0.0312  0.0101 -0.8323
 1715TIP3    H2 5152   2.251   5.840   1.007  1.3774  0.2199  0.3475
 1716TIP3   OH2 5153   4.098   0.010   2.141  0.1720 -0.5605 -0.0005
 1716TIP3    H1 5154   4.006   0.023   2.163  0.3629  1.0225 -0.0437
 1716TIP3    H2 5155   4.144   0.015   2.225  0.2135 -1.3827  0.0250
 1717TIP3   OH2 5156   6.010   0.934   0.929 -0.2622 -0.4186 -1.2066
 1717TIP3    H1 5157   5.976   0.949   1.017 -2.3599 -0.8483 -1.9068
 1717TIP3    H2 5158   5.938   0.959   0.871  1.2774  0.3540 -2.8182
 1718TIP3   OH2 5159   3.548   0.251   1.031 -0.3202 -0.4215 -0.1821
 1718TIP3    H1 5160   3.548   0.287   1.120 -0.7760  2.3676 -1.2658
 1718TIP3    H2 5161   3.459   0.219   1.019 -0.8724  1.1050 -0.3346
 1719TIP3   OH2 5162   5.561   3.936   1.985 -0.1692  0.2233  0.0299
 1719TIP3    H1 5163   5.478   3.899   1.954  0.9852 -2.1238 -0.3893
 1719TIP3    H2 5164   5.591   3.874   2.052  1.1384  1.1478  0.3095
 1720TIP3   OH2 5165   3.905   0.683   1.478 -0.1915  0.3439 -0.4855
 1720TIP3    H1 5166   3.968   0.638   1.534 -1.0146 -0.0303  0.1483
 1720TIP3    H2 5167   3.959   0.737   1.419  0.6887  0.7682  0.6896
 1721TIP3   OH2 5168   5.105   1.299   1.983 -0.0551  0.0301  0.3970
 1721TIP3    H1 5169   5.149   1.220   2.016 -2.2318 -0.4244  2.3959
 1721TIP3    H2 5170   5.012   1.275   1.981 -0.6328  2.1834 -0.0633
 1722TIP3   OH2 5171   5.374   1.383   1.977  0.2732 -0.4144  0.3645
 1722TIP3    H1 5172   5.388   1.462   1.924 -1.0840  0.5405  1.3737
 1722TIP3    H2 5173   5.283   1.359   1.961 -0.1857 -0.0402  2.3221
 1723TIP3   OH2 5174   5.674   1.901   0.149  0.4122  0.0010  0.1246
 1723TIP3    H1 5175   5.669   1.950   0.066  1.2428  0.4755  0.3507
 1723TIP3    H2 5176   5.672   1.969   0.216 -1.2953 -0.4352  0.5357
 1724TIP3   OH2 5177   0.892   0.867   3.020  0.0090  0.0640  0.2326
 1724TIP3    H1 5178   0.922   0.906   3.102 -0.4257  1.3906 -0.2265
 1724TIP3    H2 5179   0.866   0.777   3.043 -1.6232  0.9271  1.8699
 1725TIP3   OH2 5180   0.835   3.914   3.068 -0.2342  0.0041 -0.5787
 1725TIP3    H1 5181   0.840   3.968   2.989  0.6790 -0.6751 -0.9939
 1725TIP3    H2 5182   0.742   3.911   3.090 -0.3343  1.3813 -0.8022
 1726TIP3   OH2 5183   6.260   1.080   1.334  0.8651  0.0319 -0.2972
 1726TIP3    H1 5184   6.269   1.167   1.372  0.0419 -0.2851  0.6571
 1726TIP3    H2 5185   6.280   1.091   1.242 -3.0109  1.9965 -0.9958
 1727TIP3   OH2 5186   6.344   3.346   3.957  0.0281 -0.6431  0.0875
 1727TIP3    H1 5187   6.352   3.441   3.971  2.0481 -0.6787 -0.6002
 1727TIP3    H2 5188   6.396   3.307   4.027  0.4177 -1.1917 -0.5005
 1728TIP3   OH2 5189   4.312   0.578   3.235 -0.0684  0.3781  0.5059
 1728TIP3    H1 5190   4.274   0.491   3.226 -0.6350  0.4761  1.8318
 1728TIP3    H2 5191   4.406   0.562   3.247  0.1868  0.0877 -1.5830
 1729TIP3   OH2 5192   3.329   0.854   1.390  0.4822  0.2342  0.6307
 1729TIP3    H1 5193   3.258   0.893   1.440  0.9693 -2.0840  3.2210
 1729TIP3    H2 5194   3.409   0.884   1.433  0.9498 -0.5408  0.3209
 1730TIP3   OH2 5195   4.564   1.250   2.822 -0.4550 -0.5326  0.0315
 1730TIP3    H1 5196   4.559   1.171   2.768  1.4720 -1.7252  1.5524
 1730TIP3    H2 5197   4.551   1.218   2.912  0.3930  0.8814  0.6610
 1731TIP3   OH2 5198   0.355   0.899   1.246 -0.1395  0.8306  0.2027
 1731TIP3    H1 5199   0.402   0.835   1.193 -0.6212  1.7372 -1.3564
 1731TIP3    H2 5200   0.263   0.871   1.241 -0.2138  1.0402  0.3785
 1732TIP3   OH2 5201   3.591   2.861   3.793 -0.3635 -0.3821 -0.1214
 1732TIP3    H1 5202   3.533   2.802   3.745 -0.7024 -1.1419  1.2094
 1732TIP3    H2 5203   3.647   2.899   3.726 -1.6648 -0.4709 -1.2910
 1733TIP3   OH2 5204   3.661   1.400   3.065  0.0120  0.6787 -0.3133
 1733TIP3    H1 5205   3.742   1.368   3.105  0.7199  0.9933 -1.4474
 1733TIP3    H2 5206   3.591   1.357   3.114  0.9175 -2.0977 -1.3134
 1734TIP3   OH2 5207   4.441   2.251   0.532  0.1215  0.3915  0.2761
 1734TIP3    H1 5208   4.430   2.156   0.531 -2.4121  0.6522 -0.6718
 1734TIP3    H2 5209   4.381   2.281   0.601 -0.2534  1.3936 -0.4724
 1735TIP3   OH2 5210   5.048   2.071   4.346 -0.3635 -0.0633 -0.3724
 1735TIP3    H1 5211   5.078   2.161   4.338 -0.5650 -0.0225 -0.6763
 1735TIP3    H2 5212   4.973   2.077   4.405 -0.4704 -0.0090 -0.5120
 1736TIP3   OH2 5213   1.236   1.264   4.394  0.8545  0.1917  0.2695
 1736TIP3    H1 5214   1.148   1.302   4.402  0.3099 -0.7870 -1.0108
 1736TIP3    H2 5215   1.295   1.337   4.414 -0.1990  1.4309 -1.0755
 1737TIP3   OH2 5216   3.109   3.897   2.264  0.0318  0.2242 -0.5947
 1737TIP3    H1 5217   3.061   3.816   2.249 -1.7202  1.3383 -1.1257
 1737TIP3    H2 5218   3.199   3.869   2.282 -0.1744 -1.7507 -2.4757
 1738TIP3   OH2 5219   5.148   1.091   3.174 -0.3411 -0.6045  0.2304
 1738TIP3    H1 5220   5.113   1.031   3.240 -0.1037 -0.5459  0.4129
 1738TIP3    H2 5221   5.235   1.113   3.207 -0.4957 -0.0280  0.2485
 1739TIP3   OH2 5222   1.082   0.251   2.311  1.0475  0.1527 -0.3216
 1739TIP3    H1 5223   1.086   0.218   2.221 -0.9206 -0.7849 -0.0732
 1739TIP3    H2 5224   1.167   0.295   2.323  1.5124 -0.0648 -2.4804
 1740TIP3   OH2 5225   4.347   2.657   3.059  0.5627  0.5114 -0.5996
 1740TIP3    H1 5226   4.292   2.646   3.137  1.4329  2.5155  0.3187
 1740TIP3    H2 5227   4.434   2.674   3.094  0.9668  1.4154 -2.0196
 1741TIP3   OH2 5228   4.162   2.408   1.481 -0.1094 -0.5694 -0.1903
 1741TIP3    H1 5229   4.246   2.362   1.489 -0.1514 -0.4857  0.8331
 1741TIP3    H2 5230   4.138   2.429   1.571 -0.5164  0.7040 -0.5884
 1742TIP3   OH2 5231   6.173   1.904   2.462 -0.1292  0.1833  0.1674
 1742TIP3    H1 5232   6.154   1.949   2.544  0.8901 -0.0492  0.5305
 1742TIP3    H2 5233   6.115   1.827   2.463 -0.5517  0.5035  0.3845
 1743TIP3   OH2 5234   5.655   2.326   2.334 -0.0751 -0.1939  0.1427
 1743TIP3    H1 5235   5.698   2.242   2.354 -0.0731 -0.0151  0.8930
 1743TIP3    H2 5236   5.686   2.385   2.402  0.5065  0.6258 -0.8194
 1744TIP3   OH2 5237   4.012   1.548   4.204 -0.3282 -0.0881 -0.0964
 1744TIP3    H1 5238   4.070   1.599   4.260  0.1092 -0.3089 -0.3394
 1744TIP3    H2 5239   3.982   1.609   4.138  0.0653 -0.1049 -0.2922
 1745TIP3   OH2 5240   1.425   2.505   2.640  0.8023  0.3059  0.9778
 1745TIP3    H1 5241   1.495   2.441   2.654 -0.5026 -1.1026  1.2631
 1745TIP3    H2 5242   1.345   2.458   2.664 -0.5164  1.0603 -1.7679
 1746TIP3   OH2 5243   5.074   1.796   1.351  0.0272  0.4699  1.2853
 1746TIP3    H1 5244   4.984   1.787   1.383 -0.3142 -0.5033  0.0773
 1746TIP3    H2 5245   5.095   1.888   1.366 -1.6076  1.0010  0.4637
 1747TIP3   OH2 5246   2.637   6.117   0.972  0.3422 -0.3521 -0.5507
 1747TIP3    H1 5247   2.588   6.035   0.964 -0.0131 -0.1976 -0.0172
 1747TIP3    H2 5248   2.726   6.094   0.945 -0.5547 -0.0269 -3.9701
 1748TIP3   OH2 5249   5.506   2.292   0.493 -0.0636 -0.2652  0.2890
 1748TIP3    H1 5250   5.525   2.225   0.559 -0.2479 -1.7417 -1.1306
 1748TIP3    H2 5251   5.592   2.317   0.458 -0.1201 -1.0988 -0.4622
 1749TIP3   OH2 5252   1.947   4.464   5.200  0.1567  0.2000  0.1256
 1749TIP3    H1 5253   2.024   4.465   5.256 -0.5491  0.1023  1.1153
 1749TIP3    H2 5254   1.978   4.496   5.116  0.7928  2.3590  1.1500
 1750TIP3   OH2 5255   6.018   1.947   1.000 -0.2968  0.6421 -0.4041
 1750TIP3    H1 5256   5.949   1.926   0.936 -0.5922  3.7370 -1.1956
 1750TIP3    H2 5257   5.989   1.905   1.081 -1.3276 -1.0294 -1.5977
 1751TIP3   OH2 5258   4.343   3.029   0.629 -0.2119 -0.3440  0.0506
 1751TIP3    H1 5259   4.324   3.089   0.557  1.1835 -0.2704 -0.2838
 1751TIP3    H2 5260   4.278   3.049   0.695  0.0578  1.3579 -0.1743
 1752TIP3   OH2 5261   2.303   5.867   2.645 -0.1660 -0.4760 -0.3062
 1752TIP3    H1 5262   2.392   5.843   2.670  0.9753  1.7601 -1.9911
 1752TIP3    H2 5263   2.278   5.802   2.579 -0.4053 -2.0050  1.2460
 1753TIP3   OH2 5264   0.158   1.402   2.774  0.1332  0.3921  0.6454
 1753TIP3    H1 5265   0.191   1.467   2.712  1.4472 -1.7481 -0.9699
 1753TIP3    H2 5266   0.070   1.381   2.742 -0.1997  1.1908  1.0311
 1754TIP3   OH2 5267   2.354   1.653   2.763  0.5554 -0.0248 -0.0003
 1754TIP3    H1 5268   2.398   1.570   2.780  0.4882  0.1669  1.0991
 1754TIP3    H2 5269   2.316   1.678   2.847 -0.6080  0.4211 -0.6565
 1755TIP3   OH2 5270   5.394   1.144   3.291  0.2267  0.0314 -0.5509
 1755TIP3    H1 5271   5.443   1.110   3.217  0.2645 -1.8576  0.3081
 1755TIP3    H2 5272   5.459   1.196   3.340  1.0470 -1.3727 -0.1184
 1756TIP3   OH2 5273   4.029   0.670   1.915  0.0694 -0.3749  0.2582
 1756TIP3    H1 5274   4.045   0.647   2.007  1.7699 -0.4635 -0.0329
 1756TIP3    H2 5275   3.955   0.730   1.918 -0.7179 -1.3686  1.5671
 1757TIP3   OH2 5276   4.688   2.897   2.885  0.5240  0.0854 -0.0496
 1757TIP3    H1 5277   4.605   2.939   2.865 -0.0744 -1.3861 -0.7021
 1757TIP3    H2 5278   4.725   2.949   2.957 -1.4945  0.0591  1.0195
 1758TIP3   OH2 5279   0.739   1.108   3.249  0.9584 -0.0386  0.4628
 1758TIP3    H1 5280   0.772   1.141   3.166  0.4911  2.5482  1.2424
 1758TIP3    H2 5281   0.694   1.183   3.288 -2.2643 -2.3211  1.2928
 1759TIP3   OH2 5282   5.443   2.018   1.430 -0.3611  0.4068 -0.7649
 1759TIP3    H1 5283   5.426   1.931   1.394  2.6051 -0.6639  0.2934
 1759TIP3    H2 5284   5.445   2.005   1.524 -0.1893  1.7080 -0.5857
 1760TIP3   OH2 5285   4.242   2.878   1.569 -0.5728  0.1224 -0.1469
 1760TIP3    H1 5286   4.254   2.784   1.580  2.1281  0.3483 -0.7505
 1760TIP3    H2 5287   4.285   2.917   1.646 -3.7699  0.8314  1.3755
 1761TIP3   OH2 5288   3.089   5.871   0.303 -1.1570  0.3465 -0.0475
 1761TIP3    H1 5289   3.091   5.801   0.238  0.7025 -0.7969  1.1857
 1761TIP3    H2 5290   2.997   5.894   0.312 -1.3988  1.0507 -3.6107
 1762TIP3   OH2 5291   3.348   5.091   3.535  0.1817  0.5096 -1.0355
 1762TIP3    H1 5292   3.308   5.023   3.481 -0.1323  0.9800 -1.3961
 1762TIP3    H2 5293   3.284   5.162   3.537  0.3823  0.6777 -0.4124
 1763TIP3   OH2 5294   1.400   1.098   3.329 -0.4386 -0.0355 -0.2587
 1763TIP3    H1 5295   1.387   1.050   3.247 -0.2571 -0.5384  0.0024
 1763TIP3    H2 5296   1.494   1.090   3.347 -0.7216 -1.2555  0.7914
 1764TIP3   OH2 5297   5.301   5.977   3.499 -0.9085  0.4585 -0.4185
 1764TIP3    H1 5298   5.234   5.920   3.538  0.4388 -0.2611  0.8901
 1764TIP3    H2 5299   5.254   6.025   3.430 -2.8948  0.3804  0.8382
 1765TIP3   OH2 5300   5.689   2.911   2.840 -0.4620  0.3829 -0.4248
 1765TIP3    H1 5301   5.596   2.918   2.818 -0.7159 -0.5410  0.3312
 1765TIP3    H2 5302   5.694   2.940   2.931 -0.1333 -0.3311 -0.2125
 1766TIP3   OH2 5303   5.032   0.231   0.151  0.3915  0.4893  0.2141
 1766TIP3    H1 5304   5.097   0.171   0.116 -0.3710 -0.2317  0.0288
 1766TIP3    H2 5305   5.044   0.227   0.246 -0.1746 -0.5511  0.2456
 1767TIP3   OH2 5306   0.551   2.016   2.209 -0.0977  0.3106 -0.2212
 1767TIP3    H1 5307   0.525   2.107   2.196  4.4384  1.8994  0.7884
 1767TIP3    H2 5308   0.566   1.982   2.121  0.1726  1.2032 -0.5254
 1768TIP3   OH2 5309   1.003   1.562   2.758  0.2879  0.6180  0.2403
 1768TIP3    H1 5310   0.928   1.543   2.701 -0.4228 -0.2652  1.4400
 1768TIP3    H2 5311   1.049   1.634   2.714  1.5191 -2.0207 -3.0839
 1769TIP3   OH2 5312   2.007   2.026   3.134  0.8763 -0.6095 -0.4185
 1769TIP3    H1 5313   2.094   2.047   3.101  0.3986  1.6404 -0.2759
 1769TIP3    H2 5314   1.948   2.084   3.086 -0.0957  1.0542  2.6863
 1770TIP3   OH2 5315   6.376   1.253   0.302  0.7020 -0.8581  0.0021
 1770TIP3    H1 5316   6.378   1.174   0.248 -0.0148 -1.5879  1.0229
 1770TIP3    H2 5317   6.407   1.224   0.388  1.0003  0.1067  0.2304
 1771TIP3   OH2 5318   3.385   2.965   2.196 -0.7302  0.1577 -0.3057
 1771TIP3    H1 5319   3.460   3.011   2.234 -0.4486 -0.0071 -0.6636
 1771TIP3    H2 5320   3.333   2.937   2.272 -1.2627  1.6548 -0.0874
 1772TIP3   OH2 5321   0.435   3.132   3.345  0.4217  0.2168 -0.2098
 1772TIP3    H1 5322   0.462   3.224   3.349  0.6196  0.0946  1.4834
 1772TIP3    H2 5323   0.503   3.085   3.393  0.3682 -0.8474 -1.1351
 1773TIP3   OH2 5324   1.289   1.722   1.904 -0.1723  0.5064  0.1475
 1773TIP3    H1 5325   1.207   1.699   1.860  0.4114 -0.7654 -0.3268
 1773TIP3    H2 5326   1.271   1.712   1.997 -0.4347 -0.2140  0.0215
 1774TIP3   OH2 5327   2.577   4.624   2.465  0.0392  0.8505  0.2884
 1774TIP3    H1 5328   2.485   4.633   2.441 -0.6707 -1.8361  1.7492
 1774TIP3    H2 5329   2.599   4.533   2.444  2.1720  1.2751  0.5378
 1775TIP3   OH2 5330   4.184   3.670   2.449  0.4950 -0.1909  0.2110
 1775TIP3    H1 5331   4.160   3.584   2.485  0.3802  0.2124  1.1012
 1775TIP3    H2 5332   4.266   3.692   2.493  0.5990  0.0955 -0.1245
 1776TIP3   OH2 5333   6.195   1.147   3.758 -0.0190  0.0873 -0.2484
 1776TIP3    H1 5334   6.284   1.180   3.773  0.1009 -0.7588  1.0314
 1776TIP3    H2 5335   6.186   1.075   3.821 -1.2595 -0.4771 -1.0612
 1777TIP3   OH2 5336   6.428   0.882   4.150  0.0310 -0.5210 -0.1106
 1777TIP3    H1 5337   6.492   0.868   4.220  0.6470 -1.1140 -0.7744
 1777TIP3    H2 5338   6.385   0.797   4.140  0.7409 -0.7668 -1.2117
 1778TIP3   OH2 5339   2.954   5.078   1.668  0.6434  0.4160 -0.2119
 1778TIP3    H1 5340   3.031   5.095   1.722  2.7303 -0.1772 -2.8761
 1778TIP3    H2 5341   2.944   4.982   1.670 -1.5807  0.6171  2.0709
 1779TIP3   OH2 5342   3.861   0.408   2.952 -0.0430 -0.3167 -0.3467
 1779TIP3    H1 5343   3.955   0.395   2.939 -0.3201 -1.3093 -1.4329
 1779TIP3    H2 5344   3.845   0.378   3.042  0.3629 -1.9625 -0.8037
 1780TIP3   OH2 5345   5.508   2.171   5.247  0.0629 -0.0573  0.0353
 1780TIP3    H1 5346   5.579   2.141   5.191  0.3985  0.2211  0.3097
 1780TIP3    H2 5347   5.550   2.230   5.310 -0.4486  0.2978  0.0450
 1781TIP3   OH2 5348   0.279   2.008   2.217  0.2556 -0.0303  0.8240
 1781TIP3    H1 5349   0.291   1.991   2.311 -0.6699 -0.0494  0.9498
 1781TIP3    H2 5350   0.338   2.080   2.197  1.1351 -0.6340  1.2224
 1782TIP3   OH2 5351   1.599   4.863   0.629  0.1106  0.0519 -0.1343
 1782TIP3    H1 5352   1.535   4.917   0.676  0.5351 -0.4500  1.0159
 1782TIP3    H2 5353   1.614   4.788   0.686  3.6126  1.3642  0.7879
 1783TIP3   OH2 5354   2.248   3.400   4.667  0.0841 -0.3208  0.5787
 1783TIP3    H1 5355   2.313   3.332   4.687 -0.7453 -2.1721 -2.6463
 1783TIP3    H2 5356   2.182   3.356   4.613 -1.6125  2.5471  0.1824
 1784TIP3   OH2 5357   0.122   1.164   2.089  0.0701  0.3307 -0.3617
 1784TIP3    H1 5358   0.027   1.174   2.090  0.0228 -0.1814  0.0135
 1784TIP3    H2 5359   0.155   1.251   2.066 -0.5554  0.0257 -2.5470
 1785TIP3   OH2 5360   2.149   4.967   2.683  0.2471 -0.0716 -0.1728
 1785TIP3    H1 5361   2.239   4.937   2.670  0.1781 -0.4392  0.1813
 1785TIP3    H2 5362   2.133   4.953   2.777  0.1864  0.9789 -0.0161
 1786TIP3   OH2 5363   6.448   0.547   0.155 -0.3814 -0.0922 -0.3629
 1786TIP3    H1 5364   6.446   0.642   0.148  0.4445  0.0216  0.8445
 1786TIP3    H2 5365   6.373   0.517   0.103 -0.4231  1.1919 -1.0483
 1787TIP3   OH2 5366   0.902   1.529   4.278 -0.1422 -0.4825 -0.1215
 1787TIP3    H1 5367   0.991   1.545   4.247  0.2753  1.8764  2.1096
 1787TIP3    H2 5368   0.911   1.461   4.345 -0.1454 -0.8662 -0.5100
 1788TIP3   OH2 5369   0.696   0.949   2.593  0.7448  0.0527 -0.1211
 1788TIP3    H1 5370   0.641   0.870   2.586  0.8891 -0.0055 -0.6417
 1788TIP3    H2 5371   0.725   0.950   2.684  1.3041 -0.8871 -0.2766
 1789TIP3   OH2 5372   5.117   1.922   1.718  0.1813  0.6017  0.3660
 1789TIP3    H1 5373   5.200   1.878   1.737  0.1855 -1.1099 -3.1570
 1789TIP3    H2 5374   5.052   1.875   1.771  1.1844  0.8308  1.8218
 1790TIP3   OH2 5375   3.947   1.683   2.536  0.2644  0.0717 -0.5616
 1790TIP3    H1 5376   3.985   1.770   2.534  1.7525 -0.5672 -0.5241
 1790TIP3    H2 5377   3.853   1.698   2.545  0.5086  1.6624 -0.5787
 1791TIP3   OH2 5378   2.877   3.709   2.733  0.1040 -0.2372 -0.7069
 1791TIP3    H1 5379   2.938   3.678   2.666 -0.8923 -1.3597 -1.1124
 1791TIP3    H2 5380   2.796   3.661   2.716 -1.0674  1.6260 -0.5094
 1792TIP3   OH2 5381   4.659   5.483   0.261 -0.3517 -0.3869 -0.7264
 1792TIP3    H1 5382   4.617   5.442   0.186 -3.1514  1.4026 -0.2115
 1792TIP3    H2 5383   4.670   5.412   0.324 -0.8163 -1.2680 -1.6259
 1793TIP3   OH2 5384   1.234   3.245   2.462 -0.3224  0.0438  0.1434
 1793TIP3    H1 5385   1.224   3.153   2.486 -0.7413 -0.6244 -2.4397
 1793TIP3    H2 5386   1.317   3.249   2.415 -1.3494  0.5425 -1.6786
 1794TIP3   OH2 5387   5.952   2.505   4.500 -0.1890  0.4538  0.3079
 1794TIP3    H1 5388   6.018   2.436   4.510 -0.7735 -0.3364 -1.2114
 1794TIP3    H2 5389   5.958   2.555   4.581  0.3264 -1.3128  1.3887
 1795TIP3   OH2 5390   0.376   2.670   4.621  0.7416 -0.0065 -0.3818
 1795TIP3    H1 5391   0.399   2.627   4.539 -0.7053 -0.9329 -0.3048
 1795TIP3    H2 5392   0.281   2.663   4.627  0.8417 -0.1478  1.4667
 1796TIP3   OH2 5393   4.448   1.222   1.462  0.1755  0.3880 -0.1718
 1796TIP3    H1 5394   4.508   1.253   1.530  1.0944  1.1685 -1.3286
 1796TIP3    H2 5395   4.361   1.236   1.499  0.6800 -0.1377  1.2571
 1797TIP3   OH2 5396   0.926   2.310   3.138 -0.1529  0.4266 -0.0614
 1797TIP3    H1 5397   0.938   2.367   3.062  1.1785  1.4264  0.8632
 1797TIP3    H2 5398   0.834   2.284   3.135 -0.1017  0.3918 -2.0391
 1798TIP3   OH2 5399   5.793   4.983   2.868  0.0315  0.4744  0.0350
 1798TIP3    H1 5400   5.715   5.039   2.869  0.0095  0.4534  1.5041
 1798TIP3    H2 5401   5.762   4.899   2.835 -0.3503  0.7669 -0.3557
 1799TIP3   OH2 5402   1.658   2.079   3.596 -0.1630 -0.2348 -0.2104
 1799TIP3    H1 5403   1.586   2.076   3.659 -0.9254  2.3878 -0.8717
 1799TIP3    H2 5404   1.729   2.125   3.643  0.4995 -1.3537 -0.1088
 1800TIP3   OH2 5405   5.726   3.209   2.914 -0.2298  0.6559 -0.5561
 1800TIP3    H1 5406   5.677   3.282   2.951 -0.5506  0.1524  0.0308
 1800TIP3    H2 5407   5.658   3.147   2.887  0.1014 -0.4190  1.0270
 1801TIP3   OH2 5408   0.860   0.196   3.512 -0.0160 -0.0215 -0.0902
 1801TIP3    H1 5409   0.775   0.237   3.529 -0.0015  0.4832 -1.1788
 1801TIP3    H2 5410   0.847   0.148   3.430  0.9894  0.8208 -0.7610
 1802TIP3   OH2 5411   5.886   3.139   3.469 -0.0331 -0.4701  0.6120
 1802TIP3    H1 5412   5.865   3.227   3.499 -0.4073  0.1094 -1.2853
 1802TIP3    H2 5413   5.971   3.148   3.425  0.1911 -1.1708  0.8866
 1803TIP3   OH2 5414   1.421   2.938   2.905 -0.0805  0.0715  0.0044
 1803TIP3    H1 5415   1.395   2.971   2.991 -2.3329 -0.4810 -0.4290
 1803TIP3    H2 5416   1.394   3.006   2.844  2.3015  0.8545 -0.2191
 1804TIP3   OH2 5417   2.227   3.043   3.884  0.1857 -0.2231 -0.0444
 1804TIP3    H1 5418   2.258   3.108   3.821  0.5808 -0.2672  0.1014
 1804TIP3    H2 5419   2.217   2.963   3.832 -2.1692  0.4189 -0.6394
 1805TIP3   OH2 5420   1.249   2.508   0.789  0.2822 -0.2669  0.3450
 1805TIP3    H1 5421   1.190   2.499   0.864 -1.8500 -0.5179 -1.3152
 1805TIP3    H2 5422   1.193   2.537   0.717  2.2940  0.0240 -1.1616
 1806TIP3   OH2 5423   5.036   2.989   3.382 -0.1414 -0.1518 -0.0667
 1806TIP3    H1 5424   5.131   2.987   3.389 -0.0246  1.5882 -0.7741
 1806TIP3    H2 5425   5.009   3.062   3.438 -1.0938 -0.7992  0.3444
 1807TIP3   OH2 5426   2.367   2.140   2.549  0.4054  0.5578  0.2381
 1807TIP3    H1 5427   2.399   2.075   2.613 -1.8585  0.8231  1.6843
 1807TIP3    H2 5428   2.386   2.224   2.591  0.8100  0.7797 -0.3913
 1808TIP3   OH2 5429   0.670   1.801   3.471 -0.4875  0.3244 -0.0967
 1808TIP3    H1 5430   0.760   1.817   3.501 -0.1468 -2.1180  0.2928
 1808TIP3    H2 5431   0.615   1.817   3.547  0.0817 -2.6939  1.0122
 1809TIP3   OH2 5432   0.845   1.036   3.999 -0.4999 -0.5036 -0.3220
 1809TIP3    H1 5433   0.875   1.035   4.089  0.2327 -0.0340 -0.5569
 1809TIP3    H2 5434   0.813   1.125   3.985  0.9995 -0.0648 -1.0417
 1810TIP3   OH2 5435   3.024   0.547   3.556 -0.3576  0.2784 -0.3922
 1810TIP3    H1 5436   3.010   0.455   3.533  0.3162  0.6594 -2.4815
 1810TIP3    H2 5437   3.115   0.551   3.585 -0.0336  0.4832 -1.4232
 1811TIP3   OH2 5438   2.002   0.028   3.636  0.0727 -0.3115  0.3204
 1811TIP3    H1 5439   2.020   0.018   3.542  0.6736 -1.2890  0.5322
 1811TIP3    H2 5440   1.921  -0.022   3.650 -0.7070  0.8721  0.0950
 1812TIP3   OH2 5441   0.025   3.618   2.609  0.0341 -0.5903  0.6671
 1812TIP3    H1 5442  -0.066   3.586   2.605 -0.2360  0.2723 -1.0181
 1812TIP3    H2 5443   0.065   3.584   2.529  1.3733 -1.4574  1.7057
 1813TIP3   OH2 5444   6.390   1.047   1.075  0.6180  0.3585  0.1912
 1813TIP3    H1 5445   6.483   1.026   1.066  0.2197 -1.0938 -0.7437
 1813TIP3    H2 5446   6.346   0.962   1.065 -0.9039  1.2844 -1.0650
 1814TIP3   OH2 5447   1.369   0.343   1.825  0.4792 -0.8171  0.0256
 1814TIP3    H1 5448   1.335   0.432   1.831  1.2919 -0.6029  1.6923
 1814TIP3    H2 5449   1.292   0.287   1.828  0.0596 -0.2180  0.4749
 1815TIP3   OH2 5450   1.814   2.167   4.230 -0.7918  0.3652  0.1429
 1815TIP3    H1 5451   1.879   2.099   4.210 -0.1013  1.0373  0.0858
 1815TIP3    H2 5452   1.781   2.144   4.317 -0.8846 -0.2938 -0.0615
 1816TIP3   OH2 5453   1.610   2.776   1.893  0.0443  0.2912  0.2153
 1816TIP3    H1 5454   1.626   2.700   1.837 -0.0045  0.1588  0.3790
 1816TIP3    H2 5455   1.697   2.812   1.909  0.0672  0.2752  0.1279
 1817TIP3   OH2 5456   2.107   1.359   4.467 -0.7338  0.5001  0.5050
 1817TIP3    H1 5457   2.022   1.320   4.446 -0.4792  0.2866 -0.1405
 1817TIP3    H2 5458   2.138   1.395   4.384  0.7152 -1.1940  0.2974
 1818TIP3   OH2 5459   2.959   4.646   0.432  0.5485 -0.1016  0.4336
 1818TIP3    H1 5460   2.999   4.580   0.376 -1.7063 -1.4454  0.3791
 1818TIP3    H2 5461   2.915   4.597   0.501 -2.1602  1.2700 -0.2760
 1819TIP3   OH2 5462   1.709   2.603   3.758  0.0311  0.2308 -0.0738
 1819TIP3    H1 5463   1.803   2.592   3.769  0.0711 -0.2222 -0.8589
 1819TIP3    H2 5464   1.697   2.697   3.749  0.4596  0.2495 -0.4632
 1820TIP3   OH2 5465   1.022   0.592   3.653 -0.4670 -0.3445  0.2958
 1820TIP3    H1 5466   0.962   0.549   3.714 -0.2109 -0.1238  0.7055
 1820TIP3    H2 5467   0.977   0.673   3.630 -1.5514 -1.4348 -1.5074
 1821TIP3   OH2 5468   0.934   1.867   3.540  0.0045  0.1502 -0.7304
 1821TIP3    H1 5469   0.962   1.874   3.449 -0.1423 -0.1154 -0.7989
 1821TIP3    H2 5470   0.995   1.804   3.579  0.4955  0.7811 -0.4663
 1822TIP3   OH2 5471   1.395   1.344   3.020 -0.0642 -0.3010  0.1146
 1822TIP3    H1 5472   1.441   1.260   3.024 -0.2534 -0.4453 -0.6493
 1822TIP3    H2 5473   1.424   1.390   3.099  0.1991 -0.9980  0.4366
 1823TIP3   OH2 5474   1.388   2.062   3.730 -0.0023  0.6179 -0.4694
 1823TIP3    H1 5475   1.338   2.026   3.803 -1.7323  0.2549 -1.8117
 1823TIP3    H2 5476   1.330   2.055   3.654  2.2634 -0.2908 -2.1809
 1824TIP3   OH2 5477   2.782   0.604   2.707 -1.4921  0.1750 -0.0513
 1824TIP3    H1 5478   2.700   0.627   2.750 -1.0011 -0.3851  1.2066
 1824TIP3    H2 5479   2.766   0.520   2.665 -2.0714  0.8754 -1.2873
 1825TIP3   OH2 5480   2.554   5.874   0.915 -0.4866  0.4336 -0.9193
 1825TIP3    H1 5481   2.579   5.811   0.982  2.1725  1.3744 -0.9741
 1825TIP3    H2 5482   2.589   5.838   0.834  0.1929  1.4975 -1.1073
 1826TIP3   OH2 5483   0.759   3.024   2.271 -0.4304  0.0322  0.1106
 1826TIP3    H1 5484   0.819   2.994   2.340  0.5809  0.8069 -0.4287
 1826TIP3    H2 5485   0.781   2.970   2.195  1.2158  1.9101 -0.7870
 1827TIP3   OH2 5486   4.635   2.706   3.129  0.4083  0.2256 -0.1885
 1827TIP3    H1 5487   4.643   2.738   3.219 -2.3785  0.2003  0.1228
 1827TIP3    H2 5488   4.639   2.785   3.075  0.5728  0.3857  0.0521
 1828TIP3   OH2 5489   1.213   1.793   2.671 -0.3948 -0.3746  0.5683
 1828TIP3    H1 5490   1.273   1.732   2.714 -0.4293  0.4250  1.7841
 1828TIP3    H2 5491   1.237   1.879   2.705 -0.9038  0.1951 -0.4826
 1829TIP3   OH2 5492   2.123   2.212   2.890  0.4318 -0.2750  0.6064
 1829TIP3    H1 5493   2.067   2.253   2.824 -0.0595 -0.8018  0.6921
 1829TIP3    H2 5494   2.118   2.272   2.965 -0.2443 -0.4514  0.7118
 1830TIP3   OH2 5495   0.953   1.233   4.751 -0.0488  0.5344 -0.0347
 1830TIP3    H1 5496   0.921   1.303   4.807 -0.5803  0.8223 -0.6952
 1830TIP3    H2 5497   0.877   1.175   4.739 -0.1128  0.8014 -0.9554
 1831TIP3   OH2 5498   1.193   1.440   1.245 -0.1117  0.4660 -0.0803
 1831TIP3    H1 5499   1.260   1.474   1.305 -1.0623  1.1793  0.5903
 1831TIP3    H2 5500   1.124   1.507   1.246 -1.0112 -0.4514 -0.4611
 1832TIP3   OH2 5501   0.831   2.003   2.287 -0.2729  0.3922  0.0010
 1832TIP3    H1 5502   0.738   1.980   2.291 -0.5715  1.6100  0.2974
 1832TIP3    H2 5503   0.871   1.957   2.361 -0.4761 -0.8113 -0.6205
 1833TIP3   OH2 5504   0.522   1.252   4.823 -0.1304 -0.3675  0.1429
 1833TIP3    H1 5505   0.503   1.242   4.730 -0.4160  0.6168  0.0851
 1833TIP3    H2 5506   0.596   1.313   4.826 -1.2656  1.0363  0.6128
 1834TIP3   OH2 5507   2.529   0.437   1.045 -0.0219 -0.0437  0.3031
 1834TIP3    H1 5508   2.583   0.498   1.096  0.2110  0.2059 -0.2471
 1834TIP3    H2 5509   2.487   0.382   1.112  0.0863  0.4450  0.7833
 1835TIP3   OH2 5510   2.417   1.152   3.754 -0.0368  0.2032 -0.3768
 1835TIP3    H1 5511   2.416   1.162   3.658  1.0513  1.5470 -0.2659
 1835TIP3    H2 5512   2.434   1.059   3.768  1.6963  0.3150 -1.5205
 1836TIP3   OH2 5513   1.814   1.125   2.798  0.1309 -0.5003  0.0040
 1836TIP3    H1 5514   1.779   1.046   2.840 -2.5445 -0.1448 -1.4988
 1836TIP3    H2 5515   1.854   1.093   2.717  0.0744 -0.4498 -0.0434
 1837TIP3   OH2 5516   0.693   0.196   4.602 -0.1548  0.6890 -0.0356
 1837TIP3    H1 5517   0.681   0.120   4.545  1.0291 -0.7124  1.5556
 1837TIP3    H2 5518   0.609   0.206   4.647  0.7617 -1.9971  2.4810
 1838TIP3   OH2 5519   6.378   4.789   3.048 -0.0354  0.8567 -0.6551
 1838TIP3    H1 5520   6.301   4.844   3.039 -1.6265 -1.4292 -1.6697
 1838TIP3    H2 5521   6.415   4.786   2.960 -0.6854 -0.6466 -0.8963
 1839TIP3   OH2 5522   3.081   5.387   0.841 -0.0471  0.1876 -0.4322
 1839TIP3    H1 5523   3.160   5.435   0.815  1.4355 -1.8794  0.0962
 1839TIP3    H2 5524   3.058   5.422   0.927 -0.1518  1.3204 -0.9163
 1840TIP3   OH2 5525   1.397   1.876   4.832 -0.0150  0.3467 -0.0642
 1840TIP3    H1 5526   1.450   1.806   4.871  0.4712  0.1442 -1.0804
 1840TIP3    H2 5527   1.459   1.947   4.817 -0.4484  0.8973  0.6710
 1841TIP3   OH2 5528   2.087   1.801   2.256  0.0248 -0.6271 -0.0727
 1841TIP3    H1 5529   2.044   1.739   2.197 -0.5866 -0.1926 -0.0848
 1841TIP3    H2 5530   2.039   1.794   2.338 -0.4523  0.2859 -0.2624
 1842TIP3   OH2 5531   5.701   3.221   3.804 -0.5060  0.6401  0.4545
 1842TIP3    H1 5532   5.728   3.194   3.892  0.5665  1.6502  0.4446
 1842TIP3    H2 5533   5.617   3.266   3.817 -0.7460  0.0873  0.8515
 1843TIP3   OH2 5534   1.600   2.585   2.083 -0.0859 -0.0949  0.0266
 1843TIP3    H1 5535   1.612   2.656   2.019 -1.0227 -1.3646 -1.5805
 1843TIP3    H2 5536   1.689   2.562   2.109  0.2840  0.8492 -0.3507
 1844TIP3   OH2 5537   6.299   2.862   2.691  0.2447 -0.1575 -0.2245
 1844TIP3    H1 5538   6.346   2.801   2.634 -0.2145 -0.4073 -0.3394
 1844TIP3    H2 5539   6.243   2.912   2.631  1.1792  0.9041 -0.2269
 1845TIP3   OH2 5540   2.944   1.693   3.578  0.3102 -0.4511 -0.0677
 1845TIP3    H1 5541   2.930   1.647   3.661 -1.8559 -0.4461 -0.4035
 1845TIP3    H2 5542   2.921   1.784   3.597  1.2825 -0.1492 -0.2988
 1846TIP3   OH2 5543   1.612   4.596   1.631  0.3306 -0.5382 -0.0018
 1846TIP3    H1 5544   1.670   4.631   1.699 -1.4668  0.0079  1.3079
 1846TIP3    H2 5545   1.525   4.627   1.656 -0.5844 -1.6432 -1.7132
 1847TIP3   OH2 5546   1.497   2.905   3.871  0.0707 -0.1237 -0.1160
 1847TIP3    H1 5547   1.426   2.844   3.851 -0.0419  0.1193 -0.4751
 1847TIP3    H2 5548   1.513   2.895   3.965  0.8195 -1.5222 -0.3860
 1848TIP3   OH2 5549   1.192   1.563   3.014  0.0315 -0.3965 -0.2138
 1848TIP3    H1 5550   1.243   1.482   3.016 -1.6957 -1.4836 -0.0731
 1848TIP3    H2 5551   1.146   1.561   2.930 -1.0015 -0.1871  0.3393
 1849TIP3   OH2 5552   2.268   3.848   4.092  0.5964  0.0931  0.0952
 1849TIP3    H1 5553   2.192   3.904   4.078  1.0743  0.1173 -2.6341
 1849TIP3    H2 5554   2.234   3.773   4.142 -1.1986  0.1262 -1.0488
 1850TIP3   OH2 5555   0.377   2.982   1.437  0.0632 -0.1179 -0.2038
 1850TIP3    H1 5556   0.283   2.990   1.425 -0.0036  0.0263  0.3862
 1850TIP3    H2 5557   0.411   2.962   1.350 -0.5772 -0.7876 -0.3103
 1851TIP3   OH2 5558   0.461   0.476   2.798  0.1546  0.2950 -0.1766
 1851TIP3    H1 5559   0.452   0.555   2.745 -0.9618  0.2012 -0.1542
 1851TIP3    H2 5560   0.453   0.506   2.889  4.0329  0.7295  0.0995
 1852TIP3   OH2 5561   1.157   0.869   4.801  0.1128 -0.1082 -0.3311
 1852TIP3    H1 5562   1.167   0.805   4.871 -0.3831 -0.7971 -0.8858
 1852TIP3    H2 5563   1.085   0.926   4.829  2.6192  2.2537  1.6899
 1853TIP3   OH2 5564   0.653   1.799   3.099 -0.3398  0.2794  0.6426
 1853TIP3    H1 5565   0.622   1.861   3.166  2.1342  0.6098  1.5206
 1853TIP3    H2 5566   0.703   1.853   3.038  0.5973 -0.6333  0.6079
 1854TIP3   OH2 5567   0.465   5.875   3.194  0.0894 -0.8344 -0.0614
 1854TIP3    H1 5568   0.438   5.947   3.250  1.2503  0.4349 -1.0802
 1854TIP3    H2 5569   0.418   5.890   3.112 -0.6780 -1.9886  0.1678
 1855TIP3   OH2 5570   0.700   1.882   1.444 -0.4317  0.0310  0.3995
 1855TIP3    H1 5571   0.631   1.937   1.481  0.4455  2.1577 -1.0441
 1855TIP3    H2 5572   0.654   1.807   1.406 -1.6922  0.0840  1.7968
 1856TIP3   OH2 5573   5.880   3.845   1.506  0.3640 -1.2542 -0.4240
 1856TIP3    H1 5574   5.916   3.821   1.591 -0.2280  1.0187  0.5246
 1856TIP3    H2 5575   5.948   3.899   1.465 -0.8585  0.9131  0.2965
 1857TIP3   OH2 5576   2.141   0.560   1.213 -0.0005 -0.2410  0.2196
 1857TIP3    H1 5577   2.088   0.493   1.168  0.3336 -0.2538 -0.1606
 1857TIP3    H2 5578   2.162   0.521   1.298 -1.3697  0.1337  0.7400
 1858TIP3   OH2 5579   5.499   5.546   3.588  0.2280 -0.9279 -0.5314
 1858TIP3    H1 5580   5.551   5.484   3.639  0.0610 -0.1981  0.5604
 1858TIP3    H2 5581   5.461   5.605   3.654 -2.0858 -1.5192 -1.2816
 1859TIP3   OH2 5582   0.054   1.521   3.609  0.1542 -0.1204  0.2842
 1859TIP3    H1 5583   0.056   1.428   3.632  1.0244 -0.2928 -0.4777
 1859TIP3    H2 5584  -0.025   1.531   3.555  1.3056 -0.8776 -1.5679
 1860TIP3   OH2 5585   1.923   1.662   3.638  0.4659  0.1164  0.2315
 1860TIP3    H1 5586   1.996   1.717   3.609  0.4795  0.5350  1.0529
 1860TIP3    H2 5587   1.945   1.638   3.728 -0.0804 -0.3139  0.2504
 1861TIP3   OH2 5588   1.327   1.325   2.512  0.0340  0.8620 -0.1659
 1861TIP3    H1 5589   1.247   1.272   2.505  1.1902 -0.8982 -0.1168
 1861TIP3    H2 5590   1.386   1.288   2.447  1.3306  1.2838  0.7644
 1862TIP3   OH2 5591   0.225   0.515   3.728 -0.0914  0.0633  0.3662
 1862TIP3    H1 5592   0.206   0.423   3.709 -0.2477  0.3159 -0.7365
 1862TIP3    H2 5593   0.275   0.545   3.652  1.7839  0.3298  1.6827
 1863TIP3   OH2 5594   5.219   0.776   4.164  0.6562  0.2859  0.6897
 1863TIP3    H1 5595   5.133   0.760   4.202  1.8809 -2.2663  2.4884
 1863TIP3    H2 5596   5.201   0.790   4.071 -1.6528 -0.6299  0.9570
 1864TIP3   OH2 5597   0.134   0.792   3.709 -0.2695 -0.0035  0.0563
 1864TIP3    H1 5598   0.159   0.721   3.768  1.5076 -0.9987 -1.8268
 1864TIP3    H2 5599   0.066   0.755   3.653 -0.6831  0.3775  0.3051
 1865TIP3   OH2 5600   4.530   3.254   3.846 -0.5227 -0.5191  0.3520
 1865TIP3    H1 5601   4.446   3.267   3.800 -0.8000  0.5340  1.1495
 1865TIP3    H2 5602   4.511   3.278   3.937  0.6404 -0.3165  0.5392
 1866TIP3   OH2 5603   4.242   1.274   3.181 -0.5070  0.3274  0.2084
 1866TIP3    H1 5604   4.199   1.348   3.223 -3.3096 -1.3822  0.4332
 1866TIP3    H2 5605   4.314   1.251   3.241 -1.2183  1.2208  1.4248
 1867TIP3   OH2 5606   1.046   1.300   3.845 -0.4543 -0.2065 -0.3231
 1867TIP3    H1 5607   1.070   1.208   3.856 -0.7208 -0.2376  0.0225
 1867TIP3    H2 5608   1.120   1.340   3.799  0.2780 -0.2891  0.7613
 1868TIP3   OH2 5609   0.663   0.609   4.861  0.4142  0.2874  0.2113
 1868TIP3    H1 5610   0.580   0.638   4.821  0.5126  1.3849  0.7784
 1868TIP3    H2 5611   0.689   0.682   4.917  1.4098 -0.3472  0.5853
 1869TIP3   OH2 5612   3.231   2.129   4.287 -0.0721 -0.1667 -0.1342
 1869TIP3    H1 5613   3.303   2.193   4.292 -2.3618  2.5135 -0.4626
 1869TIP3    H2 5614   3.152   2.182   4.280 -2.0308 -3.0812 -0.9192
 1870TIP3   OH2 5615   1.145   1.982   1.790  1.1139 -0.3277  0.0291
 1870TIP3    H1 5616   1.163   1.914   1.855 -0.5206  0.0790  0.9331
 1870TIP3    H2 5617   1.111   1.934   1.714  2.5288 -0.7566 -0.3356
 1871TIP3   OH2 5618   2.599   2.831   4.488 -0.2549  0.1715  0.3648
 1871TIP3    H1 5619   2.674   2.777   4.463  0.8597  2.1411 -0.6500
 1871TIP3    H2 5620   2.537   2.769   4.527  1.1189 -1.7815 -0.4600
 1872TIP3   OH2 5621   2.058   1.692   1.920  0.0613  0.0301 -0.4247
 1872TIP3    H1 5622   1.989   1.754   1.898 -0.0465  0.1210  0.1556
 1872TIP3    H2 5623   2.140   1.740   1.904 -0.0095  0.0097 -0.8596
 1873TIP3   OH2 5624   1.011   0.518   2.973 -0.0321 -0.0100 -0.3142
 1873TIP3    H1 5625   0.919   0.540   2.988  0.3893  1.4418  0.1763
 1873TIP3    H2 5626   1.043   0.491   3.059  0.3506  0.8023 -0.1981
 1874TIP3   OH2 5627   1.698   1.490   3.882  0.9720  0.0486 -0.2043
 1874TIP3    H1 5628   1.656   1.575   3.874 -0.8630 -0.6490  1.5086
 1874TIP3    H2 5629   1.740   1.492   3.969 -0.7492 -1.4641  0.7052
 1875TIP3   OH2 5630   1.432   1.752   4.509  0.1918  0.0102 -0.2501
 1875TIP3    H1 5631   1.513   1.769   4.461 -1.3103  0.9342 -2.5476
 1875TIP3    H2 5632   1.397   1.839   4.529 -0.2048 -0.3800  0.7622
 1876TIP3   OH2 5633   5.544   0.286   5.115 -0.1909 -0.2526 -0.1453
 1876TIP3    H1 5634   5.547   0.191   5.125  1.2002 -0.3249 -1.0027
 1876TIP3    H2 5635   5.486   0.317   5.185 -1.7213 -1.8369 -0.7054
 1877TIP3   OH2 5636   6.475   1.838   2.683 -0.1698  0.9232 -0.4590
 1877TIP3    H1 5637   6.452   1.917   2.634 -0.6824  1.6470  0.9370
 1877TIP3    H2 5638   6.571   1.842   2.690  0.1739 -0.4864 -3.5490
 1878TIP3   OH2 5639   2.672   2.529   2.854  0.0245 -0.3445  0.5316
 1878TIP3    H1 5640   2.704   2.449   2.895  0.8140  0.1989  1.0106
 1878TIP3    H2 5641   2.577   2.519   2.852  0.1566 -1.5574  0.0063
 1879TIP3   OH2 5642   3.018   0.105   3.094  0.4611  0.2239  0.2516
 1879TIP3    H1 5643   3.017   0.165   3.169  0.8209  2.4667 -1.4779
 1879TIP3    H2 5644   2.943   0.131   3.041 -0.2223 -1.8253  0.1580
 1880TIP3   OH2 5645   3.309   1.713   3.919  0.3586  0.0978 -0.3616
 1880TIP3    H1 5646   3.248   1.785   3.937  0.8951  0.2666  0.8536
 1880TIP3    H2 5647   3.264   1.635   3.952  1.1510  0.3443  1.3594
 1881TIP3   OH2 5648   1.815   2.322   0.274 -0.2941 -0.1206  0.1738
 1881TIP3    H1 5649   1.722   2.308   0.293 -0.6333 -0.5645 -1.7014
 1881TIP3    H2 5650   1.857   2.240   0.302 -0.6282 -0.3756 -0.0704
 1882TIP3   OH2 5651   2.198   3.026   0.097 -0.1755 -0.2897  0.4719
 1882TIP3    H1 5652   2.250   2.983   0.029  0.3437  0.5559  0.3212
 1882TIP3    H2 5653   2.116   3.049   0.053 -0.7996 -1.8486  0.7772
 1883TIP3   OH2 5654   0.238   1.939   3.901 -0.2269 -0.6189  0.6471
 1883TIP3    H1 5655   0.317   1.974   3.944  0.4171 -0.1708 -0.8765
 1883TIP3    H2 5656   0.259   1.941   3.808 -1.0588 -2.9502  0.3895
 1884TIP3   OH2 5657   1.048   1.429   3.539 -0.8295  0.1251 -0.3713
 1884TIP3    H1 5658   0.995   1.385   3.605 -0.1821 -0.1570 -0.0321
 1884TIP3    H2 5659   1.042   1.374   3.461  1.3913 -1.5097  0.5770
 1885TIP3   OH2 5660   2.469   2.834   2.747 -0.0265  0.5242  0.0529
 1885TIP3    H1 5661   2.552   2.793   2.725 -0.1251 -0.7121  1.8932
 1885TIP3    H2 5662   2.492   2.912   2.797  0.1104  2.0244 -2.2680
 1886TIP3   OH2 5663   0.145   2.604   2.528  0.4991 -0.0202 -0.3926
 1886TIP3    H1 5664   0.195   2.598   2.609 -1.3584  1.8650  0.9185
 1886TIP3    H2 5665   0.207   2.642   2.465  1.1536  0.9482  0.8127
 1887TIP3   OH2 5666   1.526   6.018   0.630 -0.1409  0.7239 -0.4285
 1887TIP3    H1 5667   1.472   6.091   0.661  0.0105 -0.0831  1.8203
 1887TIP3    H2 5668   1.464   5.960   0.586 -0.3587  1.9183 -1.7212
 1888TIP3   OH2 5669   1.178   3.887   4.959 -0.1940  0.1593 -0.1758
 1888TIP3    H1 5670   1.235   3.947   4.911 -0.9731  0.6322 -0.5272
 1888TIP3    H2 5671   1.234   3.850   5.027  0.2796  1.3741  0.1117
 1889TIP3   OH2 5672   2.454   1.076   2.545 -0.2978  0.1916  0.4117
 1889TIP3    H1 5673   2.478   1.037   2.629 -0.6203  0.3316  0.5714
 1889TIP3    H2 5674   2.381   1.134   2.566 -2.1888 -1.8370 -0.4161
 1890TIP3   OH2 5675   0.366   3.400   1.886 -0.1078 -0.6124  0.0419
 1890TIP3    H1 5676   0.452   3.419   1.849  1.3160 -0.4056  3.3163
 1890TIP3    H2 5677   0.363   3.305   1.892 -1.5101 -0.8504 -3.0937
 1891TIP3   OH2 5678   3.906   4.145   0.158  0.1259 -0.2096 -0.2385
 1891TIP3    H1 5679   3.989   4.116   0.195 -0.4656  0.3567  1.5997
 1891TIP3    H2 5680   3.903   4.239   0.173 -1.1329 -0.3227  0.3312
 1892TIP3   OH2 5681   0.851   3.513   3.024 -0.0254 -0.4425  0.3728
 1892TIP3    H1 5682   0.852   3.499   2.929  0.1736  0.7512  0.1911
 1892TIP3    H2 5683   0.769   3.558   3.041  0.1041 -0.3365  0.7259
 1893TIP3   OH2 5684   5.424   1.568   3.757  0.3688 -0.4510 -0.0017
 1893TIP3    H1 5685   5.489   1.618   3.707  0.5704 -0.0852  0.6231
 1893TIP3    H2 5686   5.358   1.543   3.692  1.8356 -2.0117 -0.9180
 1894TIP3   OH2 5687   5.695   2.422   0.056  0.0777 -0.0886  0.6245
 1894TIP3    H1 5688   5.635   2.399  -0.014 -1.4459  1.4261  1.3947
 1894TIP3    H2 5689   5.778   2.441   0.012  0.1536 -2.6896 -0.3942
 1895TIP3   OH2 5690   4.962   1.259   2.416  0.0017 -0.2988 -0.0853
 1895TIP3    H1 5691   4.966   1.345   2.373 -0.8320 -0.6318 -0.8446
 1895TIP3    H2 5692   5.050   1.245   2.450 -0.1646  1.4034  1.1094
 1896TIP3   OH2 5693   2.002   3.423   1.043 -0.1227 -0.0175  0.1151
 1896TIP3    H1 5694   1.933   3.465   0.991 -0.4829 -0.8231 -0.0632
 1896TIP3    H2 5695   1.990   3.330   1.028  2.1051 -0.1278 -1.3412
 1897TIP3   OH2 5696   2.487   0.642   2.478  0.1070  0.0784  0.2912
 1897TIP3    H1 5697   2.401   0.653   2.437 -0.2340 -1.2885  0.6304
 1897TIP3    H2 5698   2.545   0.622   2.405 -0.4383 -2.0192  0.4052
 1898TIP3   OH2 5699   3.291   1.194   2.281 -0.1953  0.2020 -0.0434
 1898TIP3    H1 5700   3.307   1.099   2.282 -5.0202 -0.7296  0.4109
 1898TIP3    H2 5701   3.245   1.212   2.363 -0.7567  2.6513 -0.8456
 1899TIP3   OH2 5702   1.000   1.369   1.959 -0.2595  0.5140  0.9146
 1899TIP3    H1 5703   0.999   1.424   2.037  0.5631  0.9066  0.6561
 1899TIP3    H2 5704   0.915   1.386   1.917 -0.6730  0.3516  1.6844
 1900TIP3   OH2 5705   0.665   2.588   2.938 -0.9921 -0.4892  0.0642
 1900TIP3    H1 5706   0.718   2.653   2.893  0.4337 -1.6289  0.0813
 1900TIP3    H2 5707   0.617   2.543   2.868 -0.8228 -0.4435 -0.0802
 1901TIP3   OH2 5708   5.500   5.986   3.212 -0.6002 -0.4971 -0.1211
 1901TIP3    H1 5709   5.492   5.949   3.300 -1.7498 -0.0266 -0.0249
 1901TIP3    H2 5710   5.510   6.080   3.226 -0.2008 -0.4833 -0.4723
 1902TIP3   OH2 5711   6.419   1.010   3.904 -0.1316  0.2533 -0.2951
 1902TIP3    H1 5712   6.385   0.935   3.855  0.4748 -0.4689  0.3597
 1902TIP3    H2 5713   6.462   0.971   3.981  1.7448  1.1518 -0.8523
 1903TIP3   OH2 5714   1.321   1.968   2.291 -0.3446 -0.2666 -0.2201
 1903TIP3    H1 5715   1.415   1.961   2.271 -0.5962 -0.3661 -1.3939
 1903TIP3    H2 5716   1.318   2.016   2.373  0.7384 -0.0925 -0.2708
 1904TIP3   OH2 5717   6.332   2.084   4.259 -0.2204 -0.1295  0.2061
 1904TIP3    H1 5718   6.398   2.069   4.191  1.4215  0.5041  1.6281
 1904TIP3    H2 5719   6.306   1.996   4.286 -0.2133 -0.3894 -0.5944
 1905TIP3   OH2 5720   3.935   1.110   1.959 -0.4642 -0.3886 -0.2867
 1905TIP3    H1 5721   4.003   1.076   1.900 -1.0744 -1.6039 -0.2987
 1905TIP3    H2 5722   3.899   1.032   2.001 -0.2529  0.4422  1.4772
 1906TIP3   OH2 5723   5.190   5.940   3.980 -0.7230 -0.1849  0.3294
 1906TIP3    H1 5724   5.159   5.856   4.014 -2.7463  0.1483 -0.6395
 1906TIP3    H2 5725   5.207   5.992   4.059 -1.5010 -0.7887  0.9142
 1907TIP3   OH2 5726   0.872   4.142   1.986 -0.4750  0.3492  0.0335
 1907TIP3    H1 5727   0.934   4.069   1.981 -0.4915  0.4349 -1.4730
 1907TIP3    H2 5728   0.924   4.215   2.020 -0.0446  0.0934 -0.0731
 1908TIP3   OH2 5729   4.566   4.951   0.924  0.3715 -0.0227 -0.4327
 1908TIP3    H1 5730   4.598   4.933   1.013  0.0473  1.4358 -0.0012
 1908TIP3    H2 5731   4.620   5.025   0.895  0.1438 -0.1865 -1.2676
 1909TIP3   OH2 5732   1.576   1.717   4.137  0.4639  0.1341 -0.7217
 1909TIP3    H1 5733   1.555   1.806   4.167 -1.2302 -0.4373 -0.1755
 1909TIP3    H2 5734   1.583   1.725   4.042  1.7406  1.1276 -0.5603
 1910TIP3   OH2 5735   4.665   5.539   3.366 -0.7469 -0.3686  0.3621
 1910TIP3    H1 5736   4.588   5.562   3.314 -0.5977  0.7184  0.6053
 1910TIP3    H2 5737   4.683   5.617   3.419  0.4269 -0.6649  0.4277
 1911TIP3   OH2 5738   1.631   0.491   4.232 -0.2794  0.1476 -0.3861
 1911TIP3    H1 5739   1.715   0.495   4.278 -0.4818  1.2027 -0.0905
 1911TIP3    H2 5740   1.620   0.398   4.210  0.9366 -0.0072 -0.3843
 1912TIP3   OH2 5741   0.059   2.937   3.523 -0.0472  0.2539  0.2842
 1912TIP3    H1 5742   0.091   2.890   3.446  0.4222 -1.1410  1.3221
 1912TIP3    H2 5743   0.073   3.029   3.501  1.8547 -0.1965 -0.5428
 1913TIP3   OH2 5744   4.523   5.307   2.590  0.2042  0.0740  0.9971
 1913TIP3    H1 5745   4.586   5.252   2.545  0.7055  0.0595  1.7124
 1913TIP3    H2 5746   4.541   5.395   2.557 -1.8476 -0.4216 -1.5751
 1914TIP3   OH2 5747   6.079   5.269   1.310  0.4788 -0.0246 -0.1056
 1914TIP3    H1 5748   6.022   5.304   1.242  0.6704  0.4798 -0.0069
 1914TIP3    H2 5749   6.057   5.176   1.314 -0.3512  0.1676 -0.0591
 1915TIP3   OH2 5750   2.600   1.549   4.357 -0.4439  0.3815 -0.0488
 1915TIP3    H1 5751   2.650   1.617   4.401  1.4600 -0.9765 -0.0729
 1915TIP3    H2 5752   2.644   1.537   4.273 -1.0131 -0.6105 -0.2181
 1916TIP3   OH2 5753   1.810   3.022   2.242  0.1756 -0.0192 -0.0362
 1916TIP3    H1 5754   1.776   3.108   2.268  2.1353  0.7262  0.1723
 1916TIP3    H2 5755   1.893   3.015   2.288 -0.9033 -2.9506  1.5904
 1917TIP3   OH2 5756   6.399   1.281   3.876 -0.0044  0.4990 -0.1013
 1917TIP3    H1 5757   6.411   1.190   3.903 -1.5307  0.3757  0.2024
 1917TIP3    H2 5758   6.458   1.331   3.933 -0.9684 -0.0645  1.4374
 1918TIP3   OH2 5759   0.087   1.971   4.525 -0.5860  0.0937  0.4751
 1918TIP3    H1 5760   0.065   1.935   4.440 -0.5981 -0.3247  0.6550
 1918TIP3    H2 5761   0.182   1.980   4.524 -0.5752 -0.0237  0.4618
 1919TIP3   OH2 5762   1.713   0.539   2.262  0.5985 -0.0925 -0.4717
 1919TIP3    H1 5763   1.692   0.505   2.350 -0.1000 -0.0546 -0.6202
 1919TIP3    H2 5764   1.628   0.541   2.217  1.3481 -2.8687 -2.1339
 1920TIP3   OH2 5765   1.656   1.128   1.666 -0.4525 -0.0244 -0.2440
 1920TIP3    H1 5766   1.669   1.036   1.688  0.8648  0.0178 -0.7334
 1920TIP3    H2 5767   1.730   1.148   1.607 -1.1650  1.1273 -0.7568
 1921TIP3   OH2 5768   1.951   2.936   3.259  0.0274  0.1391  0.4079
 1921TIP3    H1 5769   1.932   2.953   3.351  0.1130 -0.6627  0.5780
 1921TIP3    H2 5770   2.032   2.885   3.260 -0.8050 -1.2357 -0.0105
 1922TIP3   OH2 5771   5.190   5.421   5.310  0.2528 -0.4551 -0.1300
 1922TIP3    H1 5772   5.125   5.429   5.241  1.3053 -1.4148 -1.2558
 1922TIP3    H2 5773   5.227   5.334   5.297 -0.8434 -1.4175  2.8029
 1923TIP3   OH2 5774   0.598   1.722   1.832 -0.1110 -0.6677  0.3398
 1923TIP3    H1 5775   0.522   1.675   1.797  0.9142 -1.8051 -0.4060
 1923TIP3    H2 5776   0.665   1.712   1.765  1.2265 -1.1010  1.7255
 1924TIP3   OH2 5777   0.178   1.755   1.675  0.6072 -0.2474  0.3763
 1924TIP3    H1 5778   0.105   1.694   1.685  0.7698 -0.4632  0.2376
 1924TIP3    H2 5779   0.152   1.813   1.604 -0.7884  1.6239  2.3258
 1925TIP3   OH2 5780   6.167   1.796   2.120  0.7202  0.3497  0.1562
 1925TIP3    H1 5781   6.072   1.810   2.119  0.6691 -0.0198 -0.3903
 1925TIP3    H2 5782   6.198   1.836   2.038  0.9751  0.0517  0.1075
 1926TIP3   OH2 5783   1.366   1.388   4.082 -0.2215 -0.2060  0.2194
 1926TIP3    H1 5784   1.446   1.388   4.136  0.1313  0.3698 -0.3004
 1926TIP3    H2 5785   1.341   1.295   4.077  0.6416 -0.4357  0.0527
 1927TIP3   OH2 5786   2.462   4.128   0.120 -0.0052 -0.3700  0.4957
 1927TIP3    H1 5787   2.419   4.044   0.136 -0.2279 -0.4874 -0.6541
 1927TIP3    H2 5788   2.543   4.124   0.171 -0.2646 -1.0706  0.8567
 1928TIP3   OH2 5789   1.286   2.079   4.992  0.1218  0.3462 -0.1002
 1928TIP3    H1 5790   1.307   2.041   5.077  0.6427  0.2454 -0.2730
 1928TIP3    H2 5791   1.289   2.006   4.931 -1.0598  0.2744 -0.0736
 1929TIP3   OH2 5792   1.359   2.347   4.977  0.8750  0.1420  0.1860
 1929TIP3    H1 5793   1.409   2.344   4.895 -0.6656  2.0316 -0.8747
 1929TIP3    H2 5794   1.314   2.263   4.981  1.5784 -0.2714 -0.5199
 1930TIP3   OH2 5795   1.646   1.493   3.573 -0.0512  0.3111  0.3625
 1930TIP3    H1 5796   1.643   1.412   3.523  2.2428 -0.5888  1.5906
 1930TIP3    H2 5797   1.631   1.465   3.664 -1.9567  1.6238  0.4801
 1931TIP3   OH2 5798   3.402   3.810   0.396  0.0275  0.1691  0.0550
 1931TIP3    H1 5799   3.327   3.821   0.337 -0.2254  2.8270  0.7833
 1931TIP3    H2 5800   3.365   3.821   0.484  1.2456  1.6235  0.4142
 1932TIP3   OH2 5801   1.314   0.297   3.718 -0.2424 -0.0481  0.0514
 1932TIP3    H1 5802   1.231   0.308   3.765  0.0049 -0.2580  0.5359
 1932TIP3    H2 5803   1.287   0.269   3.630 -0.7007  0.2915  0.0780
 1933TIP3   OH2 5804   0.079   0.545   3.249 -0.4094 -0.3939  0.2890
 1933TIP3    H1 5805  -0.000   0.503   3.283 -0.7458  0.3274  0.4080
 1933TIP3    H2 5806   0.065   0.549   3.155 -0.4166 -0.4595  0.2868
 1934TIP3   OH2 5807   2.878   1.084   4.698  0.1662  0.2590 -0.4563
 1934TIP3    H1 5808   2.895   1.003   4.649 -1.0700 -0.5810  0.4710
 1934TIP3    H2 5809   2.801   1.122   4.656  0.1936  0.4797 -0.3075
 1935TIP3   OH2 5810   2.832   0.525   3.881 -0.4430  0.1119  0.4980
 1935TIP3    H1 5811   2.770   0.456   3.905 -1.9112  1.0001 -0.6429
 1935TIP3    H2 5812   2.888   0.486   3.814 -0.0183 -0.5718  1.2488
 1936TIP3   OH2 5813   0.415   0.698   4.432  0.3497 -0.2253 -0.2607
 1936TIP3    H1 5814   0.387   0.705   4.341 -1.0281 -0.2986  0.1496
 1936TIP3    H2 5815   0.428   0.604   4.445  4.0334  0.0532 -1.3855
 1937TIP3   OH2 5816   5.874   0.210   0.591 -0.2435 -0.4174 -0.1441
 1937TIP3    H1 5817   5.897   0.265   0.517  0.5870  0.2173  0.5747
 1937TIP3    H2 5818   5.791   0.246   0.622 -0.3819 -0.4199 -0.5084
 1938TIP3   OH2 5819   3.098   4.113   0.239 -0.3720  0.1351 -0.5082
 1938TIP3    H1 5820   3.183   4.117   0.283  0.1138  1.0799 -1.5240
 1938TIP3    H2 5821   3.093   4.023   0.205  0.8615  0.4873 -1.6757
 1939TIP3   OH2 5822   4.782   5.025   3.627  0.6618  0.1660 -0.1732
 1939TIP3    H1 5823   4.854   4.977   3.667 -1.8388 -1.2053  2.9016
 1939TIP3    H2 5824   4.771   5.102   3.682  0.0169  0.5756 -0.8643
 1940TIP3   OH2 5825   1.561   2.000   1.827 -0.1217 -0.3143 -0.3428
 1940TIP3    H1 5826   1.543   1.906   1.829  0.4430 -0.4217 -0.1985
 1940TIP3    H2 5827   1.564   2.021   1.733 -0.1458 -0.4587 -0.3769
 1941TIP3   OH2 5828   1.329   3.128   4.761 -0.5241  0.2122 -0.8378
 1941TIP3    H1 5829   1.240   3.116   4.796 -0.6250 -1.1423 -1.5447
 1941TIP3    H2 5830   1.386   3.094   4.830 -0.5569  1.0266 -0.4081
 1942TIP3   OH2 5831   1.647   1.801   3.560  0.3611 -0.0547 -0.5335
 1942TIP3    H1 5832   1.553   1.812   3.543 -0.0756  1.4262  2.4518
 1942TIP3    H2 5833   1.681   1.890   3.567  1.3440 -0.5447  1.5039
 1943TIP3   OH2 5834   1.580   2.268   2.645  0.1298  1.3891  0.2272
 1943TIP3    H1 5835   1.547   2.206   2.710  0.3622  0.1760 -0.7716
 1943TIP3    H2 5836   1.619   2.212   2.577  1.3937  2.6807 -0.1375
 1944TIP3   OH2 5837   3.840   2.180   3.329  0.4968  0.6279  0.2864
 1944TIP3    H1 5838   3.882   2.212   3.250  1.4581 -0.3011  0.4061
 1944TIP3    H2 5839   3.762   2.235   3.339 -1.3895 -1.2790 -3.0523
 1945TIP3   OH2 5840   0.403   1.682   3.156  0.1331 -0.3535  0.6843
 1945TIP3    H1 5841   0.495   1.684   3.129 -0.4052  0.2523 -1.1602
 1945TIP3    H2 5842   0.361   1.626   3.091 -0.8598 -0.4175  1.3745
 1946TIP3   OH2 5843   0.907   2.245   2.403  0.4567 -0.7706  0.4405
 1946TIP3    H1 5844   0.888   2.162   2.361 -0.2804  0.0293 -0.8430
 1946TIP3    H2 5845   1.003   2.250   2.405  0.5196 -2.2977  1.8698
 1947TIP3   OH2 5846   0.895   1.897   4.620 -0.3062 -0.6123  0.0608
 1947TIP3    H1 5847   0.934   1.877   4.705  0.3449 -0.5005 -0.2089
 1947TIP3    H2 5848   0.882   1.992   4.621 -1.7591 -0.8128  0.6505
 1948TIP3   OH2 5849   0.601   1.638   2.863 -0.1751  0.3802  0.1114
 1948TIP3    H1 5850   0.624   1.696   2.936  1.6174  1.3085 -1.1468
 1948TIP3    H2 5851   0.647   1.557   2.882  0.2484  0.6016  0.0200
 1949TIP3   OH2 5852   3.127   2.783   2.474 -0.1387 -0.2169  0.2908
 1949TIP3    H1 5853   3.084   2.717   2.529 -0.7095 -0.0352  0.0652
 1949TIP3    H2 5854   3.133   2.742   2.388 -1.3178  0.3694 -0.0742
 1950TIP3   OH2 5855   4.008   1.107   2.595  0.1598  0.2065 -0.5096
 1950TIP3    H1 5856   3.953   1.053   2.539 -1.2526  2.8110 -1.7170
 1950TIP3    H2 5857   3.959   1.115   2.677  0.2195 -0.0539 -0.4470
 1951TIP3   OH2 5858   1.830   0.266   3.607 -0.0829  0.0510  0.2567
 1951TIP3    H1 5859   1.761   0.216   3.564  0.8162 -0.6579 -0.3744
 1951TIP3    H2 5860   1.897   0.202   3.630  0.9251  0.8980 -0.2503
 1952TIP3   OH2 5861   0.796   2.326   1.503 -0.2055  0.2140 -0.1996
 1952TIP3    H1 5862   0.708   2.299   1.530 -0.5984  1.7428  0.1059
 1952TIP3    H2 5863   0.828   2.254   1.449 -0.9204 -1.1816  1.2104
 1953TIP3   OH2 5864   4.033   1.960   2.515 -0.0304  0.3791 -0.1384
 1953TIP3    H1 5865   3.943   1.992   2.511  0.2879  1.7525  2.1772
 1953TIP3    H2 5866   4.086   2.039   2.501  0.7913 -0.1306  0.0983
 1954TIP3   OH2 5867   1.541   0.315   3.898  0.2520 -0.5373 -0.1444
 1954TIP3    H1 5868   1.493   0.326   3.816  0.4383  0.5307 -0.1145
 1954TIP3    H2 5869   1.630   0.345   3.878 -0.6914  3.6557  1.5365
 1955TIP3   OH2 5870   5.176   1.470   1.700  0.3382 -0.5934  0.3298
 1955TIP3    H1 5871   5.163   1.413   1.624 -0.4042 -1.6428  1.2305
 1955TIP3    H2 5872   5.111   1.441   1.764  1.1289  0.0953  1.4769
 1956TIP3   OH2 5873   5.034   5.831   5.286  0.4282 -0.1830 -0.2460
 1956TIP3    H1 5874   5.049   5.801   5.197  1.1390 -0.7864  0.0751
 1956TIP3    H2 5875   5.049   5.925   5.283  2.7174 -0.5222 -0.2802
 1957TIP3   OH2 5876   0.928   4.422   1.665  0.0457  0.0971 -0.0147
 1957TIP3    H1 5877   0.941   4.334   1.702  0.6630 -0.1095 -0.7035
 1957TIP3    H2 5878   1.012   4.442   1.623 -1.3499 -0.6384 -3.3329
 1958TIP3   OH2 5879   2.669   4.109   0.954  0.7506  0.4630  0.0772
 1958TIP3    H1 5880   2.589   4.157   0.932 -0.0708  0.0657  2.0960
 1958TIP3    H2 5881   2.661   4.028   0.904  0.0986  0.6259 -0.0968
 1959TIP3   OH2 5882   2.242   2.024   0.856  0.3201  0.3692 -0.0943
 1959TIP3    H1 5883   2.338   2.017   0.848  0.2764 -0.2318 -0.0834
 1959TIP3    H2 5884   2.210   2.018   0.766  0.2656  0.1859 -0.0620
 1960TIP3   OH2 5885   1.942   0.541   1.921 -0.2953 -0.2306 -0.2137
 1960TIP3    H1 5886   1.963   0.622   1.968  0.1031  0.1279 -0.9866
 1960TIP3    H2 5887   1.982   0.472   1.973 -0.6567  0.0681  0.4665
 1961TIP3   OH2 5888   6.309   1.597   0.808 -0.6333 -0.5040  0.3509
 1961TIP3    H1 5889   6.400   1.571   0.793 -0.2832 -0.1977  1.8524
 1961TIP3    H2 5890   6.281   1.637   0.726  0.3252 -1.3681 -0.3909
 1962TIP3   OH2 5891   1.747   1.820   4.769  0.0630 -0.5704  0.5692
 1962TIP3    H1 5892   1.778   1.769   4.694  0.9433  2.0515 -0.8970
 1962TIP3    H2 5893   1.819   1.816   4.832 -0.4159 -2.2320  1.0479
 1963TIP3   OH2 5894   2.340   1.802   3.796  0.0755  0.4744 -0.0141
 1963TIP3    H1 5895   2.288   1.787   3.874 -0.2023  0.6761 -0.1581
 1963TIP3    H2 5896   2.355   1.897   3.795 -0.7899  0.6144 -0.7425
 1964TIP3   OH2 5897   1.249   0.664   4.223 -0.2338  0.0574 -0.5536
 1964TIP3    H1 5898   1.270   0.577   4.188 -0.3134 -0.0974 -0.2201
 1964TIP3    H2 5899   1.228   0.648   4.315  1.5512  0.6821 -0.0176
 1965TIP3   OH2 5900   5.500   1.150   1.987 -0.5163  0.2040  0.7751
 1965TIP3    H1 5901   5.487   1.116   2.075 -1.1979  0.0228  0.6035
 1965TIP3    H2 5902   5.458   1.236   1.987 -1.5732 -0.3107  0.2723
 1966TIP3   OH2 5903   1.096   2.673   1.295  0.3858  0.6463  0.3520
 1966TIP3    H1 5904   1.183   2.657   1.331  0.7452  2.9474  0.6136
 1966TIP3    H2 5905   1.041   2.605   1.333  1.5772  0.6614  2.1528
 1967TIP3   OH2 5906   2.591   3.764   4.206  0.2275  0.0608  0.1491
 1967TIP3    H1 5907   2.547   3.689   4.167 -0.0480  0.9552 -1.2800
 1967TIP3    H2 5908   2.684   3.746   4.194  0.1510  1.5728 -3.4426
 1968TIP3   OH2 5909   2.463   5.098   0.008  0.1457 -0.6368  0.2879
 1968TIP3    H1 5910   2.450   5.152   0.086  0.3431  0.0233 -0.1319
 1968TIP3    H2 5911   2.474   5.161  -0.064 -0.3370 -1.2331 -0.3240
 1969TIP3   OH2 5912   1.273   3.143   5.275  0.0807 -0.1308  0.2127
 1969TIP3    H1 5913   1.266   3.220   5.219  1.6345 -0.6604 -0.7548
 1969TIP3    H2 5914   1.184   3.128   5.307 -1.1017 -0.4426 -2.9679
 1970TIP3   OH2 5915   1.455   2.593   3.363 -0.1068  0.4591  0.1583
 1970TIP3    H1 5916   1.549   2.603   3.374 -0.1816  0.3321  0.9725
 1970TIP3    H2 5917   1.418   2.664   3.417 -0.5219 -0.8161  1.5903
 1971TIP3   OH2 5918   2.837   0.617   4.351 -0.2985 -0.6089  0.8224
 1971TIP3    H1 5919   2.863   0.525   4.363  2.0592  0.1169  1.6070
 1971TIP3    H2 5920   2.748   0.613   4.318 -0.6807 -3.1731  2.0679
 1972TIP3   OH2 5921   0.168   4.030   3.028 -0.7799 -0.0187 -0.1917
 1972TIP3    H1 5922   0.082   4.069   3.038 -0.1302  0.9311  1.8312
 1972TIP3    H2 5923   0.214   4.087   2.967 -0.8213  0.7298  0.4818
 1973TIP3   OH2 5924   0.343   2.456   4.137 -0.4477  0.1035  0.0197
 1973TIP3    H1 5925   0.275   2.388   4.132 -0.0202 -0.2730 -0.9377
 1973TIP3    H2 5926   0.422   2.413   4.106 -0.4182  1.3354 -1.7324
 1974TIP3   OH2 5927   1.019   1.130   2.697 -0.3270  0.5445  0.2187
 1974TIP3    H1 5928   1.082   1.181   2.748  2.8896 -2.9392 -0.0151
 1974TIP3    H2 5929   1.038   1.152   2.606  0.3149 -0.1993  0.1664
 1975TIP3   OH2 5930   0.480   2.618   2.160  0.2572  0.2041 -0.0276
 1975TIP3    H1 5931   0.502   2.645   2.071 -0.3586  0.1097 -0.2104
 1975TIP3    H2 5932   0.559   2.573   2.191  1.0799  1.6766  0.0771
 1976TIP3   OH2 5933   0.117   6.030   3.255  0.5691 -0.2393  0.6940
 1976TIP3    H1 5934   0.183   6.028   3.185 -0.4823  1.2187 -0.3609
 1976TIP3    H2 5935   0.118   5.941   3.290  0.5383 -1.2435 -1.7436
 1977TIP3   OH2 5936   5.629   2.251   3.403  0.3741  0.4710  0.2064
 1977TIP3    H1 5937   5.674   2.270   3.485  0.5272  0.2306  0.1793
 1977TIP3    H2 5938   5.566   2.182   3.425  1.7894 -1.0037 -0.2947
 1978TIP3   OH2 5939   6.319   5.110   2.436  0.3150  0.8794  0.0924
 1978TIP3    H1 5940   6.313   5.183   2.374  0.8360  0.9328  0.0976
 1978TIP3    H2 5941   6.304   5.032   2.382 -0.7719  1.0188  0.1844
 1979TIP3   OH2 5942   3.974   1.216   0.620  0.4877 -0.1882 -0.2547
 1979TIP3    H1 5943   3.908   1.231   0.553  0.5552  0.1509 -0.2478
 1979TIP3    H2 5944   4.040   1.162   0.577 -0.1890 -1.2082 -0.0154
 1980TIP3   OH2 5945   0.087   1.823   3.033 -0.7959 -0.3940  0.2024
 1980TIP3    H1 5946   0.081   1.737   2.990 -1.1887 -1.0573  1.5584
 1980TIP3    H2 5947   0.150   1.810   3.104 -0.1839  0.6863 -0.1327
 1981TIP3   OH2 5948   5.595   3.874   3.277 -0.3914 -0.0543  0.1681
 1981TIP3    H1 5949   5.673   3.864   3.331 -0.8421 -1.1629  0.6457
 1981TIP3    H2 5950   5.526   3.898   3.338 -0.3456  1.2924 -0.3092
 1982TIP3   OH2 5951   2.045   1.284   2.843 -0.1183 -0.2448 -0.0735
 1982TIP3    H1 5952   1.957   1.248   2.830 -1.5242  2.3934  1.7278
 1982TIP3    H2 5953   2.057   1.285   2.938  0.9913  1.3877 -0.2168
 1983TIP3   OH2 5954   1.450   0.225   4.135  0.0832 -0.5410 -0.6045
 1983TIP3    H1 5955   1.367   0.269   4.153  1.2288  1.1711  0.6837
 1983TIP3    H2 5956   1.482   0.266   4.054  0.0048 -0.7159 -0.7248
 1984TIP3   OH2 5957   2.370   4.680   0.239 -0.4415 -0.7916  0.9346
 1984TIP3    H1 5958   2.304   4.612   0.226  0.0395 -1.3479  1.3672
 1984TIP3    H2 5959   2.453   4.633   0.241 -0.0094 -0.0831  0.2130
 1985TIP3   OH2 5960   1.274   0.429   4.078  0.5410 -0.3889 -0.6183
 1985TIP3    H1 5961   1.181   0.419   4.061  0.3429 -0.5341  0.5043
 1985TIP3    H2 5962   1.313   0.441   3.991 -0.4450 -0.8934 -1.1425
 1986TIP3   OH2 5963   4.124   5.308   1.709 -0.8647 -0.4381 -0.3771
 1986TIP3    H1 5964   4.054   5.358   1.666 -2.8790 -2.0184  0.9425
 1986TIP3    H2 5965   4.146   5.239   1.647 -1.8623 -1.0969 -0.0082
 1987TIP3   OH2 5966   0.607   0.590   0.582 -0.0974  0.8282  0.4292
 1987TIP3    H1 5967   0.657   0.570   0.502 -0.8982  0.9783 -0.1130
 1987TIP3    H2 5968   0.656   0.546   0.651 -1.1236 -2.0264 -0.5717
 1988TIP3   OH2 5969   2.001   1.361   2.389  0.4516  0.2903  0.4297
 1988TIP3    H1 5970   1.922   1.405   2.357 -0.2821 -0.7605  0.7667
 1988TIP3    H2 5971   2.008   1.388   2.481 -1.2434 -1.9576  1.2872
 1989TIP3   OH2 5972   1.894   1.885   1.822  0.1968  0.2523 -0.0193
 1989TIP3    H1 5973   1.860   1.860   1.736 -1.1964 -0.7406  0.8094
 1989TIP3    H2 5974   1.941   1.967   1.806 -2.4048  1.5814 -1.2608
 1990TIP3   OH2 5975   0.481   0.288   4.772 -0.2908 -0.5838  0.8256
 1990TIP3    H1 5976   0.423   0.364   4.773 -1.0955 -1.1210 -1.2205
 1990TIP3    H2 5977   0.425   0.215   4.800 -0.3598 -0.9358 -0.2073
 1991TIP3   OH2 5978   0.656   0.510   4.240 -0.1644 -0.3661 -0.1328
 1991TIP3    H1 5979   0.653   0.443   4.171  2.5737 -1.1868  0.4704
 1991TIP3    H2 5980   0.596   0.478   4.307 -0.5613 -1.0970 -0.8164
 1992TIP3   OH2 5981   5.663   2.783   1.383  0.4246 -0.2932 -0.3814
 1992TIP3    H1 5982   5.681   2.876   1.395 -0.7559  0.0373 -1.0827
 1992TIP3    H2 5983   5.748   2.741   1.390  0.6944  0.5875  2.2103
 1993TIP3   OH2 5984   1.148   2.572   3.459  0.8171  0.1218 -0.1272
 1993TIP3    H1 5985   1.228   2.531   3.491  0.4234 -0.4811  0.1184
 1993TIP3    H2 5986   1.176   2.653   3.417  1.8973 -1.5303 -2.7470
 1994TIP3   OH2 5987   2.962   2.988   2.387 -0.1933 -0.5449 -0.0118
 1994TIP3    H1 5988   2.876   2.986   2.428  0.0780 -0.1559  0.5910
 1994TIP3    H2 5989   3.014   2.925   2.438  0.9493  1.9974  2.1071
 1995TIP3   OH2 5990   0.621   5.965   3.574  0.0581 -0.6886  0.1211
 1995TIP3    H1 5991   0.547   5.908   3.596  1.6287 -3.1710 -0.8284
 1995TIP3    H2 5992   0.698   5.917   3.606  1.3558  1.3602  0.1309
 1996TIP3   OH2 5993   2.708   2.482   2.493  0.3193  0.7215  0.0524
 1996TIP3    H1 5994   2.719   2.450   2.404  1.2261 -0.2072  0.4921
 1996TIP3    H2 5995   2.637   2.429   2.529 -0.8085  1.8423 -0.4519
 1997TIP3   OH2 5996   3.867   1.235   3.139 -0.4826 -0.3960 -0.6311
 1997TIP3    H1 5997   3.953   1.195   3.150 -0.1605  0.2478 -0.7499
 1997TIP3    H2 5998   3.805   1.166   3.163  0.1099  0.0464  2.4652
 1998TIP3   OH2 5999   1.713   3.012   2.543  0.4166 -0.0392 -0.2815
 1998TIP3    H1 6000   1.673   3.099   2.540 -0.5566 -0.4936 -0.4358
 1998TIP3    H2 6001   1.730   2.997   2.636 -1.3663 -0.5629 -0.0187
 1999TIP3   OH2 6002   2.803   2.031   3.024 -0.0395 -0.0109  0.1231
 1999TIP3    H1 6003   2.810   2.083   3.103  1.5179 -0.6584  0.4222
 1999TIP3    H2 6004   2.752   1.954   3.050  0.7822 -0.4010  0.5918
 2000TIP3   OH2 6005   2.833   2.688   2.321  0.8044  0.0295 -0.0287
 2000TIP3    H1 6006   2.901   2.671   2.255  1.7391  0.4206  0.8172
 2000TIP3    H2 6007   2.868   2.649   2.401  0.1703  0.5202  0.4885
 2001TIP3   OH2 6008   3.654   0.056   1.425  0.4685 -0.2884 -0.0803
 2001TIP3    H1 6009   3.651   0.003   1.345  1.3171 -0.9315  0.3092
 2001TIP3    H2 6010   3.738   0.034   1.465 -0.0499 -0.1274  1.1034
 2002TIP3   OH2 6011   3.829   2.440   3.733  0.1485  0.7200 -0.0569
 2002TIP3    H1 6012   3.851   2.524   3.693  0.9699  0.1937 -0.7268
 2002TIP3    H2 6013   3.896   2.380   3.701 -1.2553 -0.5240 -0.7429
 2003TIP3   OH2 6014   5.559   1.018   3.070 -0.4012 -0.2121  0.1474
 2003TIP3    H1 6015   5.509   0.980   2.997 -1.1681 -0.2901  0.7033
 2003TIP3    H2 6016   5.649   0.993   3.053 -0.4930  0.2865 -1.1030
 2004TIP3   OH2 6017   3.901   1.091   2.877 -0.3377 -0.2813 -0.0326
 2004TIP3    H1 6018   3.987   1.083   2.920  0.6853 -0.3704 -2.0468
 2004TIP3    H2 6019   3.864   1.172   2.912  0.8816  0.1388  0.3160
 2005TIP3   OH2 6020   5.160   4.097   5.073  0.1018 -0.3060  0.4962
 2005TIP3    H1 6021   5.150   4.187   5.040 -0.2720 -0.5561 -0.0927
 2005TIP3    H2 6022   5.115   4.043   5.008 -0.6052 -0.8192  1.4063
 2006TIP3   OH2 6023   2.383   1.263   1.323  0.3534 -0.0035 -0.7959
 2006TIP3    H1 6024   2.301   1.227   1.287 -0.8114  0.6815  1.0673
 2006TIP3    H2 6025   2.380   1.356   1.302 -0.1076  0.3121  0.5880
 2007TIP3   OH2 6026   3.596   2.942   4.039 -0.3499 -0.3525 -0.0735
 2007TIP3    H1 6027   3.590   2.896   3.955 -0.5160  0.2319 -0.3821
 2007TIP3    H2 6028   3.676   2.908   4.079 -0.5483 -1.0202 -0.2328
 2008TIP3   OH2 6029   1.339   0.954   3.126 -0.3674  0.5680  0.6869
 2008TIP3    H1 6030   1.257   0.910   3.146 -0.0108 -0.0946  0.7326
 2008TIP3    H2 6031   1.386   0.892   3.069 -0.4858  1.5283 -0.4681
 2009TIP3   OH2 6032   2.654   1.859   3.147 -0.0346  0.0663  0.0603
 2009TIP3    H1 6033   2.588   1.791   3.131  0.4046 -0.8975  2.2039
 2009TIP3    H2 6034   2.651   1.873   3.242  3.2415 -0.4256  0.2841
 2010TIP3   OH2 6035   4.552   2.058   2.979  0.0635 -0.4598 -0.0290
 2010TIP3    H1 6036   4.625   1.999   2.959  0.2792 -0.3664  0.4528
 2010TIP3    H2 6037   4.484   2.035   2.917  0.5998 -0.3779 -0.6540
 2011TIP3   OH2 6038   2.244   1.428   2.248  0.2663  0.1772 -0.1706
 2011TIP3    H1 6039   2.186   1.432   2.171 -0.4403 -0.4289  0.3240
 2011TIP3    H2 6040   2.191   1.386   2.315  0.9776  0.4686  0.5728
 2012TIP3   OH2 6041   2.201   2.544   1.879  0.3636 -0.5898  0.0401
 2012TIP3    H1 6042   2.252   2.583   1.950  2.2011 -1.6885 -0.6620
 2012TIP3    H2 6043   2.182   2.455   1.909  0.3105 -0.7407 -0.4373
 2013TIP3   OH2 6044   4.329   2.074   3.556 -0.0276 -0.2051  0.2123
 2013TIP3    H1 6045   4.372   1.993   3.583  0.4827  0.0134  0.0428
 2013TIP3    H2 6046   4.237   2.050   3.547  0.2085 -0.8953 -0.3747
 2014TIP3   OH2 6047   1.760   2.147   3.038  0.5605 -0.6371  0.1504
 2014TIP3    H1 6048   1.756   2.243   3.033  1.3756 -0.5275  1.4920
 2014TIP3    H2 6049   1.735   2.126   3.128  1.8332 -1.6070  0.2864
 2015TIP3   OH2 6050   1.446   2.214   1.062  0.1764 -0.2904 -0.1915
 2015TIP3    H1 6051   1.426   2.243   1.151 -0.0545 -0.0827 -0.3111
 2015TIP3    H2 6052   1.527   2.261   1.040 -0.2289  0.3130 -0.4063
 2016TIP3   OH2 6053   1.636   0.100   3.525  0.4425  0.0888 -0.2084
 2016TIP3    H1 6054   1.574   0.086   3.597 -0.4756  0.1673 -0.9589
 2016TIP3    H2 6055   1.603   0.044   3.454  1.3133  0.0336 -0.5739
 2017TIP3   OH2 6056   2.362   0.840   2.004 -0.0772  0.4769  0.3536
 2017TIP3    H1 6057   2.369   0.927   1.965 -0.1350 -0.3550 -1.5768
 2017TIP3    H2 6058   2.431   0.836   2.069 -0.2043  2.0361  0.5885
 2018TIP3   OH2 6059   1.096   0.328   3.502  0.3454 -0.3519 -0.2627
 2018TIP3    H1 6060   1.082   0.402   3.560  0.9405 -0.8593  0.5344
 2018TIP3    H2 6061   1.030   0.264   3.528  1.1122 -0.8912  0.3944
 2019TIP3   OH2 6062   1.023   5.965   3.042 -0.5314  0.2656 -0.3842
 2019TIP3    H1 6063   0.970   6.044   3.040 -2.4048 -0.9604 -1.3605
 2019TIP3    H2 6064   0.963   5.895   3.013  1.7081 -1.0952 -1.9673
 2020TIP3   OH2 6065   2.648   4.395   2.825 -0.1744  0.5755  0.4835
 2020TIP3    H1 6066   2.561   4.384   2.786 -0.4175  1.9550  0.6366
 2020TIP3    H2 6067   2.643   4.346   2.908  0.0494 -1.5709 -0.7179
 2021TIP3   OH2 6068   2.450   1.540   2.429 -0.4794 -0.2191 -0.1099
 2021TIP3    H1 6069   2.432   1.634   2.422  0.3214 -0.1656 -1.8029
 2021TIP3    H2 6070   2.380   1.499   2.377 -0.8845 -0.5617  0.7074
 2022TIP3   OH2 6071   1.403   1.499   1.766 -0.0392  0.0868 -0.8886
 2022TIP3    H1 6072   1.364   1.420   1.804  1.9732  0.1026  1.3152
 2022TIP3    H2 6073   1.369   1.571   1.819  0.5597  0.3809 -0.8924
 2023TIP3   OH2 6074   1.848   1.493   1.811  0.2910 -0.1825 -0.0611
 2023TIP3    H1 6075   1.771   1.514   1.864  0.8061  1.1670  0.1732
 2023TIP3    H2 6076   1.922   1.531   1.858  0.6139  2.1867 -2.3514
 2024TIP3   OH2 6077   3.254   1.301   2.036 -0.0147 -0.7089  0.1720
 2024TIP3    H1 6078   3.198   1.238   1.993 -0.4875  1.4688 -2.5532
 2024TIP3    H2 6079   3.274   1.262   2.121 -3.5519 -2.6563  0.1875
 2025TIP3   OH2 6080   2.351   3.649   2.969 -0.5780 -0.1770  0.4494
 2025TIP3    H1 6081   2.279   3.589   2.986  0.4640 -1.4068  0.6785
 2025TIP3    H2 6082   2.424   3.592   2.944 -0.0287  1.1056 -1.0184
 2026TIP3   OH2 6083   1.220   2.690   2.831 -0.3454  0.2807  0.2621
 2026TIP3    H1 6084   1.165   2.635   2.775  0.0783  1.2727 -1.1592
 2026TIP3    H2 6085   1.288   2.723   2.773 -0.3584  2.0029  1.1802
 2027TIP3   OH2 6086   4.114   2.795   4.057  0.3127  0.8910  0.3516
 2027TIP3    H1 6087   4.141   2.703   4.058 -1.7029  0.2774  0.7326
 2027TIP3    H2 6088   4.051   2.800   3.985 -2.1610  1.1951  2.4658
 2028TIP3   OH2 6089   1.510   3.269   2.938  0.1238  0.8181 -0.0291
 2028TIP3    H1 6090   1.605   3.276   2.936  0.1209  0.8840  0.0517
 2028TIP3    H2 6091   1.479   3.357   2.958  0.0524  0.7631  0.1065
 2029TIP3   OH2 6092   2.080   2.158   2.485 -0.0426 -0.0576 -0.0035
 2029TIP3    H1 6093   2.173   2.164   2.507 -0.3962  2.9925  0.9417
 2029TIP3    H2 6094   2.066   2.231   2.424 -1.2168 -2.3017 -2.5106
 2030TIP3   OH2 6095   2.048   2.026   4.150 -0.3520  0.0762 -0.2312
 2030TIP3    H1 6096   2.062   2.015   4.056  1.6134 -1.2513  0.1828
 2030TIP3    H2 6097   2.101   2.101   4.174  0.6431 -0.7422  0.1419
 2031TIP3   OH2 6098   3.846   3.534   1.521  0.2013 -0.7332 -0.2040
 2031TIP3    H1 6099   3.797   3.617   1.523 -0.2288 -0.9553 -1.1314
 2031TIP3    H2 6100   3.907   3.540   1.594 -1.4166 -0.5568  1.1631
 2032TIP3   OH2 6101   2.788   2.340   4.183 -0.2210  0.0593  0.5015
 2032TIP3    H1 6102   2.851   2.283   4.139 -2.2309 -1.8431  0.0507
 2032TIP3    H2 6103   2.708   2.288   4.189 -2.2232  2.9324 -0.2387
 2033TIP3   OH2 6104   1.724   3.465   2.699 -0.3168 -0.5759  0.1592
 2033TIP3    H1 6105   1.698   3.552   2.727 -1.4631 -0.9537  0.2814
 2033TIP3    H2 6106   1.731   3.414   2.780 -0.5365 -0.8393  0.0125
 2034TIP3   OH2 6107   3.616   0.863   2.364  0.0583  0.2778  0.0446
 2034TIP3    H1 6108   3.536   0.911   2.346  0.1563  0.3135 -0.2851
 2034TIP3    H2 6109   3.590   0.797   2.428 -0.0981  0.6942  0.4121
 2035TIP3   OH2 6110   2.171   0.501   1.487  0.1835 -0.4749 -0.2797
 2035TIP3    H1 6111   2.245   0.537   1.535  0.0020 -0.8168  0.2691
 2035TIP3    H2 6112   2.094   0.545   1.524  0.2802  1.5145 -2.3824
 2036TIP3   OH2 6113   1.712   4.660   2.392 -0.0987 -0.4262 -0.3218
 2036TIP3    H1 6114   1.696   4.569   2.416 -1.8193 -0.1717 -0.4639
 2036TIP3    H2 6115   1.676   4.711   2.464  0.9694  0.1470 -0.1859
 2037TIP3   OH2 6116   2.359   1.945   1.490  0.0175 -0.2351 -0.0448
 2037TIP3    H1 6117   2.433   1.890   1.467 -0.2639 -0.2328 -0.9806
 2037TIP3    H2 6118   2.394   2.035   1.487  0.2963 -0.3133  0.7797
 2038TIP3   OH2 6119   0.105   4.125   3.662 -0.2595 -0.2410  0.3012
 2038TIP3    H1 6120   0.055   4.051   3.626  1.3140 -1.7893  1.2437
 2038TIP3    H2 6121   0.181   4.085   3.704  0.9670  1.9748  0.2731
 2039TIP3   OH2 6122   4.275   2.726   3.686 -0.2312 -0.3597 -0.0539
 2039TIP3    H1 6123   4.304   2.794   3.748 -1.1425 -0.7266  0.7925
 2039TIP3    H2 6124   4.291   2.644   3.732  0.0942 -0.6855 -0.7489
 2040TIP3   OH2 6125   2.846   4.247   2.520  0.0995  0.0286  0.3576
 2040TIP3    H1 6126   2.934   4.229   2.487 -0.2462  0.6182 -0.9012
 2040TIP3    H2 6127   2.856   4.325   2.573  0.3062  0.1994  0.0700
 2041TIP3   OH2 6128   1.210   2.294   2.355  0.4118 -0.4048 -0.0793
 2041TIP3    H1 6129   1.235   2.265   2.268  0.2954  1.2978 -0.6992
 2041TIP3    H2 6130   1.293   2.317   2.397  0.3244  0.5783 -0.4222
 2042TIP3   OH2 6131   2.569   3.498   2.497 -0.2051  0.0822 -0.2531
 2042TIP3    H1 6132   2.658   3.499   2.531 -0.9511 -2.2327  1.9570
 2042TIP3    H2 6133   2.575   3.537   2.410  2.6347  1.6495  0.5954
 2043TIP3   OH2 6134   3.223   4.474   3.572  0.0300  0.2071 -0.0982
 2043TIP3    H1 6135   3.147   4.532   3.568  0.2958  0.4789 -2.2687
 2043TIP3    H2 6136   3.187   4.386   3.570 -0.2217  0.3370 -2.3827
 2044TIP3   OH2 6137   3.360   1.331   3.530 -1.0035 -0.1813  0.1210
 2044TIP3    H1 6138   3.416   1.273   3.582  0.3048 -1.0691 -2.2218
 2044TIP3    H2 6139   3.397   1.418   3.544 -1.0521 -0.3189  1.1598
 2045TIP3   OH2 6140   4.379   0.975   2.906  0.0091 -0.4441 -0.5189
 2045TIP3    H1 6141   4.432   0.928   2.841  1.4047 -0.4455  0.5818
 2045TIP3    H2 6142   4.443   1.028   2.954 -0.7838 -1.4987  1.7594
 2046TIP3   OH2 6143   2.654   5.432   3.836 -0.5567  0.1957 -0.5240
 2046TIP3    H1 6144   2.577   5.477   3.871  1.6793  2.2012  2.0923
 2046TIP3    H2 6145   2.636   5.339   3.850 -2.0385  0.6955  1.1409
 2047TIP3   OH2 6146   2.944   5.595   3.152 -0.5807  0.1154 -0.2559
 2047TIP3    H1 6147   2.986   5.658   3.095  0.9091 -0.9404 -0.3403
 2047TIP3    H2 6148   2.967   5.509   3.116 -0.2794 -0.5424  1.4432
 2048TIP3   OH2 6149   2.620   1.131   1.385 -0.4133  0.4145  0.3000
 2048TIP3    H1 6150   2.690   1.166   1.329  0.6145  0.0171  1.2998
 2048TIP3    H2 6151   2.543   1.183   1.364  0.1672  0.7993 -0.9029
 2049TIP3   OH2 6152   4.678   0.650   1.861  0.9438  0.3273 -0.4206
 2049TIP3    H1 6153   4.596   0.606   1.882  0.3437  1.7686  0.3757
 2049TIP3    H2 6154   4.667   0.679   1.771  0.4288  0.8295 -0.1992
 2050TIP3   OH2 6155   3.994   3.857   2.468  0.1328 -0.0651 -0.2793
 2050TIP3    H1 6156   4.048   3.780   2.452 -0.8232 -0.8014  0.0333
 2050TIP3    H2 6157   4.031   3.897   2.547 -0.6835 -1.3821  0.7812
 2051TIP3   OH2 6158   1.842   1.146   1.445  0.3987  0.7086 -0.2582
 2051TIP3    H1 6159   1.882   1.088   1.381 -0.0612 -0.2881  0.3537
 2051TIP3    H2 6160   1.899   1.142   1.522  0.3429  1.0384 -0.1968
 2052TIP3   OH2 6161   4.564   1.398   1.274 -0.3543 -0.6701  0.4701
 2052TIP3    H1 6162   4.531   1.334   1.337 -2.0364 -0.7490 -0.4785
 2052TIP3    H2 6163   4.659   1.382   1.272 -0.5552 -2.0593  1.4301
 2053TIP3   OH2 6164   4.056   1.802   4.952  0.2096 -0.0945 -0.4446
 2053TIP3    H1 6165   4.001   1.864   5.000 -0.1593  2.2637 -3.7805
 2053TIP3    H2 6166   3.999   1.726   4.939  0.0891 -0.5109  2.1295
 2054TIP3   OH2 6167   3.147   1.593   2.967  0.1925 -0.2746 -0.4604
 2054TIP3    H1 6168   3.191   1.569   2.885  0.5097 -0.0331 -0.3640
 2054TIP3    H2 6169   3.080   1.655   2.940  0.9400  0.5641 -0.4290
 2055TIP3   OH2 6170   3.057   1.096   5.130 -0.4056  0.1342  1.0466
 2055TIP3    H1 6171   2.978   1.050   5.156 -1.0714  0.3404 -0.5697
 2055TIP3    H2 6172   3.110   1.029   5.086  0.6822 -0.1981  2.8213
 2056TIP3   OH2 6173   1.725   3.682   2.113  0.3335  0.0911  0.5861
 2056TIP3    H1 6174   1.763   3.607   2.160 -0.8886 -0.9520 -0.0775
 2056TIP3    H2 6175   1.685   3.735   2.182  0.5767 -0.2192  0.9744
 2057TIP3   OH2 6176   0.366   1.068   1.862  0.3349  0.5443  0.3036
 2057TIP3    H1 6177   0.287   1.113   1.890 -0.9763 -0.2112 -1.9998
 2057TIP3    H2 6178   0.435   1.102   1.918 -1.5434  1.5743  2.0307
 2058TIP3   OH2 6179   5.876   5.837   0.480  0.6350  0.8030 -0.4545
 2058TIP3    H1 6180   5.814   5.814   0.411  0.7143 -0.2851 -0.1682
 2058TIP3    H2 6181   5.821   5.855   0.556  0.5558  1.8807 -0.7478
 2059TIP3   OH2 6182   2.981   1.584   4.249 -0.3524 -0.4595 -0.0038
 2059TIP3    H1 6183   2.985   1.677   4.227 -0.4532 -0.8521 -1.8012
 2059TIP3    H2 6184   2.920   1.547   4.184  0.1932 -1.8838  0.2818
 2060TIP3   OH2 6185   3.763   1.929   2.185 -0.0407 -0.5107 -0.7703
 2060TIP3    H1 6186   3.762   1.940   2.089  0.3390 -1.2578 -0.8618
 2060TIP3    H2 6187   3.739   1.837   2.198 -1.2596 -0.0989 -0.0956
 2061TIP3   OH2 6188   0.549   0.574   2.016  0.1296  0.1554 -0.7348
 2061TIP3    H1 6189   0.538   0.664   1.987 -3.1001  0.4287  1.1352
 2061TIP3    H2 6190   0.501   0.522   1.952 -0.1844  0.0137 -0.3868
 2062TIP3   OH2 6191   1.597   1.318   1.952 -0.0861  0.4739  0.0138
 2062TIP3    H1 6192   1.602   1.284   1.863  1.6549  2.1719 -0.5790
 2062TIP3    H2 6193   1.519   1.373   1.953 -0.1755  0.3531 -0.4092
 2063TIP3   OH2 6194   4.241   1.366   1.550 -0.0532 -0.9233  0.2088
 2063TIP3    H1 6195   4.290   1.448   1.551  0.0649 -0.8409 -3.4234
 2063TIP3    H2 6196   4.216   1.351   1.641 -0.4283  3.3639  0.9207
 2064TIP3   OH2 6197   2.076   2.661   3.580 -0.3237  0.5723 -0.0624
 2064TIP3    H1 6198   2.133   2.702   3.645 -0.0991 -0.9171  0.7138
 2064TIP3    H2 6199   2.034   2.589   3.628 -1.3586  0.4494 -1.1485
 2065TIP3   OH2 6200   2.123   1.726   3.949 -0.8817  0.0065  0.3953
 2065TIP3    H1 6201   2.040   1.770   3.929 -1.2247  0.1738  2.0715
 2065TIP3    H2 6202   2.106   1.633   3.934 -1.2852  0.0755  0.4249
 2066TIP3   OH2 6203   2.247   1.189   0.839 -0.4789 -0.1048 -0.7403
 2066TIP3    H1 6204   2.326   1.136   0.831 -0.5161 -0.4584  1.1152
 2066TIP3    H2 6205   2.227   1.216   0.749  0.9098 -1.2221 -1.3952
 2067TIP3   OH2 6206   2.314   2.101   1.166  0.3271  0.3565 -0.3545
 2067TIP3    H1 6207   2.262   2.034   1.121  2.8985 -3.7284  2.4320
 2067TIP3    H2 6208   2.258   2.131   1.237  0.3719 -1.3101  0.4013
 2068TIP3   OH2 6209   2.790   2.276   2.912 -0.1454 -0.3054  0.4249
 2068TIP3    H1 6210   2.809   2.199   2.965 -0.7392 -0.5213  0.3245
 2068TIP3    H2 6211   2.744   2.242   2.835  1.3278 -0.0892 -0.5928
 2069TIP3   OH2 6212   2.410   2.027   4.352 -0.5095 -0.2503  0.5298
 2069TIP3    H1 6213   2.382   1.943   4.389 -0.4710 -0.4230  0.1674
 2069TIP3    H2 6214   2.450   2.004   4.269 -0.4964  0.1304  0.4311
 2070TIP3   OH2 6215   4.621   1.347   1.666  0.9162  0.5209  0.1105
 2070TIP3    H1 6216   4.603   1.437   1.637  3.1318  0.5371 -1.3613
 2070TIP3    H2 6217   4.562   1.333   1.740  1.0290  3.4258  0.8035
 2071TIP3   OH2 6218   3.215   2.250   2.984 -0.2630  0.4117 -0.6569
 2071TIP3    H1 6219   3.308   2.230   2.974 -0.1250  0.2466  0.8679
 2071TIP3    H2 6220   3.171   2.190   2.923  0.4285 -1.7579  0.9339
 2072TIP3   OH2 6221   3.222   5.080   0.141  0.7207 -0.7127  0.2212
 2072TIP3    H1 6222   3.262   5.115   0.061  0.1327 -1.1182 -0.2525
 2072TIP3    H2 6223   3.133   5.058   0.116  0.5388 -0.8591  0.9882
 2073TIP3   OH2 6224   2.288   0.393   2.758 -0.4678  0.6151 -0.0556
 2073TIP3    H1 6225   2.333   0.363   2.679  1.2585  2.0440  0.3560
 2073TIP3    H2 6226   2.212   0.442   2.726 -0.7043 -0.2271 -0.7872
 2074TIP3   OH2 6227   4.604   2.017   1.545 -0.2438  0.1176 -0.0209
 2074TIP3    H1 6228   4.654   2.036   1.466 -1.2707  1.8766 -0.2750
 2074TIP3    H2 6229   4.668   2.028   1.616 -0.3376  2.8008 -0.3020
 2075TIP3   OH2 6230   4.493   1.881   1.811 -0.6909  0.6284  0.1552
 2075TIP3    H1 6231   4.527   1.962   1.771  1.0210  0.3224  0.9188
 2075TIP3    H2 6232   4.483   1.903   1.904  2.5756 -0.8324  0.9306
 2076TIP3   OH2 6233   4.166   1.128   2.949  0.2149  0.2249 -0.1329
 2076TIP3    H1 6234   4.206   1.043   2.933 -2.0552 -0.9643  0.2592
 2076TIP3    H2 6235   4.212   1.163   3.025 -0.3557 -1.6961  1.1178
 2077TIP3   OH2 6236   2.719   3.075   1.407 -0.2399  0.2665  0.1801
 2077TIP3    H1 6237   2.643   3.068   1.349  1.3912 -2.4754 -1.7410
 2077TIP3    H2 6238   2.783   3.125   1.358  0.5230 -0.5848  0.2872
 2078TIP3   OH2 6239   3.071   2.867   3.348  0.0716  0.4175  0.0677
 2078TIP3    H1 6240   3.135   2.815   3.396  0.8863  1.1912 -0.1647
 2078TIP3    H2 6241   3.108   2.876   3.260 -0.1456  1.2205  0.0512
 2079TIP3   OH2 6242   3.962   3.972   1.504 -0.5657 -0.0165  0.4119
 2079TIP3    H1 6243   3.915   4.051   1.529  0.3002 -0.0940  2.3652
 2079TIP3    H2 6244   4.050   4.002   1.481 -0.1133 -0.4265  1.5399
 2080TIP3   OH2 6245   5.095   2.107   3.849  0.0121  0.6071  0.0738
 2080TIP3    H1 6246   5.188   2.107   3.871  0.3071  1.2389 -1.1393
 2080TIP3    H2 6247   5.083   2.030   3.793  0.1032  1.3595 -0.9864
 2081TIP3   OH2 6248   2.867   1.538   3.787 -0.0070  0.1672  0.7820
 2081TIP3    H1 6249   2.846   1.535   3.881  4.5412 -1.8929  1.8556
 2081TIP3    H2 6250   2.814   1.469   3.749  0.0800 -0.7766  2.3156
 2082TIP3   OH2 6251   3.425   2.603   0.890  0.0604  0.1060  0.3531
 2082TIP3    H1 6252   3.508   2.651   0.892  0.3340 -0.3233 -0.6674
 2082TIP3    H2 6253   3.393   2.612   0.801 -0.3887 -0.7511  0.4213
 2083TIP3   OH2 6254   1.298   3.030   0.616 -0.0364 -0.2195 -0.0506
 2083TIP3    H1 6255   1.276   3.120   0.594  0.5810 -0.1558 -0.3885
 2083TIP3    H2 6256   1.214   2.992   0.644 -0.2349  0.5451  0.4203
 2084TIP3   OH2 6257   0.830   3.391   0.437  0.3941 -0.5087 -0.7036
 2084TIP3    H1 6258   0.885   3.470   0.428 -0.5692  0.2412 -0.1144
 2084TIP3    H2 6259   0.869   3.328   0.377  1.6017  0.1831 -0.6732
 2085TIP3   OH2 6260   2.243   2.667   2.801  0.9263 -0.4720  0.8244
 2085TIP3    H1 6261   2.213   2.683   2.891  0.5728  2.9656  0.1471
 2085TIP3    H2 6262   2.305   2.738   2.783  1.2936 -1.3436 -1.5164
 2086TIP3   OH2 6263   1.933   2.371   1.311 -0.4274  0.1799  0.0286
 2086TIP3    H1 6264   1.950   2.300   1.371  1.4185 -1.0213 -1.8447
 2086TIP3    H2 6265   1.841   2.361   1.287 -0.1120 -1.7558 -0.4248
 2087TIP3   OH2 6266   2.342   2.104   1.757  0.0278 -0.0858  0.3135
 2087TIP3    H1 6267   2.403   2.161   1.804  0.2793  0.4362 -0.6493
 2087TIP3    H2 6268   2.348   2.132   1.666 -2.1617  0.4549  0.2984
 2088TIP3   OH2 6269   2.137   1.810   3.593  0.0043 -0.5481 -0.0983
 2088TIP3    H1 6270   2.122   1.904   3.585 -0.4017 -0.5918  0.1597
 2088TIP3    H2 6271   2.222   1.803   3.636  0.0192 -0.3002 -0.0852
 2089TIP3   OH2 6272   2.236   0.439   0.871  0.2133 -0.2444 -0.1371
 2089TIP3    H1 6273   2.277   0.498   0.935  1.0437 -0.1341 -0.7710
 2089TIP3    H2 6274   2.307   0.383   0.840 -0.1719 -0.2514 -1.0252
 2090TIP3   OH2 6275   2.742   4.486   3.413  0.2075 -0.1106 -0.0134
 2090TIP3    H1 6276   2.807   4.415   3.413 -1.2325 -1.4811 -1.2673
 2090TIP3    H2 6277   2.658   4.441   3.402 -0.8368  1.7308  0.2508
 2091TIP3   OH2 6278   1.393   1.350   0.737 -0.7910 -0.0158 -0.2423
 2091TIP3    H1 6279   1.322   1.300   0.698  1.0433 -3.1319  0.2974
 2091TIP3    H2 6280   1.354   1.389   0.816 -1.9323 -1.6195 -0.0003
 2092TIP3   OH2 6281   0.849   1.491   1.508  0.4184  0.0173 -0.3821
 2092TIP3    H1 6282   0.765   1.477   1.551  1.3597  0.6434  1.7050
 2092TIP3    H2 6283   0.879   1.402   1.487  0.5058 -0.3885  1.3761
 2093TIP3   OH2 6284   6.007   3.206   1.147 -0.0204  0.6706 -0.5854
 2093TIP3    H1 6285   6.035   3.200   1.239 -0.7486  0.3454 -0.3854
 2093TIP3    H2 6286   5.964   3.291   1.141  0.3108  0.8307 -0.7054
 2094TIP3   OH2 6287   3.341   0.935   2.350 -0.0588 -0.2402  0.3479
 2094TIP3    H1 6288   3.342   0.858   2.293  2.1454 -0.7056  0.9570
 2094TIP3    H2 6289   3.264   0.923   2.406 -1.0968 -0.7789 -1.1734
 2095TIP3   OH2 6290   1.375   1.478   1.455  0.1424  0.6592 -0.1393
 2095TIP3    H1 6291   1.382   1.457   1.548 -0.8672 -0.2789 -0.2728
 2095TIP3    H2 6292   1.429   1.412   1.411 -0.9993 -0.1483 -0.3611
 2096TIP3   OH2 6293   0.272   2.389   2.965 -0.5673  0.2660 -0.0418
 2096TIP3    H1 6294   0.243   2.339   3.042  3.1327  0.5424  1.6476
 2096TIP3    H2 6295   0.314   2.325   2.909 -4.1496 -0.1308 -2.4836
 2097TIP3   OH2 6296   2.900   1.169   3.059 -0.3021  0.4487  0.4390
 2097TIP3    H1 6297   2.889   1.263   3.071  0.1401  0.5135  0.3292
 2097TIP3    H2 6298   2.931   1.137   3.145  0.5027  0.5512  0.1896
 2098TIP3   OH2 6299   1.935   0.412   3.027 -0.5954 -0.3154 -0.1884
 2098TIP3    H1 6300   1.954   0.494   2.982  2.6399  0.9857  3.3451
 2098TIP3    H2 6301   1.923   0.436   3.119  1.0618 -3.8158  1.0452
 2099TIP3   OH2 6302   2.174   0.301   2.149  0.8023  0.5436 -0.3960
 2099TIP3    H1 6303   2.102   0.318   2.209  1.3018 -0.2014  0.4369
 2099TIP3    H2 6304   2.210   0.387   2.129  0.1195  0.8588 -0.2574
 2100TIP3   OH2 6305   2.159   5.413   1.975  0.4437  0.0135 -0.4233
 2100TIP3    H1 6306   2.094   5.343   1.968 -0.4886  0.7970  0.1761
 2100TIP3    H2 6307   2.129   5.480   1.913  1.4934 -0.2466 -1.2136
 2101TIP3   OH2 6308   2.938   1.762   1.714 -0.0253 -0.0905 -0.3353
 2101TIP3    H1 6309   2.910   1.693   1.774 -0.2605  1.0792  0.9214
 2101TIP3    H2 6310   3.027   1.783   1.741 -0.0914  0.3637 -0.4677
 2102TIP3   OH2 6311   2.427   1.327   3.101  0.0830 -0.3478  0.4133
 2102TIP3    H1 6312   2.479   1.406   3.090  2.5847 -2.0679 -0.6685
 2102TIP3    H2 6313   2.475   1.275   3.166 -0.7875 -1.5728  0.1047
 2103TIP3   OH2 6314   2.506   1.330   4.552  0.0595  0.1847  0.2216
 2103TIP3    H1 6315   2.413   1.355   4.548 -0.8996 -3.2600 -0.8601
 2103TIP3    H2 6316   2.535   1.335   4.461  0.4309 -0.4108  0.3058
 2104TIP3   OH2 6317   0.860   2.101   1.364  0.0164  0.3753 -0.1731
 2104TIP3    H1 6318   0.897   2.068   1.283 -0.8656  0.6929 -0.7140
 2104TIP3    H2 6319   0.820   2.024   1.405  3.5631 -0.5637  1.7570
 2105TIP3   OH2 6320   2.512   1.088   0.738 -0.0156  0.1475 -0.1541
 2105TIP3    H1 6321   2.538   1.004   0.774  1.7919  0.1945 -1.2981
 2105TIP3    H2 6322   2.587   1.146   0.753 -0.3383  0.9222 -1.4149
 2106TIP3   OH2 6323   3.666   4.279   0.524  0.0971  0.1199 -0.2130
 2106TIP3    H1 6324   3.759   4.266   0.505  0.1543 -0.7341  0.6477
 2106TIP3    H2 6325   3.622   4.210   0.475  0.2464 -2.1334  2.7305
 2107TIP3   OH2 6326   1.828   1.810   3.136  0.2225  0.5895  0.0459
 2107TIP3    H1 6327   1.886   1.741   3.103  0.2437  0.9791 -0.7420
 2107TIP3    H2 6328   1.858   1.890   3.093  0.0730  1.0617  0.8082
 2108TIP3   OH2 6329   3.025   4.810   2.583  0.7134  0.0838 -0.8705
 2108TIP3    H1 6330   3.015   4.727   2.536  0.6641 -1.0601  1.0970
 2108TIP3    H2 6331   2.943   4.819   2.632  1.3309  0.5285  0.0875
 2109TIP3   OH2 6332   1.795   1.697   2.835  0.0801 -0.3658 -0.3338
 2109TIP3    H1 6333   1.722   1.750   2.866  0.2421 -1.1857  1.5275
 2109TIP3    H2 6334   1.866   1.760   2.821  0.7606 -0.1701  3.3284
 2110TIP3   OH2 6335   0.666   2.008   2.645  0.3781  0.1049 -0.8495
 2110TIP3    H1 6336   0.651   1.979   2.555 -1.5711 -2.1876  0.1734
 2110TIP3    H2 6337   0.598   2.074   2.660 -1.6247 -2.0876  0.0545
 2111TIP3   OH2 6338   3.379   1.512   2.761 -0.0867 -0.8562 -0.0952
 2111TIP3    H1 6339   3.444   1.533   2.829 -1.3287 -0.6012  1.0377
 2111TIP3    H2 6340   3.415   1.435   2.717  1.1656 -0.4978  0.2716
 2112TIP3   OH2 6341   1.069   2.828   0.599 -0.1086 -0.1409  0.5928
 2112TIP3    H1 6342   1.070   2.775   0.679 -1.3658 -0.7202  0.2430
 2112TIP3    H2 6343   0.996   2.792   0.547 -0.1184  1.0542 -0.2483
 2113TIP3   OH2 6344   2.084   0.925   3.766  0.2928  0.1857  0.3115
 2113TIP3    H1 6345   2.153   0.868   3.801  0.6348  0.0831 -0.5243
 2113TIP3    H2 6346   2.003   0.878   3.785  0.4475  0.2870  1.2629
 2114TIP3   OH2 6347   6.488   2.397   1.502 -0.3323 -0.6475  0.1729
 2114TIP3    H1 6348   6.399   2.409   1.470  0.5001  0.6232 -1.8062
 2114TIP3    H2 6349   6.495   2.455   1.577 -1.1434 -0.6721  0.2661
 2115TIP3   OH2 6350   2.025   1.622   0.019 -0.1222 -0.5998  0.5543
 2115TIP3    H1 6351   2.100   1.668   0.056  0.6926 -1.4332 -0.0473
 2115TIP3    H2 6352   2.049   1.530   0.024 -0.7625 -0.8183 -0.4101
 2116TIP3   OH2 6353   3.371   2.742   3.228  0.1364  0.4895  0.4886
 2116TIP3    H1 6354   3.384   2.817   3.171  0.2192  0.1700  0.0838
 2116TIP3    H2 6355   3.287   2.705   3.200  1.0751 -0.7801 -0.7017
 2117TIP3   OH2 6356   2.858   0.939   3.973 -0.2767 -0.4841 -0.0927
 2117TIP3    H1 6357   2.868   0.925   3.879 -0.7674 -0.8528 -0.0922
 2117TIP3    H2 6358   2.916   1.012   3.993 -0.1232 -0.4475 -0.6718
 2118TIP3   OH2 6359   2.154   0.569   2.612  0.7413 -0.0626  0.0788
 2118TIP3    H1 6360   2.198   0.596   2.531 -0.6607 -3.1669 -1.8413
 2118TIP3    H2 6361   2.091   0.639   2.629  0.0458 -0.0144 -2.3737
 2119TIP3   OH2 6362   2.044   1.470   2.644 -0.4115 -0.0780 -0.2513
 2119TIP3    H1 6363   2.010   1.558   2.662 -0.0763 -0.0316  0.1364
 2119TIP3    H2 6364   2.014   1.417   2.717  2.7576  0.5789  1.5669
 2120TIP3   OH2 6365   0.405   1.745   0.679  0.2403  0.1813 -0.1417
 2120TIP3    H1 6366   0.354   1.676   0.637  0.2074 -0.4798  0.9567
 2120TIP3    H2 6367   0.496   1.716   0.671  0.3300  0.6371 -0.7991
 2121TIP3   OH2 6368   3.281   2.859   4.983 -0.1770 -0.4543  0.2605
 2121TIP3    H1 6369   3.247   2.842   5.071 -0.8623 -2.1152 -0.3169
 2121TIP3    H2 6370   3.205   2.852   4.926  0.5960 -1.2634 -0.6883
 2122TIP3   OH2 6371   0.990   1.821   2.470 -0.3578  0.2553 -0.3596
 2122TIP3    H1 6372   0.927   1.787   2.534 -0.7198  0.1851 -0.7558
 2122TIP3    H2 6373   1.070   1.837   2.522  0.0016 -1.7071 -0.2601
 2123TIP3   OH2 6374   1.587   1.210   4.721  0.1262  0.7057  0.0047
 2123TIP3    H1 6375   1.495   1.193   4.740  0.5760  1.0340  2.6892
 2123TIP3    H2 6376   1.588   1.295   4.678 -0.9187  0.2254 -0.9736
 2124TIP3   OH2 6377   3.136   2.044   3.607  0.4303 -0.6504  0.4373
 2124TIP3    H1 6378   3.153   2.024   3.515  0.1935  2.2568 -0.2923
 2124TIP3    H2 6379   3.092   1.966   3.641 -1.1824 -1.0386 -2.4008
 2125TIP3   OH2 6380   3.156   2.761   5.212 -0.1910  0.2029  0.1847
 2125TIP3    H1 6381   3.085   2.825   5.210 -0.2568  0.1225 -0.0233
 2125TIP3    H2 6382   3.166   2.740   5.305 -3.2887 -2.9707 -0.0806
 2126TIP3   OH2 6383   4.686   2.462   3.480  0.1576 -0.1480  0.3624
 2126TIP3    H1 6384   4.655   2.437   3.393 -0.0270  1.5655 -0.0668
 2126TIP3    H2 6385   4.649   2.549   3.495  2.8705  0.9703  0.7996
 2127TIP3   OH2 6386   3.987   4.542   5.100  0.1325 -0.6489 -0.6890
 2127TIP3    H1 6387   4.056   4.605   5.080  0.3501 -0.2017  1.3791
 2127TIP3    H2 6388   4.031   4.457   5.100  0.6876 -0.3688  0.5957
 2128TIP3   OH2 6389   2.895   2.006   2.479 -0.4409 -0.8124  0.5822
 2128TIP3    H1 6390   2.977   1.982   2.436 -0.6088 -1.8166  0.8012
 2128TIP3    H2 6391   2.836   2.029   2.407  0.1328  0.2727  0.4453
 2129TIP3   OH2 6392   3.078   1.366   3.677  0.2136 -0.0749 -0.0252
 2129TIP3    H1 6393   3.001   1.419   3.695 -0.0946 -0.6897  0.5045
 2129TIP3    H2 6394   3.143   1.394   3.742  0.0951 -0.2571  0.1714
 2130TIP3   OH2 6395   3.105   1.528   5.137  0.0493  0.6808  0.1092
 2130TIP3    H1 6396   3.182   1.486   5.176  0.9326  1.4631 -0.7646
 2130TIP3    H2 6397   3.084   1.601   5.195 -1.5505 -0.9884  1.6867
 2131TIP3   OH2 6398   4.810   1.670   5.145  0.6569  0.2224  1.3955
 2131TIP3    H1 6399   4.740   1.734   5.132  1.7560  0.9998 -1.0107
 2131TIP3    H2 6400   4.782   1.593   5.095  1.6778  0.6843  0.0841
 2132TIP3   OH2 6401   5.479   4.899   2.668  0.0237  0.0186 -0.3478
 2132TIP3    H1 6402   5.504   4.989   2.687 -1.7743  0.8050 -1.6522
 2132TIP3    H2 6403   5.412   4.878   2.733 -0.4323  0.0253 -0.8167
 2133TIP3   OH2 6404   3.476   0.762   5.177  0.1893  0.2659  0.3077
 2133TIP3    H1 6405   3.490   0.674   5.143 -0.2524  0.7029 -1.0388
 2133TIP3    H2 6406   3.383   0.779   5.164  0.1219  0.6738  1.2160
 2134TIP3   OH2 6407   4.558   1.800   5.169 -0.1911 -0.7326 -0.0014
 2134TIP3    H1 6408   4.464   1.796   5.187 -0.4355 -1.3099 -1.3677
 2134TIP3    H2 6409   4.599   1.781   5.254 -1.2855  0.6659  0.8690
 2135TIP3   OH2 6410   3.583   1.608   2.229  0.0019 -0.0055  0.2392
 2135TIP3    H1 6411   3.583   1.513   2.227 -0.8892 -0.0980  2.3438
 2135TIP3    H2 6412   3.529   1.630   2.306  1.8409  2.1304  0.9895
 2136TIP3   OH2 6413   5.304   4.529   5.146 -0.0759  0.5615 -0.3821
 2136TIP3    H1 6414   5.360   4.518   5.069  1.7687 -2.0079  1.2729
 2136TIP3    H2 6415   5.218   4.497   5.117  0.1626  1.2019 -1.8646
 2137TIP3   OH2 6416   1.431   3.173   3.242  0.1774  0.5477  0.2204
 2137TIP3    H1 6417   1.475   3.201   3.323  1.1332 -1.1480  0.3118
 2137TIP3    H2 6418   1.495   3.191   3.173 -0.3514  1.3139 -0.0653
 2138TIP3   OH2 6419   0.814   2.163   4.651 -0.3633 -0.3622  0.0547
 2138TIP3    H1 6420   0.807   2.214   4.570 -0.3662  1.2595  1.0473
 2138TIP3    H2 6421   0.725   2.161   4.686  0.1653  1.6446  1.5994
 2139TIP3   OH2 6422   1.680   3.357   4.640 -0.0835 -0.3887 -0.1226
 2139TIP3    H1 6423   1.630   3.367   4.721  0.2958 -1.3688  0.2437
 2139TIP3    H2 6424   1.731   3.277   4.653  0.4149 -0.2405 -1.1040
 2140TIP3   OH2 6425   2.949   2.533   2.561  0.0717  0.2735 -0.0083
 2140TIP3    H1 6426   2.968   2.527   2.655 -1.6078  3.0416  0.5774
 2140TIP3    H2 6427   2.855   2.513   2.555 -0.0339  1.0250 -0.9605
 2141TIP3   OH2 6428   3.384   2.523   3.744  0.2928  0.1237  0.2761
 2141TIP3    H1 6429   3.335   2.531   3.826  0.4262 -3.0664  0.7714
 2141TIP3    H2 6430   3.466   2.480   3.770 -0.3038 -2.3520 -1.6652
 2142TIP3   OH2 6431   3.207   2.539   3.949 -0.2241 -0.1396 -0.6777
 2142TIP3    H1 6432   3.162   2.623   3.944 -0.0269  0.0731  1.0257
 2142TIP3    H2 6433   3.249   2.539   4.034 -0.4897 -2.1052 -0.5263
 2143TIP3   OH2 6434   1.801   5.078   1.666  0.1423 -0.2468 -0.1783
 2143TIP3    H1 6435   1.875   5.048   1.718  0.4473  1.2053  0.2477
 2143TIP3    H2 6436   1.838   5.097   1.579  0.1471 -0.1496 -0.1552
 2144TIP3   OH2 6437   3.643   1.869   2.956  0.1717 -0.8949  0.4176
 2144TIP3    H1 6438   3.733   1.861   2.926 -0.1401 -0.2296 -0.7242
 2144TIP3    H2 6439   3.618   1.959   2.934 -1.0903 -1.3849 -0.2351
 2145TIP3   OH2 6440   1.968   3.120   4.290  0.0173 -0.6664 -0.0824
 2145TIP3    H1 6441   1.992   3.033   4.259  0.4254 -1.6948  2.9840
 2145TIP3    H2 6442   1.874   3.112   4.310 -0.3085  0.0778 -1.2288
 2146TIP3   OH2 6443   2.181   3.448   1.830  0.2435 -0.3326 -0.4524
 2146TIP3    H1 6444   2.260   3.429   1.881  1.3678  1.4588 -1.4901
 2146TIP3    H2 6445   2.115   3.388   1.865  1.6565 -0.8186  1.4408
 2147TIP3   OH2 6446   0.711   1.350   0.950 -0.1293  0.3748  0.1634
 2147TIP3    H1 6447   0.617   1.341   0.934  0.1754  0.0897 -1.5167
 2147TIP3    H2 6448   0.729   1.292   1.025 -1.3632  0.8271  0.8203
 2148TIP3   OH2 6449   3.909   1.327   1.783  0.2841 -0.5256  0.1156
 2148TIP3    H1 6450   3.838   1.371   1.829  0.7357 -0.2008  0.5076
 2148TIP3    H2 6451   3.948   1.269   1.848  1.0768  0.1136  0.2206
 2149TIP3   OH2 6452   2.017   2.176   3.598 -0.1269  0.0638  0.4444
 2149TIP3    H1 6453   2.043   2.147   3.511  0.1201 -0.4977  0.7019
 2149TIP3    H2 6454   1.945   2.237   3.583 -1.1057 -1.2000 -0.0686
 2150TIP3   OH2 6455   1.410   2.805   2.656  0.3313  0.0703 -0.2713
 2150TIP3    H1 6456   1.485   2.820   2.713 -0.9183 -0.2671  1.5145
 2150TIP3    H2 6457   1.413   2.711   2.635  0.0372 -0.0863  0.3671
 2151TIP3   OH2 6458   5.362   4.020   4.125 -0.3010 -0.2588 -0.1827
 2151TIP3    H1 6459   5.345   4.114   4.112 -1.6421 -0.3757  0.6510
 2151TIP3    H2 6460   5.420   4.017   4.201  0.2420 -0.0806 -0.5828
 2152TIP3   OH2 6461   2.653   1.043   1.683  0.4938 -1.0036  0.0809
 2152TIP3    H1 6462   2.594   1.031   1.610 -2.5596 -0.3052  2.3344
 2152TIP3    H2 6463   2.633   1.131   1.716  2.3398 -1.0112  1.3002
 2153TIP3   OH2 6464   0.724   1.587   1.174 -0.4193 -0.1927 -0.0131
 2153TIP3    H1 6465   0.661   1.532   1.220  0.5923 -0.7743  0.7219
 2153TIP3    H2 6466   0.732   1.549   1.087 -1.2031 -0.0176 -0.1569
 2154TIP3   OH2 6467   5.587   0.280   2.403  0.3014  0.1970 -0.0817
 2154TIP3    H1 6468   5.573   0.375   2.406  1.6654  0.4689 -1.5585
 2154TIP3    H2 6469   5.634   0.259   2.483  0.0544  0.7899  0.2149
 2155TIP3   OH2 6470   2.172   1.538   3.581  0.1076 -0.1880  0.5787
 2155TIP3    H1 6471   2.170   1.633   3.572  0.1742 -0.2576 -0.1844
 2155TIP3    H2 6472   2.228   1.522   3.657 -1.2691  0.4467  1.7734
 2156TIP3   OH2 6473   2.651   1.071   2.365 -0.3894  0.4063 -0.1802
 2156TIP3    H1 6474   2.683   1.161   2.370  0.1143  0.1813  1.0545
 2156TIP3    H2 6475   2.575   1.070   2.423 -0.9091  0.2534 -0.8743
 2157TIP3   OH2 6476   4.298   0.781   3.495 -0.1582 -0.2094  0.3828
 2157TIP3    H1 6477   4.297   0.729   3.415 -1.4035  0.2215  0.1059
 2157TIP3    H2 6478   4.385   0.766   3.532 -0.4398 -2.3730  0.2514
 2158TIP3   OH2 6479   5.696   5.481   1.663 -0.1266 -0.6010  0.9153
 2158TIP3    H1 6480   5.704   5.476   1.567  0.0319  0.1499  0.8911
 2158TIP3    H2 6481   5.622   5.423   1.683 -0.3981 -0.4748  0.3073
 2159TIP3   OH2 6482   2.583   1.163   3.248 -0.1125  0.0135 -0.1188
 2159TIP3    H1 6483   2.617   1.216   3.320 -1.0241  0.0122  0.3117
 2159TIP3    H2 6484   2.599   1.073   3.276  0.8861  0.0376 -0.5836
 2160TIP3   OH2 6485   5.205   1.037   2.895  0.1125 -0.7535 -0.4179
 2160TIP3    H1 6486   5.144   1.102   2.858  1.2232  0.0087 -0.9245
 2160TIP3    H2 6487   5.199   1.049   2.989 -0.5261 -0.6812 -0.4654
 2161TIP3   OH2 6488   4.196   2.401   3.057  0.3698 -0.3678 -0.1357
 2161TIP3    H1 6489   4.233   2.478   3.101  0.7777  0.0731 -1.2313
 2161TIP3    H2 6490   4.255   2.329   3.081  1.2242  0.0886 -0.8596
 2162TIP3   OH2 6491   4.147   3.060   0.885 -0.2163 -0.2187 -0.0564
 2162TIP3    H1 6492   4.102   3.143   0.869  1.2202  0.4711 -0.6672
 2162TIP3    H2 6493   4.185   3.070   0.973  3.4053  1.4531 -1.7004
 2163TIP3   OH2 6494   3.649   0.597   2.465  0.0327 -0.4897 -0.0962
 2163TIP3    H1 6495   3.578   0.535   2.452  0.0471 -0.8582  1.5177
 2163TIP3    H2 6496   3.715   0.571   2.400 -2.1277  1.2073 -3.1270
 2164TIP3   OH2 6497   2.887   4.124   2.139 -0.1220 -0.2310 -0.0886
 2164TIP3    H1 6498   2.975   4.153   2.163 -0.6752  1.0627  0.4469
 2164TIP3    H2 6499   2.870   4.048   2.194 -0.4883  1.3235  2.0147
 2165TIP3   OH2 6500   2.485   2.075   2.985 -0.1572 -0.1486 -0.0689
 2165TIP3    H1 6501   2.538   2.151   3.009  1.3954 -0.1723 -3.1948
 2165TIP3    H2 6502   2.521   2.004   3.038  0.3543  0.6628  0.6932
 2166TIP3   OH2 6503   1.344   3.637   2.113  0.0217 -0.4562 -0.3348
 2166TIP3    H1 6504   1.394   3.557   2.097  1.7852  0.4653  0.5024
 2166TIP3    H2 6505   1.322   3.634   2.206  0.7310  0.4032 -0.1400
 2167TIP3   OH2 6506   3.805   2.922   2.401  0.0842 -0.0654  0.4126
 2167TIP3    H1 6507   3.753   2.996   2.369 -1.1325 -0.8452  0.5652
 2167TIP3    H2 6508   3.796   2.925   2.496  1.2612  0.4694  0.5171
 2168TIP3   OH2 6509   3.480   5.784   4.503  0.5274  0.3319  0.2505
 2168TIP3    H1 6510   3.404   5.836   4.479  0.6393 -0.1202 -1.0933
 2168TIP3    H2 6511   3.499   5.731   4.426  0.3136 -1.8295  1.6692
 2169TIP3   OH2 6512   5.596   0.008   0.657  0.0513 -0.0720  0.2406
 2169TIP3    H1 6513   5.638   0.092   0.678 -1.5869  0.6424  0.7334
 2169TIP3    H2 6514   5.615  -0.005   0.564 -0.9317  1.5844 -0.2125
 2170TIP3   OH2 6515   2.945   1.768   2.932 -0.2164 -0.1983 -0.0451
 2170TIP3    H1 6516   2.937   1.862   2.949 -2.3683 -0.5974  1.4281
 2170TIP3    H2 6517   2.887   1.752   2.857  1.1164 -0.1591 -1.0951
 2171TIP3   OH2 6518   3.099   5.360   1.776 -0.2531 -0.5808 -0.2460
 2171TIP3    H1 6519   3.131   5.285   1.826  0.8146 -0.7118 -1.1101
 2171TIP3    H2 6520   3.022   5.390   1.825  0.2228 -1.2714  0.9657
 2172TIP3   OH2 6521   3.166   5.309   3.492 -0.0088 -0.0028  0.2338
 2172TIP3    H1 6522   3.094   5.255   3.523 -0.2495  0.0659 -0.1943
 2172TIP3    H2 6523   3.189   5.365   3.566 -1.2923  0.9170 -0.0435
 2173TIP3   OH2 6524   1.688   3.742   4.678  0.2613 -0.2849  0.3260
 2173TIP3    H1 6525   1.701   3.833   4.704  1.4970 -0.6310  0.9585
 2173TIP3    H2 6526   1.595   3.726   4.691 -0.2313  1.2888 -1.0982
 2174TIP3   OH2 6527   1.813   0.719   3.573 -0.1460 -0.3786  0.4271
 2174TIP3    H1 6528   1.739   0.673   3.534 -1.2956  1.8242 -0.0600
 2174TIP3    H2 6529   1.887   0.697   3.516 -0.8539 -0.8836 -0.3121
 2175TIP3   OH2 6530   1.684   0.220   1.963 -0.2015  0.1717 -0.0596
 2175TIP3    H1 6531   1.641   0.159   2.024 -3.6018  2.6802  0.1834
 2175TIP3    H2 6532   1.666   0.184   1.876 -2.9541  1.1700  0.0336
 2176TIP3   OH2 6533   3.012   2.672   1.857 -0.0552  0.4059 -0.0661
 2176TIP3    H1 6534   3.051   2.723   1.928  2.3098  0.5125 -1.3954
 2176TIP3    H2 6535   3.011   2.582   1.890 -0.9108  0.7576  0.8958
 2177TIP3   OH2 6536   6.372   5.832   3.182 -0.0787  0.3930 -0.1477
 2177TIP3    H1 6537   6.301   5.776   3.213  0.2179 -0.0687 -0.2836
 2177TIP3    H2 6538   6.452   5.784   3.206  0.1687  0.5607 -0.6340
 2178TIP3   OH2 6539   1.474   5.008   4.310  0.2370  0.0773  0.7697
 2178TIP3    H1 6540   1.509   5.055   4.235  2.8971 -1.9984  0.6469
 2178TIP3    H2 6541   1.480   5.071   4.382  2.7866  0.3138  0.3940
 2179TIP3   OH2 6542   2.273   0.146   1.091 -0.2418  0.0115  0.1476
 2179TIP3    H1 6543   2.251   0.056   1.116  0.2052  0.0700  0.7661
 2179TIP3    H2 6544   2.226   0.201   1.154  0.0884  0.1863  0.2430
 2180TIP3   OH2 6545   3.141   5.408   3.929 -0.3783  0.0217  0.7124
 2180TIP3    H1 6546   3.100   5.455   4.001  0.0810  0.2132  0.8528
 2180TIP3    H2 6547   3.078   5.413   3.858  0.2449  2.0951  0.2602
 2181TIP3   OH2 6548   1.665   0.994   1.028  0.2083  0.3387  0.5863
 2181TIP3    H1 6549   1.603   1.015   1.098 -2.1437  3.5923 -2.2814
 2181TIP3    H2 6550   1.627   0.917   0.986  0.7419 -0.6071  1.7903
 2182TIP3   OH2 6551   0.848   0.116   2.723  0.0849  0.2637 -0.2711
 2182TIP3    H1 6552   0.859   0.022   2.738 -2.1529  0.0842  0.4236
 2182TIP3    H2 6553   0.755   0.132   2.737  0.4684  2.6335 -0.1962
 2183TIP3   OH2 6554   1.644   1.316   0.556 -0.0644  0.2838 -0.3826
 2183TIP3    H1 6555   1.665   1.301   0.648 -1.4452  1.7456  0.1831
 2183TIP3    H2 6556   1.549   1.328   0.554 -0.2437 -1.1285 -2.2036
 2184TIP3   OH2 6557   1.595   3.422   1.610  0.6403  0.0212 -0.2285
 2184TIP3    H1 6558   1.565   3.344   1.657  1.1258 -0.0477 -0.0246
 2184TIP3    H2 6559   1.679   3.443   1.651  0.2186  1.0147  0.1403
 2185TIP3   OH2 6560   2.135   1.648   3.256 -0.2787  0.2125 -0.0783
 2185TIP3    H1 6561   2.102   1.710   3.321 -0.6658 -0.7688  0.6687
 2185TIP3    H2 6562   2.146   1.566   3.304  0.7520 -0.1642 -0.9348
 2186TIP3   OH2 6563   1.678   1.626   2.005  0.4589 -0.1249  0.0259
 2186TIP3    H1 6564   1.763   1.638   2.047  1.4997 -0.6665 -1.8411
 2186TIP3    H2 6565   1.618   1.609   2.077  1.6552  1.6883  1.5008
 2187TIP3   OH2 6566   4.035   0.289   3.812 -0.4700  0.2787  0.0674
 2187TIP3    H1 6567   4.118   0.290   3.860 -0.4370 -0.2870  0.0207
 2187TIP3    H2 6568   3.979   0.351   3.859  0.2354  1.2330 -0.3489
 2188TIP3   OH2 6569   2.275   1.724   3.017  0.3361 -0.1752  0.1719
 2188TIP3    H1 6570   2.254   1.813   2.992 -0.3131  0.1350  1.7646
 2188TIP3    H2 6571   2.212   1.703   3.087  0.6675 -1.7601  0.0088
 2189TIP3   OH2 6572   3.566   0.199   3.703  0.3204  0.1119  0.0851
 2189TIP3    H1 6573   3.533   0.289   3.713  0.5958  0.4858 -2.0966
 2189TIP3    H2 6574   3.655   0.202   3.739  0.8112  1.0640 -1.1616
 2190TIP3   OH2 6575   0.470   2.854   1.679 -0.2175 -0.4640 -0.0519
 2190TIP3    H1 6576   0.558   2.860   1.640 -0.5123 -1.3100 -0.8619
 2190TIP3    H2 6577   0.411   2.884   1.610 -0.6452 -0.7384  0.1955
 2191TIP3   OH2 6578   0.757   5.646   3.442  0.3701  0.3851 -0.5547
 2191TIP3    H1 6579   0.737   5.563   3.400  0.1982  0.5343 -0.7673
 2191TIP3    H2 6580   0.726   5.713   3.381 -2.9367  0.5886  1.2348
 2192TIP3   OH2 6581   4.136   3.443   1.405 -0.1626 -0.4300  0.9894
 2192TIP3    H1 6582   4.126   3.407   1.317 -0.3887  0.7634  0.5300
 2192TIP3    H2 6583   4.129   3.366   1.463  1.5406 -1.4516 -0.0967
 2193TIP3   OH2 6584   5.249   3.760   3.308  0.0522 -0.3275 -0.1193
 2193TIP3    H1 6585   5.173   3.713   3.272 -0.8457  1.2651 -0.3446
 2193TIP3    H2 6586   5.321   3.736   3.250 -0.1939 -2.1301  0.2931
 2194TIP3   OH2 6587   2.950   2.425   3.345 -0.2897  0.7816  0.1557
 2194TIP3    H1 6588   2.915   2.508   3.312 -0.0956  0.7795 -0.0580
 2194TIP3    H2 6589   3.037   2.447   3.379 -0.4850  0.7788  0.6471
 2195TIP3   OH2 6590   4.640   3.355   2.932 -0.1212  0.2272 -0.4065
 2195TIP3    H1 6591   4.656   3.361   2.837  0.1592  2.6174 -0.2252
 2195TIP3    H2 6592   4.711   3.405   2.972 -0.6442 -0.1628  1.0382
 2196TIP3   OH2 6593   1.188   2.868   1.123 -0.9353  0.4352  0.3410
 2196TIP3    H1 6594   1.178   2.821   1.205 -0.8944 -0.6065 -0.2409
 2196TIP3    H2 6595   1.159   2.806   1.056  2.0130  0.1210 -0.7121
 2197TIP3   OH2 6596   4.797   1.339   2.697 -0.0346  0.5994 -0.0544
 2197TIP3    H1 6597   4.721   1.321   2.752 -0.3687  1.0726 -0.3598
 2197TIP3    H2 6598   4.767   1.322   2.608  0.4281  0.0924 -0.1121
 2198TIP3   OH2 6599   2.911   2.940   4.088 -0.5025  0.2202  0.3575
 2198TIP3    H1 6600   2.886   3.031   4.073 -2.4452 -0.1240  1.2961
 2198TIP3    H2 6601   2.837   2.903   4.136  0.6709 -1.6125  0.7939
 2199TIP3   OH2 6602   2.768   1.123   4.261  0.0723 -0.1645 -0.3049
 2199TIP3    H1 6603   2.843   1.088   4.308  0.5874  1.4197  0.0953
 2199TIP3    H2 6604   2.801   1.140   4.172 -0.0146 -0.1612 -0.3364
 2200TIP3   OH2 6605   6.468   1.244   3.571  0.9228  0.4344 -0.3630
 2200TIP3    H1 6606   6.514   1.193   3.638  0.2299  1.2454  0.7434
 2200TIP3    H2 6607   6.416   1.180   3.523  0.4486  0.0203  0.6888
 2201TIP3   OH2 6608   5.732   2.439   2.617  0.4699 -0.4554 -0.0335
 2201TIP3    H1 6609   5.826   2.457   2.618 -0.1227  2.7971  2.3935
 2201TIP3    H2 6610   5.694   2.512   2.568 -0.9331 -0.9737  0.2553
 2202TIP3   OH2 6611   0.730   4.834   0.040 -0.2120 -0.0507 -0.3179
 2202TIP3    H1 6612   0.700   4.922   0.064  1.1283 -0.3175  2.5656
 2202TIP3    H2 6613   0.655   4.794  -0.003 -2.7704  0.6046  3.2978
 2203TIP3   OH2 6614   4.510   2.789   2.513 -0.5351  0.1372  0.4558
 2203TIP3    H1 6615   4.421   2.791   2.479 -0.7603  0.4832  1.0491
 2203TIP3    H2 6616   4.503   2.743   2.597 -0.3618  1.1958  1.0581
 2204TIP3   OH2 6617   0.126   2.277   3.972 -0.3128  0.4475  0.7288
 2204TIP3    H1 6618   0.093   2.235   3.893  0.1953 -0.6709  1.0937
 2204TIP3    H2 6619   0.099   2.368   3.964 -2.5819 -0.2186  0.5449
 2205TIP3   OH2 6620   3.540   1.598   2.935 -0.4476 -0.0886 -0.0603
 2205TIP3    H1 6621   3.579   1.685   2.934  0.2473 -0.3914  0.3460
 2205TIP3    H2 6622   3.601   1.544   2.985 -1.4317 -0.5471  0.6897
 2206TIP3   OH2 6623   4.954   1.178   0.706 -0.3019 -0.1081  0.0302
 2206TIP3    H1 6624   4.914   1.166   0.620 -0.7739 -1.4274  0.4134
 2206TIP3    H2 6625   4.979   1.270   0.708 -1.6700  0.3107 -0.9243
 2207TIP3   OH2 6626   4.367   1.776   3.583 -0.2652  0.6806  0.1365
 2207TIP3    H1 6627   4.424   1.727   3.524  0.5606  2.6338 -0.7345
 2207TIP3    H2 6628   4.288   1.794   3.530 -0.2401  0.9545  0.1909
 2208TIP3   OH2 6629   4.536   2.558   3.983 -0.1157  0.4992 -0.5420
 2208TIP3    H1 6630   4.623   2.525   3.957  0.7678  2.0380  0.3939
 2208TIP3    H2 6631   4.553   2.611   4.061 -2.1180 -0.3687  0.5202
 2209TIP3   OH2 6632   4.068   5.006   1.129 -0.6728  0.2406  0.1621
 2209TIP3    H1 6633   4.067   4.965   1.043 -0.7443 -1.2980  0.8932
 2209TIP3    H2 6634   4.151   4.979   1.168 -1.6169 -0.8693  1.4318
 2210TIP3   OH2 6635   2.292   5.926   4.398 -0.6016  0.1808  0.7768
 2210TIP3    H1 6636   2.248   6.009   4.385 -0.4929  0.0443 -0.5374
 2210TIP3    H2 6637   2.364   5.926   4.334 -1.8746 -1.7986 -0.7295
 2211TIP3   OH2 6638   5.057   3.845   4.233 -0.2236 -0.3935 -0.1762
 2211TIP3    H1 6639   5.048   3.940   4.222  1.6789 -0.1351  0.4167
 2211TIP3    H2 6640   5.147   3.826   4.209 -0.2411 -1.8953  0.8490
 2212TIP3   OH2 6641   3.981   2.627   1.719 -0.0148  0.7436 -0.0092
 2212TIP3    H1 6642   4.040   2.697   1.694  0.3780 -0.2205 -1.8994
 2212TIP3    H2 6643   3.895   2.655   1.687  0.0389  0.6160 -0.2649
 2213TIP3   OH2 6644   4.023   3.268   0.376 -0.7591 -0.2478 -0.2045
 2213TIP3    H1 6645   3.938   3.229   0.398 -0.7175 -0.3504 -0.2260
 2213TIP3    H2 6646   4.026   3.266   0.280 -1.0889  0.5170 -0.2329
 2214TIP3   OH2 6647   2.730   4.030   1.945  0.2975  0.1553  0.4546
 2214TIP3    H1 6648   2.762   4.036   1.855 -0.5106  0.2111  0.1659
 2214TIP3    H2 6649   2.793   4.081   1.996 -0.0987  1.4096 -0.3008
 2215TIP3   OH2 6650   6.302   2.587   3.625 -0.8943 -0.2087 -0.3819
 2215TIP3    H1 6651   6.229   2.648   3.624 -0.9779 -0.3131 -0.6948
 2215TIP3    H2 6652   6.337   2.589   3.536 -1.7304 -1.6003 -0.7738
 2216TIP3   OH2 6653   0.068   2.239   2.624 -0.3654 -0.1799 -0.2681
 2216TIP3    H1 6654   0.115   2.202   2.699 -1.3418  1.3855  1.1525
 2216TIP3    H2 6655   0.136   2.274   2.567  0.3046  0.3744  0.8524
 2217TIP3   OH2 6656   2.739   3.370   1.264  0.0010  0.5625 -0.6584
 2217TIP3    H1 6657   2.793   3.448   1.271 -0.7686  0.9915  0.5698
 2217TIP3    H2 6658   2.652   3.397   1.293 -0.5907 -0.4197 -1.4610
 2218TIP3   OH2 6659   3.934   2.322   2.090 -0.4874 -0.3560 -0.2465
 2218TIP3    H1 6660   3.904   2.342   2.002  0.9707  1.8115 -0.2779
 2218TIP3    H2 6661   3.973   2.404   2.122 -1.1486 -1.0384  2.4725
 2219TIP3   OH2 6662   6.318   2.960   1.826  0.2970 -0.7461 -0.3645
 2219TIP3    H1 6663   6.332   2.971   1.920  2.5942 -0.1322 -0.7568
 2219TIP3    H2 6664   6.324   3.048   1.789  1.4388 -1.2184 -1.3424
 2220TIP3   OH2 6665   3.202   3.731   1.845 -0.3523 -0.6012 -0.4921
 2220TIP3    H1 6666   3.122   3.738   1.897 -0.3056 -1.0472 -0.3541
 2220TIP3    H2 6667   3.263   3.793   1.885 -0.6541 -0.2125 -0.6410
 2221TIP3   OH2 6668   4.518   2.074   2.090  0.0039 -0.5634 -0.3970
 2221TIP3    H1 6669   4.504   2.169   2.095  1.3171 -0.4327  1.2801
 2221TIP3    H2 6670   4.489   2.041   2.175  1.6718 -1.3500 -0.1184
 2222TIP3   OH2 6671   5.588   3.689   2.137  0.1921  0.4729  0.1374
 2222TIP3    H1 6672   5.630   3.606   2.115  0.7798  1.2155 -1.6351
 2222TIP3    H2 6673   5.623   3.711   2.223  2.0897  0.1895 -0.5324
 2223TIP3   OH2 6674   6.240   5.703   5.019  0.2513  0.7827 -0.5110
 2223TIP3    H1 6675   6.326   5.741   5.003  0.4870 -0.0516 -1.2813
 2223TIP3    H2 6676   6.249   5.656   5.102  0.6662  0.3237 -0.8135
 2224TIP3   OH2 6677   1.705   3.207   1.993 -0.0874  0.2926 -0.1750
 2224TIP3    H1 6678   1.785   3.222   1.942 -0.0152 -1.4325 -0.6039
 2224TIP3    H2 6679   1.735   3.158   2.069 -0.8836 -1.2491 -0.8482
 2225TIP3   OH2 6680   6.459   5.336   5.144 -0.1941 -0.0467  0.0673
 2225TIP3    H1 6681   6.528   5.355   5.080  1.2743 -0.4405  1.4886
 2225TIP3    H2 6682   6.474   5.245   5.169  0.1839  0.5470  2.0636
 2226TIP3   OH2 6683   3.449   2.117   0.659  0.0042  0.2404  0.0748
 2226TIP3    H1 6684   3.471   2.171   0.582 -0.5209  2.4872  1.4607
 2226TIP3    H2 6685   3.419   2.180   0.724 -1.7958 -1.8809  1.3476
 2227TIP3   OH2 6686   4.324   4.071   1.957 -0.1393  0.7437  0.0760
 2227TIP3    H1 6687   4.317   4.143   1.894  0.0467 -0.9295 -1.9028
 2227TIP3    H2 6688   4.406   4.028   1.934 -0.4455 -0.3404  1.0049
 2228TIP3   OH2 6689   1.858   1.251   4.428  0.2192 -0.0943 -0.2161
 2228TIP3    H1 6690   1.869   1.236   4.334  0.6902  1.6154 -0.4437
 2228TIP3    H2 6691   1.887   1.169   4.468 -1.0569 -1.2608 -1.6014
 2229TIP3   OH2 6692   1.089   4.339   0.302 -0.1978 -0.2277  0.2087
 2229TIP3    H1 6693   1.082   4.358   0.209  1.9616 -2.5574 -0.4773
 2229TIP3    H2 6694   1.165   4.388   0.332  0.1287 -0.8128  0.3528
 2230TIP3   OH2 6695   5.933   1.780   3.517  0.6465  0.5194 -0.8148
 2230TIP3    H1 6696   5.961   1.869   3.538  1.5902  0.0982 -0.2666
 2230TIP3    H2 6697   5.931   1.778   3.422 -1.4643  1.7573 -0.8536
 2231TIP3   OH2 6698   6.058   5.775   4.816  0.1619  0.6111 -0.5626
 2231TIP3    H1 6699   6.131   5.750   4.872 -0.3307  1.0062  0.2713
 2231TIP3    H2 6700   6.033   5.695   4.771  2.5389  0.9176 -2.5474
 2232TIP3   OH2 6701   1.688   4.099   2.664 -0.7840  0.0536 -0.2053
 2232TIP3    H1 6702   1.744   4.077   2.589 -1.5215  0.0316 -0.7547
 2232TIP3    H2 6703   1.599   4.091   2.630 -1.1769 -1.6451  1.1483
 2233TIP3   OH2 6704   4.229   3.858   1.638 -0.7089 -0.1737  0.6556
 2233TIP3    H1 6705   4.283   3.793   1.683 -4.1913 -2.1082  2.1982
 2233TIP3    H2 6706   4.191   3.811   1.564 -0.8288  0.9855 -0.0340
 2234TIP3   OH2 6707   2.669   3.339   4.148 -0.3658  0.0549  0.2991
 2234TIP3    H1 6708   2.687   3.246   4.160 -2.3816 -0.5061 -0.8046
 2234TIP3    H2 6709   2.733   3.368   4.083  0.0435 -0.6420  0.3936
 2235TIP3   OH2 6710   3.993   0.954   3.194 -0.0322  0.0939 -0.2781
 2235TIP3    H1 6711   4.070   0.909   3.161  0.0590  0.1908 -0.1993
 2235TIP3    H2 6712   3.931   0.954   3.120 -0.8206 -1.9455  0.3627
 2236TIP3   OH2 6713   4.082   4.312   0.773  0.1456 -0.1793 -0.4865
 2236TIP3    H1 6714   4.109   4.265   0.852  1.7696  2.2015  0.4348
 2236TIP3    H2 6715   4.035   4.247   0.722 -0.0105 -2.0766  1.9484
 2237TIP3   OH2 6716   4.825   5.288   4.710  0.1698 -0.0698  0.4657
 2237TIP3    H1 6717   4.918   5.294   4.731  0.3210 -0.6611 -0.0188
 2237TIP3    H2 6718   4.781   5.311   4.792  0.7417 -0.1855  0.8108
 2238TIP3   OH2 6719   4.445   3.385   2.667 -0.2127 -0.8904 -0.0304
 2238TIP3    H1 6720   4.521   3.329   2.681  0.6189  0.0606 -0.7095
 2238TIP3    H2 6721   4.396   3.342   2.597 -0.0881 -1.2948  0.1331
 2239TIP3   OH2 6722   6.122   2.610   1.222 -0.1684 -0.2919 -0.1012
 2239TIP3    H1 6723   6.042   2.564   1.195  1.3539 -2.9682 -0.2051
 2239TIP3    H2 6724   6.108   2.700   1.193 -1.1617 -1.6911 -4.4534
 2240TIP3   OH2 6725   2.400   1.841   0.353 -0.2196 -0.1004 -0.1341
 2240TIP3    H1 6726   2.329   1.905   0.345 -0.5943 -0.3445  1.1621
 2240TIP3    H2 6727   2.475   1.892   0.382 -0.9210 -0.4755  2.4206
 2241TIP3   OH2 6728   4.710   2.445   2.848 -0.3465  0.0211  0.2190
 2241TIP3    H1 6729   4.708   2.444   2.944 -0.1841 -1.4149  0.2264
 2241TIP3    H2 6730   4.767   2.372   2.825 -0.3087  0.4137 -0.9799
 2242TIP3   OH2 6731   4.387   1.702   4.482  0.5140  0.0313  0.0565
 2242TIP3    H1 6732   4.341   1.773   4.527  1.9071  1.5261 -0.8161
 2242TIP3    H2 6733   4.466   1.687   4.535  0.7645 -0.1248 -0.3609
 2243TIP3   OH2 6734   4.854   1.481   1.433  0.5800 -0.2061  0.0616
 2243TIP3    H1 6735   4.950   1.479   1.426  0.5390  0.7957 -0.7710
 2243TIP3    H2 6736   4.831   1.574   1.429 -0.2668 -0.2623  2.5862
 2244TIP3   OH2 6737   5.761   3.468   2.110 -0.7437 -0.2314 -0.1100
 2244TIP3    H1 6738   5.849   3.485   2.075 -0.4246  0.8517  1.1620
 2244TIP3    H2 6739   5.776   3.418   2.191 -1.2034  1.2049  0.8806
 2245TIP3   OH2 6740   4.169   3.300   0.633 -0.2530 -0.4649  0.0180
 2245TIP3    H1 6741   4.113   3.316   0.709  0.8615 -1.8193  1.1508
 2245TIP3    H2 6742   4.110   3.309   0.558 -2.0448 -2.0070  1.2008
 2246TIP3   OH2 6743   5.315   2.110   2.688  0.2589  0.3791  0.0929
 2246TIP3    H1 6744   5.280   2.163   2.617  1.0943 -1.3904 -1.6875
 2246TIP3    H2 6745   5.397   2.152   2.713  1.0622 -0.1985 -1.5052
 2247TIP3   OH2 6746   3.856   2.547   3.302  0.0293 -0.1367  0.0882
 2247TIP3    H1 6747   3.881   2.555   3.394 -0.0716  0.1615  0.0891
 2247TIP3    H2 6748   3.877   2.632   3.264 -1.5885  0.3507  0.2297
 2248TIP3   OH2 6749   3.075   3.245   1.888  0.5162  0.2394  0.3763
 2248TIP3    H1 6750   3.055   3.338   1.899 -2.2443  0.0536 -2.2806
 2248TIP3    H2 6751   3.134   3.224   1.960 -1.6245  3.1952  3.1134
 2249TIP3   OH2 6752   3.538   4.318   1.509 -0.3701  0.0620  0.1340
 2249TIP3    H1 6753   3.534   4.364   1.593 -1.4875  1.3140 -0.5783
 2249TIP3    H2 6754   3.518   4.227   1.530  0.0665  0.2338  1.3283
 2250TIP3   OH2 6755   4.840   2.164   2.186  0.3074 -0.0767 -0.4702
 2250TIP3    H1 6756   4.915   2.191   2.133  0.0660  0.6164 -0.4719
 2250TIP3    H2 6757   4.797   2.247   2.210 -0.1780 -0.4421 -0.0691
 2251TIP3   OH2 6758   4.344   2.573   2.781 -0.0521 -0.0821  0.5523
 2251TIP3    H1 6759   4.433   2.607   2.774 -1.0577  2.0215 -2.8027
 2251TIP3    H2 6760   4.308   2.617   2.858  1.1004  0.6998  0.6632
 2252TIP3   OH2 6761   4.109   3.726   2.191 -0.3243  0.3423  0.5781
 2252TIP3    H1 6762   4.116   3.695   2.281 -1.6701  1.0871  0.9432
 2252TIP3    H2 6763   4.173   3.797   2.184  2.0225 -1.7340  0.0384
 2253TIP3   OH2 6764   0.328   2.737   2.355 -0.5457  0.3205  0.3483
 2253TIP3    H1 6765   0.286   2.806   2.305  1.9278  0.7934 -1.1606
 2253TIP3    H2 6766   0.387   2.694   2.293  1.4179 -0.1046  2.4208
 2254TIP3   OH2 6767   3.240   1.952   4.007 -0.3274 -0.4076 -0.1760
 2254TIP3    H1 6768   3.217   2.019   4.071 -0.3802 -1.4460  0.9195
 2254TIP3    H2 6769   3.314   1.906   4.046  0.8847  0.1737 -1.7436
 2255TIP3   OH2 6770   1.445   3.614   1.811  0.9726  0.0153  0.1264
 2255TIP3    H1 6771   1.523   3.588   1.763  0.8521  0.9114 -0.5801
 2255TIP3    H2 6772   1.473   3.621   1.902  1.2002 -1.7259  0.2090
 2256TIP3   OH2 6773   4.431   1.640   2.688 -0.2285 -0.3648  0.6262
 2256TIP3    H1 6774   4.501   1.705   2.688  1.1849 -1.8294 -0.5922
 2256TIP3    H2 6775   4.359   1.680   2.639 -0.1083  1.0074  1.5653
 2257TIP3   OH2 6776   6.132   2.485   4.000  0.3307 -0.3357 -0.7219
 2257TIP3    H1 6777   6.125   2.473   4.095 -2.5646 -0.3429 -0.8903
 2257TIP3    H2 6778   6.177   2.569   3.989  0.7645 -0.3813  0.6407
 2258TIP3   OH2 6779   3.606   1.976   1.978 -0.0194  0.2049 -0.0658
 2258TIP3    H1 6780   3.580   2.064   2.005  0.7829  0.3654  0.1757
 2258TIP3    H2 6781   3.548   1.918   2.027 -0.5846  0.5980 -0.2641
 2259TIP3   OH2 6782   3.417   2.567   1.159 -0.1147  0.7670 -0.3642
 2259TIP3    H1 6783   3.436   2.573   1.065 -0.2609  0.3541 -0.4191
 2259TIP3    H2 6784   3.322   2.570   1.164 -0.0827  1.6307 -0.1694
 2260TIP3   OH2 6785   5.430   3.161   4.032 -0.3828 -0.3695 -0.0611
 2260TIP3    H1 6786   5.348   3.136   4.073 -0.0256  0.5277  1.2440
 2260TIP3    H2 6787   5.406   3.230   3.970 -0.6780 -0.4664 -0.0551
 2261TIP3   OH2 6788   2.481   1.969   2.721 -0.2697 -0.0744 -0.3354
 2261TIP3    H1 6789   2.468   2.005   2.809  2.7611  2.6106 -0.9147
 2261TIP3    H2 6790   2.459   1.877   2.730  0.6799 -0.0178  3.4301
 2262TIP3   OH2 6791   4.364   4.010   0.447  0.1717 -0.3119 -0.2698
 2262TIP3    H1 6792   4.429   3.974   0.387 -0.3215 -1.1737 -0.2905
 2262TIP3    H2 6793   4.344   3.939   0.508  0.5250  0.4955  0.8028
 2263TIP3   OH2 6794   3.286   2.363   1.482  0.3092  0.5136 -0.2131
 2263TIP3    H1 6795   3.203   2.351   1.528 -1.2739  2.3160 -2.4930
 2263TIP3    H2 6796   3.325   2.440   1.523  0.2897  0.3755  0.0664
 2264TIP3   OH2 6797   5.211   1.286   1.517  1.0466  0.1143 -0.4404
 2264TIP3    H1 6798   5.306   1.292   1.533  0.8794  0.4932  0.4551
 2264TIP3    H2 6799   5.188   1.197   1.544  1.1407  0.0379 -0.6122
 2265TIP3   OH2 6800   3.523   2.760   2.727 -0.4235 -0.1943  0.2796
 2265TIP3    H1 6801   3.593   2.794   2.782 -0.9182  0.3294  0.5923
 2265TIP3    H2 6802   3.567   2.702   2.665 -0.0136 -2.1231  2.2583
 2266TIP3   OH2 6803   3.151   3.448   1.457 -0.6313  0.1318 -0.1443
 2266TIP3    H1 6804   3.074   3.445   1.515 -0.3956 -1.0334  0.1182
 2266TIP3    H2 6805   3.137   3.376   1.395  0.5209 -0.4340  0.2487
 2267TIP3   OH2 6806   4.069   5.011   2.948  0.2281  0.2102  0.5784
 2267TIP3    H1 6807   4.068   4.926   2.992  0.9185 -0.6441 -0.9763
 2267TIP3    H2 6808   4.036   4.992   2.860  0.7816  1.4638  0.0886
 2268TIP3   OH2 6809   4.900   2.459   1.149  0.0527  0.3420 -0.1265
 2268TIP3    H1 6810   4.980   2.459   1.095  0.9181  0.3164  1.1241
 2268TIP3    H2 6811   4.932   2.443   1.238 -1.3106  0.8831  0.4641
 2269TIP3   OH2 6812   4.468   2.244   4.182 -0.3210 -0.4026  0.1019
 2269TIP3    H1 6813   4.441   2.153   4.171 -0.4029 -0.3594 -0.0546
 2269TIP3    H2 6814   4.460   2.282   4.094 -0.2622 -0.2515  0.1625
 2270TIP3   OH2 6815   2.932   3.407   1.591  0.4084  0.2097  0.3209
 2270TIP3    H1 6816   2.881   3.328   1.609 -1.1925  0.6975 -1.9227
 2270TIP3    H2 6817   2.888   3.476   1.641  1.2447 -0.1088  1.5230
 2271TIP3   OH2 6818   2.612   2.093   1.432  0.0858 -0.2732 -0.2511
 2271TIP3    H1 6819   2.692   2.137   1.405 -0.1368  0.3690  0.1156
 2271TIP3    H2 6820   2.641   2.009   1.467  0.4707 -0.6326 -1.4119
 2272TIP3   OH2 6821   2.196   2.448  -0.025  0.2613 -0.0697 -0.1048
 2272TIP3    H1 6822   2.273   2.503  -0.009  0.9844 -1.5033  1.4361
 2272TIP3    H2 6823   2.136   2.469   0.047  0.0748 -0.4923 -0.1364
 2273TIP3   OH2 6824   3.158   2.902   3.070 -0.0685  0.4459 -0.1534
 2273TIP3    H1 6825   3.202   2.987   3.081 -0.6430  0.8290 -0.7730
 2273TIP3    H2 6826   3.130   2.901   2.979  2.4748 -1.6450 -0.9715
 2274TIP3   OH2 6827   5.474   3.194   4.909  0.0781  0.7597 -0.2936
 2274TIP3    H1 6828   5.431   3.144   4.978 -0.7253  1.8454  0.0055
 2274TIP3    H2 6829   5.557   3.222   4.948  0.0399  0.5816 -0.0851
 2275TIP3   OH2 6830   5.676   4.110   4.134  0.2761 -0.0940 -0.2190
 2275TIP3    H1 6831   5.752   4.096   4.191 -0.3368  0.6756  0.8064
 2275TIP3    H2 6832   5.684   4.201   4.105  0.0728 -0.1966 -0.6089
 2276TIP3   OH2 6833   5.442   5.614   5.237  0.2341 -0.3096  0.3597
 2276TIP3    H1 6834   5.381   5.639   5.306 -0.5081  0.8511 -0.6927
 2276TIP3    H2 6835   5.461   5.522   5.254 -0.6228 -0.2686  1.5966
 2277TIP3   OH2 6836   5.523   3.811   3.716  0.0142  0.1168  0.6642
 2277TIP3    H1 6837   5.562   3.898   3.725 -1.5575  0.8354  0.7132
 2277TIP3    H2 6838   5.598   3.752   3.703  1.0336  1.5911 -0.2827
 2278TIP3   OH2 6839   2.451   3.393   1.930  0.3099  0.3466 -0.1369
 2278TIP3    H1 6840   2.494   3.440   1.858 -1.8546  2.8317  0.1183
 2278TIP3    H2 6841   2.492   3.428   2.009 -0.1492  0.6045 -0.0111
 2279TIP3   OH2 6842   5.433   1.886   2.421 -0.0138 -0.5317  0.0238
 2279TIP3    H1 6843   5.450   1.963   2.368 -0.5110  0.2252  0.9486
 2279TIP3    H2 6844   5.493   1.894   2.495 -1.3210 -0.0945  1.0515
 2280TIP3   OH2 6845   3.554   4.248   2.577 -0.4959 -0.2862 -0.0985
 2280TIP3    H1 6846   3.646   4.274   2.585 -0.2294 -0.9685 -0.8120
 2280TIP3    H2 6847   3.542   4.181   2.644 -0.2080 -0.8739 -0.6241
 2281TIP3   OH2 6848   3.532   2.540   3.138 -0.2354  0.1715  0.4294
 2281TIP3    H1 6849   3.461   2.480   3.115  0.2380 -0.3552  0.3299
 2281TIP3    H2 6850   3.491   2.605   3.195 -0.8916  0.1190  0.0254
 2282TIP3   OH2 6851   3.252   3.809   0.964  0.3171 -0.3502 -0.4886
 2282TIP3    H1 6852   3.261   3.900   0.993  1.6254 -1.5790  3.2689
 2282TIP3    H2 6853   3.158   3.795   0.957 -0.0080  0.5179  1.6682
 2283TIP3   OH2 6854   4.671   2.191   3.889  0.0735  0.1148 -0.0337
 2283TIP3    H1 6855   4.681   2.169   3.797  2.2002  2.0219 -0.2942
 2283TIP3    H2 6856   4.744   2.148   3.933 -1.0024 -0.8989  0.8129
 2284TIP3   OH2 6857   3.286   5.179   3.913  0.4291 -0.1143 -0.1917
 2284TIP3    H1 6858   3.246   5.119   3.976  0.3595  0.1806  0.0513
 2284TIP3    H2 6859   3.219   5.246   3.899  0.0251 -0.7540 -1.4057
 2285TIP3   OH2 6860   6.168   5.593   2.621  0.3239 -0.5330  0.8561
 2285TIP3    H1 6861   6.163   5.657   2.692  1.4339 -0.6051  1.0142
 2285TIP3    H2 6862   6.186   5.644   2.543 -2.3919 -0.2994  0.3382
 2286TIP3   OH2 6863   5.311   1.287   0.624 -0.2365  0.0908 -0.8337
 2286TIP3    H1 6864   5.271   1.360   0.577 -1.3470  0.0773  0.0459
 2286TIP3    H2 6865   5.345   1.229   0.556 -0.4721  0.8140 -1.5655
 2287TIP3   OH2 6866   3.669   3.825   0.419 -0.2686  0.5046 -0.3444
 2287TIP3    H1 6867   3.578   3.812   0.395  0.1789 -2.7200 -0.5282
 2287TIP3    H2 6868   3.666   3.863   0.506 -1.7709  1.3403 -0.7402
 2288TIP3   OH2 6869   3.381   1.636   1.233 -0.1175 -0.2362  0.1491
 2288TIP3    H1 6870   3.431   1.571   1.185  0.5331 -0.1070  0.6394
 2288TIP3    H2 6871   3.296   1.637   1.191 -0.5503 -2.2913  0.9159
 2289TIP3   OH2 6872   4.456   2.868   1.919  0.7354 -0.0032 -0.9144
 2289TIP3    H1 6873   4.503   2.929   1.863  0.6530 -1.1740 -2.2793
 2289TIP3    H2 6874   4.523   2.832   1.977  1.2295 -0.4485 -1.7597
 2290TIP3   OH2 6875   3.783   5.449   0.274  0.0081  0.3336 -0.8064
 2290TIP3    H1 6876   3.727   5.492   0.210  0.5147  0.7840 -0.9487
 2290TIP3    H2 6877   3.836   5.388   0.222  1.2825  1.5832 -0.9815
 2291TIP3   OH2 6878   3.783   3.592   3.801 -0.1048  0.0339 -0.1336
 2291TIP3    H1 6879   3.857   3.619   3.747 -0.4987  0.4225 -0.4820
 2291TIP3    H2 6880   3.808   3.617   3.890  1.1068 -1.7920  0.0622
 2292TIP3   OH2 6881   3.779   1.502   1.980  0.4578 -0.2874 -0.0516
 2292TIP3    H1 6882   3.829   1.545   2.050  0.1235 -1.0360  0.6554
 2292TIP3    H2 6883   3.699   1.554   1.974  0.4121 -0.3191  0.2382
 2293TIP3   OH2 6884   3.154   4.625   2.920  0.2083 -0.8283 -0.8810
 2293TIP3    H1 6885   3.215   4.627   2.846  0.1566 -0.1983 -0.9092
 2293TIP3    H2 6886   3.100   4.703   2.908  0.4018 -0.5552 -0.0027
 2294TIP3   OH2 6887   3.947   2.349   3.140  0.1805 -0.1549  0.4779
 2294TIP3    H1 6888   4.028   2.385   3.105 -0.5473  1.1428  0.0980
 2294TIP3    H2 6889   3.912   2.418   3.197  0.2268 -1.3762  2.0407
 2295TIP3   OH2 6890   3.783   3.172   1.354  0.2141  0.0139  0.4860
 2295TIP3    H1 6891   3.688   3.170   1.369  0.5661  0.2757  2.8582
 2295TIP3    H2 6892   3.812   3.253   1.396  1.5813 -0.3435  0.2572
 2296TIP3   OH2 6893   4.023   1.285   0.097 -0.6823  0.0625 -0.1453
 2296TIP3    H1 6894   4.040   1.230   0.173 -1.1735 -0.0805 -0.1383
 2296TIP3    H2 6895   4.103   1.279   0.045 -0.6124 -0.4092  0.0122
 2297TIP3   OH2 6896   2.515   2.820   3.226  0.1270  0.2913  0.5163
 2297TIP3    H1 6897   2.471   2.877   3.288 -1.2774  0.4655 -0.6313
 2297TIP3    H2 6898   2.571   2.878   3.175 -0.2784  0.4491  0.2497
 2298TIP3   OH2 6899   4.371   2.173   3.162  0.0834 -0.3220 -0.4767
 2298TIP3    H1 6900   4.436   2.124   3.111  0.2965 -0.1006 -0.4169
 2298TIP3    H2 6901   4.296   2.114   3.167 -0.1422 -0.1373 -1.5108
 2299TIP3   OH2 6902  -0.007   2.065   2.149 -0.1624  0.2055  0.2601
 2299TIP3    H1 6903   0.084   2.039   2.159 -0.3910 -0.1750  1.5345
 2299TIP3    H2 6904  -0.015   2.091   2.058  1.1904  0.1274  0.1052
 2300TIP3   OH2 6905   4.635   2.339   1.139 -0.5522  0.2157 -0.4269
 2300TIP3    H1 6906   4.724   2.357   1.110  0.0281 -2.7328 -0.6351
 2300TIP3    H2 6907   4.636   2.358   1.233  0.1929  0.5575 -0.5034
 2301TIP3   OH2 6908   3.765   2.524   2.905  0.4655 -0.0811 -0.2622
 2301TIP3    H1 6909   3.822   2.598   2.928  0.1305  0.2041 -0.3647
 2301TIP3    H2 6910   3.703   2.518   2.978  0.6745 -0.4481 -0.1084
 2302TIP3   OH2 6911   2.417   2.270   1.533  0.1301  0.3712 -0.2353
 2302TIP3    H1 6912   2.431   2.352   1.485 -2.3978  1.2879  0.5207
 2302TIP3    H2 6913   2.499   2.221   1.521 -0.3498  0.5908 -5.3673
 2303TIP3   OH2 6914   5.234   2.835   2.222  0.4864  0.4805  0.0354
 2303TIP3    H1 6915   5.314   2.880   2.247  0.5470 -0.4053  1.5158
 2303TIP3    H2 6916   5.173   2.906   2.200  1.8158  1.1360 -1.6238
 2304TIP3   OH2 6917   5.379   6.047   5.268  0.6341  0.2248 -0.1232
 2304TIP3    H1 6918   5.318   6.107   5.224  0.2657 -0.4754 -0.5773
 2304TIP3    H2 6919   5.418   5.996   5.197 -0.4186 -1.3445  0.3856
 2305TIP3   OH2 6920   5.777   1.732   2.262  0.1612  0.3591 -0.0869
 2305TIP3    H1 6921   5.689   1.697   2.246 -0.7224  1.2067  2.6200
 2305TIP3    H2 6922   5.811   1.679   2.334  1.4410  0.7537 -0.3877
 2306TIP3   OH2 6923   6.341   6.043   0.653 -0.0111 -0.4573 -0.0822
 2306TIP3    H1 6924   6.404   6.078   0.589  1.1275  1.2529  1.9126
 2306TIP3    H2 6925   6.257   6.046   0.608  1.2076 -2.1757 -2.5753
 2307TIP3   OH2 6926   3.853   2.658   2.384  0.3918  0.6841  0.2013
 2307TIP3    H1 6927   3.833   2.752   2.384  0.2604  0.6662  1.3705
 2307TIP3    H2 6928   3.804   2.623   2.310 -0.7946  1.2904  0.6862
 2308TIP3   OH2 6929   2.035   2.922   0.385  0.1369  0.2192  0.1603
 2308TIP3    H1 6930   2.011   2.845   0.436 -1.2448  0.3759 -0.2416
 2308TIP3    H2 6931   2.121   2.901   0.349  1.4732  0.3854  3.0968
 2309TIP3   OH2 6932   4.178   1.693   2.851 -0.1711  0.0318  0.3663
 2309TIP3    H1 6933   4.195   1.635   2.777  0.8762  0.3019  0.3884
 2309TIP3    H2 6934   4.083   1.694   2.860 -0.2961 -0.1081 -0.8926
 2310TIP3   OH2 6935   4.776   5.194   3.845 -0.0877 -0.6140 -0.5246
 2310TIP3    H1 6936   4.801   5.117   3.896 -1.1200 -1.0189 -0.6232
 2310TIP3    H2 6937   4.722   5.246   3.905  0.1380 -0.2439 -0.6417
 2311TIP3   OH2 6938   1.202   2.550   4.271  0.1426  0.4562  0.0842
 2311TIP3    H1 6939   1.116   2.591   4.262  1.3742  3.0237 -0.4394
 2311TIP3    H2 6940   1.235   2.580   4.355  1.1298  0.6942 -0.3721
 2312TIP3   OH2 6941   4.309   3.758   0.516 -0.2212 -0.1505 -0.0255
 2312TIP3    H1 6942   4.367   3.732   0.588  0.3142 -0.4082 -0.5469
 2312TIP3    H2 6943   4.232   3.700   0.525 -0.7445  0.7094  1.1201
 2313TIP3   OH2 6944   4.964   1.879   2.651  0.3837 -0.0076  0.1507
 2313TIP3    H1 6945   4.931   1.914   2.734  1.4604  1.0804  0.1390
 2313TIP3    H2 6946   4.956   1.952   2.590  0.2337 -0.5993 -0.5436
 2314TIP3   OH2 6947   5.285   3.374   3.004 -0.1353  0.0867 -0.0697
 2314TIP3    H1 6948   5.356   3.326   3.045 -0.1287  0.1817  0.0292
 2314TIP3    H2 6949   5.246   3.425   3.075 -0.7461 -0.5043  0.0214
 2315TIP3   OH2 6950   1.383   4.219   1.030  0.0862  0.6509  0.3874
 2315TIP3    H1 6951   1.422   4.306   1.013 -0.1335  0.4850 -1.0941
 2315TIP3    H2 6952   1.431   4.186   1.105  2.2632  0.8257 -0.8632
 2316TIP3   OH2 6953   6.114   2.037   4.618  0.2900  0.3228  0.0062
 2316TIP3    H1 6954   6.068   2.020   4.700 -0.0364  2.9614  0.4310
 2316TIP3    H2 6955   6.206   2.017   4.637 -0.0465 -0.7953  0.4662
 2317TIP3   OH2 6956   3.591   2.347   3.811 -0.5975 -0.3782 -0.2470
 2317TIP3    H1 6957   3.582   2.264   3.765  0.7976 -0.2180 -0.8285
 2317TIP3    H2 6958   3.685   2.366   3.809 -0.8636  1.0648  0.1344
 2318TIP3   OH2 6959   4.406   3.480   0.283  0.8306  0.4146  0.2269
 2318TIP3    H1 6960   4.345   3.412   0.255  0.4168  1.4641 -1.4754
 2318TIP3    H2 6961   4.372   3.561   0.245  2.0054  1.3931  1.1939
 2319TIP3   OH2 6962   5.712   2.333   3.668  0.4206 -0.0189  0.1321
 2319TIP3    H1 6963   5.657   2.276   3.721 -0.6937  2.0760  1.2647
 2319TIP3    H2 6964   5.797   2.332   3.711  0.3401 -0.6243  0.2781
 2320TIP3   OH2 6965   2.571   1.797   1.877  0.1344  0.6262  0.9680
 2320TIP3    H1 6966   2.565   1.892   1.864 -1.1236  0.6510  1.6870
 2320TIP3    H2 6967   2.628   1.787   1.953 -0.5943  0.8576  1.5523
 2321TIP3   OH2 6968   5.282   1.945   4.225 -0.0368  0.2203  0.0435
 2321TIP3    H1 6969   5.194   1.972   4.251  0.7357  0.9209  2.0396
 2321TIP3    H2 6970   5.310   2.011   4.162 -1.7417 -1.1981 -2.2558
 2322TIP3   OH2 6971   4.226   4.365   1.527 -0.5217  0.5203  0.2319
 2322TIP3    H1 6972   4.290   4.385   1.459  0.1974  0.6099  0.9273
 2322TIP3    H2 6973   4.189   4.280   1.501  1.8519 -0.8851  1.2508
 2323TIP3   OH2 6974   2.038   4.329   2.603 -0.0435 -0.1796 -0.0697
 2323TIP3    H1 6975   1.970   4.270   2.572  0.7251 -0.2838 -1.5998
 2323TIP3    H2 6976   2.051   4.391   2.531  1.4451 -0.1375  0.2192
 2324TIP3   OH2 6977   6.184   1.564   4.082  0.3693 -0.2239  0.2123
 2324TIP3    H1 6978   6.218   1.631   4.022 -0.4170  0.8361  0.9207
 2324TIP3    H2 6979   6.102   1.535   4.041 -0.4676  0.9204  1.0373
 2325TIP3   OH2 6980   6.094   1.045   3.537  0.1492 -0.0665  0.1951
 2325TIP3    H1 6981   6.155   1.072   3.607 -0.1742  2.4766 -0.4450
 2325TIP3    H2 6982   6.140   1.067   3.456 -1.1676  0.8990 -0.3062
 2326TIP3   OH2 6983   4.920   2.945   1.723 -0.3459 -0.0449 -0.0908
 2326TIP3    H1 6984   4.954   2.865   1.684  0.1329 -0.3631  0.9419
 2326TIP3    H2 6985   4.970   3.016   1.682 -1.6753 -0.1649 -1.9602
 2327TIP3   OH2 6986   5.186   2.334   3.236  0.0371 -0.2242  0.2380
 2327TIP3    H1 6987   5.229   2.376   3.161  0.7793 -0.4642  0.5211
 2327TIP3    H2 6988   5.150   2.406   3.287 -0.0343 -0.0288 -0.0852
 2328TIP3   OH2 6989   1.343   2.157   1.870 -0.0974 -0.1326  0.0747
 2328TIP3    H1 6990   1.397   2.078   1.869  0.3062  0.0534  2.6564
 2328TIP3    H2 6991   1.258   2.128   1.838  0.3170 -1.4010  0.0812
 2329TIP3   OH2 6992   4.428   2.298   2.811 -0.5882 -0.7070  0.0505
 2329TIP3    H1 6993   4.411   2.390   2.791 -0.5151 -0.6258  0.3518
 2329TIP3    H2 6994   4.479   2.300   2.893  0.5775 -0.9527 -0.6506
 2330TIP3   OH2 6995   5.948   3.028   5.209  0.1113  0.5246 -0.2552
 2330TIP3    H1 6996   5.880   2.967   5.237 -0.0199  0.6333 -0.3360
 2330TIP3    H2 6997   5.957   3.090   5.282  0.2401  0.4146 -0.1755
 2331TIP3   OH2 6998   4.072   3.470   2.596 -0.2028 -0.5193  1.2013
 2331TIP3    H1 6999   4.114   3.416   2.663  0.7882 -0.5467  0.5762
 2331TIP3    H2 7000   3.994   3.421   2.570 -0.2270 -0.8262  1.8577
 2332TIP3   OH2 7001   5.311   3.277   0.198 -0.3778 -0.0343  0.2901
 2332TIP3    H1 7002   5.236   3.292   0.256 -0.4267  1.9560 -0.2652
 2332TIP3    H2 7003   5.319   3.181   0.194 -2.4763 -0.2584  0.8602
 2333TIP3   OH2 7004   4.718   0.672   2.149  0.0264  0.4569  0.0884
 2333TIP3    H1 7005   4.799   0.631   2.178  1.2660  2.0141 -1.1204
 2333TIP3    H2 7006   4.724   0.674   2.054 -1.1628  1.1359  0.0127
 2334TIP3   OH2 7007   5.457   3.386   3.857  0.5546  0.7142 -0.3082
 2334TIP3    H1 7008   5.423   3.428   3.778  0.9147  1.8223  0.1302
 2334TIP3    H2 7009   5.446   3.451   3.926 -3.4860 -1.5996  1.4680
 2335TIP3   OH2 7010   3.418   1.891   3.297  0.1777 -0.0589  0.3156
 2335TIP3    H1 7011   3.353   1.882   3.367  1.2539 -0.1626  1.3123
 2335TIP3    H2 7012   3.445   1.983   3.302 -0.5133  0.2205 -0.6826
 2336TIP3   OH2 7013   4.628   3.816   0.450  0.8653 -0.2844 -0.1915
 2336TIP3    H1 7014   4.576   3.737   0.461  0.8934 -0.5069 -1.5705
 2336TIP3    H2 7015   4.702   3.805   0.510  0.5373 -1.0173  0.0744
 2337TIP3   OH2 7016   2.492   2.333   1.889  0.1015  0.4357  0.5276
 2337TIP3    H1 7017   2.438   2.380   1.952  0.1094  1.8825 -0.5125
 2337TIP3    H2 7018   2.548   2.400   1.851 -1.0481 -0.1066 -2.2038
 2338TIP3   OH2 7019   1.349   2.432   3.143  0.1617 -0.2266 -0.5524
 2338TIP3    H1 7020   1.410   2.478   3.086 -1.9985  1.2179 -1.7076
 2338TIP3    H2 7021   1.355   2.478   3.227  0.1669  0.3130 -0.8520
 2339TIP3   OH2 7022   2.764   3.995   3.399 -0.3493  0.1700 -0.1232
 2339TIP3    H1 7023   2.734   3.927   3.460 -1.8815 -0.0757 -1.1169
 2339TIP3    H2 7024   2.705   3.988   3.324  1.8769  0.0826 -1.9099
 2340TIP3   OH2 7025   1.584   0.606   5.050 -0.5605 -0.0884  0.0275
 2340TIP3    H1 7026   1.532   0.680   5.018 -0.4670 -0.9354 -2.1678
 2340TIP3    H2 7027   1.662   0.606   4.994  0.7187 -0.2177  1.7936
 2341TIP3   OH2 7028   0.117   5.872   1.189  0.2279  0.3102  0.1748
 2341TIP3    H1 7029   0.028   5.884   1.154  0.5082  0.3267 -0.5405
 2341TIP3    H2 7030   0.110   5.897   1.281 -0.6389 -0.2281  0.2625
 2342TIP3   OH2 7031   6.178   5.278   3.914 -0.1631 -0.1997 -0.1744
 2342TIP3    H1 7032   6.117   5.225   3.966  0.2877 -0.2416  0.3212
 2342TIP3    H2 7033   6.145   5.367   3.922 -1.1336 -0.4575 -1.3137
 2343TIP3   OH2 7034   3.937   1.870   0.965 -0.4270  0.6833  0.3346
 2343TIP3    H1 7035   3.852   1.837   0.996 -0.7597  0.2609 -0.9913
 2343TIP3    H2 7036   3.922   1.890   0.873  1.1720 -0.2656 -0.1408
 2344TIP3   OH2 7037   5.436   2.404   1.805 -0.1842  0.8650 -0.2321
 2344TIP3    H1 7038   5.398   2.450   1.879  0.1628  1.4321 -0.4049
 2344TIP3    H2 7039   5.378   2.329   1.791 -0.6308  1.1306  0.1842
 2345TIP3   OH2 7040   6.077   3.796   4.316  0.2508 -0.1525  0.4083
 2345TIP3    H1 7041   6.014   3.868   4.310 -0.0100 -0.0985  2.9946
 2345TIP3    H2 7042   6.038   3.736   4.380  2.0686 -0.9140  0.8316
 2346TIP3   OH2 7043   6.247   4.217   3.324 -0.1793  0.0089  0.1373
 2346TIP3    H1 7044   6.315   4.181   3.382 -0.1527  0.5297  0.4341
 2346TIP3    H2 7045   6.219   4.297   3.368  0.2904  0.7516 -0.8852
 2347TIP3   OH2 7046   3.220   3.191   0.890  0.0292 -0.0470  0.5574
 2347TIP3    H1 7047   3.305   3.177   0.931 -0.2455  2.7792  2.2591
 2347TIP3    H2 7048   3.236   3.258   0.823 -0.6054 -0.4792 -0.0403
 2348TIP3   OH2 7049   4.388   1.989   0.585  0.3013 -0.1925  0.0114
 2348TIP3    H1 7050   4.314   2.001   0.644 -0.7666 -1.6812 -0.9835
 2348TIP3    H2 7051   4.438   1.917   0.624  0.4320 -0.1648 -0.1039
 2349TIP3   OH2 7052   4.070   2.803   0.511  0.4829 -0.1630  0.2446
 2349TIP3    H1 7053   4.099   2.759   0.591  0.9015 -0.6912 -0.1932
 2349TIP3    H2 7054   3.996   2.857   0.538 -0.0240 -1.1298  0.7917
 2350TIP3   OH2 7055   3.407   3.468   2.428  0.2007 -0.6880  0.5240
 2350TIP3    H1 7056   3.317   3.458   2.458 -0.1536 -1.9000 -0.8577
 2350TIP3    H2 7057   3.407   3.432   2.339  2.2945 -1.7757  0.9213
 2351TIP3   OH2 7058   5.987   2.535   2.603  0.1565 -0.7475 -0.1791
 2351TIP3    H1 7059   6.031   2.517   2.685 -0.7521 -1.2346  0.2089
 2351TIP3    H2 7060   6.023   2.471   2.541 -0.8017 -1.8811  0.4130
 2352TIP3   OH2 7061   4.862   1.779   4.565 -0.3783  0.1937  0.0160
 2352TIP3    H1 7062   4.843   1.868   4.535  0.2857  0.2274 -0.3332
 2352TIP3    H2 7063   4.957   1.778   4.576 -0.3628 -0.5233 -0.1580
 2353TIP3   OH2 7064   2.317   1.562   1.284  0.5708  0.5343  0.1986
 2353TIP3    H1 7065   2.279   1.646   1.262  0.1445  0.8487  2.0235
 2353TIP3    H2 7066   2.242   1.507   1.307  0.9678  0.1846  0.6790
 2354TIP3   OH2 7067   3.998   2.552   1.048 -0.4436  0.4851  0.2841
 2354TIP3    H1 7068   3.907   2.570   1.071 -0.5085 -0.2937  0.6457
 2354TIP3    H2 7069   4.016   2.465   1.084 -0.6119 -0.8572 -2.7229
 2355TIP3   OH2 7070   4.396   3.264   2.427 -0.2764  0.2512  0.1143
 2355TIP3    H1 7071   4.349   3.276   2.344  1.1117  0.0519 -0.7177
 2355TIP3    H2 7072   4.476   3.218   2.403 -0.4329 -0.9357  1.7606
 2356TIP3   OH2 7073   6.030   2.845   1.373 -0.3503 -0.0908 -0.2947
 2356TIP3    H1 7074   5.967   2.885   1.313 -1.2429  0.2920  0.8826
 2356TIP3    H2 7075   5.987   2.765   1.403  0.6961 -1.0362 -1.2689
 2357TIP3   OH2 7076   2.942   1.447   3.332 -0.5539  0.0769 -0.2125
 2357TIP3    H1 7077   2.918   1.449   3.240 -0.0840  0.2919 -0.3337
 2357TIP3    H2 7078   2.912   1.362   3.363  0.7192 -0.6474 -0.9529
 2358TIP3   OH2 7079   6.358   1.620   2.998  1.0144  0.0008  0.5429
 2358TIP3    H1 7080   6.326   1.704   2.966  0.9529 -0.6416 -1.1661
 2358TIP3    H2 7081   6.377   1.635   3.091  1.5891  2.0569  0.1231
 2359TIP3   OH2 7082   3.307   3.162   2.016 -0.6324 -0.0398 -0.3396
 2359TIP3    H1 7083   3.326   3.088   2.074 -0.7728  0.0908 -0.1279
 2359TIP3    H2 7084   3.332   3.131   1.929 -1.9080 -0.7976 -0.4449
 2360TIP3   OH2 7085   3.453   2.702   3.546 -0.1622 -0.5682  0.0231
 2360TIP3    H1 7086   3.432   2.617   3.587 -0.5645 -0.3094  0.3660
 2360TIP3    H2 7087   3.438   2.688   3.453 -0.1237 -0.9092  0.0667
 2361TIP3   OH2 7088   2.617   0.852   2.179 -0.3697  0.1459  0.6317
 2361TIP3    H1 7089   2.669   0.781   2.217  0.2785  0.5407  0.4832
 2361TIP3    H2 7090   2.621   0.922   2.244  1.2230  1.0377 -0.4150
 2362TIP3   OH2 7091   4.778   3.079   0.677 -0.0687 -0.4764  1.4071
 2362TIP3    H1 7092   4.716   3.117   0.615  1.4143  1.1413  0.8652
 2362TIP3    H2 7093   4.778   2.985   0.656  0.1214 -0.0124 -0.7989
 2363TIP3   OH2 7094   0.650   5.898   5.090  0.6519  0.4595  0.0278
 2363TIP3    H1 7095   0.681   5.809   5.075 -0.6365 -0.4596  2.4211
 2363TIP3    H2 7096   0.713   5.954   5.045  2.0278 -1.6181 -0.7019
 2364TIP3   OH2 7097   2.519   5.696   4.125 -0.0900  0.3036  0.4235
 2364TIP3    H1 7098   2.484   5.618   4.082 -1.7277  1.0574  0.3282
 2364TIP3    H2 7099   2.614   5.684   4.125 -0.3107 -1.5486  0.1689
 2365TIP3   OH2 7100   5.728   0.582   0.065  0.0941 -0.2478  0.2761
 2365TIP3    H1 7101   5.641   0.615   0.088 -0.0910 -1.4548  1.3161
 2365TIP3    H2 7102   5.788   0.652   0.092 -0.4529  0.0791  0.6584
 2366TIP3   OH2 7103   3.533   1.993   2.611 -0.1604 -0.0601  0.1257
 2366TIP3    H1 7104   3.559   2.042   2.689  1.3185 -0.1777 -0.2854
 2366TIP3    H2 7105   3.560   2.049   2.538  0.9166 -1.1766 -0.3341
 2367TIP3   OH2 7106   3.544   4.179   3.263  0.2723 -0.2370  0.5983
 2367TIP3    H1 7107   3.607   4.118   3.225  0.6872  0.2703  0.4694
 2367TIP3    H2 7108   3.541   4.252   3.201 -1.1544 -0.6956  0.1206
 2368TIP3   OH2 7109   4.476   0.547   2.225 -0.0784 -0.6775  0.4375
 2368TIP3    H1 7110   4.533   0.611   2.182  0.0591 -0.7685  0.4837
 2368TIP3    H2 7111   4.495   0.464   2.181 -0.4694 -0.6308  0.1803
 2369TIP3   OH2 7112   3.735   3.173   2.285  0.5072  0.5960 -0.4793
 2369TIP3    H1 7113   3.753   3.209   2.198 -1.7618  1.3595 -0.6691
 2369TIP3    H2 7114   3.712   3.249   2.338 -0.8515 -0.1660  0.0530
 2370TIP3   OH2 7115   3.526   3.011   2.988  0.1165 -0.0795 -0.1597
 2370TIP3    H1 7116   3.573   3.063   2.923  0.0486  1.5085  1.0327
 2370TIP3    H2 7117   3.583   2.935   3.005  1.3659  0.8581 -0.1223
 2371TIP3   OH2 7118   4.054   4.178   1.010  0.7214  0.1717  0.2085
 2371TIP3    H1 7119   3.983   4.230   1.047  1.7570  2.3901 -0.8035
 2371TIP3    H2 7120   4.042   4.091   1.047 -2.6526  0.4361 -0.1092
 2372TIP3   OH2 7121   1.904   0.961   4.827  0.5064 -0.0289  0.0514
 2372TIP3    H1 7122   1.977   0.963   4.889  0.8696  2.2231 -0.4053
 2372TIP3    H2 7123   1.893   0.869   4.807  1.6920 -0.6270  1.9358
 2373TIP3   OH2 7124   0.994   2.439   2.844  0.2494 -0.1273 -0.2234
 2373TIP3    H1 7125   0.926   2.375   2.825 -1.3542  1.2023  0.8929
 2373TIP3    H2 7126   0.994   2.497   2.768  0.9478 -0.7882 -0.7389
 2374TIP3   OH2 7127   3.640   2.593   2.550  0.4517  0.0816  0.2677
 2374TIP3    H1 7128   3.719   2.599   2.496  1.6571 -0.3597  1.9316
 2374TIP3    H2 7129   3.643   2.505   2.586 -0.0164  0.5696  1.5222
 2375TIP3   OH2 7130   5.153   2.681   2.944 -0.3184 -0.7391  0.4821
 2375TIP3    H1 7131   5.238   2.665   2.985  0.8728  3.0466 -0.3229
 2375TIP3    H2 7132   5.099   2.718   3.013  0.3186  1.5694 -0.2188
 2376TIP3   OH2 7133   4.931   2.597   2.343 -0.4088 -0.3971  0.7785
 2376TIP3    H1 7134   4.899   2.682   2.372 -1.4727 -0.8541  0.9415
 2376TIP3    H2 7135   4.950   2.609   2.250 -1.3775 -0.2155  0.5997
 2377TIP3   OH2 7136   0.711   1.689   2.210  0.0072 -0.8226 -0.0212
 2377TIP3    H1 7137   0.725   1.759   2.146 -0.4817 -1.7853 -1.2026
 2377TIP3    H2 7138   0.654   1.727   2.276  1.1956  0.4513  0.2887
 2378TIP3   OH2 7139   4.533   3.279   1.416 -0.1985  0.5847 -0.2317
 2378TIP3    H1 7140   4.483   3.318   1.344 -2.2071  1.1259  1.3929
 2378TIP3    H2 7141   4.579   3.205   1.376 -0.5021  1.4644 -2.2556
 2379TIP3   OH2 7142   4.971   3.308   1.997  0.3493 -0.2322  0.7773
 2379TIP3    H1 7143   5.050   3.313   1.943  1.7659  1.6518  2.9182
 2379TIP3    H2 7144   5.004   3.314   2.087 -2.1109 -1.2590  1.7840
 2380TIP3   OH2 7145   4.388   2.455   3.311  0.3024 -0.1511  0.4260
 2380TIP3    H1 7146   4.402   2.535   3.362  0.7675 -0.5053  0.8652
 2380TIP3    H2 7147   4.355   2.392   3.374 -0.7982 -0.0830 -0.0843
 2381TIP3   OH2 7148   4.997   3.136   4.714 -0.8429 -0.4266 -0.7661
 2381TIP3    H1 7149   5.090   3.152   4.698  0.2199 -2.7135  2.5545
 2381TIP3    H2 7150   4.975   3.064   4.657 -0.7799  0.5910 -2.0922
 2382TIP3   OH2 7151   3.710   3.327   1.609 -0.6501  0.2496 -0.3478
 2382TIP3    H1 7152   3.638   3.374   1.652 -1.5955 -1.9144  0.4945
 2382TIP3    H2 7153   3.773   3.395   1.586 -3.0890  2.2676 -1.3622
 2383TIP3   OH2 7154   4.831   2.848   2.376 -0.1986 -0.5106 -0.1356
 2383TIP3    H1 7155   4.801   2.903   2.448  1.3286 -1.7070  1.4589
 2383TIP3    H2 7156   4.757   2.845   2.316 -0.9284  1.8323  0.5856
 2384TIP3   OH2 7157   3.448   5.467   2.498  0.3684  0.0672  0.3340
 2384TIP3    H1 7158   3.393   5.461   2.576  0.4247 -1.1979  0.2852
 2384TIP3    H2 7159   3.537   5.472   2.532  0.2988  1.1066  0.3844
 2385TIP3   OH2 7160   2.193   1.687   0.564  0.3933  0.2265 -0.1877
 2385TIP3    H1 7161   2.180   1.597   0.534  0.4083  0.2152 -0.1606
 2385TIP3    H2 7162   2.284   1.707   0.543  0.7880 -0.2293  1.0108
 2386TIP3   OH2 7163   3.972   2.726   2.926  0.0709 -0.1451 -0.1043
 2386TIP3    H1 7164   3.944   2.770   3.006 -1.4073 -0.4480 -0.4408
 2386TIP3    H2 7165   4.061   2.696   2.944 -0.9619 -1.9606  2.1416
 2387TIP3   OH2 7166   3.813   2.822   1.585  0.1580 -0.3420  0.3108
 2387TIP3    H1 7167   3.869   2.898   1.569  0.9189 -1.4318 -2.4825
 2387TIP3    H2 7168   3.735   2.837   1.532  0.1675 -1.3368 -0.0094
 2388TIP3   OH2 7169   3.107   1.619   1.532  0.0101  0.1876  0.1552
 2388TIP3    H1 7170   3.045   1.692   1.531 -0.7422 -0.4538 -2.6269
 2388TIP3    H2 7171   3.060   1.549   1.578  1.1016  1.6896  3.7214
 2389TIP3   OH2 7172   5.082   4.052   1.289  0.2705 -0.3259  0.7129
 2389TIP3    H1 7173   5.013   4.090   1.344  0.9597  0.3431  1.1344
 2389TIP3    H2 7174   5.142   4.011   1.351  1.8035  1.6549  0.6101
 2390TIP3   OH2 7175   4.435   1.217   4.950 -0.6563 -0.1330  0.3494
 2390TIP3    H1 7176   4.408   1.278   5.019 -2.8307 -0.5052 -0.1238
 2390TIP3    H2 7177   4.379   1.140   4.963 -0.7810 -0.3821 -1.5438
 2391TIP3   OH2 7178   3.120   4.508   1.337  0.0562  0.3362  0.2054
 2391TIP3    H1 7179   3.037   4.462   1.350 -0.3797  0.8439 -0.7685
 2391TIP3    H2 7180   3.168   4.454   1.274  0.0502  0.5753 -0.0028
 2392TIP3   OH2 7181   6.462   1.982   4.040 -0.3215 -0.0059  0.3557
 2392TIP3    H1 7182   6.538   2.024   4.001  1.0875 -0.6392  2.3098
 2392TIP3    H2 7183   6.389   2.007   3.985  1.2786  0.7951 -1.4401
 2393TIP3   OH2 7184   4.100   3.152   1.488 -0.4694  0.4403 -0.2410
 2393TIP3    H1 7185   4.167   3.083   1.479 -0.3054  0.9302 -3.0178
 2393TIP3    H2 7186   4.021   3.105   1.513  0.5836 -0.2792  1.9050
 2394TIP3   OH2 7187   4.684   4.004   2.448 -0.0621  0.3308 -0.6437
 2394TIP3    H1 7188   4.676   3.928   2.389  0.1216  1.5956 -2.3275
 2394TIP3    H2 7189   4.778   4.020   2.454 -0.1249  0.6690 -0.5982
 2395TIP3   OH2 7190   5.775   2.931   1.900 -0.5920  0.3339  0.2332
 2395TIP3    H1 7191   5.707   2.871   1.867 -1.2098 -0.1470  2.2981
 2395TIP3    H2 7192   5.843   2.873   1.933 -1.8198  0.6868  3.5601
 2396TIP3   OH2 7193   4.096   2.325   1.194 -0.6942  0.3522 -0.4310
 2396TIP3    H1 7194   4.049   2.242   1.194 -1.4087  0.6995 -3.0501
 2396TIP3    H2 7195   4.119   2.340   1.286 -1.7077 -2.0694  0.2545
 2397TIP3   OH2 7196   2.237   0.185   5.205  0.2426 -0.0911 -0.2986
 2397TIP3    H1 7197   2.271   0.215   5.290  0.5586 -1.5674  0.1014
 2397TIP3    H2 7198   2.187   0.260   5.173 -0.7799  0.1201  1.6836
 2398TIP3   OH2 7199   5.407   3.547   1.829 -1.0044  0.1007 -0.1422
 2398TIP3    H1 7200   5.369   3.534   1.742  0.2856 -1.1964 -0.5321
 2398TIP3    H2 7201   5.466   3.473   1.841  0.1628  1.1969  1.1259
 2399TIP3   OH2 7202   4.278   4.768   1.484  0.5887 -0.1978  0.4676
 2399TIP3    H1 7203   4.278   4.768   1.580 -0.1382 -1.4624  0.4771
 2399TIP3    H2 7204   4.202   4.716   1.460  2.2492 -2.1413 -0.7875
 2400TIP3   OH2 7205   5.920   1.197   3.684  0.8102 -0.2611 -0.2058
 2400TIP3    H1 7206   6.004   1.150   3.681  0.6486 -0.4756 -1.6903
 2400TIP3    H2 7207   5.911   1.225   3.776  1.7019 -1.6748  0.3171
 2401TIP3   OH2 7208   2.575   6.020   3.773  0.1637 -0.7122  0.7177
 2401TIP3    H1 7209   2.641   6.017   3.703  0.5231  2.9837  0.7583
 2401TIP3    H2 7210   2.550   6.112   3.778  0.5359 -0.7233  5.8052
 2402TIP3   OH2 7211   5.038   3.090   2.506 -0.1383 -0.6339 -0.0411
 2402TIP3    H1 7212   4.995   3.036   2.572 -1.5123 -1.1543 -1.3251
 2402TIP3    H2 7213   5.037   3.036   2.427  0.7935  0.2777 -0.6885
 2403TIP3   OH2 7214   6.000   2.731   5.052  0.4715  0.1534 -0.8079
 2403TIP3    H1 7215   5.940   2.796   5.017  0.1895  0.6446  0.5684
 2403TIP3    H2 7216   6.078   2.737   4.995  0.2740  1.3634 -0.9531
 2404TIP3   OH2 7217   1.051   2.432   1.533 -0.1234  0.1575 -0.2919
 2404TIP3    H1 7218   0.965   2.391   1.540  0.9487 -1.6855  3.0986
 2404TIP3    H2 7219   1.042   2.515   1.580 -1.1537  2.0208 -3.6239
 2405TIP3   OH2 7220   1.637   0.524   4.771 -0.6656 -0.2526 -0.3003
 2405TIP3    H1 7221   1.623   0.443   4.722 -0.6161  0.4857 -1.5487
 2405TIP3    H2 7222   1.551   0.565   4.775 -0.6479 -0.2519  0.1411
 2406TIP3   OH2 7223   5.891   2.149   1.481  0.4139  0.2157  0.5513
 2406TIP3    H1 7224   5.885   2.242   1.464 -1.3606  0.1127  0.5532
 2406TIP3    H2 7225   5.815   2.111   1.438  1.4634 -1.3180 -0.0001
 2407TIP3   OH2 7226   0.403   1.189   3.620 -0.2061  0.2051 -0.0175
 2407TIP3    H1 7227   0.350   1.124   3.574  0.1990 -0.8122  0.9473
 2407TIP3    H2 7228   0.466   1.138   3.670  2.5134  1.4141 -2.0972
 2408TIP3   OH2 7229   3.003   3.353   0.902 -0.4261 -0.3158  0.6685
 2408TIP3    H1 7230   3.068   3.288   0.876 -1.6393 -0.1371 -3.0581
 2408TIP3    H2 7231   2.937   3.304   0.951 -0.9653 -1.8057 -1.4924
 2409TIP3   OH2 7232   3.367   3.362   1.601 -0.2890  0.5234 -1.0635
 2409TIP3    H1 7233   3.304   3.396   1.537 -1.1729  3.2944  1.1932
 2409TIP3    H2 7234   3.313   3.337   1.676  0.8240 -1.9307 -1.0194
 2410TIP3   OH2 7235   1.983   5.576   4.993  0.5067  0.1993  0.2606
 2410TIP3    H1 7236   2.028   5.601   4.912  1.2306 -3.2473 -0.4882
 2410TIP3    H2 7237   1.965   5.659   5.037  1.9558  2.0280 -2.4390
 2411TIP3   OH2 7238   0.440   3.387   2.988 -0.1194 -0.0691 -0.0066
 2411TIP3    H1 7239   0.438   3.357   3.079  1.9678 -0.4249 -0.0506
 2411TIP3    H2 7240   0.499   3.462   2.989  0.3549 -0.4193 -1.1471
 2412TIP3   OH2 7241   3.748   2.482   5.041  0.1234  0.1469 -0.3199
 2412TIP3    H1 7242   3.658   2.514   5.034  0.2922  0.2526 -2.2837
 2412TIP3    H2 7243   3.783   2.527   5.118 -0.8324  1.7834 -0.8085
 2413TIP3   OH2 7244   0.214   4.371   2.022 -0.0507 -0.0812 -0.2059
 2413TIP3    H1 7245   0.237   4.463   2.031  0.3919 -0.1279 -0.9109
 2413TIP3    H2 7246   0.287   4.331   1.975 -0.4796 -0.6877 -0.3729
 2414TIP3   OH2 7247   5.919   5.999   1.578  0.1373 -0.2620  0.2659
 2414TIP3    H1 7248   5.834   5.957   1.563 -2.0367  3.4488  1.6108
 2414TIP3    H2 7249   5.940   6.040   1.494  0.1354 -0.3481  0.2223
 2415TIP3   OH2 7250   4.592   2.792   3.819 -0.2033  0.1144  0.2002
 2415TIP3    H1 7251   4.553   2.708   3.842  0.4327 -0.7376 -1.7382
 2415TIP3    H2 7252   4.519   2.853   3.818 -0.6840 -0.4076  1.5205
 2416TIP3   OH2 7253   1.095   2.920   3.030 -0.6236 -0.4500  0.4124
 2416TIP3    H1 7254   1.129   3.009   3.036 -0.7205 -0.4511  1.0132
 2416TIP3    H2 7255   1.013   2.929   2.982  0.0123 -0.3895 -0.6582
 2417TIP3   OH2 7256   5.357   3.557   2.138  0.0341  0.1707 -0.2457
 2417TIP3    H1 7257   5.337   3.550   2.044 -2.2559  2.4505  0.0299
 2417TIP3    H2 7258   5.420   3.629   2.143 -0.8301  0.9155  0.0717
 2418TIP3   OH2 7259   4.276   4.268   1.789  0.3341  1.0179 -0.5306
 2418TIP3    H1 7260   4.269   4.300   1.699 -0.3275  1.9873 -0.1491
 2418TIP3    H2 7261   4.206   4.313   1.835  1.9983  2.1321  0.9490
 2419TIP3   OH2 7262   0.198   2.947   2.202  0.7778 -0.2873  0.2590
 2419TIP3    H1 7263   0.141   3.015   2.239  0.9092 -0.4688  0.8080
 2419TIP3    H2 7264   0.287   2.977   2.221  0.9849  1.4156 -3.1275
 2420TIP3   OH2 7265   3.823   2.223   0.711  0.0580 -0.3218 -0.0710
 2420TIP3    H1 7266   3.808   2.173   0.631  0.2681  0.2217 -0.4537
 2420TIP3    H2 7267   3.889   2.288   0.686 -0.3218  0.2397  0.3784
 2421TIP3   OH2 7268   5.759   3.453   4.585  0.0822  0.2465 -0.3134
 2421TIP3    H1 7269   5.831   3.450   4.648  0.8137  0.1048 -1.1343
 2421TIP3    H2 7270   5.681   3.431   4.636  0.8296 -1.0643  0.3076
 2422TIP3   OH2 7271   4.960   4.628   3.498  0.0013 -0.1376 -0.1298
 2422TIP3    H1 7272   4.938   4.562   3.564  2.5841 -2.1122 -1.1994
 2422TIP3    H2 7273   4.891   4.620   3.432 -0.7876 -0.3653  0.7034
 2423TIP3   OH2 7274   5.929   4.632   0.694  0.0323  0.4091 -0.0767
 2423TIP3    H1 7275   5.949   4.711   0.743  1.4757  0.5748 -0.9008
 2423TIP3    H2 7276   5.844   4.649   0.654  0.5159  1.6870 -0.5646
 2424TIP3   OH2 7277   5.471   5.279   1.675 -0.4408 -0.2571 -0.1582
 2424TIP3    H1 7278   5.378   5.258   1.668 -0.4822  0.3694 -1.8121
 2424TIP3    H2 7279   5.514   5.214   1.619  0.2367 -1.1886  1.3951
 2425TIP3   OH2 7280   5.938   3.676   4.528  0.3633 -0.2688 -0.5153
 2425TIP3    H1 7281   5.888   3.595   4.524  1.1616 -0.8998  1.3741
 2425TIP3    H2 7282   5.989   3.669   4.609  1.6615  1.4183 -1.1397
 2426TIP3   OH2 7283   4.366   1.564   4.880 -0.4865  0.2606 -0.3398
 2426TIP3    H1 7284   4.373   1.477   4.842  1.4716  0.2125  0.0890
 2426TIP3    H2 7285   4.329   1.550   4.967  0.3021 -0.1982 -0.0759
 2427TIP3   OH2 7286   5.574   5.619   2.468  0.2607  0.4626  0.4620
 2427TIP3    H1 7287   5.628   5.597   2.392 -0.0190  1.9797 -0.1800
 2427TIP3    H2 7288   5.484   5.607   2.438  0.1789 -0.0539  0.9072
 2428TIP3   OH2 7289   1.076   1.650   1.718 -0.1307  0.4781  0.3602
 2428TIP3    H1 7290   1.065   1.592   1.643  0.6276  0.1293  0.5155
 2428TIP3    H2 7291   0.991   1.694   1.727 -0.0785  0.8553 -0.9739
 2429TIP3   OH2 7292   4.229   2.455   0.280  0.2093  0.5330  0.4427
 2429TIP3    H1 7293   4.189   2.368   0.269  1.9846 -0.5978  2.4558
 2429TIP3    H2 7294   4.155   2.513   0.298 -0.8500 -0.9240  0.9221
 2430TIP3   OH2 7295   0.434   0.854   3.189 -0.5207 -0.6994 -0.1600
 2430TIP3    H1 7296   0.459   0.863   3.097 -0.8611  1.1400 -0.0956
 2430TIP3    H2 7297   0.346   0.891   3.193 -0.2377 -0.1446  1.0455
 2431TIP3   OH2 7298   0.773   3.810   1.775  0.1031 -0.1921 -0.5358
 2431TIP3    H1 7299   0.749   3.846   1.689  0.5105 -0.1305 -0.6277
 2431TIP3    H2 7300   0.859   3.848   1.792  0.0092 -0.1859 -0.0872
 2432TIP3   OH2 7301   5.664   2.262   1.891  0.4190 -0.3182  0.6142
 2432TIP3    H1 7302   5.645   2.323   1.820  0.1286 -0.2306  0.7655
 2432TIP3    H2 7303   5.677   2.318   1.968 -1.7575 -0.5456  1.1693
 2433TIP3   OH2 7304   5.572   1.306   2.999  0.1784  0.4957 -0.5637
 2433TIP3    H1 7305   5.608   1.232   2.950  1.0348  1.5520 -1.5586
 2433TIP3    H2 7306   5.610   1.297   3.087  2.6892  1.4219 -1.5077
 2434TIP3   OH2 7307   3.976   3.944   0.613  0.4988 -0.1499 -0.5584
 2434TIP3    H1 7308   4.051   3.949   0.672  0.1484  2.3907 -0.2489
 2434TIP3    H2 7309   3.908   3.899   0.664  0.6237  0.8476  0.5170
 2435TIP3   OH2 7310   1.966   4.993   4.925  0.3589 -0.3342  0.2302
 2435TIP3    H1 7311   1.912   4.959   4.997  0.4135  0.6032  0.7194
 2435TIP3    H2 7312   1.905   5.044   4.872  1.0050  1.7968  1.4869
 2436TIP3   OH2 7313   3.916   1.878   0.677 -0.1918  0.2203  0.2600
 2436TIP3    H1 7314   3.927   1.799   0.624 -1.2398 -0.6326  1.2888
 2436TIP3    H2 7315   3.831   1.913   0.650  0.4915  1.2625 -0.5378
 2437TIP3   OH2 7316   0.647   5.109   5.107 -0.2962 -0.7549  0.1905
 2437TIP3    H1 7317   0.683   5.048   5.043 -0.7422 -0.5292 -0.2806
 2437TIP3    H2 7318   0.572   5.148   5.063  0.3328  0.5631  0.2731
 2438TIP3   OH2 7319   1.401   3.752   5.073  0.1027 -0.4024 -0.4839
 2438TIP3    H1 7320   1.483   3.741   5.122 -0.1170 -1.6775 -0.3709
 2438TIP3    H2 7321   1.356   3.668   5.083 -2.7283  1.3266  2.1128
 2439TIP3   OH2 7322   1.031   2.683   1.662  0.3484 -0.4567 -0.3522
 2439TIP3    H1 7323   1.090   2.738   1.713  1.1740 -0.0514 -1.7391
 2439TIP3    H2 7324   0.964   2.742   1.629 -0.0756 -0.6860  0.0898
 2440TIP3   OH2 7325   3.640   3.680   1.864  0.2351  0.5785  0.6539
 2440TIP3    H1 7326   3.733   3.680   1.839  0.0773  1.3754  0.0586
 2440TIP3    H2 7327   3.594   3.664   1.781 -0.1383 -0.4134  1.0448
 2441TIP3   OH2 7328   5.290   2.911   1.904 -0.4284  0.5129 -0.1994
 2441TIP3    H1 7329   5.224   2.946   1.963  0.8157  2.2473  0.2063
 2441TIP3    H2 7330   5.278   2.961   1.823 -0.0998  0.3198 -0.3681
 2442TIP3   OH2 7331   0.665   2.269   1.871  0.0603  0.1248  0.7007
 2442TIP3    H1 7332   0.718   2.342   1.839  0.2338 -0.8714 -1.3740
 2442TIP3    H2 7333   0.722   2.192   1.861 -0.8781 -0.5970  0.8315
 2443TIP3   OH2 7334   5.649   3.354   1.883 -0.1978  0.4981  0.0995
 2443TIP3    H1 7335   5.666   3.397   1.967 -0.6214  0.1526  0.3622
 2443TIP3    H2 7336   5.718   3.387   1.825  1.0503 -0.4780  1.0006
 2444TIP3   OH2 7337   5.958   1.652   3.744  0.3366  0.1185 -0.0438
 2444TIP3    H1 7338   6.045   1.613   3.736  0.8658  1.5492 -1.5921
 2444TIP3    H2 7339   5.951   1.709   3.668 -2.9497 -1.8585 -1.3256
 2445TIP3   OH2 7340   5.710   3.032   3.197 -0.2718  0.4180 -0.0197
 2445TIP3    H1 7341   5.778   3.030   3.264 -0.0640 -0.0138 -0.2398
 2445TIP3    H2 7342   5.705   2.942   3.165  0.8705  0.9640 -1.8239
 2446TIP3   OH2 7343   4.566   3.275   0.967  0.0491  0.3856 -0.4651
 2446TIP3    H1 7344   4.524   3.306   0.887 -1.3991  0.1325  0.1804
 2446TIP3    H2 7345   4.516   3.316   1.038  1.4677  0.8035  0.3052
 2447TIP3   OH2 7346   4.931   1.514   2.277 -0.1033 -0.2227 -0.9908
 2447TIP3    H1 7347   4.859   1.574   2.295  1.3344  1.4628 -0.7792
 2447TIP3    H2 7348   4.985   1.560   2.213  1.4228 -0.9603 -0.2478
 2448TIP3   OH2 7349   0.786   2.291   3.509  0.0870  0.2032  0.1882
 2448TIP3    H1 7350   0.832   2.258   3.586  1.3474  0.4585 -0.4432
 2448TIP3    H2 7351   0.711   2.232   3.498  0.8171 -0.8094  0.6479
 2449TIP3   OH2 7352   0.064   3.557   3.717 -0.1822  0.5174  0.1901
 2449TIP3    H1 7353   0.074   3.491   3.785  1.2163  0.0680 -0.4289
 2449TIP3    H2 7354   0.081   3.640   3.761 -0.4807  0.3402  0.6406
 2450TIP3   OH2 7355   5.127   2.475   0.754  0.4592  0.2101 -0.4223
 2450TIP3    H1 7356   5.049   2.502   0.706  1.2428 -0.8942 -2.3648
 2450TIP3    H2 7357   5.181   2.429   0.689  2.0394 -0.3685  1.2514
 2451TIP3   OH2 7358   3.139   2.509   0.779  0.4078 -0.1037 -0.0319
 2451TIP3    H1 7359   3.092   2.532   0.699  1.3780  1.1727 -0.2476
 2451TIP3    H2 7360   3.153   2.592   0.824  1.5792 -0.5749  0.5122
 2452TIP3   OH2 7361   3.675   3.682   2.207  1.1986 -0.2181 -0.3648
 2452TIP3    H1 7362   3.590   3.656   2.170  2.0708 -1.3981 -1.5819
 2452TIP3    H2 7363   3.691   3.769   2.171  0.8473 -0.2967 -0.7172
 2453TIP3   OH2 7364   0.047   4.379   2.223 -0.6374 -0.4999 -0.0276
 2453TIP3    H1 7365   0.098   4.381   2.141  0.0272 -0.5029  0.3790
 2453TIP3    H2 7366  -0.043   4.394   2.196 -0.2455  0.7825 -0.6341
 2454TIP3   OH2 7367   0.261   5.760   5.276  0.2522  0.2597  0.0929
 2454TIP3    H1 7368   0.288   5.851   5.283 -4.6215  1.9768 -0.9481
 2454TIP3    H2 7369   0.294   5.732   5.190  0.0900  1.6866 -0.4438
 2455TIP3   OH2 7370   1.803   1.643   3.353 -0.3599  0.7973 -0.2269
 2455TIP3    H1 7371   1.800   1.722   3.299 -0.0535  1.3017  0.4872
 2455TIP3    H2 7372   1.800   1.571   3.290 -0.4685  1.3736 -0.8927
 2456TIP3   OH2 7373   6.167   3.155   2.566 -0.0626 -0.2464 -0.2376
 2456TIP3    H1 7374   6.092   3.103   2.536 -0.0308 -0.5895  0.2769
 2456TIP3    H2 7375   6.172   3.138   2.660  1.0836 -0.7671 -0.3914
 2457TIP3   OH2 7376   1.137   2.173   1.430 -0.4133 -0.1625 -0.6832
 2457TIP3    H1 7377   1.046   2.143   1.428 -0.6897  0.6419 -0.2438
 2457TIP3    H2 7378   1.132   2.264   1.459  0.4825  0.0913 -1.3064
 2458TIP3   OH2 7379   4.651   1.820   2.675  0.2501 -0.3728 -0.1682
 2458TIP3    H1 7380   4.724   1.805   2.736  1.4648  0.1094 -1.4762
 2458TIP3    H2 7381   4.656   1.913   2.655 -2.3947  0.2384  1.7891
 2459TIP3   OH2 7382   4.045   1.350   2.838  0.4356 -0.1958  0.1281
 2459TIP3    H1 7383   4.091   1.424   2.797  0.5974 -0.2399  0.2271
 2459TIP3    H2 7384   4.116   1.293   2.869  0.3009 -0.7577 -0.6153
 2460TIP3   OH2 7385   5.511   4.333   2.375  0.0047  0.0138  0.6684
 2460TIP3    H1 7386   5.431   4.301   2.417 -1.0408  1.4585 -0.1557
 2460TIP3    H2 7387   5.556   4.254   2.344 -1.4047 -0.7886  0.6245
 2461TIP3   OH2 7388   4.502   1.437   0.267 -0.1208  0.2104  0.1044
 2461TIP3    H1 7389   4.560   1.393   0.204  0.5130 -1.0974  1.5558
 2461TIP3    H2 7390   4.444   1.367   0.298 -1.4719  1.1792 -0.1720
 2462TIP3   OH2 7391   5.793   4.989   1.861 -0.1560 -0.7079  0.0070
 2462TIP3    H1 7392   5.835   4.958   1.942 -0.0728 -0.0373  0.2194
 2462TIP3    H2 7393   5.709   5.024   1.890  0.4049  0.7020 -0.0152
 2463TIP3   OH2 7394   4.809   3.667   1.574 -0.0817  0.1327  0.0557
 2463TIP3    H1 7395   4.900   3.644   1.588 -0.2605 -1.3589 -1.0716
 2463TIP3    H2 7396   4.773   3.682   1.661  0.9117 -0.5339  0.5775
 2464TIP3   OH2 7397   1.216   4.407   5.083  0.6592 -0.1316  0.0574
 2464TIP3    H1 7398   1.285   4.426   5.147  1.7350  0.6773 -1.3092
 2464TIP3    H2 7399   1.246   4.327   5.039  0.3132 -0.2450  0.0291
 2465TIP3   OH2 7400   1.180   1.305   2.811 -0.3339  0.7350 -0.0365
 2465TIP3    H1 7401   1.205   1.386   2.768  1.1851 -0.1515 -0.8847
 2465TIP3    H2 7402   1.261   1.272   2.850 -0.8984 -0.4284  0.1973
 2466TIP3   OH2 7403   3.661   2.768   3.040  0.0004  0.1925 -0.0792
 2466TIP3    H1 7404   3.724   2.779   3.111 -0.4280  0.4216  0.2689
 2466TIP3    H2 7405   3.617   2.685   3.060 -0.9869  0.8615  0.6172
 2467TIP3   OH2 7406   5.519   4.576   2.433  0.2889 -0.6862 -0.6658
 2467TIP3    H1 7407   5.436   4.596   2.476  0.4187  1.8308 -1.5054
 2467TIP3    H2 7408   5.513   4.483   2.412 -1.6416 -0.9126  0.7257
 2468TIP3   OH2 7409   0.492   3.962   2.670  0.1633 -0.0988 -0.0592
 2468TIP3    H1 7410   0.516   3.954   2.578  0.9672 -1.6387  0.2697
 2468TIP3    H2 7411   0.396   3.956   2.670  0.2248 -1.3453 -0.6907
 2469TIP3   OH2 7412   5.167   3.691   0.049 -0.6770 -0.1497 -0.1131
 2469TIP3    H1 7413   5.075   3.713   0.060 -0.7539 -0.7950  0.6058
 2469TIP3    H2 7414   5.168   3.630  -0.025 -0.6327  1.1085 -1.1532
 2470TIP3   OH2 7415   0.052   2.803   4.664 -0.4883 -0.0265  0.0103
 2470TIP3    H1 7416   0.106   2.864   4.715  0.0741 -0.5963  0.0912
 2470TIP3    H2 7417   0.063   2.719   4.707 -0.7582 -0.3197 -0.4940
 2471TIP3   OH2 7418   6.026   5.428   2.276 -0.3605 -0.3953  0.2141
 2471TIP3    H1 7419   6.012   5.386   2.191 -1.5115 -1.3100  0.8414
 2471TIP3    H2 7420   6.010   5.359   2.340 -0.6436  0.5841  1.2139
 2472TIP3   OH2 7421   5.423   2.383   1.043  0.1428 -0.2146 -0.2000
 2472TIP3    H1 7422   5.438   2.408   1.134  0.7597 -0.4373 -0.2381
 2472TIP3    H2 7423   5.499   2.330   1.020 -0.2053 -0.4896 -0.7249
 2473TIP3   OH2 7424   5.183   2.692   2.677  0.2594  0.2217 -0.2085
 2473TIP3    H1 7425   5.169   2.704   2.771  1.2263  1.9305 -0.2540
 2473TIP3    H2 7426   5.099   2.659   2.644  0.5847 -2.6055  1.5849
 2474TIP3   OH2 7427   1.074   4.713   5.213  0.0270  0.4065  0.3496
 2474TIP3    H1 7428   1.160   4.723   5.171 -0.7714  0.6393 -1.2931
 2474TIP3    H2 7429   1.071   4.622   5.241  0.1492 -0.0784 -1.1570
 2475TIP3   OH2 7430   2.276   5.391   4.770 -0.5193  0.0131 -0.9658
 2475TIP3    H1 7431   2.369   5.374   4.756 -0.4037 -0.1951 -0.0001
 2475TIP3    H2 7432   2.259   5.357   4.858 -1.0286  1.8865 -0.3192
 2476TIP3   OH2 7433   0.094   3.243   1.143  0.2540 -0.7589  0.3672
 2476TIP3    H1 7434   0.063   3.173   1.086 -1.8353  1.0396 -0.7634
 2476TIP3    H2 7435   0.149   3.297   1.086 -0.9412  0.4269  0.3198
 2477TIP3   OH2 7436   4.852   2.022   1.062  0.4125  0.3552 -0.3657
 2477TIP3    H1 7437   4.793   2.084   1.019 -0.2496 -0.2476 -0.3373
 2477TIP3    H2 7438   4.939   2.046   1.032  0.2799  2.0145  0.5041
 2478TIP3   OH2 7439   2.537   0.558   5.079  0.4903 -0.1198  0.2228
 2478TIP3    H1 7440   2.557   0.618   5.150 -0.4836 -0.8482  1.1234
 2478TIP3    H2 7441   2.606   0.491   5.084  0.3206 -0.2669  0.5960
 2479TIP3   OH2 7442   0.401   2.209   1.828 -0.0164  0.3063 -1.1640
 2479TIP3    H1 7443   0.410   2.114   1.831 -1.3816  0.2290  1.9964
 2479TIP3    H2 7444   0.481   2.242   1.869 -0.0819  0.4920 -1.1856
 2480TIP3   OH2 7445   5.758   3.836   2.648  0.1855 -0.3048  0.7652
 2480TIP3    H1 7446   5.763   3.752   2.602  0.3789  0.8813 -1.4666
 2480TIP3    H2 7447   5.719   3.895   2.584  1.5131  1.6792  1.7554
 2481TIP3   OH2 7448   1.568   1.834   2.929  0.0403  0.2679  0.1562
 2481TIP3    H1 7449   1.519   1.754   2.909  0.4754 -0.2068  0.9740
 2481TIP3    H2 7450   1.579   1.832   3.024 -1.0648  1.9526  0.3425
 2482TIP3   OH2 7451   4.188   2.484   1.915 -0.2402  0.2749 -0.1798
 2482TIP3    H1 7452   4.112   2.519   1.867  1.1007  2.1196 -1.0363
 2482TIP3    H2 7453   4.183   2.526   2.001  0.4503  1.3294 -0.6435
 2483TIP3   OH2 7454   4.972   3.784   2.537  0.2356  0.6186  0.4111
 2483TIP3    H1 7455   5.005   3.860   2.489 -2.3641  2.1501  0.9228
 2483TIP3    H2 7456   4.968   3.812   2.628  1.9875 -1.1569  1.0800
 2484TIP3   OH2 7457   5.536   2.309   2.961  0.7623 -0.1966 -0.0622
 2484TIP3    H1 7458   5.582   2.362   3.027 -0.6466  2.5845 -1.2485
 2484TIP3    H2 7459   5.470   2.261   3.011  2.9126 -1.8984  1.2178
 2485TIP3   OH2 7460   1.512   1.809   3.221  0.3437 -0.1959  0.0922
 2485TIP3    H1 7461   1.577   1.878   3.232  1.0515 -1.0977  1.7687
 2485TIP3    H2 7462   1.467   1.805   3.305 -0.6759 -0.7881 -0.4786
 2486TIP3   OH2 7463   0.278   1.133   4.563  0.3019 -0.3236 -0.8998
 2486TIP3    H1 7464   0.361   1.175   4.538  0.1532 -0.1056 -1.0279
 2486TIP3    H2 7465   0.220   1.206   4.584  1.2024 -0.5385  2.6396
 2487TIP3   OH2 7466   3.075   1.498   1.265  0.4670 -0.0306  0.7497
 2487TIP3    H1 7467   3.007   1.547   1.219  0.2256 -0.9552  0.1065
 2487TIP3    H2 7468   3.080   1.539   1.351  0.2411  1.0939  0.2427
 2488TIP3   OH2 7469   1.949   3.921   0.839  0.5002 -0.5126 -0.2890
 2488TIP3    H1 7470   2.025   3.976   0.859 -0.1101 -0.4300  1.8732
 2488TIP3    H2 7471   1.884   3.945   0.905 -1.1592 -1.1066 -1.6712
 2489TIP3   OH2 7472   3.296   4.043   2.657 -0.0508  0.4075 -0.3365
 2489TIP3    H1 7473   3.286   4.014   2.747  1.0522  1.2821  0.0785
 2489TIP3    H2 7474   3.348   3.974   2.615 -0.9999 -0.2532 -0.4561
 2490TIP3   OH2 7475   5.605   4.681   1.614  0.6410  0.2983  0.3719
 2490TIP3    H1 7476   5.576   4.751   1.673  1.9621  1.5088 -0.3866
 2490TIP3    H2 7477   5.591   4.601   1.664  1.8489  1.3097  2.3936
 2491TIP3   OH2 7478   4.662   3.227   2.654 -0.2567 -0.5178 -0.8991
 2491TIP3    H1 7479   4.746   3.273   2.663 -0.0908 -0.7021 -1.5155
 2491TIP3    H2 7480   4.670   3.177   2.573  0.1843 -2.9527  0.5828
 2492TIP3   OH2 7481   5.542   2.258   2.693 -0.7275 -0.0264 -0.0296
 2492TIP3    H1 7482   5.598   2.324   2.652  0.8481 -0.1008  1.9164
 2492TIP3    H2 7483   5.531   2.290   2.783 -2.6233 -0.7713  0.0096
 2493TIP3   OH2 7484   5.461   3.634   3.127 -0.2140  0.2040  0.2887
 2493TIP3    H1 7485   5.405   3.638   3.049 -0.4423  1.9825  0.5182
 2493TIP3    H2 7486   5.499   3.722   3.134  0.3150 -0.1289  1.8077
 2494TIP3   OH2 7487   5.246   2.651   0.471  0.1614 -0.2042  0.3010
 2494TIP3    H1 7488   5.219   2.586   0.535 -0.4798 -0.1795  0.0570
 2494TIP3    H2 7489   5.324   2.614   0.430 -0.6704 -1.1906 -0.4103
 2495TIP3   OH2 7490   1.752   1.503   4.922 -0.1039 -0.7446 -1.0303
 2495TIP3    H1 7491   1.660   1.482   4.939 -0.2825  0.5891 -0.3105
 2495TIP3    H2 7492   1.796   1.418   4.921 -1.4387 -1.4588 -2.0369
 2496TIP3   OH2 7493   6.182   1.627   1.684 -0.4913 -0.5670 -0.0556
 2496TIP3    H1 7494   6.125   1.550   1.693  0.3967 -1.3153 -0.7361
 2496TIP3    H2 7495   6.266   1.598   1.719 -0.4036  0.3932  0.5232
 2497TIP3   OH2 7496   5.387   2.548   0.831 -0.3789 -0.0167  0.2040
 2497TIP3    H1 7497   5.293   2.566   0.824 -0.5114 -0.4843  0.7667
 2497TIP3    H2 7498   5.395   2.492   0.908  0.3784  0.1293  0.2325
 2498TIP3   OH2 7499   6.100   2.787   3.601  0.5658 -0.1048 -0.1626
 2498TIP3    H1 7500   6.046   2.791   3.522  0.6368 -1.9395 -0.3256
 2498TIP3    H2 7501   6.145   2.871   3.603 -2.7728  1.7572  0.3383
 2499TIP3   OH2 7502   1.090   3.620   4.001 -0.0987  0.4502 -0.5794
 2499TIP3    H1 7503   1.096   3.608   3.907 -1.1985  2.7933 -0.9920
 2499TIP3    H2 7504   1.011   3.574   4.027  0.9953 -1.4565 -0.5325
 2500TIP3   OH2 7505   5.507   5.192   3.513  0.4074 -0.1109  0.2706
 2500TIP3    H1 7506   5.526   5.247   3.589 -0.6326  1.9953 -0.9586
 2500TIP3    H2 7507   5.572   5.218   3.448  0.5030 -1.0237 -0.0099
 2501TIP3   OH2 7508   5.716   5.025   0.931  0.1672  0.5757  0.3349
 2501TIP3    H1 7509   5.681   5.032   0.843  1.8226  1.4387 -0.2640
 2501TIP3    H2 7510   5.642   5.045   0.988 -1.4343 -1.9821 -0.7786
 2502TIP3   OH2 7511   6.086   4.828   1.502 -0.0664  0.0931 -0.3718
 2502TIP3    H1 7512   6.170   4.813   1.459 -0.5158  0.1717 -1.2871
 2502TIP3    H2 7513   6.106   4.828   1.596  0.5724 -2.2714 -0.4871
 2503TIP3   OH2 7514   1.127   4.136   4.358  0.1325 -0.3021  0.4289
 2503TIP3    H1 7515   1.057   4.090   4.313  1.0316  0.2852 -1.5937
 2503TIP3    H2 7516   1.083   4.180   4.432 -1.2813 -1.5161  0.3321
 2504TIP3   OH2 7517   5.123   1.052   0.896 -0.3135 -0.1830  0.4607
 2504TIP3    H1 7518   5.080   1.123   0.850  0.5214  0.0370  0.0043
 2504TIP3    H2 7519   5.075   0.973   0.868 -0.4785  0.0653  0.0334
 2505TIP3   OH2 7520   5.656   5.336   1.949  0.3474  0.4686 -0.3851
 2505TIP3    H1 7521   5.632   5.243   1.945 -1.9736  1.0260 -0.3778
 2505TIP3    H2 7522   5.700   5.353   1.866  0.5795 -0.5744 -0.4862
 2506TIP3   OH2 7523   6.085   2.576   1.823  0.0492  0.5796  0.3950
 2506TIP3    H1 7524   6.111   2.484   1.830 -0.4731  0.5008  1.4640
 2506TIP3    H2 7525   6.158   2.618   1.778  0.9796 -0.0853  1.2442
 2507TIP3   OH2 7526   3.371   3.982   1.330 -0.6915  0.4794  0.3254
 2507TIP3    H1 7527   3.322   4.049   1.378  0.5854  1.8937 -0.2975
 2507TIP3    H2 7528   3.409   3.927   1.399 -0.1332  1.5789  0.9149
 2508TIP3   OH2 7529   0.580   6.085   5.266  0.3212 -0.6224  0.3074
 2508TIP3    H1 7530   0.634   6.160   5.241  0.1464 -0.6060 -0.0126
 2508TIP3    H2 7531   0.605   6.016   5.205 -1.1691 -0.1385 -0.8651
 2509TIP3   OH2 7532   4.906   2.823   0.572 -0.1457  0.4601  0.1121
 2509TIP3    H1 7533   4.986   2.865   0.541 -0.6093  1.2823  0.0024
 2509TIP3    H2 7534   4.871   2.779   0.494  1.1499 -1.4715  0.5822
 2510TIP3   OH2 7535   5.266   3.318   1.117 -0.7313 -0.9191  0.4877
 2510TIP3    H1 7536   5.245   3.227   1.137 -2.4646 -0.3239  1.4784
 2510TIP3    H2 7537   5.192   3.350   1.067  0.4288 -0.3817 -0.9346
 2511TIP3   OH2 7538   2.986   2.204   2.091  0.4018 -0.6300  0.2117
 2511TIP3    H1 7539   2.936   2.169   2.164 -0.5307 -1.9999 -1.0665
 2511TIP3    H2 7540   3.029   2.128   2.052  1.5722  0.2031 -0.1659
 2512TIP3   OH2 7541   4.614   1.886   0.403  0.9187 -0.1313  0.2333
 2512TIP3    H1 7542   4.665   1.950   0.353  1.3542 -0.5087  0.1948
 2512TIP3    H2 7543   4.645   1.896   0.493 -2.2164  2.9370  1.1200
 2513TIP3   OH2 7544   4.042   2.573   2.145 -0.0243 -0.2130 -0.1050
 2513TIP3    H1 7545   3.972   2.616   2.193 -0.1247  0.2791 -0.6904
 2513TIP3    H2 7546   4.120   2.626   2.162  0.1759 -0.6761  0.4261
 2514TIP3   OH2 7547   4.594   3.957   1.068  0.3909  0.6332  0.3663
 2514TIP3    H1 7548   4.604   4.017   0.994  1.2464 -0.5139 -0.4643
 2514TIP3    H2 7549   4.651   3.993   1.136  0.2520  1.2243  0.1777
 2515TIP3   OH2 7550   5.908   1.534   3.985  0.7024 -0.5961 -0.3030
 2515TIP3    H1 7551   5.898   1.557   3.893 -0.2904  0.1759 -0.0126
 2515TIP3    H2 7552   5.889   1.615   4.032 -0.7255 -1.4611  0.6512
 2516TIP3   OH2 7553   0.325   1.997   4.200  0.3419 -0.5808  0.0384
 2516TIP3    H1 7554   0.263   1.924   4.189  1.8937 -1.7519 -1.1645
 2516TIP3    H2 7555   0.411   1.958   4.183  1.1559  1.6407 -1.1109
 2517TIP3   OH2 7556   4.326   3.187   0.352  0.1913 -0.5347  0.3950
 2517TIP3    H1 7557   4.239   3.222   0.368  0.8385  0.1488  2.6760
 2517TIP3    H2 7558   4.317   3.134   0.273 -2.2241 -0.2888  0.4740
 2518TIP3   OH2 7559   4.076   4.588   1.401  0.1545 -0.1559  0.2051
 2518TIP3    H1 7560   4.099   4.516   1.459  0.1877  0.0689  0.4738
 2518TIP3    H2 7561   4.102   4.558   1.314  1.5543  0.1225  0.5125
 2519TIP3   OH2 7562   2.380   4.863   2.626 -0.7472  0.0075  0.4289
 2519TIP3    H1 7563   2.372   4.811   2.545 -0.5777 -1.4214  1.3141
 2519TIP3    H2 7564   2.387   4.798   2.695 -2.5099  1.2172  1.7698
 2520TIP3   OH2 7565   0.216   4.732   3.814  0.1354  0.3535  0.4745
 2520TIP3    H1 7566   0.125   4.763   3.810 -0.0291 -0.1017  0.5606
 2520TIP3    H2 7567   0.268   4.811   3.825 -0.1226  0.7751 -1.2406
 2521TIP3   OH2 7568   2.682   1.548   2.252  0.1074  0.2713  0.2153
 2521TIP3    H1 7569   2.636   1.631   2.264 -0.5043  0.0227 -0.4027
 2521TIP3    H2 7570   2.653   1.494   2.325 -1.5151 -0.2997 -0.8428
 2522TIP3   OH2 7571  -0.011   3.957   1.795 -0.4075 -0.0607  0.3599
 2522TIP3    H1 7572   0.002   3.868   1.763  1.7784  0.5014 -0.3890
 2522TIP3    H2 7573   0.064   3.972   1.854  0.2362  1.8950 -0.9154
 2523TIP3   OH2 7574   0.700   2.615   3.220  0.1539  0.7843 -0.3707
 2523TIP3    H1 7575   0.711   2.572   3.135 -2.2978 -1.3051  0.2826
 2523TIP3    H2 7576   0.773   2.583   3.273  0.1179 -0.1430 -0.8613
 2524TIP3   OH2 7577   5.453   2.525   2.075 -0.7372  0.3683 -0.0949
 2524TIP3    H1 7578   5.453   2.621   2.077 -1.2587  0.3712 -0.2277
 2524TIP3    H2 7579   5.543   2.501   2.099 -0.9635  0.8599  1.2999
 2525TIP3   OH2 7580   0.870   2.740   5.132 -0.0984  0.5133 -0.3060
 2525TIP3    H1 7581   0.930   2.804   5.095  0.8327 -0.5355 -0.6584
 2525TIP3    H2 7582   0.783   2.773   5.110  0.3929  1.0559 -1.4849
 2526TIP3   OH2 7583   1.081   2.783   4.614 -0.0699  0.1007 -0.3369
 2526TIP3    H1 7584   1.035   2.866   4.630 -1.2988 -0.6146 -0.0321
 2526TIP3    H2 7585   1.068   2.733   4.695 -1.0677 -1.1574 -1.2583
 2527TIP3   OH2 7586   0.913   3.215   3.110  0.4618 -0.1148  0.2024
 2527TIP3    H1 7587   0.932   3.294   3.060  1.3407 -0.2903  0.2555
 2527TIP3    H2 7588   0.956   3.229   3.195 -0.7746  0.0565  0.8131
 2528TIP3   OH2 7589   5.889   3.465   1.081 -0.2288 -0.0608  0.4208
 2528TIP3    H1 7590   5.868   3.558   1.087  0.1714 -0.0528  1.8015
 2528TIP3    H2 7591   5.958   3.460   1.015 -2.6115  0.2056 -2.1883
 2529TIP3   OH2 7592   0.976   4.083   3.434  0.1905  0.1430  0.0548
 2529TIP3    H1 7593   0.979   4.175   3.460  1.5428  0.0546  0.2702
 2529TIP3    H2 7594   0.986   4.084   3.339  1.4244  0.1806  0.1680
 2530TIP3   OH2 7595   3.330   5.503   2.129  0.5654  0.5805  0.7338
 2530TIP3    H1 7596   3.370   5.536   2.209 -0.3390  3.2551  0.1286
 2530TIP3    H2 7597   3.244   5.545   2.126  1.0809  1.5291 -2.2825
 2531TIP3   OH2 7598   6.248   6.126   3.033  0.8195 -0.3019  0.1688
 2531TIP3    H1 7599   6.285   6.048   2.992  0.8173  0.5358 -1.4709
 2531TIP3    H2 7600   6.296   6.199   2.994  1.0285  0.5149  1.9070
 2532TIP3   OH2 7601   0.330   3.243   4.262 -0.1527  0.4920  0.2908
 2532TIP3    H1 7602   0.291   3.175   4.207 -0.6614  0.2631  0.9207
 2532TIP3    H2 7603   0.255   3.293   4.295  0.1038  0.3035  1.1908
 2533TIP3   OH2 7604   5.210   1.503   0.499  0.5814 -0.3660 -0.7965
 2533TIP3    H1 7605   5.269   1.555   0.445 -0.3497  1.9056  0.3177
 2533TIP3    H2 7606   5.129   1.497   0.448  0.1367  0.6912 -0.2313
 2534TIP3   OH2 7607   1.120   2.678   3.872  0.0226  0.1927 -0.1457
 2534TIP3    H1 7608   1.078   2.756   3.837  0.4102  0.0855 -0.8627
 2534TIP3    H2 7609   1.193   2.711   3.924  0.9139  0.2822 -1.4230
 2535TIP3   OH2 7610   1.086   3.678   2.053  0.1850  0.4832 -0.2805
 2535TIP3    H1 7611   1.058   3.586   2.058 -2.1394  1.2114  0.8117
 2535TIP3    H2 7612   1.181   3.674   2.043  0.1666 -2.0246  0.2900
 2536TIP3   OH2 7613   0.157   1.899   4.785  0.0380  0.3547  0.5735
 2536TIP3    H1 7614   0.147   1.871   4.694 -2.8414 -1.3030  1.3294
 2536TIP3    H2 7615   0.227   1.844   4.820  2.5144  2.3358 -1.1024
 2537TIP3   OH2 7616   6.470   4.275   1.824 -0.4545 -0.6357  0.2152
 2537TIP3    H1 7617   6.497   4.328   1.899  1.6594 -0.5479 -0.5580
 2537TIP3    H2 7618   6.491   4.185   1.849 -1.5292 -0.8139  0.4777
 2538TIP3   OH2 7619   1.389   4.716   1.725 -0.6941  0.0285 -0.2291
 2538TIP3    H1 7620   1.303   4.688   1.693 -0.8820  1.4542 -1.0179
 2538TIP3    H2 7621   1.389   4.811   1.714  0.7435  0.1162  0.3763
 2539TIP3   OH2 7622   0.945   2.613   4.088 -0.1573 -0.5044  0.1799
 2539TIP3    H1 7623   0.869   2.581   4.040  0.5400 -2.1484  0.1268
 2539TIP3    H2 7624   1.002   2.651   4.022  0.6863 -2.5364 -0.3042
 2540TIP3   OH2 7625   1.448   4.673   2.231 -0.6301  0.0353  0.1448
 2540TIP3    H1 7626   1.458   4.644   2.140 -2.0245  3.1840 -1.0854
 2540TIP3    H2 7627   1.535   4.662   2.269  0.1480 -0.7043 -1.7861
 2541TIP3   OH2 7628   6.221   2.443   1.440 -0.0171 -1.0101 -0.1993
 2541TIP3    H1 7629   6.172   2.487   1.370  0.1139  0.8332  0.8469
 2541TIP3    H2 7630   6.156   2.391   1.486 -0.0272 -2.5959 -1.9501
 2542TIP3   OH2 7631   5.546   0.698   0.267 -0.0158 -0.4705  0.3135
 2542TIP3    H1 7632   5.467   0.674   0.219 -0.1194 -1.9333  1.1794
 2542TIP3    H2 7633   5.560   0.625   0.328  1.1374  0.4938  1.2235
 2543TIP3   OH2 7634   5.074   3.019   2.055  0.5696 -0.5096 -0.3305
 2543TIP3    H1 7635   5.081   3.098   2.108 -1.3044 -0.6363  0.1360
 2543TIP3    H2 7636   5.006   3.039   1.991  0.4990 -1.5460 -0.5875
 2544TIP3   OH2 7637   1.895   1.977   2.873 -0.1975 -0.1224  0.0828
 2544TIP3    H1 7638   1.909   2.044   2.805 -0.1671  0.0811  0.2890
 2544TIP3    H2 7639   1.824   2.013   2.927 -0.0897 -0.1964  0.2728
 2545TIP3   OH2 7640   6.422   5.209   2.785 -0.2072 -0.5963  0.3162
 2545TIP3    H1 7641   6.353   5.255   2.834 -0.1282 -3.5639  3.4085
 2545TIP3    H2 7642   6.486   5.185   2.852  2.5669 -0.2008 -2.1138
 2546TIP3   OH2 7643   0.084   3.465   2.389  0.4434 -0.1066  0.3707
 2546TIP3    H1 7644   0.115   3.390   2.440  3.5534  1.2936  0.7054
 2546TIP3    H2 7645   0.021   3.428   2.327  0.7968 -2.7425  1.5100
 2547TIP3   OH2 7646   6.284   4.434   2.133 -0.0270 -0.1171  0.2028
 2547TIP3    H1 7647   6.232   4.497   2.185 -2.4637 -2.4949  0.7458
 2547TIP3    H2 7648   6.271   4.462   2.043 -2.3830 -0.7214  0.3218
 2548TIP3   OH2 7649   2.927   6.062   2.708  0.1310 -0.6699 -0.7467
 2548TIP3    H1 7650   3.020   6.039   2.701  0.5029  0.4176  0.3070
 2548TIP3    H2 7651   2.923   6.118   2.786 -1.4947 -1.1412 -0.4789
 2549TIP3   OH2 7652   5.899   0.085   1.914 -0.2229  0.5657  0.4122
 2549TIP3    H1 7653   5.811   0.055   1.891  0.5182 -1.2391 -0.1792
 2549TIP3    H2 7654   5.886   0.144   1.989 -1.9850  0.8996 -0.1241
 2550TIP3   OH2 7655   5.781   4.755   1.124  0.2673  0.3418  0.1423
 2550TIP3    H1 7656   5.702   4.810   1.123  0.4871  0.6583 -0.0635
 2550TIP3    H2 7657   5.780   4.713   1.210 -0.4593 -0.1425 -0.0979
 2551TIP3   OH2 7658   3.034   3.177   2.853  0.1358  0.0423  0.3931
 2551TIP3    H1 7659   2.943   3.193   2.879  0.8883  1.7216  2.0846
 2551TIP3    H2 7660   3.044   3.082   2.858 -1.2239 -0.0691  1.2371
 2552TIP3   OH2 7661   1.201   4.118   2.690  0.0313  0.2227  0.3511
 2552TIP3    H1 7662   1.120   4.123   2.639 -0.2982 -0.7575  0.7561
 2552TIP3    H2 7663   1.187   4.044   2.749  0.9480  0.4933  0.9159
 2553TIP3   OH2 7664   1.593   5.160   3.427 -0.3890  0.6405 -1.1148
 2553TIP3    H1 7665   1.620   5.069   3.412 -0.5069  0.5485 -0.7698
 2553TIP3    H2 7666   1.574   5.194   3.340  0.8649  0.7151 -1.3691
 2554TIP3   OH2 7667   0.538   5.265   3.931  0.4711 -0.0245 -0.2019
 2554TIP3    H1 7668   0.488   5.331   3.883  1.1143  0.1829 -0.5986
 2554TIP3    H2 7669   0.545   5.191   3.869 -3.6251 -2.0935  1.6007
 2555TIP3   OH2 7670   1.737   6.142   3.236 -0.7276  0.3466  0.4224
 2555TIP3    H1 7671   1.728   6.061   3.186 -1.5899  0.6402  0.0953
 2555TIP3    H2 7672   1.702   6.121   3.323  0.8942 -0.2020  0.9567
 2556TIP3   OH2 7673   2.475   0.625   2.737 -0.3580  0.5337  0.0396
 2556TIP3    H1 7674   2.482   0.643   2.643  1.9244 -0.8432 -0.0939
 2556TIP3    H2 7675   2.417   0.549   2.743  0.5176 -0.1799 -0.3786
 2557TIP3   OH2 7676   0.171   5.220   0.556 -0.1335  0.0574 -0.4088
 2557TIP3    H1 7677   0.207   5.176   0.479  1.2507  1.5259 -0.6390
 2557TIP3    H2 7678   0.181   5.157   0.627 -1.4539 -1.3142 -1.4298
 2558TIP3   OH2 7679   2.072   4.124   5.069 -0.2080 -0.5637 -0.1537
 2558TIP3    H1 7680   2.089   4.160   4.981 -0.3715 -2.5625 -1.0280
 2558TIP3    H2 7681   1.979   4.102   5.068 -0.8962  2.0521  1.5418
 2559TIP3   OH2 7682   1.856   4.826   0.524 -0.0862 -0.0696 -0.3081
 2559TIP3    H1 7683   1.924   4.821   0.590  0.3955 -1.2537 -0.8721
 2559TIP3    H2 7684   1.776   4.847   0.572  0.6349  1.0675  0.3864
 2560TIP3   OH2 7685  -0.014   1.783   3.676 -0.4940 -0.4001 -0.0497
 2560TIP3    H1 7686   0.066   1.832   3.693 -1.2307  0.4500  1.0115
 2560TIP3    H2 7687   0.007   1.693   3.702 -0.7943  0.3772  3.0277
 2561TIP3   OH2 7688   1.231   2.873   4.032 -0.1931  0.3124  0.2384
 2561TIP3    H1 7689   1.146   2.898   4.068 -0.2148  2.2297 -1.0743
 2561TIP3    H2 7690   1.292   2.885   4.105 -0.2240  4.2095 -0.2743
 2562TIP3   OH2 7691   5.127   4.633   0.740  0.3862  0.0497  0.2257
 2562TIP3    H1 7692   5.115   4.721   0.705 -1.1747 -0.0565  0.4396
 2562TIP3    H2 7693   5.185   4.645   0.816  1.2432  0.6998 -0.5309
 2563TIP3   OH2 7694   2.958   1.900   4.604  0.2211  0.1284  0.6847
 2563TIP3    H1 7695   3.034   1.845   4.589  0.0591 -0.3094  1.4434
 2563TIP3    H2 7696   2.990   1.973   4.656  0.0994 -0.1402  1.1447
 2564TIP3   OH2 7697   6.482   3.240   4.603  0.0738 -0.3662 -0.2096
 2564TIP3    H1 7698   6.450   3.272   4.688  0.6622  0.3510 -0.2503
 2564TIP3    H2 7699   6.453   3.149   4.599  0.4806 -0.5522  0.9801
 2565TIP3   OH2 7700   0.571   1.924   4.113  0.3734  0.0875 -0.1494
 2565TIP3    H1 7701   0.602   1.986   4.047  0.7229 -0.9451 -0.9791
 2565TIP3    H2 7702   0.630   1.849   4.105 -0.8062 -0.8766 -0.0426
 2566TIP3   OH2 7703   5.260   4.016   1.531  0.3893 -1.0227 -0.5064
 2566TIP3    H1 7704   5.349   3.990   1.552  0.8291 -0.0043 -1.1203
 2566TIP3    H2 7705   5.246   4.098   1.577  0.1124 -0.6593 -1.2263
 2567TIP3   OH2 7706   2.539   3.497   2.808 -0.3062 -0.1668 -0.2704
 2567TIP3    H1 7707   2.530   3.402   2.820  0.2121 -0.1730  0.1235
 2567TIP3    H2 7708   2.538   3.509   2.713  0.4875 -0.6648 -0.3501
 2568TIP3   OH2 7709   1.001   4.305   3.576  0.4512  0.0760 -0.1867
 2568TIP3    H1 7710   1.085   4.260   3.584 -0.4724 -1.7617 -0.4928
 2568TIP3    H2 7711   1.021   4.397   3.592  1.9733 -0.7514  3.0458
 2569TIP3   OH2 7712   0.234   3.393   2.767  0.3991 -0.0565 -0.6265
 2569TIP3    H1 7713   0.304   3.403   2.832  0.6246  1.4153 -1.0683
 2569TIP3    H2 7714   0.159   3.439   2.804 -0.0675 -0.8412 -0.5738
 2570TIP3   OH2 7715   1.377   3.754   4.649  0.3647  0.4007  0.5732
 2570TIP3    H1 7716   1.355   3.846   4.634 -1.1122  0.2946  1.8959
 2570TIP3    H2 7717   1.369   3.713   4.563 -0.3984  1.2412  0.2331
 2571TIP3   OH2 7718   0.449   4.937   2.108  0.2163 -0.3369 -0.3195
 2571TIP3    H1 7719   0.463   4.946   2.014 -0.0508  0.7012 -0.2706
 2571TIP3    H2 7720   0.367   4.983   2.124 -1.5854 -3.4798 -0.1025
 2572TIP3   OH2 7721   5.617   4.624   0.408  0.0119 -0.5919 -0.3329
 2572TIP3    H1 7722   5.609   4.541   0.457 -1.6151  0.3777  1.0817
 2572TIP3    H2 7723   5.602   4.692   0.474 -1.2561  0.7726 -2.0048
 2573TIP3   OH2 7724   1.503   3.393   5.301  0.2382  0.6051  0.3044
 2573TIP3    H1 7725   1.441   3.359   5.237  0.1850  1.2942 -0.0215
 2573TIP3    H2 7726   1.466   3.477   5.328 -0.6839 -0.5150  2.6415
 2574TIP3   OH2 7727   0.965   4.191   2.553  0.3926 -0.1865  0.6675
 2574TIP3    H1 7728   0.982   4.277   2.515  0.2855 -0.2795  0.4141
 2574TIP3    H2 7729   0.889   4.205   2.611 -0.8079 -0.5129 -0.7978
 2575TIP3   OH2 7730   3.837   4.942   3.206 -0.2636  0.4302  0.4346
 2575TIP3    H1 7731   3.879   4.878   3.148 -3.1819  0.7233 -2.1488
 2575TIP3    H2 7732   3.855   5.027   3.166 -1.0729  0.7628  0.7646
 2576TIP3   OH2 7733   1.560   3.769   4.313 -0.5450  0.1392  0.2829
 2576TIP3    H1 7734   1.478   3.733   4.344 -0.7931 -0.0231 -0.5371
 2576TIP3    H2 7735   1.535   3.845   4.261 -0.1855  0.0602 -0.0110
 2577TIP3   OH2 7736   2.336   1.627   4.369 -0.1429  0.2451  0.0801
 2577TIP3    H1 7737   2.287   1.550   4.342  0.4885  0.0135 -0.4205
 2577TIP3    H2 7738   2.428   1.599   4.370  0.0677  0.9130  0.1463
 2578TIP3   OH2 7739   5.071   4.263   3.884 -0.4608  0.5665 -0.1084
 2578TIP3    H1 7740   5.049   4.303   3.969  0.1458 -0.0211  0.3333
 2578TIP3    H2 7741   5.080   4.337   3.824  1.5833  1.1892  0.9053
 2579TIP3   OH2 7742   5.779   4.397   1.634  0.3076  0.1965 -0.0773
 2579TIP3    H1 7743   5.786   4.425   1.726  0.1515  2.1369 -0.6313
 2579TIP3    H2 7744   5.843   4.452   1.588 -0.1794 -0.2149 -1.2457
 2580TIP3   OH2 7745   3.074   4.315   3.914  0.2175 -0.3583  0.0843
 2580TIP3    H1 7746   3.033   4.270   3.988 -1.2186  0.0303 -0.4534
 2580TIP3    H2 7747   3.137   4.374   3.955 -2.1553  1.5034  1.1673
 2581TIP3   OH2 7748   5.662   2.979   3.642  0.0494  0.2855  0.2813
 2581TIP3    H1 7749   5.674   3.058   3.695 -1.0322  1.3777 -1.0686
 2581TIP3    H2 7750   5.751   2.957   3.612  0.8546 -1.0073  3.4012
 2582TIP3   OH2 7751   6.099   3.249   3.353 -0.9159  0.6259  0.2183
 2582TIP3    H1 7752   6.066   3.336   3.330  1.0881  0.5600 -3.1250
 2582TIP3    H2 7753   6.165   3.230   3.287  0.1727 -2.5847  2.1363
 2583TIP3   OH2 7754   4.573   3.091   3.042 -0.0757  0.5257 -0.2222
 2583TIP3    H1 7755   4.600   3.176   3.008  1.3690 -0.2197 -1.0110
 2583TIP3    H2 7756   4.550   3.107   3.133  3.6053  1.1448  0.6723
 2584TIP3   OH2 7757   5.337   2.715   2.462  0.0711 -0.0833  0.5256
 2584TIP3    H1 7758   5.292   2.747   2.384  1.3567 -0.1675 -0.2765
 2584TIP3    H2 7759   5.268   2.706   2.528 -0.7643  1.5791 -0.0938
 2585TIP3   OH2 7760   6.008   3.546   2.332  0.1413 -0.2649 -0.4518
 2585TIP3    H1 7761   6.061   3.612   2.287  1.6365 -0.2175  1.3081
 2585TIP3    H2 7762   6.072   3.488   2.373 -1.1662 -0.5985  1.1782
 2586TIP3   OH2 7763   3.391   1.466   0.281 -0.4943  0.0454 -0.2580
 2586TIP3    H1 7764   3.357   1.501   0.199 -0.4716 -0.2963 -0.4109
 2586TIP3    H2 7765   3.341   1.386   0.296  0.1032 -0.3546 -0.3825
 2587TIP3   OH2 7766   5.048   2.191   1.313 -0.3760  0.0802  0.0330
 2587TIP3    H1 7767   5.054   2.180   1.218 -0.0902  0.2865  0.0251
 2587TIP3    H2 7768   5.137   2.215   1.340 -0.0110 -1.8784  0.6130
 2588TIP3   OH2 7769   4.834   5.115   4.138  0.9254  0.7430 -0.2003
 2588TIP3    H1 7770   4.831   5.032   4.091  2.4681  1.1518 -1.0608
 2588TIP3    H2 7771   4.897   5.168   4.089  0.6895  2.0740  0.8973
 2589TIP3   OH2 7772   5.591   3.898   1.516 -0.1442 -0.3679  0.0017
 2589TIP3    H1 7773   5.665   3.843   1.489 -0.1408  0.1320 -1.0665
 2589TIP3    H2 7774   5.628   3.986   1.521 -0.8123 -0.0072 -1.2105
 2590TIP3   OH2 7775   5.703   5.344   3.716  0.3860 -0.2372 -0.2259
 2590TIP3    H1 7776   5.717   5.349   3.810 -0.5355 -0.6204 -0.0587
 2590TIP3    H2 7777   5.787   5.370   3.677  0.8238 -0.2541  0.6976
 2591TIP3   OH2 7778   1.144   3.254   0.573 -0.5725  0.3449  0.0052
 2591TIP3    H1 7779   1.151   3.287   0.663 -1.5901  1.4247 -0.2945
 2591TIP3    H2 7780   1.052   3.268   0.550 -0.5470 -0.8718 -0.8482
 2592TIP3   OH2 7781   1.865   5.161   3.964  0.0679 -0.2216 -0.0021
 2592TIP3    H1 7782   1.776   5.140   3.936  0.2930 -0.4224 -0.5661
 2592TIP3    H2 7783   1.921   5.125   3.895  0.6317 -0.8939  0.7960
 2593TIP3   OH2 7784   1.681   2.082   3.296 -0.3199  0.0028  1.2597
 2593TIP3    H1 7785   1.592   2.116   3.293 -0.4020 -0.3249 -0.1451
 2593TIP3    H2 7786   1.694   2.056   3.388 -1.6588  0.0620  1.4667
 2594TIP3   OH2 7787   0.330   5.805   1.481  0.5065  0.2082 -0.7942
 2594TIP3    H1 7788   0.267   5.816   1.552  1.2722  0.1195 -0.0977
 2594TIP3    H2 7789   0.329   5.889   1.435 -0.4485  0.0582 -1.0672
 2595TIP3   OH2 7790   1.846   4.316   2.978  0.0488 -0.4492  0.1124
 2595TIP3    H1 7791   1.773   4.256   2.960 -1.1582  0.9863  0.0611
 2595TIP3    H2 7792   1.873   4.348   2.892 -0.8409  0.7948  0.2675
 2596TIP3   OH2 7793   1.207   5.027   2.131  0.2431  0.7365  0.7756
 2596TIP3    H1 7794   1.272   5.052   2.065 -0.5651  1.8806  0.3982
 2596TIP3    H2 7795   1.258   5.010   2.210  1.2839 -1.1198 -0.2369
 2597TIP3   OH2 7796   0.279   4.429   3.116  0.6786 -0.5324  0.3299
 2597TIP3    H1 7797   0.202   4.417   3.172  0.1035  0.2026 -0.2897
 2597TIP3    H2 7798   0.243   4.440   3.028  1.4877 -0.0835  0.0484
 2598TIP3   OH2 7799   5.950   0.530   4.126 -0.1971  0.4298  0.3326
 2598TIP3    H1 7800   5.934   0.441   4.095 -0.0075  0.5230 -0.0383
 2598TIP3    H2 7801   6.015   0.521   4.195  0.2857  0.3418 -0.1296
 2599TIP3   OH2 7802   0.525   6.153   4.374  0.2401  0.7485  0.2327
 2599TIP3    H1 7803   0.517   6.112   4.288  0.6500  2.5195 -0.6858
 2599TIP3    H2 7804   0.525   6.080   4.436 -0.3661 -0.5345 -1.2409
 2600TIP3   OH2 7805   2.220   3.514   3.391 -0.6698 -0.6154 -0.0425
 2600TIP3    H1 7806   2.265   3.484   3.469  2.1315  1.2538 -0.8622
 2600TIP3    H2 7807   2.178   3.435   3.355 -0.9883 -1.7064  2.6287
 2601TIP3   OH2 7808   1.517   5.502   0.135  0.0537  0.2966 -0.1538
 2601TIP3    H1 7809   1.588   5.446   0.166  0.4108  1.3819  1.0216
 2601TIP3    H2 7810   1.559   5.568   0.080  0.0121  1.1719  0.8559
 2602TIP3   OH2 7811   3.807   5.018   4.562  0.0754  0.0463  0.3400
 2602TIP3    H1 7812   3.770   5.087   4.508  0.9340  0.2085 -0.0632
 2602TIP3    H2 7813   3.883   4.987   4.512 -0.0143 -0.8492  0.7430
 2603TIP3   OH2 7814   5.021   4.473   1.866 -0.1092  0.5721 -0.1488
 2603TIP3    H1 7815   5.067   4.448   1.945  2.3304  1.9835 -1.0672
 2603TIP3    H2 7816   4.959   4.540   1.894 -1.1564 -0.8364  0.9772
 2604TIP3   OH2 7817   1.318   2.784   3.479  0.2816 -0.6726  0.0083
 2604TIP3    H1 7818   1.376   2.768   3.553  0.6790 -0.9392 -0.3526
 2604TIP3    H2 7819   1.262   2.856   3.507  2.2243  1.0496 -0.4318
 2605TIP3   OH2 7820   0.790   2.317   2.714  0.4418  0.1936  0.1153
 2605TIP3    H1 7821   0.697   2.340   2.706 -0.1184 -1.7396  0.7237
 2605TIP3    H2 7822   0.813   2.280   2.629  0.3820 -0.2832  0.3085
 2606TIP3   OH2 7823   0.573   3.507   2.282  0.4008  0.1218 -0.1576
 2606TIP3    H1 7824   0.588   3.445   2.354  0.6411  0.5969  0.1989
 2606TIP3    H2 7825   0.630   3.476   2.212 -0.6520 -1.0019 -0.5466
 2607TIP3   OH2 7826   1.361   1.116   4.066 -0.3783 -0.1167  0.0030
 2607TIP3    H1 7827   1.306   1.056   4.115 -0.5163 -1.5799 -1.8738
 2607TIP3    H2 7828   1.359   1.082   3.976  2.0269  0.8928 -0.4767
 2608TIP3   OH2 7829   5.998   6.068   2.739  0.7725 -0.1538  0.0815
 2608TIP3    H1 7830   5.908   6.051   2.711  0.6719  0.6858 -0.1122
 2608TIP3    H2 7831   5.989   6.117   2.821  1.0645 -2.2979  1.4364
 2609TIP3   OH2 7832   0.189   4.619   4.075  0.2678 -0.2857 -0.3700
 2609TIP3    H1 7833   0.172   4.682   4.005  1.1722  1.2400  0.7525
 2609TIP3    H2 7834   0.228   4.543   4.030 -1.5872 -0.4000 -1.8294
 2610TIP3   OH2 7835   1.111   4.937   1.026 -0.1540  0.0038  0.4215
 2610TIP3    H1 7836   1.198   4.913   0.993 -0.1112 -2.1996  1.9934
 2610TIP3    H2 7837   1.127   4.965   1.116 -0.9099  0.8701  0.2833
 2611TIP3   OH2 7838   4.746  -0.015   2.055 -0.1187 -0.1510 -0.2532
 2611TIP3    H1 7839   4.792  -0.013   1.971 -1.0734  1.4023 -0.7500
 2611TIP3    H2 7840   4.793   0.048   2.110 -0.6619  0.2381 -0.2342
 2612TIP3   OH2 7841   0.133   4.547   2.904  0.5576  0.6221  0.1750
 2612TIP3    H1 7842   0.104   4.468   2.859 -0.1915  0.6891  0.5402
 2612TIP3    H2 7843   0.097   4.619   2.852  2.0047  0.7451 -0.6786
 2613TIP3   OH2 7844   1.762   5.660   2.300 -0.2106  0.5408 -0.0511
 2613TIP3    H1 7845   1.749   5.747   2.262 -0.1219  0.0149 -1.3136
 2613TIP3    H2 7846   1.675   5.631   2.326 -0.2300  1.0354  0.4450
 2614TIP3   OH2 7847   1.957   1.512   5.300  0.3574 -0.1952 -0.0857
 2614TIP3    H1 7848   2.019   1.569   5.255 -0.3860 -0.9906 -2.1525
 2614TIP3    H2 7849   1.953   1.433   5.246 -1.0708 -0.8931  1.0107
 2615TIP3   OH2 7850   2.183   3.985   0.434  0.9190 -0.1909  0.0619
 2615TIP3    H1 7851   2.105   3.990   0.488  1.0781  0.8865  0.2042
 2615TIP3    H2 7852   2.154   3.944   0.352 -0.1535  1.7388 -0.5299
 2616TIP3   OH2 7853   5.686   5.375   2.544 -0.1280  0.6376 -1.3985
 2616TIP3    H1 7854   5.766   5.428   2.549 -0.9653  2.0141 -2.1424
 2616TIP3    H2 7855   5.617   5.439   2.525 -1.6929 -0.2678  1.0393
 2617TIP3   OH2 7856   6.295   3.426   1.430 -0.2124  0.2411 -0.4322
 2617TIP3    H1 7857   6.294   3.488   1.357 -0.5137 -0.0215 -0.6537
 2617TIP3    H2 7858   6.231   3.359   1.405  2.3640 -1.8258 -1.6684
 2618TIP3   OH2 7859   1.287   2.064   3.993  0.3837 -0.0675  0.2800
 2618TIP3    H1 7860   1.220   2.014   4.041  0.6774  0.3141  1.0902
 2618TIP3    H2 7861   1.260   2.155   4.002 -0.7886 -0.1278 -2.1720
 2619TIP3   OH2 7862   5.870   6.065   0.803 -0.3131  0.1599 -0.1390
 2619TIP3    H1 7863   5.914   5.988   0.838  1.5942  0.7941 -1.0772
 2619TIP3    H2 7864   5.806   6.089   0.871  1.9903  0.2296  2.0538
 2620TIP3   OH2 7865   5.552   3.006   1.537  0.8845 -0.3496  0.0947
 2620TIP3    H1 7866   5.624   3.039   1.483  0.2830  0.6640 -0.0918
 2620TIP3    H2 7867   5.568   3.043   1.624  0.2676  0.3425 -0.0889
 2621TIP3   OH2 7868   2.201   5.675   2.212 -0.0232 -0.1911  0.0344
 2621TIP3    H1 7869   2.129   5.680   2.275 -0.6611  0.2150 -0.7172
 2621TIP3    H2 7870   2.270   5.627   2.257 -0.9288 -0.9471  0.6104
 2622TIP3   OH2 7871   0.055   3.587   2.883  0.3012  0.2632 -0.3403
 2622TIP3    H1 7872   0.071   3.592   2.788 -0.5617  2.3348 -0.4152
 2622TIP3    H2 7873  -0.033   3.621   2.894 -0.0081 -0.9713  1.1235
 2623TIP3   OH2 7874   5.094   4.343   4.517  0.8583 -0.6435  0.1491
 2623TIP3    H1 7875   5.128   4.337   4.427 -1.2140  0.2496 -0.7277
 2623TIP3    H2 7876   5.063   4.254   4.537  1.7941 -0.9654  0.1791
 2624TIP3   OH2 7877   0.808   3.596   4.548  0.0256 -0.1775 -0.2270
 2624TIP3    H1 7878   0.722   3.597   4.590 -0.0860 -0.5995 -0.4471
 2624TIP3    H2 7879   0.865   3.642   4.610 -0.1654 -0.6759  0.3230
 2625TIP3   OH2 7880   5.131   4.259   2.934  0.5078 -0.0317  0.3449
 2625TIP3    H1 7881   5.132   4.336   2.877  2.8254  0.0903  0.5037
 2625TIP3    H2 7882   5.133   4.295   3.023 -2.3536 -0.2395  0.5557
 2626TIP3   OH2 7883   5.700   5.473   4.476  0.0654  0.3026 -0.0884
 2626TIP3    H1 7884   5.683   5.456   4.569  0.5113  1.3178  0.1893
 2626TIP3    H2 7885   5.728   5.565   4.473  0.0054  0.2931 -1.2351
 2627TIP3   OH2 7886   0.894   3.219   3.827 -0.3873 -0.0923 -0.2319
 2627TIP3    H1 7887   0.931   3.252   3.745  1.9868 -1.7744  0.1013
 2627TIP3    H2 7888   0.968   3.220   3.889 -1.7025 -0.4910  1.3914
 2628TIP3   OH2 7889   1.360   2.737   2.264  0.2503 -0.3332 -0.3702
 2628TIP3    H1 7890   1.443   2.752   2.308  1.2882 -1.6095 -1.8575
 2628TIP3    H2 7891   1.367   2.787   2.182 -0.7619  0.1629 -0.1734
 2629TIP3   OH2 7892   2.053   1.993   4.969 -0.0697  0.2133 -0.1492
 2629TIP3    H1 7893   2.014   1.908   4.985 -1.7893  1.3987  2.2960
 2629TIP3    H2 7894   2.006   2.053   5.028  2.2331  2.5432 -0.5678
 2630TIP3   OH2 7895   5.886   1.470   2.150  0.4893 -0.3381 -0.4862
 2630TIP3    H1 7896   5.917   1.560   2.162 -0.0637 -0.0039 -1.5096
 2630TIP3    H2 7897   5.844   1.470   2.064 -1.0975 -1.1464  0.2788
 2631TIP3   OH2 7898   6.366   0.210   0.221 -0.0602 -0.4277  0.2140
 2631TIP3    H1 7899   6.420   0.289   0.216 -1.0210  0.0507 -3.6614
 2631TIP3    H2 7900   6.277   0.242   0.235 -0.0335 -1.0228  1.9055
 2632TIP3   OH2 7901   0.734   4.505   4.845  0.5306 -0.1667  0.1636
 2632TIP3    H1 7902   0.775   4.505   4.932  1.5354 -1.0419 -0.2891
 2632TIP3    H2 7903   0.804   4.474   4.786  0.1550  1.2989 -1.0935
 2633TIP3   OH2 7904   0.089   2.629   4.436 -0.2400 -0.8823 -0.3521
 2633TIP3    H1 7905   0.055   2.710   4.471 -0.4759 -0.3563 -1.7726
 2633TIP3    H2 7906   0.012   2.575   4.418 -0.2131 -0.6387 -1.2598
 2634TIP3   OH2 7907   1.486   4.605   1.954 -0.1848  0.3323  0.1935
 2634TIP3    H1 7908   1.441   4.645   1.879  0.9174  0.9395 -0.1718
 2634TIP3    H2 7909   1.510   4.518   1.923 -1.1194  0.0079  0.3928
 2635TIP3   OH2 7910   3.783   5.600   2.014  0.4068  0.0888  0.4068
 2635TIP3    H1 7911   3.759   5.536   2.081  1.1775  2.5528  3.1724
 2635TIP3    H2 7912   3.702   5.619   1.968  0.2687 -3.2235 -0.8166
 2636TIP3   OH2 7913   2.635   5.383   3.211 -0.4869 -0.0649  0.2718
 2636TIP3    H1 7914   2.663   5.296   3.182 -2.2926 -1.0742  1.4199
 2636TIP3    H2 7915   2.558   5.402   3.157 -0.6479  0.4021  0.6651
 2637TIP3   OH2 7916   0.787   4.232   4.170 -0.5055  0.0289  0.2618
 2637TIP3    H1 7917   0.760   4.300   4.232 -1.1184  1.8107 -1.8892
 2637TIP3    H2 7918   0.710   4.175   4.162 -1.0775  0.8483 -0.2244
 2638TIP3   OH2 7919   1.292   4.365   3.573 -1.1220 -0.0957  0.1350
 2638TIP3    H1 7920   1.375   4.321   3.593 -0.1614  1.1009 -1.1458
 2638TIP3    H2 7921   1.289   4.440   3.632 -1.1570  0.0131 -0.0046
 2639TIP3   OH2 7922   2.649   4.801   4.697  0.0966  0.3827  0.1011
 2639TIP3    H1 7923   2.619   4.890   4.716 -1.4454  0.0324 -0.6047
 2639TIP3    H2 7924   2.572   4.758   4.661  0.6055 -1.4970  1.2238
 2640TIP3   OH2 7925   0.016   5.970   1.482 -0.2784  0.8526 -0.3905
 2640TIP3    H1 7926  -0.070   5.972   1.524 -0.3372  2.5997 -0.5632
 2640TIP3    H2 7927   0.075   5.938   1.550 -0.9316  0.4064 -0.0250
 2641TIP3   OH2 7928   1.217   3.509   1.668 -0.2498 -0.0908 -0.6693
 2641TIP3    H1 7929   1.137   3.499   1.721 -0.6683 -0.3688 -1.3461
 2641TIP3    H2 7930   1.285   3.529   1.732 -0.8113 -0.1166 -0.0515
 2642TIP3   OH2 7931   1.397   2.248   1.518  0.2443 -0.0099 -0.4619
 2642TIP3    H1 7932   1.474   2.191   1.511 -0.0163 -0.4214 -0.0041
 2642TIP3    H2 7933   1.324   2.192   1.491  0.3182  0.8849 -2.5701
 2643TIP3   OH2 7934   1.582   4.277   4.580 -0.3279 -0.6865 -0.1430
 2643TIP3    H1 7935   1.653   4.264   4.518  0.8279 -0.6103  1.1590
 2643TIP3    H2 7936   1.504   4.284   4.525  0.5227 -1.7407 -1.5201
 2644TIP3   OH2 7937   0.931   3.566   4.944  0.2050  0.2969  0.5859
 2644TIP3    H1 7938   0.944   3.499   5.010 -1.8217 -1.3303 -0.6158
 2644TIP3    H2 7939   0.988   3.539   4.872 -1.1407 -0.5643 -0.1777
 2645TIP3   OH2 7940   5.963   0.662   1.110  0.1904 -0.4754 -0.5889
 2645TIP3    H1 7941   5.889   0.686   1.055  0.9298  0.0780 -1.3601
 2645TIP3    H2 7942   6.008   0.745   1.128  0.4235 -0.7579  0.1598
 2646TIP3   OH2 7943   0.562   2.000   3.318 -0.6399  0.5071  0.3277
 2646TIP3    H1 7944   0.559   2.059   3.393  1.0910 -0.3657  1.1310
 2646TIP3    H2 7945   0.604   1.921   3.351  1.7589  0.7379 -1.9455
 2647TIP3   OH2 7946   1.997   1.683   0.793 -0.1660  0.4505  0.1780
 2647TIP3    H1 7947   2.007   1.589   0.779  0.6684  0.7855 -1.6738
 2647TIP3    H2 7948   2.073   1.722   0.749 -0.0769  1.9354  1.6264
 2648TIP3   OH2 7949   2.533   1.671   3.632  0.1369  0.0978 -0.0707
 2648TIP3    H1 7950   2.603   1.728   3.664 -0.3315  0.5323  0.1799
 2648TIP3    H2 7951   2.453   1.707   3.671 -0.0788 -1.1617  0.6604
 2649TIP3   OH2 7952   0.093   2.608   3.460 -0.0451  0.2694  0.1655
 2649TIP3    H1 7953   0.006   2.599   3.421  0.2138  0.3278 -0.4271
 2649TIP3    H2 7954   0.150   2.558   3.402  0.5499  1.3829 -0.2175
 2650TIP3   OH2 7955   1.238   2.345   4.039 -0.2387  0.0033 -0.2701
 2650TIP3    H1 7956   1.227   2.402   4.116 -0.8265 -1.0239  0.4138
 2650TIP3    H2 7957   1.222   2.403   3.964 -0.3895  0.8426  0.4026
 2651TIP3   OH2 7958   1.273   3.095   3.822 -0.3009  0.2309  0.3740
 2651TIP3    H1 7959   1.278   3.017   3.877 -2.6243 -0.8727 -0.9252
 2651TIP3    H2 7960   1.249   3.165   3.882 -0.0827 -0.4172  1.2323
 2652TIP3   OH2 7961   2.377   4.484   3.753  0.5269  0.3243  0.4618
 2652TIP3    H1 7962   2.317   4.518   3.820  2.3073  1.8847  1.3243
 2652TIP3    H2 7963   2.404   4.399   3.787 -1.6680 -0.7007 -0.2601
 2653TIP3   OH2 7964   6.157   3.413   5.073  0.5277 -0.4089 -0.3273
 2653TIP3    H1 7965   6.071   3.440   5.106 -0.2077 -0.0185 -2.4777
 2653TIP3    H2 7966   6.151   3.318   5.065 -1.3144 -0.0643 -4.5861
 2654TIP3   OH2 7967   0.833   4.463   0.865  0.2131 -0.1453  0.3307
 2654TIP3    H1 7968   0.751   4.479   0.911 -0.7273  1.1812 -1.7509
 2654TIP3    H2 7969   0.898   4.516   0.911 -0.4550  0.1672  0.9079
 2655TIP3   OH2 7970   5.932   5.277   2.067 -0.6503  1.0798 -0.2526
 2655TIP3    H1 7971   5.846   5.310   2.092 -0.6461  2.0909 -1.5017
 2655TIP3    H2 7972   5.932   5.280   1.971 -0.0487 -1.0557 -0.3452
 2656TIP3   OH2 7973   3.458   1.941   0.146 -0.0974  0.0221  0.6743
 2656TIP3    H1 7974   3.378   1.972   0.188 -0.4448 -0.1954  0.1701
 2656TIP3    H2 7975   3.466   1.993   0.067 -0.2863 -0.6499  0.2053
 2657TIP3   OH2 7976   6.208   3.562   4.255  0.1512  0.4627 -0.2278
 2657TIP3    H1 7977   6.244   3.503   4.322 -2.3186 -0.1068  0.6386
 2657TIP3    H2 7978   6.175   3.637   4.303 -0.3043  0.7311 -0.9448
 2658TIP3   OH2 7979   0.966   4.890   2.644  0.4582 -0.2300  0.1167
 2658TIP3    H1 7980   1.001   4.955   2.584  2.7197 -1.2008  0.3531
 2658TIP3    H2 7981   0.871   4.894   2.631  0.8346  0.4182 -2.6118
 2659TIP3   OH2 7982   0.013   0.008   0.104  0.1905  0.2785 -0.3410
 2659TIP3    H1 7983   0.061   0.063   0.041 -0.5896  0.9653 -0.3452
 2659TIP3    H2 7984  -0.038   0.071   0.155  0.4557 -0.3215  0.6661
 2660TIP3   OH2 7985   4.987   6.024   3.121  0.7950  0.0353 -0.7152
 2660TIP3    H1 7986   4.944   6.060   3.044  1.9138  0.5449 -1.1161
 2660TIP3    H2 7987   4.954   5.935   3.128  0.6318  0.0133 -1.7447
 2661TIP3   OH2 7988   0.171   2.913   2.678  0.1549 -0.1601 -0.3297
 2661TIP3    H1 7989   0.103   2.952   2.732  1.0660  1.6199 -0.4314
 2661TIP3    H2 7990   0.200   2.836   2.728 -1.2175 -0.3696  0.1690
 2662TIP3   OH2 7991   0.686   3.015   3.757 -0.7159 -0.2899 -0.2304
 2662TIP3    H1 7992   0.663   3.004   3.850  1.5286  0.3975  0.4287
 2662TIP3    H2 7993   0.775   3.051   3.758 -1.0107  0.6077 -2.6425
 2663TIP3   OH2 7994   1.767   3.332   2.944  0.3757 -0.2097 -0.0228
 2663TIP3    H1 7995   1.837   3.273   2.973 -1.3071 -2.3761 -0.2425
 2663TIP3    H2 7996   1.778   3.411   2.996  3.2905 -0.3022 -0.4022
 2664TIP3   OH2 7997   6.388   3.496   3.487  0.5845  0.0181  0.1943
 2664TIP3    H1 7998   6.467   3.522   3.534  1.4470 -0.1137 -1.1426
 2664TIP3    H2 7999   6.339   3.444   3.550  1.4306  0.3260  1.1301
 2665TIP3   OH2 8000   6.133   2.802   3.931  0.4288  0.4372 -0.4987
 2665TIP3    H1 8001   6.060   2.832   3.877  1.1345 -0.4808 -1.9896
 2665TIP3    H2 8002   6.207   2.797   3.871  2.0568  2.5068  1.2432
 2666TIP3   OH2 8003   0.150   4.113   2.363  0.2071  0.4913  0.0664
 2666TIP3    H1 8004   0.146   4.042   2.299  2.0380  1.0194 -0.6725
 2666TIP3    H2 8005   0.145   4.193   2.310  2.8773  0.9519  0.4425
 2667TIP3   OH2 8006   5.604   4.039   3.845 -0.6505 -0.1929  0.3401
 2667TIP3    H1 8007   5.621   4.078   3.931 -0.3357  0.9391 -0.2202
 2667TIP3    H2 8008   5.629   4.107   3.783  0.2064 -1.4299 -0.6843
 2668TIP3   OH2 8009   3.059   5.662   0.093  0.2210  0.2493 -0.1848
 2668TIP3    H1 8010   3.069   5.688   0.002  1.1706  1.6195  0.2729
 2668TIP3    H2 8011   3.071   5.567   0.094  0.1980  0.2322 -1.4765
 2669TIP3   OH2 8012   2.281   1.272   2.705  0.2758  0.1501  0.3275
 2669TIP3    H1 8013   2.257   1.332   2.634  0.0986  0.8893  0.9896
 2669TIP3    H2 8014   2.201   1.265   2.757  0.4560 -0.2482  0.5482
 2670TIP3   OH2 8015   0.159   5.394   2.734  0.0790 -0.4610  0.1218
 2670TIP3    H1 8016   0.097   5.388   2.661 -0.1819  2.4656  0.0363
 2670TIP3    H2 8017   0.239   5.428   2.695  0.5777 -0.7858  0.8518
 2671TIP3   OH2 8018   5.979   4.505   1.900  0.1556 -0.0846 -0.1261
 2671TIP3    H1 8019   5.918   4.556   1.953  2.2388  0.3237  1.9390
 2671TIP3    H2 8020   6.041   4.569   1.866  0.9436 -0.8294 -0.0995
 2672TIP3   OH2 8021   4.604   3.026   2.457  0.0379 -0.2079 -0.2369
 2672TIP3    H1 8022   4.577   3.011   2.366  0.3513 -0.5121 -0.2775
 2672TIP3    H2 8023   4.592   2.941   2.500  1.3365 -0.4543 -0.3543
 2673TIP3   OH2 8024   0.165   2.219   4.239  0.3897 -0.2770 -0.4168
 2673TIP3    H1 8025   0.223   2.142   4.239 -0.1436 -0.6770 -0.7918
 2673TIP3    H2 8026   0.142   2.232   4.147 -0.5817 -0.4642 -0.2018
 2674TIP3   OH2 8027   1.012   4.577   3.671  0.0979 -0.5550 -0.1337
 2674TIP3    H1 8028   1.078   4.647   3.673 -0.3342 -0.1442 -0.2854
 2674TIP3    H2 8029   0.930   4.622   3.649 -0.3982 -0.9401  0.9321
 2675TIP3   OH2 8030   3.992   5.392   2.939 -0.1261  0.3267  0.2850
 2675TIP3    H1 8031   4.083   5.362   2.925  0.0981  1.3855 -0.5574
 2675TIP3    H2 8032   3.989   5.479   2.900 -2.1781 -0.6802 -1.9692
 2676TIP3   OH2 8033   4.952   0.223   3.233  0.0493 -0.5547 -0.6654
 2676TIP3    H1 8034   4.896   0.152   3.200  0.7201 -0.3113 -2.3458
 2676TIP3    H2 8035   5.020   0.178   3.283  1.5894 -1.2708 -3.3257
 2677TIP3   OH2 8036   5.536   1.707   1.537 -0.2949  0.2956 -0.2582
 2677TIP3    H1 8037   5.445   1.705   1.507 -0.3655 -4.3996  0.0123
 2677TIP3    H2 8038   5.587   1.722   1.457 -1.1249 -0.0623 -0.8536
 2678TIP3   OH2 8039   5.680   0.456   3.654  0.1671  0.3582  0.0139
 2678TIP3    H1 8040   5.764   0.467   3.700  1.3766 -0.1269 -2.0023
 2678TIP3    H2 8041   5.652   0.545   3.633  1.4780  0.4199 -1.5462
 2679TIP3   OH2 8042   3.388   3.974   5.163 -0.3023  0.2880  0.3004
 2679TIP3    H1 8043   3.320   3.918   5.125 -0.2692  1.3953 -1.4308
 2679TIP3    H2 8044   3.357   3.991   5.252 -1.7345 -0.1319 -0.1034
 2680TIP3   OH2 8045   0.601   5.108   2.339 -0.1373 -1.0449  0.2588
 2680TIP3    H1 8046   0.629   5.161   2.264 -1.9396 -2.6521 -1.6486
 2680TIP3    H2 8047   0.658   5.032   2.337  0.6473 -0.4843  1.3074
 2681TIP3   OH2 8048   1.930   2.354   4.029  0.3852  0.2320 -0.2361
 2681TIP3    H1 8049   1.864   2.351   4.099 -0.5250  0.7413 -1.0505
 2681TIP3    H2 8050   2.003   2.302   4.062 -0.3787 -0.2403  0.7359
 2682TIP3   OH2 8051   4.628   2.072   3.611 -0.2426  0.0729 -0.2318
 2682TIP3    H1 8052   4.577   2.072   3.530  0.5005 -0.1508 -0.7015
 2682TIP3    H2 8053   4.717   2.095   3.584 -0.2109  1.0314  0.6612
 2683TIP3   OH2 8054   2.266   2.921   2.569  0.1718 -0.1942  0.1462
 2683TIP3    H1 8055   2.303   2.866   2.501  1.1587  1.7721 -0.9604
 2683TIP3    H2 8056   2.322   2.907   2.645  0.6162 -0.4633 -0.2312
 2684TIP3   OH2 8057   4.101   3.982   2.691 -0.3247 -0.3415  0.3853
 2684TIP3    H1 8058   4.082   4.076   2.680  0.9610 -0.1575 -0.3175
 2684TIP3    H2 8059   4.116   3.972   2.784 -4.2821 -0.5835  1.0939
 2685TIP3   OH2 8060   0.998   3.294   2.741 -0.3336  0.0795  0.5292
 2685TIP3    H1 8061   0.933   3.364   2.748 -2.2217 -1.6241  0.3165
 2685TIP3    H2 8062   0.996   3.270   2.648  0.4878 -0.1178  0.5595
 2686TIP3   OH2 8063   3.344   3.772   2.345  0.2630  0.0782 -0.8006
 2686TIP3    H1 8064   3.403   3.810   2.410 -0.6640  1.2393 -0.6239
 2686TIP3    H2 8065   3.355   3.678   2.354  1.1677  0.2680  0.0849
 2687TIP3   OH2 8066   5.123   2.387   4.062 -0.2789  0.1725 -0.1707
 2687TIP3    H1 8067   5.118   2.304   4.015 -0.5675  0.8672 -1.3908
 2687TIP3    H2 8068   5.194   2.435   4.018  0.9164 -0.0277  1.5033
 2688TIP3   OH2 8069   0.360   3.124   2.961 -0.2592 -0.8631 -0.5495
 2688TIP3    H1 8070   0.385   3.216   2.949  1.2177 -0.9824  1.4341
 2688TIP3    H2 8071   0.444   3.077   2.967 -1.0009 -2.2709 -1.0215
 2689TIP3   OH2 8072   2.177   3.687   5.101  0.2912  0.3192 -0.5427
 2689TIP3    H1 8073   2.197   3.649   5.015 -1.1644  0.5068 -0.9700
 2689TIP3    H2 8074   2.253   3.742   5.120  0.0015  1.4072 -2.3773
 2690TIP3   OH2 8075   3.272   3.956   2.026  0.4125 -0.2224  0.2082
 2690TIP3    H1 8076   3.234   3.896   2.090  0.0956 -0.7635 -0.4769
 2690TIP3    H2 8077   3.273   4.041   2.069 -0.4600 -0.4460  0.6659
 2691TIP3   OH2 8078   1.869   1.467   4.096 -0.0863  0.9472  0.0131
 2691TIP3    H1 8079   1.942   1.481   4.035 -0.5819  0.6710 -0.6544
 2691TIP3    H2 8080   1.871   1.373   4.114 -2.8269  0.1585 -3.3127
 2692TIP3   OH2 8081   3.538   0.079   3.077  0.0050  0.0281  0.2206
 2692TIP3    H1 8082   3.558   0.140   3.148  1.0713  0.1758 -0.1835
 2692TIP3    H2 8083   3.457   0.112   3.038  0.2655  0.8614  0.3713
 2693TIP3   OH2 8084   5.471   2.017   1.704  0.7263 -0.1140 -0.7802
 2693TIP3    H1 8085   5.562   1.993   1.720  0.3457 -1.3260 -0.3447
 2693TIP3    H2 8086   5.431   2.018   1.791  0.7316  2.1754 -0.7930
 2694TIP3   OH2 8087   3.115   5.585   0.512  0.1717  0.0041 -0.6043
 2694TIP3    H1 8088   3.129   5.640   0.589 -2.5118 -0.8732  0.5639
 2694TIP3    H2 8089   3.104   5.648   0.440 -2.8008  1.0761  0.7104
 2695TIP3   OH2 8090   0.763   2.833   2.845 -0.0265 -0.1931 -0.3093
 2695TIP3    H1 8091   0.812   2.914   2.827 -0.7704  0.0465 -1.2627
 2695TIP3    H2 8092   0.786   2.812   2.936  0.1295  1.1359 -0.0168
 2696TIP3   OH2 8093   2.681   5.118   3.811  0.2101 -0.6647  0.1500
 2696TIP3    H1 8094   2.767   5.109   3.853  0.7093 -0.8828 -0.8815
 2696TIP3    H2 8095   2.618   5.111   3.882  1.1235  2.3941  1.3303
 2697TIP3   OH2 8096   1.328   3.697   3.331  0.2796 -0.1406  0.4258
 2697TIP3    H1 8097   1.297   3.736   3.413  0.0281  0.9466 -0.1706
 2697TIP3    H2 8098   1.335   3.604   3.350  1.0208  0.1985  1.9323
 2698TIP3   OH2 8099   3.742   5.935   2.749 -0.7079  0.0805  0.3255
 2698TIP3    H1 8100   3.836   5.929   2.764 -0.6557  1.4809  0.6446
 2698TIP3    H2 8101   3.704   5.953   2.835 -1.2684 -0.4753  0.1997
 2699TIP3   OH2 8102   2.607   2.685   2.168 -0.0752 -0.7398  0.1863
 2699TIP3    H1 8103   2.661   2.657   2.242  0.3916 -3.2067 -1.0479
 2699TIP3    H2 8104   2.656   2.755   2.127  0.7380 -0.9010  0.8696
 2700TIP3   OH2 8105   3.748   2.630   2.125  0.3921 -0.0229  0.0527
 2700TIP3    H1 8106   3.779   2.714   2.091 -0.2411 -0.1980 -0.9834
 2700TIP3    H2 8107   3.700   2.591   2.052  1.4815 -1.7087  0.2107
 2701TIP3   OH2 8108   5.004   0.409   3.054  0.4818 -0.2295  0.0718
 2701TIP3    H1 8109   4.966   0.333   3.098 -1.3700  0.1720 -0.7569
 2701TIP3    H2 8110   4.954   0.417   2.972  0.7550  1.7591  0.0656
 2702TIP3   OH2 8111   3.350   5.489   3.639  0.1590 -0.2277 -0.3829
 2702TIP3    H1 8112   3.317   5.535   3.716 -0.8833 -1.0926 -0.3066
 2702TIP3    H2 8113   3.410   5.423   3.673  0.2301 -0.1553 -0.3670
 2703TIP3   OH2 8114   3.473   4.585   1.093 -0.2051  0.4764  0.2070
 2703TIP3    H1 8115   3.525   4.664   1.081 -1.2399  1.1197 -0.1418
 2703TIP3    H2 8116   3.506   4.523   1.028  1.0203  0.4025  0.8950
 2704TIP3   OH2 8117   0.200   4.602   1.516  0.0996  0.6754  0.3368
 2704TIP3    H1 8118   0.134   4.538   1.543  0.1500  0.5218  0.0929
 2704TIP3    H2 8119   0.150   4.682   1.499 -0.1292  0.3195 -0.6799
 2705TIP3   OH2 8120   4.325   5.908   4.504 -0.1936 -0.0970 -0.0931
 2705TIP3    H1 8121   4.370   5.824   4.492  0.1773 -0.0328  0.8065
 2705TIP3    H2 8122   4.257   5.890   4.569 -1.1512 -0.0689 -1.0658
 2706TIP3   OH2 8123   2.231   3.179   2.536  0.2227  0.6063 -0.0167
 2706TIP3    H1 8124   2.287   3.225   2.473  1.2807  0.9675  1.1661
 2706TIP3    H2 8125   2.258   3.087   2.530  1.2236  0.8426  0.8382
 2707TIP3   OH2 8126   2.836   5.585   1.994  0.5493  0.4242  0.8282
 2707TIP3    H1 8127   2.924   5.577   2.031  0.7009  1.3702  0.6785
 2707TIP3    H2 8128   2.844   5.651   1.925  0.3356 -1.5588 -1.1550
 2708TIP3   OH2 8129   1.770   2.872   3.687  0.0499  0.0097 -0.3220
 2708TIP3    H1 8130   1.691   2.917   3.656  0.2654  0.7345  0.1663
 2708TIP3    H2 8131   1.833   2.882   3.615 -0.2018 -0.3154 -0.5911
 2709TIP3   OH2 8132   1.421   3.885   1.063 -0.1253  0.1569 -0.2141
 2709TIP3    H1 8133   1.386   3.797   1.045 -1.3747  0.1729  1.9156
 2709TIP3    H2 8134   1.373   3.943   1.003  0.0370 -0.4987 -0.9851
 2710TIP3   OH2 8135   2.617   5.448   1.865 -0.5762 -0.1627  0.0209
 2710TIP3    H1 8136   2.686   5.416   1.808 -2.2425 -0.6470 -1.7717
 2710TIP3    H2 8137   2.657   5.522   1.912  2.0706 -2.3200  1.3149
 2711TIP3   OH2 8138   3.093   2.133   2.761 -0.8723 -0.6207  0.5575
 2711TIP3    H1 8139   3.153   2.110   2.691  0.6576  1.4267  1.1365
 2711TIP3    H2 8140   3.006   2.119   2.724 -0.0719 -2.2436 -0.7820
 2712TIP3   OH2 8141   6.298   2.031   3.328 -0.9408 -0.2814  0.2913
 2712TIP3    H1 8142   6.297   2.005   3.420 -0.0085 -0.4152  0.2653
 2712TIP3    H2 8143   6.386   2.065   3.314 -1.0153 -0.4574 -0.6035
 2713TIP3   OH2 8144   5.689   0.483   2.583  0.0853  0.2143 -0.1572
 2713TIP3    H1 8145   5.674   0.536   2.662 -0.6849  1.5720 -1.1881
 2713TIP3    H2 8146   5.732   0.404   2.615  0.0718  0.8884  1.5889
 2714TIP3   OH2 8147   3.586   5.208   3.450 -0.5451  0.0729 -0.0002
 2714TIP3    H1 8148   3.577   5.217   3.355  0.8488  1.0103 -0.0458
 2714TIP3    H2 8149   3.497   5.186   3.480 -1.2295  0.8531 -1.3906
 2715TIP3   OH2 8150   1.248   3.154   2.981 -0.5715 -0.1267  0.0231
 2715TIP3    H1 8151   1.339   3.176   2.960 -0.6913 -0.7495 -1.1716
 2715TIP3    H2 8152   1.210   3.237   3.011  0.0040  0.4444 -0.8185
 2716TIP3   OH2 8153   3.657   2.350   2.695  0.2491 -0.0268  0.2404
 2716TIP3    H1 8154   3.689   2.412   2.761 -0.9289  1.0781 -0.2054
 2716TIP3    H2 8155   3.609   2.284   2.744  1.0450 -0.2947  0.6677
 2717TIP3   OH2 8156   6.183   4.685   1.824  0.0970  0.0303 -0.2839
 2717TIP3    H1 8157   6.169   4.726   1.909 -2.7273  0.4939 -0.9035
 2717TIP3    H2 8158   6.242   4.745   1.778 -0.0320  0.8408  0.5971
 2718TIP3   OH2 8159   1.908   3.481   2.167  0.0301  0.0602  0.3099
 2718TIP3    H1 8160   1.913   3.421   2.093 -0.1010  0.9407 -0.4137
 2718TIP3    H2 8161   1.973   3.448   2.229  1.3683  0.3222 -0.9336
 2719TIP3   OH2 8162   3.269   4.944   2.201  0.6203 -0.1003 -0.0917
 2719TIP3    H1 8163   3.202   4.902   2.148  0.5870 -2.4288  1.7015
 2719TIP3    H2 8164   3.251   5.038   2.195 -1.3449 -0.5598 -1.5019
 2720TIP3   OH2 8165   0.393   3.038   2.521 -0.0369 -0.0259 -0.0902
 2720TIP3    H1 8166   0.444   2.991   2.587  0.0992  0.5973  0.2514
 2720TIP3    H2 8167   0.303   3.013   2.539  0.1228 -0.9370 -0.5387
 2721TIP3   OH2 8168   2.955   5.105   3.527 -0.1791 -0.6817  0.4795
 2721TIP3    H1 8169   3.007   5.042   3.578 -0.4456 -0.5858  0.8672
 2721TIP3    H2 8170   2.871   5.061   3.513  0.3336 -1.2223 -0.9611
 2722TIP3   OH2 8171   0.381   2.919   3.936  0.6331 -0.4480  0.4570
 2722TIP3    H1 8172   0.370   2.887   3.846  0.5462 -1.5645  0.8597
 2722TIP3    H2 8173   0.463   2.880   3.965  1.4410  1.1212  0.3596
 2723TIP3   OH2 8174   3.639   3.906   2.011 -0.1261 -0.5011 -0.9053
 2723TIP3    H1 8175   3.625   3.831   1.953  1.1081  0.1873 -2.0995
 2723TIP3    H2 8176   3.726   3.938   1.989 -0.9883  1.8386 -1.0508
 2724TIP3   OH2 8177   2.366   5.495   1.711 -0.2051  0.5955 -0.1883
 2724TIP3    H1 8178   2.338   5.545   1.787  1.9684  2.2035 -0.4003
 2724TIP3    H2 8179   2.458   5.476   1.727  0.7201  2.3049 -3.0954
 2725TIP3   OH2 8180   5.695   5.740   0.673  0.2221  0.1799 -0.2038
 2725TIP3    H1 8181   5.760   5.705   0.734 -0.0777 -0.9623 -0.5222
 2725TIP3    H2 8182   5.685   5.672   0.607 -0.9282  0.5604 -0.4356
 2726TIP3   OH2 8183   6.244   4.220   2.455  0.3433  0.6405  0.5809
 2726TIP3    H1 8184   6.218   4.148   2.397 -1.3575  1.2277  0.5804
 2726TIP3    H2 8185   6.325   4.190   2.496  1.0763 -0.1753 -1.3969
 2727TIP3   OH2 8186   2.116   2.279   2.049 -0.4460 -0.9107  0.3642
 2727TIP3    H1 8187   2.096   2.334   2.125 -1.7573 -0.6126 -0.1770
 2727TIP3    H2 8188   2.147   2.197   2.086 -0.1826 -0.4318  1.2135
 2728TIP3   OH2 8189   5.474   1.081   2.604  0.1667  0.4223 -0.2135
 2728TIP3    H1 8190   5.431   1.158   2.641 -0.4552 -0.4395  0.8918
 2728TIP3    H2 8191   5.563   1.111   2.583  0.0244  1.3658  0.4700
 2729TIP3   OH2 8192   2.571   3.669   1.806 -0.2308 -0.1194  0.2113
 2729TIP3    H1 8193   2.495   3.709   1.849  0.4962  0.8555  0.6253
 2729TIP3    H2 8194   2.534   3.618   1.734 -1.4905 -2.1543  2.2703
 2730TIP3   OH2 8195   0.311   4.392   3.934 -0.1575  0.4102 -0.5088
 2730TIP3    H1 8196   0.271   4.395   3.847 -0.3883 -1.2065 -0.4594
 2730TIP3    H2 8197   0.404   4.406   3.918 -0.1911  0.0564 -1.0195
 2731TIP3   OH2 8198   2.009   2.077   0.999  0.4795 -0.4599  0.5899
 2731TIP3    H1 8199   1.939   2.028   0.955 -0.4042  1.9179 -0.7330
 2731TIP3    H2 8200   2.089   2.047   0.956  0.0849 -1.7714  0.7533
 2732TIP3   OH2 8201   3.534   4.656   2.355 -0.1109  0.0969 -0.7290
 2732TIP3    H1 8202   3.610   4.605   2.326 -0.7228 -1.5178  0.3907
 2732TIP3    H2 8203   3.472   4.590   2.386 -1.1743  1.5093  0.2013
 2733TIP3   OH2 8204   3.051   4.824   1.758  0.5212 -0.4152 -0.2701
 2733TIP3    H1 8205   3.061   4.759   1.689  0.9698 -2.4158  1.6253
 2733TIP3    H2 8206   3.137   4.866   1.764  0.4785 -0.2234 -0.9048
 2734TIP3   OH2 8207   5.278   4.299   5.303  0.6741  0.5879  0.4060
 2734TIP3    H1 8208   5.328   4.243   5.244 -1.8653 -0.0485 -1.1991
 2734TIP3    H2 8209   5.279   4.385   5.262  1.7299  0.9382  1.1548
 2735TIP3   OH2 8210   1.444   3.349   2.077 -0.0533 -0.0108  0.1072
 2735TIP3    H1 8211   1.521   3.322   2.027 -2.0342 -0.1722 -2.9996
 2735TIP3    H2 8212   1.430   3.277   2.139  0.3076 -1.6625 -1.6461
 2736TIP3   OH2 8213   1.680   3.755   5.147  0.3032 -0.2154  0.2183
 2736TIP3    H1 8214   1.736   3.719   5.078  1.0882 -0.6626  1.0674
 2736TIP3    H2 8215   1.733   3.825   5.187 -0.5797  0.7773 -0.3604
 2737TIP3   OH2 8216   2.851   4.628   2.433  0.3439  0.5749 -0.0326
 2737TIP3    H1 8217   2.820   4.598   2.518 -0.6935  2.6018  0.3413
 2737TIP3    H2 8218   2.790   4.699   2.409  1.7844  1.3278 -1.5577
 2738TIP3   OH2 8219   3.219   4.457   4.078  0.1650 -0.4121  0.6703
 2738TIP3    H1 8220   3.149   4.413   4.125  0.0468 -0.6958  0.2275
 2738TIP3    H2 8221   3.300   4.418   4.113  0.1215  0.1840  1.4495
 2739TIP3   OH2 8222   2.000   3.157   0.978 -0.3768 -0.2855  0.1773
 2739TIP3    H1 8223   2.090   3.155   0.944 -1.0043 -1.2283 -1.4518
 2739TIP3    H2 8224   1.945   3.155   0.901 -1.8247  0.6930  1.1663
 2740TIP3   OH2 8225   2.404   3.432   4.347  0.5105  0.1120  0.5498
 2740TIP3    H1 8226   2.318   3.439   4.388  0.1806  0.9686 -0.2644
 2740TIP3    H2 8227   2.404   3.346   4.304 -0.2917  0.4955 -0.2279
 2741TIP3   OH2 8228   2.454   3.274   2.949  0.4753  0.1294  0.1229
 2741TIP3    H1 8229   2.516   3.267   3.022 -0.1317 -0.4064  0.5883
 2741TIP3    H2 8230   2.369   3.287   2.990  0.0754 -0.5466 -0.4800
 2742TIP3   OH2 8231   5.214   4.543   2.938 -0.0396 -0.5764 -0.3115
 2742TIP3    H1 8232   5.295   4.510   2.901 -0.1869 -0.6749 -0.5432
 2742TIP3    H2 8233   5.226   4.537   3.033  0.2910 -0.4270 -0.3450
 2743TIP3   OH2 8234   1.319   4.282   2.937 -0.3612 -0.2491  1.1231
 2743TIP3    H1 8235   1.285   4.355   2.989  1.6639  0.9585  0.7974
 2743TIP3    H2 8236   1.274   4.290   2.853  1.2874  1.8230  0.4128
 2744TIP3   OH2 8237   3.665   5.522   3.921  0.1550 -0.9062  0.4373
 2744TIP3    H1 8238   3.613   5.446   3.893  1.0123  0.1036 -4.2595
 2744TIP3    H2 8239   3.755   5.500   3.897  0.3498  1.7690 -1.5016
 2745TIP3   OH2 8240   0.796   3.827   4.075 -0.1165  0.0388 -0.7386
 2745TIP3    H1 8241   0.848   3.770   4.132 -1.1266  0.2042  0.3757
 2745TIP3    H2 8242   0.730   3.865   4.134 -0.5454  0.9919 -1.8277
 2746TIP3   OH2 8243   1.032   3.323   5.042 -0.8187 -0.2618  0.5135
 2746TIP3    H1 8244   1.004   3.265   5.113  0.8221 -1.0248  0.5795
 2746TIP3    H2 8245   1.052   3.264   4.970  3.1992 -0.0981  1.3419
 2747TIP3   OH2 8246   1.415   2.403   1.739 -0.0019  0.0429 -0.3898
 2747TIP3    H1 8247   1.430   2.351   1.660  1.5185 -1.2531  0.7191
 2747TIP3    H2 8248   1.376   2.341   1.801 -0.8012  0.9455  0.0061
 2748TIP3   OH2 8249   2.587   2.264   3.488  0.1621  0.0388 -0.3904
 2748TIP3    H1 8250   2.678   2.272   3.517  0.3177 -0.9260 -0.5954
 2748TIP3    H2 8251   2.540   2.229   3.565  0.0315  0.1997 -0.3966
 2749TIP3   OH2 8252   3.145   5.886   2.109  0.4162 -0.2124 -0.6937
 2749TIP3    H1 8253   3.068   5.942   2.110  1.9761  1.9824  0.0603
 2749TIP3    H2 8254   3.170   5.881   2.017  0.5034  0.6776 -0.7219
 2750TIP3   OH2 8255   3.952   4.093   4.682 -0.2374  0.3515 -0.2404
 2750TIP3    H1 8256   3.875   4.102   4.627  0.0075  0.4264 -0.5744
 2750TIP3    H2 8257   3.927   4.030   4.749 -0.2523 -0.3868 -0.9406
 2751TIP3   OH2 8258   3.469   3.452   3.700 -0.3113  0.4925  0.0446
 2751TIP3    H1 8259   3.434   3.375   3.744 -1.3135  1.4032  0.8689
 2751TIP3    H2 8260   3.556   3.426   3.671 -0.7208 -1.0073  0.1461
 2752TIP3   OH2 8261   3.493   5.228   0.813  0.1176 -0.2368  0.5595
 2752TIP3    H1 8262   3.570   5.227   0.756 -0.1050 -0.8447  0.2592
 2752TIP3    H2 8263   3.504   5.152   0.870  2.0882  2.3147  3.7347
 2753TIP3   OH2 8264   1.625   2.951   3.435  0.2112 -0.3735 -0.1678
 2753TIP3    H1 8265   1.535   2.953   3.466  0.7144  0.7082  1.2792
 2753TIP3    H2 8266   1.663   3.033   3.465  1.7077 -0.8492 -0.6912
 2754TIP3   OH2 8267   1.166   2.980   3.586  0.5879  0.1706  0.2022
 2754TIP3    H1 8268   1.196   3.029   3.662 -2.3958  1.5661  0.5042
 2754TIP3    H2 8269   1.183   3.038   3.512 -0.9750  0.8087  0.3339
 2755TIP3   OH2 8270   3.306   1.925   1.379 -0.5118 -0.2215 -0.6508
 2755TIP3    H1 8271   3.363   2.001   1.367 -1.4321  0.4790 -0.5770
 2755TIP3    H2 8272   3.309   1.880   1.294  0.2409 -0.2611 -0.6130
 2756TIP3   OH2 8273   3.745   2.657   3.922  0.2927 -0.6436  0.0125
 2756TIP3    H1 8274   3.696   2.717   3.866  1.6245 -1.6257 -2.3059
 2756TIP3    H2 8275   3.746   2.574   3.873  1.6429 -1.4898  1.4041
 2757TIP3   OH2 8276   2.834   3.936   2.388 -0.1047 -0.0168 -0.4664
 2757TIP3    H1 8277   2.904   3.986   2.429 -0.3014 -0.1344  0.0175
 2757TIP3    H2 8278   2.844   3.848   2.423  0.5160 -0.4285 -1.6573
 2758TIP3   OH2 8279   4.701   4.986   1.641  0.4416 -0.4394  0.0307
 2758TIP3    H1 8280   4.737   5.032   1.716  0.3475 -1.2510  0.5720
 2758TIP3    H2 8281   4.608   5.009   1.641  0.5591  0.0356 -0.1861
 2759TIP3   OH2 8282   6.242   0.864   2.665 -0.0764 -0.6575  0.3626
 2759TIP3    H1 8283   6.306   0.878   2.595 -1.4316  1.4650 -0.5006
 2759TIP3    H2 8284   6.281   0.905   2.742 -0.8323  1.5365 -0.4087
 2760TIP3   OH2 8285   5.075   3.478   3.609  0.3503  0.4005 -0.1918
 2760TIP3    H1 8286   5.165   3.502   3.632  0.1375 -0.2756  1.4316
 2760TIP3    H2 8287   5.021   3.544   3.653  0.0453  0.7210 -1.0465
 2761TIP3   OH2 8288   2.340   4.036   1.022 -0.2008  0.1241  0.1651
 2761TIP3    H1 8289   2.386   3.954   1.040 -0.6690 -0.3466 -0.7688
 2761TIP3    H2 8290   2.329   4.077   1.108 -1.2976 -1.4902  0.8043
 2762TIP3   OH2 8291   1.200   3.293   4.012  0.0398  0.5648  0.4707
 2762TIP3    H1 8292   1.141   3.357   4.052 -1.4627 -1.6486  1.9325
 2762TIP3    H2 8293   1.284   3.309   4.055 -0.4257  1.2759  1.1408
 2763TIP3   OH2 8294   2.665   4.300   3.065 -0.7469 -0.1723 -0.3740
 2763TIP3    H1 8295   2.700   4.212   3.079 -1.1183  0.0451  2.1390
 2763TIP3    H2 8296   2.590   4.305   3.124 -0.5806  1.9186 -0.3156
 2764TIP3   OH2 8297   0.563   4.106   0.051 -0.8672  0.6906 -0.3528
 2764TIP3    H1 8298   0.635   4.144   0.001 -1.6539  1.5854 -0.8218
 2764TIP3    H2 8299   0.600   4.090   0.138 -0.1874  1.4627 -0.4914
 2765TIP3   OH2 8300   3.552   4.106   2.818  0.9087 -0.3377  0.3828
 2765TIP3    H1 8301   3.479   4.083   2.875 -0.9574  1.2859 -1.2672
 2765TIP3    H2 8302   3.617   4.144   2.876 -0.6417  0.5889  1.5521
 2766TIP3   OH2 8303   2.417   5.619   2.384 -0.2190  0.0846  0.3784
 2766TIP3    H1 8304   2.473   5.696   2.373  0.2857  0.0484  2.3841
 2766TIP3    H2 8305   2.441   5.561   2.312  1.2756  0.7046  0.3495
 2767TIP3   OH2 8306   5.365   0.444   1.446  0.0443 -0.0240  0.5703
 2767TIP3    H1 8307   5.324   0.365   1.481  0.8895 -0.3973  0.7341
 2767TIP3    H2 8308   5.415   0.479   1.521 -2.3635  2.0592  1.2462
 2768TIP3   OH2 8309   2.871   3.385   2.666 -0.2822 -0.5623 -0.2558
 2768TIP3    H1 8310   2.957   3.410   2.633 -0.8364  2.5438  0.5122
 2768TIP3    H2 8311   2.880   3.385   2.761 -0.9490 -0.9264 -0.1859
 2769TIP3   OH2 8312   3.335   4.603   4.367  0.0533  0.1047  0.2232
 2769TIP3    H1 8313   3.301   4.519   4.399 -0.9069 -0.4729 -2.1941
 2769TIP3    H2 8314   3.258   4.659   4.363  0.5283  0.8159  0.8819
 2770TIP3   OH2 8315   2.026   4.648   2.089  0.6595 -0.2386 -0.2794
 2770TIP3    H1 8316   2.007   4.564   2.047  0.7022  0.2688 -1.3389
 2770TIP3    H2 8317   2.098   4.685   2.037  0.1869  0.7580 -0.2278
 2771TIP3   OH2 8318   6.171   3.941   2.265 -0.1635 -0.1435 -0.1101
 2771TIP3    H1 8319   6.200   4.019   2.218 -1.5840  0.0819 -0.6330
 2771TIP3    H2 8320   6.147   3.879   2.195  0.3204 -0.7968  0.3019
 2772TIP3   OH2 8321   3.994   4.665   0.407 -0.2099 -0.4064 -0.4403
 2772TIP3    H1 8322   4.039   4.739   0.448  0.2360 -0.8476 -0.1340
 2772TIP3    H2 8323   3.908   4.700   0.382  0.0299  0.2389 -0.3718
 2773TIP3   OH2 8324   0.647   4.548   1.548 -0.3314 -0.4653  0.6116
 2773TIP3    H1 8325   0.726   4.510   1.584  0.2536  2.2828  2.4058
 2773TIP3    H2 8326   0.614   4.605   1.617 -1.8449  1.2443 -1.4425
 2774TIP3   OH2 8327   1.601   4.950   3.244 -0.4762  0.3882  0.1895
 2774TIP3    H1 8328   1.593   4.956   3.149 -2.4179 -0.7845  0.2391
 2774TIP3    H2 8329   1.688   4.914   3.259 -0.8632 -1.1906 -1.2366
 2775TIP3   OH2 8330   0.370   3.178   1.674  0.5294 -0.0473 -0.3819
 2775TIP3    H1 8331   0.447   3.234   1.673 -0.7218  1.7163 -1.1397
 2775TIP3    H2 8332   0.378   3.125   1.594 -0.2001  1.8076 -1.7248
 2776TIP3   OH2 8333   3.543   3.336   0.600  0.3676 -0.1616 -0.0272
 2776TIP3    H1 8334   3.498   3.252   0.599  1.1238 -0.5884 -2.4411
 2776TIP3    H2 8335   3.589   3.338   0.684  0.9667 -2.5289 -0.2674
 2777TIP3   OH2 8336   1.530   1.963   4.193 -0.6064 -0.3591 -0.1153
 2777TIP3    H1 8337   1.435   1.966   4.199 -0.5655  0.7682  0.0625
 2777TIP3    H2 8338   1.558   2.053   4.206  0.4388 -0.5350 -1.0600
 2778TIP3   OH2 8339   3.547   4.438   0.004  0.2627 -0.1191 -0.6979
 2778TIP3    H1 8340   3.476   4.390   0.047  1.1669 -1.5914 -0.8026
 2778TIP3    H2 8341   3.551   4.522   0.050 -0.3993 -0.7131  0.4723
 2779TIP3   OH2 8342   1.012   4.187   3.150  0.0494 -0.5838  0.1777
 2779TIP3    H1 8343   0.986   4.269   3.193 -0.6247 -1.0722  0.7159
 2779TIP3    H2 8344   0.968   4.189   3.065  1.9166  0.6979 -0.7950
 2780TIP3   OH2 8345   5.391   5.115   2.284  1.2418 -0.0111 -0.0885
 2780TIP3    H1 8346   5.408   5.199   2.326 -0.7604  0.8748 -0.9888
 2780TIP3    H2 8347   5.391   5.052   2.357 -1.6904  1.4315  1.2587
 2781TIP3   OH2 8348   3.282   4.763   2.678  0.2094 -0.2068 -0.2068
 2781TIP3    H1 8349   3.192   4.772   2.649 -0.0455 -0.8684  0.3643
 2781TIP3    H2 8350   3.335   4.784   2.601 -0.4290 -0.1089 -0.6170
 2782TIP3   OH2 8351   6.348   4.979   4.062  0.3414 -0.4125 -0.4152
 2782TIP3    H1 8352   6.260   4.970   4.099  0.6164 -1.2031  0.0394
 2782TIP3    H2 8353   6.332   5.007   3.971 -0.3505  0.3472 -0.0747
 2783TIP3   OH2 8354   4.366   1.156   2.117  0.1610  0.5661 -0.2373
 2783TIP3    H1 8355   4.352   1.064   2.141 -0.3584  0.1460 -2.1094
 2783TIP3    H2 8356   4.392   1.198   2.199 -0.4439 -1.0722  0.8214
 2784TIP3   OH2 8357   3.128   2.994   3.612 -0.0454 -0.2585  0.5533
 2784TIP3    H1 8358   3.082   2.953   3.539 -0.6641 -0.8756  1.2911
 2784TIP3    H2 8359   3.214   3.015   3.577 -0.5390 -0.0111 -0.5342
 2785TIP3   OH2 8360   3.729   2.932   1.852 -0.0861  0.3185 -0.5507
 2785TIP3    H1 8361   3.640   2.952   1.822 -0.3096 -1.3568 -1.0583
 2785TIP3    H2 8362   3.782   2.936   1.773  0.1702  0.6585 -0.3603
 2786TIP3   OH2 8363   2.932   4.291   1.862 -0.1093 -0.3980  0.4645
 2786TIP3    H1 8364   3.010   4.288   1.806 -0.5505  2.3961 -0.3742
 2786TIP3    H2 8365   2.967   4.297   1.951  0.6026 -1.3542  0.2628
 2787TIP3   OH2 8366   1.455   2.593   3.847  0.1377 -0.3665  0.0390
 2787TIP3    H1 8367   1.548   2.610   3.831 -0.0302  0.6384  0.1584
 2787TIP3    H2 8368   1.442   2.504   3.813  0.7724  0.0827 -1.4125
 2788TIP3   OH2 8369   2.524   5.974   3.387  0.1815  0.5014  0.6754
 2788TIP3    H1 8370   2.469   6.037   3.434  1.8432  2.3416  0.1968
 2788TIP3    H2 8371   2.607   5.974   3.434  0.7791 -0.0584 -0.3466
 2789TIP3   OH2 8372   1.943   5.164   2.591 -0.4868 -0.2853 -0.3906
 2789TIP3    H1 8373   1.925   5.130   2.503 -1.0033 -0.7620 -0.1034
 2789TIP3    H2 8374   2.016   5.112   2.623  0.1378  0.3301 -0.7881
 2790TIP3   OH2 8375   2.887   4.510   2.712 -0.2897  0.9597  0.1227
 2790TIP3    H1 8376   2.812   4.472   2.759  0.2957  0.3679  0.5766
 2790TIP3    H2 8377   2.947   4.538   2.780  0.4763  0.2822 -0.2594
 2791TIP3   OH2 8378   6.449   5.364   3.975 -0.0333  0.2927 -0.2656
 2791TIP3    H1 8379   6.360   5.345   3.944 -0.2933 -0.2213  0.7570
 2791TIP3    H2 8380   6.441   5.361   4.071  2.0967 -4.2907 -0.1575
 2792TIP3   OH2 8381   2.321   4.380   2.794  0.4132 -0.7016  0.0930
 2792TIP3    H1 8382   2.277   4.463   2.808  1.1031 -0.3300  0.0583
 2792TIP3    H2 8383   2.282   4.346   2.712  1.8242  0.7061 -1.1770
 2793TIP3   OH2 8384   3.667   4.148   2.175 -0.4480 -0.0911  0.2070
 2793TIP3    H1 8385   3.650   4.060   2.141 -2.0953 -0.0893  0.9835
 2793TIP3    H2 8386   3.745   4.138   2.229  0.5758 -0.6426 -1.3157
 2794TIP3   OH2 8387   1.839   4.827   2.208 -0.5294  0.0419 -0.0998
 2794TIP3    H1 8388   1.913   4.778   2.171 -0.4624 -0.8711  1.2041
 2794TIP3    H2 8389   1.786   4.761   2.252 -1.4105  0.8931  0.1271
 2795TIP3   OH2 8390   1.431   3.577   1.389 -0.2612 -0.2635 -0.2432
 2795TIP3    H1 8391   1.468   3.524   1.459 -0.6011 -0.5367 -0.2688
 2795TIP3    H2 8392   1.416   3.516   1.317 -0.2066 -0.0431 -0.4449
 2796TIP3   OH2 8393   1.831   3.513   3.919 -0.4545  0.4431 -0.0888
 2796TIP3    H1 8394   1.777   3.477   3.848 -0.8141  0.9286 -0.0657
 2796TIP3    H2 8395   1.768   3.534   3.988 -0.1029 -0.0204  0.3741
 2797TIP3   OH2 8396   1.505   2.326   2.175 -0.2174 -0.6871 -0.5414
 2797TIP3    H1 8397   1.517   2.421   2.175 -1.0014 -0.5783 -0.0897
 2797TIP3    H2 8398   1.552   2.295   2.098 -0.3948  0.1319 -0.9839
 2798TIP3   OH2 8399   0.915   5.081   2.158  0.5183 -0.3628 -0.4610
 2798TIP3    H1 8400   1.010   5.082   2.165  0.5503  0.7854 -0.8643
 2798TIP3    H2 8401   0.897   5.022   2.085  0.9023 -0.8870 -0.1315
 2799TIP3   OH2 8402   2.515   6.125   2.543 -0.3808 -0.2228  0.7974
 2799TIP3    H1 8403   2.552   6.038   2.534  1.2112  0.5498 -0.5452
 2799TIP3    H2 8404   2.469   6.140   2.461  0.3506  0.6276  0.5285
 2800TIP3   OH2 8405   3.784   0.042   3.557 -0.1810 -0.0705  0.6461
 2800TIP3    H1 8406   3.845   0.116   3.557  0.5749 -0.6738 -0.2560
 2800TIP3    H2 8407   3.699   0.080   3.536  0.5374  0.2918 -1.6916
 2801TIP3   OH2 8408   2.928   5.322   2.047 -0.6632 -0.1912 -0.0129
 2801TIP3    H1 8409   2.861   5.387   2.025 -0.4333  0.1377  0.2544
 2801TIP3    H2 8410   2.929   5.321   2.143 -2.0648 -2.0210  0.0201
 2802TIP3   OH2 8411   2.994   5.787   2.955 -0.2636  0.8864  0.3436
 2802TIP3    H1 8412   3.042   5.737   2.889 -3.0454  1.2582 -2.0763
 2802TIP3    H2 8413   3.047   5.866   2.968  4.2548 -2.5108  4.3095
 2803TIP3   OH2 8414   0.890   3.548   1.326 -0.2009 -0.0791 -0.0925
 2803TIP3    H1 8415   0.891   3.634   1.366 -0.0629  1.5508 -3.4310
 2803TIP3    H2 8416   0.958   3.499   1.372  0.7985  2.0881  0.7919
 2804TIP3   OH2 8417   1.383   3.352   4.480  0.0264 -0.0910  0.1753
 2804TIP3    H1 8418   1.412   3.262   4.465  0.2787 -0.0445  0.3884
 2804TIP3    H2 8419   1.440   3.384   4.550 -0.9948 -0.2218  1.0652
 2805TIP3   OH2 8420   0.463   5.441   1.064 -0.0689  0.4883  0.5923
 2805TIP3    H1 8421   0.443   5.384   1.138  0.7864  0.1735  0.5803
 2805TIP3    H2 8422   0.393   5.506   1.065 -0.6146 -0.1013  1.0729
 2806TIP3   OH2 8423   1.837   4.683   1.795 -0.0204  0.7297  0.0043
 2806TIP3    H1 8424   1.867   4.747   1.861 -0.2433 -1.4533  2.3191
 2806TIP3    H2 8425   1.913   4.627   1.781  0.1884  1.5138 -2.0602
 2807TIP3   OH2 8426   2.081   4.584   2.361 -0.3262  0.2829  0.0794
 2807TIP3    H1 8427   2.155   4.523   2.359 -1.2714 -0.8993  0.3752
 2807TIP3    H2 8428   2.067   4.609   2.269 -1.5772 -2.0084 -0.3947
 2808TIP3   OH2 8429   5.425   0.498   2.208  0.4313  0.2539  0.1714
 2808TIP3    H1 8430   5.362   0.547   2.261  0.8553  0.4056  0.5477
 2808TIP3    H2 8431   5.505   0.551   2.211  0.7698 -0.2484  0.2429
 2809TIP3   OH2 8432   1.864   2.437   2.372  0.0754 -0.0994  0.4600
 2809TIP3    H1 8433   1.835   2.522   2.337 -1.7150 -0.6690  0.5118
 2809TIP3    H2 8434   1.860   2.448   2.467  0.3174 -0.0933  0.4702
 2810TIP3   OH2 8435   1.277   5.999   2.764 -0.2132 -0.0972 -0.3377
 2810TIP3    H1 8436   1.355   5.991   2.709 -1.0579  3.1192 -2.1608
 2810TIP3    H2 8437   1.312   6.006   2.853  1.5131  0.0537 -0.9967
 2811TIP3   OH2 8438   2.331   4.762   2.376  0.0101 -0.0589  0.2870
 2811TIP3    H1 8439   2.240   4.736   2.388  0.4705 -1.4531  0.8454
 2811TIP3    H2 8440   2.339   4.778   2.282 -0.9958  0.8555  0.3432
 2812TIP3   OH2 8441   6.235   3.628   2.652  0.1794  0.3076  0.6343
 2812TIP3    H1 8442   6.211   3.720   2.653 -0.3354  0.1830  0.0002
 2812TIP3    H2 8443   6.168   3.585   2.705  0.3657  0.2796  0.8506
 2813TIP3   OH2 8444   0.920   4.265   5.034 -0.2988 -0.0051 -1.3186
 2813TIP3    H1 8445   0.928   4.171   5.052 -2.4681  0.0464  0.0407
 2813TIP3    H2 8446   0.998   4.286   4.982  0.6129 -2.3847 -0.9683
 2814TIP3   OH2 8447   2.536   4.415   0.908 -0.2438  0.0541 -0.6771
 2814TIP3    H1 8448   2.548   4.463   0.826 -0.1412  0.8545 -0.1989
 2814TIP3    H2 8449   2.442   4.401   0.914 -0.1936 -0.5256 -1.2234
 2815TIP3   OH2 8450   1.626   2.806   3.217  0.0417  0.1701 -0.1432
 2815TIP3    H1 8451   1.667   2.721   3.236  0.7356  0.2339 -1.2686
 2815TIP3    H2 8452   1.634   2.856   3.298 -0.9758 -1.0709  0.7513
 2816TIP3   OH2 8453   1.767   5.010   2.763  0.0236  0.1460  0.0233
 2816TIP3    H1 8454   1.816   5.064   2.701  1.8075 -1.2954  0.1305
 2816TIP3    H2 8455   1.813   5.021   2.846  0.4287 -1.5243  0.0366
 2817TIP3   OH2 8456   4.674   3.364   4.396 -0.3784 -0.6840  0.2128
 2817TIP3    H1 8457   4.686   3.441   4.342 -1.3671 -1.5128 -1.2284
 2817TIP3    H2 8458   4.617   3.393   4.467 -0.8566 -0.1130 -0.3991
 2818TIP3   OH2 8459   2.761   4.688   3.686 -0.4830  0.5696 -0.0528
 2818TIP3    H1 8460   2.706   4.635   3.628 -0.4179 -0.8163  1.1475
 2818TIP3    H2 8461   2.709   4.698   3.766 -0.0949  1.5166  0.0895
 2819TIP3   OH2 8462   1.437   5.310   1.941  0.4377  0.0118  0.1424
 2819TIP3    H1 8463   1.526   5.339   1.919  0.2074  1.1101  0.6539
 2819TIP3    H2 8464   1.440   5.215   1.929  1.2870  0.1874 -1.2398
 2820TIP3   OH2 8465   3.074   4.060   2.471  1.0862 -0.2653 -0.3935
 2820TIP3    H1 8466   3.113   4.022   2.392  1.6706 -2.0874  0.7516
 2820TIP3    H2 8467   3.128   4.028   2.543  0.1999  0.8960  0.8170
 2821TIP3   OH2 8468   2.015   2.545   3.311  0.1089 -0.4664 -0.1021
 2821TIP3    H1 8469   2.062   2.539   3.394  0.2465 -2.2508 -0.2964
 2821TIP3    H2 8470   2.048   2.626   3.272 -0.8300  1.0098  2.0847
 2822TIP3   OH2 8471   1.293   3.693   4.369  0.1951  0.0112 -0.3298
 2822TIP3    H1 8472   1.263   3.602   4.367 -0.5892  0.2811 -1.6286
 2822TIP3    H2 8473   1.241   3.737   4.301  1.7620  1.0498 -0.8884
 2823TIP3   OH2 8474   1.930   5.044   3.023  0.2933  0.7067  0.5678
 2823TIP3    H1 8475   2.011   5.093   3.018  0.8309 -0.2735 -0.4080
 2823TIP3    H2 8476   1.897   5.061   3.112  2.1003  0.2730  1.3369
 2824TIP3   OH2 8477   5.323   0.683   1.073  0.3977  0.1331 -0.4545
 2824TIP3    H1 8478   5.327   0.774   1.043  1.5112  0.1236 -0.3490
 2824TIP3    H2 8479   5.231   0.658   1.061  0.1410  1.1824 -0.7391
 2825TIP3   OH2 8480   3.195   4.860   4.987  0.2061 -0.2073  0.3158
 2825TIP3    H1 8481   3.115   4.906   5.013  1.1072  1.5236  0.0902
 2825TIP3    H2 8482   3.172   4.818   4.904 -1.2154 -1.8130  1.4772
 2826TIP3   OH2 8483   2.725   5.750   3.059  0.0656 -0.2736 -0.2594
 2826TIP3    H1 8484   2.789   5.724   3.125  1.2203  1.1638 -0.7727
 2826TIP3    H2 8485   2.777   5.789   2.989 -1.4337  1.8566 -0.2471
 2827TIP3   OH2 8486   2.935   5.534   3.416  0.9841 -1.0964 -0.1295
 2827TIP3    H1 8487   3.020   5.492   3.428  0.6748 -1.5729  0.4066
 2827TIP3    H2 8488   2.931   5.554   3.322  2.1209 -0.1467  0.0090
 2828TIP3   OH2 8489   4.538   0.079   1.249 -0.1285 -0.4769 -0.0654
 2828TIP3    H1 8490   4.581  -0.001   1.278  0.2745 -0.3713 -0.3678
 2828TIP3    H2 8491   4.609   0.142   1.236 -0.4858  0.0941  0.6825
 2829TIP3   OH2 8492   1.887   4.184   2.409  0.0662  0.1094 -0.0099
 2829TIP3    H1 8493   1.871   4.097   2.372  0.4900 -0.0616  0.2091
 2829TIP3    H2 8494   1.941   4.228   2.344 -1.5711  0.8222 -0.9266
 2830TIP3   OH2 8495   2.877   4.919   0.861 -0.3394 -0.0427 -0.5165
 2830TIP3    H1 8496   2.889   4.855   0.790  1.7833  1.2189 -1.3256
 2830TIP3    H2 8497   2.789   4.954   0.846 -1.4940 -2.6558 -0.1248
 2831TIP3   OH2 8498   3.748   0.707   1.751 -0.3835 -0.4169  0.0506
 2831TIP3    H1 8499   3.805   0.690   1.676  0.4388  0.7394  0.3994
 2831TIP3    H2 8500   3.744   0.624   1.798  2.1378 -0.1688  0.7698
 2832TIP3   OH2 8501   3.532   4.383   1.786  0.0680 -0.1369  0.1227
 2832TIP3    H1 8502   3.598   4.444   1.818  0.4130 -0.5105  0.1229
 2832TIP3    H2 8503   3.449   4.417   1.821  0.2397  0.4098  0.0025
 2833TIP3   OH2 8504   2.860   4.426   1.061 -0.3640  0.7778 -0.0242
 2833TIP3    H1 8505   2.777   4.396   1.023 -0.0685 -1.5336  1.1025
 2833TIP3    H2 8506   2.852   4.521   1.064 -1.8548  0.7657 -2.4967
 2834TIP3   OH2 8507   3.563   5.203   0.216 -0.9219  0.2972  0.2059
 2834TIP3    H1 8508   3.507   5.279   0.235  0.2689  1.3541 -0.4436
 2834TIP3    H2 8509   3.535   5.137   0.280 -1.1462  1.6980  1.6031
 2835TIP3   OH2 8510   2.192   2.037   2.126 -0.0439  0.1585  0.4189
 2835TIP3    H1 8511   2.142   1.961   2.156 -1.3030 -0.4673 -3.1000
 2835TIP3    H2 8512   2.254   2.002   2.062  0.2564  1.9104 -0.2733
 2836TIP3   OH2 8513   3.336   4.335   1.228 -0.2600 -0.1800 -0.5414
 2836TIP3    H1 8514   3.412   4.393   1.225  0.0192 -0.5422 -0.4964
 2836TIP3    H2 8515   3.339   4.288   1.145 -0.9230  0.4192 -0.9141
 2837TIP3   OH2 8516   4.061   5.548   2.090 -0.1544  0.4608  0.1406
 2837TIP3    H1 8517   4.116   5.484   2.046  0.6655  2.7552 -2.2875
 2837TIP3    H2 8518   3.978   5.545   2.043  0.0566  1.5388 -0.3115
 2838TIP3   OH2 8519   6.295   3.027   2.094 -0.5327 -0.0497  0.1821
 2838TIP3    H1 8520   6.226   3.067   2.147 -0.8984 -0.0144 -0.3118
 2838TIP3    H2 8521   6.376   3.045   2.142 -0.6411  1.6433 -0.2164
 2839TIP3   OH2 8522   4.199   6.011   2.056  0.2635 -0.0318 -0.5286
 2839TIP3    H1 8523   4.215   6.094   2.012  2.4176 -0.9251 -1.4629
 2839TIP3    H2 8524   4.250   6.016   2.137 -1.9874  0.7408  0.8865
 2840TIP3   OH2 8525   2.816   4.106   1.712  0.3514  0.1934 -0.0871
 2840TIP3    H1 8526   2.737   4.138   1.668  0.9973  1.0365 -0.6272
 2840TIP3    H2 8527   2.865   4.185   1.734 -0.4538 -0.1330  3.1125
 2841TIP3   OH2 8528   3.276   5.362   3.265  0.3181  0.1730 -0.3927
 2841TIP3    H1 8529   3.299   5.454   3.274  0.5679  0.1138 -0.3942
 2841TIP3    H2 8530   3.235   5.339   3.348  1.0659  0.0619 -0.0435
 2842TIP3   OH2 8531   4.832   1.590   0.104  0.8422  0.0850 -0.5648
 2842TIP3    H1 8532   4.888   1.661   0.071  2.9090 -1.1336  0.1971
 2842TIP3    H2 8533   4.865   1.573   0.192 -1.4074 -0.0258  0.2931
 2843TIP3   OH2 8534   4.630   5.252   0.422 -0.5283  0.2971  0.5175
 2843TIP3    H1 8535   4.708   5.200   0.404 -0.3525  0.9138 -0.5511
 2843TIP3    H2 8536   4.653   5.305   0.498  0.1433  0.5742  0.1215
 2844TIP3   OH2 8537   5.158   1.116   0.374 -0.2575 -0.3351 -0.3555
 2844TIP3    H1 8538   5.232   1.115   0.313 -0.1689  0.8545 -0.2745
 2844TIP3    H2 8539   5.143   1.209   0.391 -1.1218 -0.6200  0.4197
 2845TIP3   OH2 8540   1.733   3.721   2.817 -1.1003 -0.7671  0.5029
 2845TIP3    H1 8541   1.822   3.744   2.844 -1.3454  0.7256  0.0892
 2845TIP3    H2 8542   1.696   3.803   2.782 -2.9148 -1.1574  1.4339
 2846TIP3   OH2 8543   3.631   4.915   2.314 -0.5732 -0.2356  0.1151
 2846TIP3    H1 8544   3.610   4.826   2.343  0.7361  0.1196  2.2518
 2846TIP3    H2 8545   3.568   4.933   2.245 -0.7324 -2.9011 -0.4914
 2847TIP3   OH2 8546   0.722   5.269   2.145 -0.2235 -0.3445 -0.2706
 2847TIP3    H1 8547   0.792   5.206   2.160  1.0690  0.8134 -1.3041
 2847TIP3    H2 8548   0.681   5.241   2.064  2.3256  1.8238 -2.4098
 2848TIP3   OH2 8549   2.431   4.797   4.019  0.0595  0.1537 -0.1923
 2848TIP3    H1 8550   2.480   4.828   4.095  0.2541  1.0034 -0.6599
 2848TIP3    H2 8551   2.394   4.876   3.979  1.7213 -0.0313 -2.2035
 2849TIP3   OH2 8552   4.000   0.180   0.168 -0.2967 -0.0806 -0.1059
 2849TIP3    H1 8553   3.916   0.223   0.154  0.2815  1.3938  0.8711
 2849TIP3    H2 8554   3.980   0.086   0.164 -2.0908  0.2590  0.7314
 2850TIP3   OH2 8555   1.251   4.067   3.127 -0.0399  0.0781  0.3583
 2850TIP3    H1 8556   1.302   4.125   3.071 -0.5543 -1.0527 -1.2997
 2850TIP3    H2 8557   1.163   4.105   3.128 -0.2044 -0.2924 -0.1624
 2851TIP3   OH2 8558   1.816   4.217   3.339  0.0284  0.3570 -0.0506
 2851TIP3    H1 8559   1.742   4.240   3.283 -1.2011  1.1639  1.8512
 2851TIP3    H2 8560   1.784   4.146   3.394  0.5813  0.8423  0.9145
 2852TIP3   OH2 8561   1.726   3.273   2.320 -0.2402  0.1416 -0.2562
 2852TIP3    H1 8562   1.787   3.346   2.314  2.0866 -1.5246  1.7791
 2852TIP3    H2 8563   1.662   3.299   2.386  1.5005 -0.2388  1.6270
 2853TIP3   OH2 8564   4.487   0.146   2.715  0.4531  0.4364 -0.0910
 2853TIP3    H1 8565   4.506   0.226   2.665 -1.7437  0.7145 -0.5338
 2853TIP3    H2 8566   4.543   0.080   2.675  0.3816  1.1730 -1.4446
 2854TIP3   OH2 8567   6.117   4.513   3.071  0.5366 -0.0190 -0.1850
 2854TIP3    H1 8568   6.067   4.554   3.141  0.8530 -0.0867  0.0854
 2854TIP3    H2 8569   6.051   4.483   3.009  0.0650 -2.4458  1.4201
 2855TIP3   OH2 8570   6.416   4.501   2.571  0.1871 -0.6229 -0.0718
 2855TIP3    H1 8571   6.495   4.456   2.543  0.8048  0.4645 -0.0810
 2855TIP3    H2 8572   6.345   4.441   2.547  1.0099 -1.7016  0.1537
 2856TIP3   OH2 8573   3.999   6.123   1.856 -0.2358 -0.1985  0.2072
 2856TIP3    H1 8574   3.911   6.156   1.873  0.3664  0.6209  1.8247
 2856TIP3    H2 8575   4.015   6.060   1.927 -0.3362 -1.9889 -1.3070
 2857TIP3   OH2 8576   1.340   5.575   2.493  0.1714 -0.1110 -0.0513
 2857TIP3    H1 8577   1.343   5.629   2.572 -0.6538  2.9165 -2.0009
 2857TIP3    H2 8578   1.375   5.632   2.424 -2.5830 -1.3239 -2.5592
 2858TIP3   OH2 8579   4.442   1.874   2.279  0.6190  0.2538  0.6350
 2858TIP3    H1 8580   4.446   1.787   2.240  2.6912  1.0219 -0.9338
 2858TIP3    H2 8581   4.370   1.869   2.343 -4.0663 -0.5523 -4.3822
 2859TIP3   OH2 8582   3.485   3.402   2.687  0.5207 -0.0234 -0.8893
 2859TIP3    H1 8583   3.472   3.410   2.592  0.6933  0.4500 -0.8779
 2859TIP3    H2 8584   3.397   3.390   2.722  0.2894  1.3013 -0.9796
 2860TIP3   OH2 8585   0.601   3.567   1.809 -0.0820 -0.3893 -0.0644
 2860TIP3    H1 8586   0.640   3.615   1.735  2.2947 -2.3447 -0.1377
 2860TIP3    H2 8587   0.578   3.635   1.872 -1.1022  1.2226 -2.0989
 2861TIP3   OH2 8588   1.698   5.376   2.951  0.1520  0.6041 -0.0842
 2861TIP3    H1 8589   1.788   5.406   2.964 -0.0755  2.5921 -2.6329
 2861TIP3    H2 8590   1.647   5.457   2.946 -1.1093 -0.3146 -2.9942
 2862TIP3   OH2 8591   0.496   4.379   2.819 -0.3433  0.2722 -0.2285
 2862TIP3    H1 8592   0.427   4.324   2.856  0.0014  0.1118  0.1792
 2862TIP3    H2 8593   0.449   4.445   2.769 -0.7509 -0.4570 -0.8143
 2863TIP3   OH2 8594   2.807   4.616   0.761  0.3344  0.6389  0.5940
 2863TIP3    H1 8595   2.750   4.558   0.711 -0.8950  1.5474  0.9097
 2863TIP3    H2 8596   2.887   4.565   0.776 -0.5669 -0.8124  0.5258
 2864TIP3   OH2 8597   2.934   2.576   4.170 -0.0409 -0.0119 -0.1736
 2864TIP3    H1 8598   2.928   2.607   4.080 -1.0328 -2.2216 -0.9154
 2864TIP3    H2 8599   2.876   2.500   4.173  0.0131  0.0022  2.3266
 2865TIP3   OH2 8600   1.267   4.368   2.658 -0.7756 -0.0928 -0.1369
 2865TIP3    H1 8601   1.219   4.408   2.585  0.6127 -0.8949 -1.5245
 2865TIP3    H2 8602   1.233   4.279   2.664  0.3364 -0.5850 -0.9617
 2866TIP3   OH2 8603   0.256   2.387   1.191 -0.4139  0.1594 -0.1359
 2866TIP3    H1 8604   0.295   2.350   1.112  0.0586  0.7652 -0.1967
 2866TIP3    H2 8605   0.173   2.341   1.201  0.1454 -0.8911 -0.2189
 2867TIP3   OH2 8606   2.173   3.138   1.986 -0.1147  0.2167  0.0557
 2867TIP3    H1 8607   2.160   3.070   1.920 -0.6814 -0.3124  0.7033
 2867TIP3    H2 8608   2.236   3.101   2.047 -1.2125 -0.1539  0.9861
 2868TIP3   OH2 8609   2.540   5.158   4.459  0.4196  0.1972  0.0433
 2868TIP3    H1 8610   2.500   5.130   4.541 -0.0286  0.3289 -0.1275
 2868TIP3    H2 8611   2.467   5.164   4.397  0.6683  0.6644 -0.2113
 2869TIP3   OH2 8612   4.169   5.031   3.326  0.5441 -0.0792 -0.3820
 2869TIP3    H1 8613   4.162   4.953   3.381 -0.4843 -1.4311 -2.3837
 2869TIP3    H2 8614   4.175   4.997   3.237 -1.7047  2.1661 -1.4385
 2870TIP3   OH2 8615   6.247   4.884   2.297  0.2681  0.1553  0.3073
 2870TIP3    H1 8616   6.281   4.809   2.346  0.5066  0.4657  0.6157
 2870TIP3    H2 8617   6.244   4.853   2.207 -0.1714 -0.4199  0.5112
 2871TIP3   OH2 8618   4.957   3.001   1.168 -0.1519 -0.3872 -0.3008
 2871TIP3    H1 8619   4.963   2.920   1.116 -1.2204 -1.4181  1.1286
 2871TIP3    H2 8620   4.929   2.971   1.254  0.0640  1.4725  0.4245
 2872TIP3   OH2 8621   3.438   4.332   2.181 -0.3335  0.3035 -0.5051
 2872TIP3    H1 8622   3.467   4.327   2.272 -1.3355  1.4094 -0.1147
 2872TIP3    H2 8623   3.484   4.260   2.138 -1.3762 -1.5225  1.2905
 2873TIP3   OH2 8624   4.691   0.747   1.587  0.1439  0.5644 -0.0280
 2873TIP3    H1 8625   4.625   0.808   1.554  0.0963  0.2490 -0.5250
 2873TIP3    H2 8626   4.773   0.776   1.548  0.0992  0.2329 -0.3712
 2874TIP3   OH2 8627   2.416   1.413   2.008 -0.5910 -0.1849 -0.5163
 2874TIP3    H1 8628   2.401   1.503   2.034  1.0311  0.0001 -0.1510
 2874TIP3    H2 8629   2.358   1.361   2.063 -2.1820  0.6757 -1.3365
 2875TIP3   OH2 8630   1.477   2.046   2.761  0.5018 -0.6744 -0.1615
 2875TIP3    H1 8631   1.528   1.990   2.819 -0.1491  2.5491  3.7270
 2875TIP3    H2 8632   1.386   2.025   2.780  0.2900  0.0429 -0.3397
 2876TIP3   OH2 8633   0.988   3.153   1.645 -0.1784 -0.1164  0.1660
 2876TIP3    H1 8634   0.972   3.238   1.687  0.1381  0.3911 -0.7178
 2876TIP3    H2 8635   1.043   3.174   1.570  0.9777 -1.2698  0.6640
 2877TIP3   OH2 8636   6.311   4.549   1.231 -0.5404 -0.5176  0.1357
 2877TIP3    H1 8637   6.267   4.515   1.153 -2.3423  2.8255 -0.3980
 2877TIP3    H2 8638   6.403   4.529   1.218 -0.9456 -0.8889 -2.3833
 2878TIP3   OH2 8639   3.328   5.759   1.298 -0.0010  0.3364  0.4325
 2878TIP3    H1 8640   3.386   5.769   1.222 -2.2673 -1.8718 -1.6648
 2878TIP3    H2 8641   3.259   5.824   1.283 -1.4282 -1.3512 -0.3661
 2879TIP3   OH2 8642   3.717   3.548   2.743  0.3385 -0.3733  0.4270
 2879TIP3    H1 8643   3.642   3.491   2.724  0.9784 -1.3563  0.8091
 2879TIP3    H2 8644   3.719   3.610   2.669 -0.5442 -0.6554  0.1590
 2880TIP3   OH2 8645   3.589   4.703   0.489 -0.8032 -0.4365 -0.1433
 2880TIP3    H1 8646   3.661   4.660   0.534 -0.2127  0.8103  0.1338
 2880TIP3    H2 8647   3.511   4.652   0.511 -0.0761 -1.4986 -0.0480
 2881TIP3   OH2 8648   3.272   5.462   1.263 -0.0911  0.1381 -0.2985
 2881TIP3    H1 8649   3.355   5.497   1.296  0.4346 -0.4577 -0.9674
 2881TIP3    H2 8650   3.297   5.381   1.219 -0.8363  0.7496 -1.8552
 2882TIP3   OH2 8651   4.929   0.088   1.851 -0.1361  0.2198  0.1455
 2882TIP3    H1 8652   4.952   0.144   1.777  0.4794 -0.1298  0.0686
 2882TIP3    H2 8653   5.000   0.101   1.914  0.5120 -1.1826 -0.2627
 2883TIP3   OH2 8654   3.745   4.807   1.857  0.0039 -0.5082 -0.0978
 2883TIP3    H1 8655   3.724   4.829   1.766 -0.4782  1.4983  0.4857
 2883TIP3    H2 8656   3.744   4.891   1.903  1.6156 -1.3356  1.5008
 2884TIP3   OH2 8657   3.538   0.236   4.925 -0.3797  0.1933  0.9736
 2884TIP3    H1 8658   3.585   0.280   4.996  0.1557  4.1009 -1.6261
 2884TIP3    H2 8659   3.446   0.241   4.951 -0.1648  1.3100  1.5599
 2885TIP3   OH2 8660   2.699   5.694   0.335  0.1917  0.6540 -0.2544
 2885TIP3    H1 8661   2.620   5.745   0.352  0.3286  0.8383 -0.1622
 2885TIP3    H2 8662   2.716   5.706   0.241 -0.4671 -0.2254 -0.4838
 2886TIP3   OH2 8663   3.999   4.983   2.660 -0.3237 -0.0944 -0.2357
 2886TIP3    H1 8664   3.909   4.974   2.629 -0.0221  0.7659 -1.4280
 2886TIP3    H2 8665   4.049   4.921   2.608  0.3590  2.1088 -2.3130
 2887TIP3   OH2 8666   3.259   3.640   4.203  0.1822  0.2337 -0.2851
 2887TIP3    H1 8667   3.248   3.562   4.149 -2.0349  0.6264 -0.4638
 2887TIP3    H2 8668   3.172   3.681   4.204  0.8639  1.7256  1.2829
 2888TIP3   OH2 8669   3.848   4.059   1.197  0.3105 -0.5990 -0.3633
 2888TIP3    H1 8670   3.823   3.990   1.259  0.6544 -0.2444  0.1785
 2888TIP3    H2 8671   3.817   4.140   1.238 -0.5230 -0.4795 -1.2309
 2889TIP3   OH2 8672   1.510   1.426   5.053 -0.0848  0.1212 -0.1717
 2889TIP3    H1 8673   1.420   1.456   5.041 -0.4148 -1.9837 -3.4946
 2889TIP3    H2 8674   1.507   1.372   5.132 -1.4013  1.2393  0.5645
 2890TIP3   OH2 8675   3.631   5.203   2.089 -0.6310  0.0779 -0.1889
 2890TIP3    H1 8676   3.619   5.108   2.083 -1.4956  0.0029  2.1242
 2890TIP3    H2 8677   3.562   5.239   2.033 -1.9701 -0.6342  0.9707
 2891TIP3   OH2 8678   2.830   2.034   0.595 -0.2766  0.2886  0.2746
 2891TIP3    H1 8679   2.880   2.067   0.669  0.2290  1.8262 -0.7109
 2891TIP3    H2 8680   2.825   1.939   0.608  2.0470  0.2354  0.9085
 2892TIP3   OH2 8681   2.538   4.029   3.222  0.4218 -0.4470  0.1609
 2892TIP3    H1 8682   2.480   3.955   3.203  0.6598 -1.4743  3.1157
 2892TIP3    H2 8683   2.481   4.093   3.264  0.7382 -0.0742  0.0174
 2893TIP3   OH2 8684   4.600   4.217   2.067  0.3944 -0.1028 -0.0337
 2893TIP3    H1 8685   4.550   4.179   2.139 -0.0575 -2.7769 -1.6870
 2893TIP3    H2 8686   4.691   4.210   2.095  0.0607  2.4408  1.8890
 2894TIP3   OH2 8687   3.498   5.607   2.807 -0.2549 -0.1447  0.4933
 2894TIP3    H1 8688   3.414   5.561   2.818  0.0303 -0.9854 -0.7498
 2894TIP3    H2 8689   3.559   5.559   2.863 -0.5429  0.3268  1.2204
 2895TIP3   OH2 8690   4.329   4.479   2.760  0.4936 -0.3988 -0.6018
 2895TIP3    H1 8691   4.308   4.571   2.777  0.3476 -0.3034 -1.2894
 2895TIP3    H2 8692   4.308   4.434   2.842  0.7020  0.2026 -0.2193
 2896TIP3   OH2 8693   3.667   4.092   0.322 -0.3012 -0.0022 -0.1731
 2896TIP3    H1 8694   3.683   4.009   0.367 -1.2357 -0.0140  0.1627
 2896TIP3    H2 8695   3.736   4.098   0.256 -1.3260 -1.9917 -1.4994
 2897TIP3   OH2 8696   5.330   5.635   2.357  0.5807  0.6091  0.6962
 2897TIP3    H1 8697   5.328   5.636   2.262  1.6892  0.8062  0.6607
 2897TIP3    H2 8698   5.251   5.681   2.384  0.2357  0.5059 -0.1272
 2898TIP3   OH2 8699   2.421   4.407   0.091  0.0917 -0.1549 -0.1767
 2898TIP3    H1 8700   2.419   4.321   0.133 -1.5505  0.6745  1.5000
 2898TIP3    H2 8701   2.492   4.454   0.136  1.2839 -0.7595 -1.3948
 2899TIP3   OH2 8702   0.431   4.749   2.315  0.3305 -0.2789  0.5039
 2899TIP3    H1 8703   0.452   4.837   2.284  1.4985 -0.3997  0.9105
 2899TIP3    H2 8704   0.359   4.720   2.259 -0.5124  1.1786  0.8051
 2900TIP3   OH2 8705   3.609   2.746   4.854 -0.5290 -0.0272 -0.8690
 2900TIP3    H1 8706   3.581   2.699   4.933  1.5244 -1.7328 -1.1178
 2900TIP3    H2 8707   3.532   2.796   4.828 -0.8307  1.7459  3.0483
 2901TIP3   OH2 8708   2.812   5.965   0.266  0.8831  0.3142 -1.0372
 2901TIP3    H1 8709   2.771   5.967   0.353  0.2796  2.2176 -1.3471
 2901TIP3    H2 8710   2.755   6.018   0.211  2.0611  0.3389 -2.2503
 2902TIP3   OH2 8711   3.178   4.610   1.030  0.3700 -0.0606  0.1008
 2902TIP3    H1 8712   3.268   4.600   1.058  0.3895 -0.1553  0.0051
 2902TIP3    H2 8713   3.155   4.700   1.054  0.3008 -0.2228  0.6573
 2903TIP3   OH2 8714   3.882   3.873   2.954 -0.0858  0.5318  0.2353
 2903TIP3    H1 8715   3.907   3.829   3.036  1.1458  0.1537 -0.3260
 2903TIP3    H2 8716   3.885   3.804   2.888 -0.9536  0.8645 -0.1516
 2904TIP3   OH2 8717   4.293   1.937   2.885 -0.6576 -0.2104 -0.6287
 2904TIP3    H1 8718   4.299   1.966   2.794 -0.8228  0.4709 -0.4253
 2904TIP3    H2 8719   4.265   1.846   2.880 -1.4845  0.0798 -1.2325
 2905TIP3   OH2 8720   5.209   1.124   3.935  0.1552  0.3977  0.5676
 2905TIP3    H1 8721   5.148   1.185   3.977  0.2777 -0.3675  1.8826
 2905TIP3    H2 8722   5.187   1.130   3.842 -2.3914 -0.3356  1.0682
 2906TIP3   OH2 8723   5.583   5.104   2.030  0.2495 -0.5447 -0.0131
 2906TIP3    H1 8724   5.601   5.035   2.094  0.4337 -0.0352  0.4848
 2906TIP3    H2 8725   5.493   5.131   2.049  0.3230 -0.3547  0.0671
 2907TIP3   OH2 8726   4.043   4.762   3.089  0.4078  0.2946 -0.0326
 2907TIP3    H1 8727   4.097   4.770   3.168 -0.5862  2.7744  0.4538
 2907TIP3    H2 8728   3.980   4.693   3.109  0.5257  0.5196  1.1413
 2908TIP3   OH2 8729   3.504   5.841   2.653  0.2745 -0.2936  0.7291
 2908TIP3    H1 8730   3.477   5.767   2.708 -1.1829  1.1342  1.9828
 2908TIP3    H2 8731   3.579   5.879   2.699  0.4950 -0.4908  0.5303
 2909TIP3   OH2 8732   2.433   3.839   0.070  0.3512  0.1090 -0.4307
 2909TIP3    H1 8733   2.471   3.760   0.108  1.9249  0.8822 -0.3307
 2909TIP3    H2 8734   2.468   3.843  -0.019 -1.3014 -0.3485 -1.1173
 2910TIP3   OH2 8735   3.334   4.681   1.335 -0.3295  0.2840  0.1248
 2910TIP3    H1 8736   3.252   4.632   1.351 -0.2779 -0.2182 -1.0955
 2910TIP3    H2 8737   3.374   4.635   1.261  1.6057 -0.1436  1.4156
 2911TIP3   OH2 8738   4.763   0.960   2.047 -0.2649  0.6223  0.5001
 2911TIP3    H1 8739   4.723   0.964   1.960 -0.1660 -0.0647  0.4165
 2911TIP3    H2 8740   4.753   1.048   2.083 -1.9139  0.4450  0.5018
 2912TIP3   OH2 8741   2.489   3.895   2.551  0.2661  0.2096  0.3993
 2912TIP3    H1 8742   2.483   3.874   2.644 -2.7498  0.3853  0.2756
 2912TIP3    H2 8743   2.524   3.985   2.549  1.0774 -0.0804  1.3132
 2913TIP3   OH2 8744   3.990   3.073   1.957  0.2315 -0.1219 -0.4835
 2913TIP3    H1 8745   4.075   3.074   2.001 -0.6084  0.7189  1.1697
 2913TIP3    H2 8746   3.941   3.005   2.003 -0.7590  0.9678  0.0870
 2914TIP3   OH2 8747   2.899   3.106   1.719  0.1833 -0.5867 -0.4054
 2914TIP3    H1 8748   2.937   3.145   1.797  1.1585  1.1390 -1.7157
 2914TIP3    H2 8749   2.891   3.013   1.740  1.8133 -0.3875  1.2068
 2915TIP3   OH2 8750   3.429   4.634   2.014 -0.3013 -0.8043 -0.4815
 2915TIP3    H1 8751   3.335   4.617   1.999 -0.2304 -1.7373  0.0600
 2915TIP3    H2 8752   3.442   4.612   2.106  0.4247 -0.5352 -0.5220
 2916TIP3   OH2 8753   4.825   0.271   2.144 -0.1963 -0.2226  0.1678
 2916TIP3    H1 8754   4.833   0.330   2.069 -0.1431 -0.2993  0.1135
 2916TIP3    H2 8755   4.903   0.289   2.196 -1.2636  1.3332  1.2705
 2917TIP3   OH2 8756   2.058   5.263   0.387  0.1722  0.6188  0.8261
 2917TIP3    H1 8757   2.093   5.352   0.383 -1.7967  1.3504 -0.9940
 2917TIP3    H2 8758   2.105   5.215   0.319 -1.0238  1.1500 -0.4155
 2918TIP3   OH2 8759   4.205   3.348   0.115 -0.0497 -0.3091  0.5694
 2918TIP3    H1 8760   4.218   3.410   0.043 -0.4281  1.3811  1.9161
 2918TIP3    H2 8761   4.135   3.290   0.084  0.3650 -0.1325 -0.7532
 2919TIP3   OH2 8762   2.800   4.528   4.188 -0.2071 -0.9404  0.5878
 2919TIP3    H1 8763   2.722   4.563   4.146  0.0140 -1.2800 -0.1124
 2919TIP3    H2 8764   2.851   4.605   4.213  0.7201 -0.7620 -1.7862
 2920TIP3   OH2 8765  -0.020   0.961   2.424 -0.1825  0.1040 -0.1416
 2920TIP3    H1 8766   0.046   0.936   2.488 -0.2180  0.5604  0.0744
 2920TIP3    H2 8767  -0.025   0.886   2.364  0.6867  0.1585 -0.2900
 2921TIP3   OH2 8768   6.094   0.580   2.359 -0.2605  0.6538 -0.0158
 2921TIP3    H1 8769   6.172   0.574   2.414 -0.2085  0.6975 -0.0848
 2921TIP3    H2 8770   6.114   0.649   2.296  0.1331 -0.2143 -0.8383
 2922TIP3   OH2 8771   6.241   5.157   5.050 -0.1357 -0.4466  0.3048
 2922TIP3    H1 8772   6.332   5.181   5.032 -0.4585  1.2581  0.8424
 2922TIP3    H2 8773   6.246   5.074   5.095  1.1208 -0.7288 -0.3325
 2923TIP3   OH2 8774   1.477   3.035   4.990 -0.0140  0.0421  0.0507
 2923TIP3    H1 8775   1.538   3.098   5.028 -0.7820  0.9577 -0.2096
 2923TIP3    H2 8776   1.452   2.979   5.064  2.8047 -1.7593 -0.2775
 2924TIP3   OH2 8777   6.164   0.817   0.737  0.5679 -0.6225  0.6468
 2924TIP3    H1 8778   6.211   0.894   0.705 -0.7863 -0.4531 -0.9962
 2924TIP3    H2 8779   6.111   0.849   0.809  0.2494 -0.0794  0.1730
 2925TIP3   OH2 8780   4.381   0.615   1.901  0.3367 -0.0667  0.3742
 2925TIP3    H1 8781   4.347   0.649   1.984  0.0829 -0.2103  0.3323
 2925TIP3    H2 8782   4.310   0.559   1.868  0.4142  0.0387  0.0311
 2926TIP3   OH2 8783   4.906   0.410   0.627  0.5037 -0.3590 -0.3030
 2926TIP3    H1 8784   4.841   0.426   0.696 -1.8772 -0.2778 -2.4870
 2926TIP3    H2 8785   4.938   0.498   0.604  0.3533 -0.2762 -0.1993
 2927TIP3   OH2 8786   3.945   3.930   2.081 -0.1547  0.3275  0.4246
 2927TIP3    H1 8787   3.971   3.844   2.114  0.5177  0.1129 -0.6537
 2927TIP3    H2 8788   3.984   3.936   1.994 -1.7906  0.9320 -0.2992
 2928TIP3   OH2 8789   3.748   5.717   0.817  0.4413  0.8871  0.7148
 2928TIP3    H1 8790   3.697   5.777   0.763  0.0224  0.9232  1.1470
 2928TIP3    H2 8791   3.800   5.774   0.874  0.6405  0.8467  0.5732
 2929TIP3   OH2 8792   5.971   4.985   2.144 -0.0186  0.0615 -0.0064
 2929TIP3    H1 8793   5.971   5.078   2.168 -0.5179 -0.2568  1.3021
 2929TIP3    H2 8794   5.953   4.939   2.227  0.2211 -1.1960 -0.6384
 2930TIP3   OH2 8795   5.889   5.755   2.440 -0.1395  0.5559 -0.8431
 2930TIP3    H1 8796   5.834   5.705   2.380  1.1686 -0.2477 -1.3808
 2930TIP3    H2 8797   5.899   5.841   2.398 -0.5073  0.5124 -1.0194
 2931TIP3   OH2 8798   3.965   3.770   0.321  0.0976 -0.8550  0.2404
 2931TIP3    H1 8799   3.875   3.740   0.307  0.1675 -0.6373 -0.6996
 2931TIP3    H2 8800   3.956   3.852   0.370 -0.4018  1.1005 -2.9806
 2932TIP3   OH2 8801   1.262   0.015   0.693  0.0990 -0.1789 -0.0398
 2932TIP3    H1 8802   1.350  -0.023   0.697  0.5865  0.8810 -0.3890
 2932TIP3    H2 8803   1.241   0.015   0.599 -0.6856 -1.3165  0.1182
 2933TIP3   OH2 8804   5.288   4.269   2.514  0.1686 -0.6789  0.0603
 2933TIP3    H1 8805   5.197   4.290   2.534  0.0850 -1.6735  0.7579
 2933TIP3    H2 8806   5.327   4.245   2.598  0.6384 -1.8540 -0.4796
 2934TIP3   OH2 8807   3.667   4.523   2.636  0.0131 -0.5342 -0.2322
 2934TIP3    H1 8808   3.592   4.583   2.631  0.5189 -0.0352 -2.5389
 2934TIP3    H2 8809   3.659   4.468   2.559 -0.0844 -3.0814  1.5432
 2935TIP3   OH2 8810   3.892   1.913   3.417 -0.0086 -0.1767  0.3096
 2935TIP3    H1 8811   3.877   2.003   3.388  2.1046 -0.0794 -0.5840
 2935TIP3    H2 8812   3.878   1.860   3.339 -2.0630 -0.7416  1.0244
 2936TIP3   OH2 8813   5.367   5.339   2.677 -0.0239  0.1521  0.2550
 2936TIP3    H1 8814   5.304   5.292   2.732  0.4943 -0.7067  0.1217
 2936TIP3    H2 8815   5.433   5.373   2.739  1.6413 -2.4948  0.0032
 2937TIP3   OH2 8816   4.205   2.614   1.254 -0.0287 -0.1466  0.4703
 2937TIP3    H1 8817   4.130   2.616   1.193 -0.9063  2.1410  1.5556
 2937TIP3    H2 8818   4.183   2.545   1.316 -0.0271 -1.1970 -0.6637
 2938TIP3   OH2 8819   4.612   5.125   0.158  0.2472  0.1051  0.1411
 2938TIP3    H1 8820   4.566   5.190   0.105  0.8013  1.3595  1.1727
 2938TIP3    H2 8821   4.546   5.059   0.179 -0.8488  1.3976  0.7938
 2939TIP3   OH2 8822   2.984   1.777   0.598  0.0525  0.1880 -0.2784
 2939TIP3    H1 8823   3.045   1.740   0.533 -0.6901 -1.6193  0.0362
 2939TIP3    H2 8824   2.922   1.707   0.616 -1.1091  1.4370  0.7143
 2940TIP3   OH2 8825   1.755   4.065   1.573 -0.5690  0.2951 -0.0801
 2940TIP3    H1 8826   1.739   4.147   1.526 -0.9150  1.0668  1.3758
 2940TIP3    H2 8827   1.690   4.064   1.643 -0.2807 -1.0219  0.1863
 2941TIP3   OH2 8828   3.460   2.571   2.034 -0.2778  0.2478 -0.3298
 2941TIP3    H1 8829   3.452   2.560   2.129  0.6739 -0.0332 -0.2749
 2941TIP3    H2 8830   3.443   2.484   1.998 -1.2045  0.4807 -0.4551
 2942TIP3   OH2 8831   1.893   4.946   1.105 -0.3836  0.2479  0.8787
 2942TIP3    H1 8832   1.820   5.007   1.091  0.3219  1.0683  0.6892
 2942TIP3    H2 8833   1.936   4.941   1.019  1.4710  2.0047  1.6559
 2943TIP3   OH2 8834   4.633   4.011   1.858  0.7468 -0.0932 -0.2642
 2943TIP3    H1 8835   4.605   4.067   1.786  1.9360  0.7842 -0.0648
 2943TIP3    H2 8836   4.620   4.064   1.937  2.1041 -0.0006 -0.0961
 2944TIP3   OH2 8837   2.960   3.983   0.482 -0.3252 -0.1192 -0.3927
 2944TIP3    H1 8838   2.902   4.033   0.424 -0.2647  0.0768 -0.2833
 2944TIP3    H2 8839   3.028   3.950   0.424 -2.0159 -2.6393 -1.0377
 2945TIP3   OH2 8840   3.573   3.811   1.228 -0.5373  0.1307 -0.1277
 2945TIP3    H1 8841   3.531   3.896   1.243 -2.6163 -0.6709 -1.2673
 2945TIP3    H2 8842   3.501   3.752   1.205  1.0611 -1.6071 -0.8016
 2946TIP3   OH2 8843   2.250   0.603   5.056  0.3071 -0.5282  0.1221
 2946TIP3    H1 8844   2.344   0.594   5.070  0.1669 -0.2856  1.2759
 2946TIP3    H2 8845   2.221   0.663   5.125 -0.7235 -0.7488 -0.1049
 2947TIP3   OH2 8846   2.501   2.536   1.156  0.2838 -0.5558  0.0263
 2947TIP3    H1 8847   2.434   2.604   1.156  0.7401 -0.0841  1.4571
 2947TIP3    H2 8848   2.460   2.462   1.112 -0.0573  0.7988 -1.9775
 2948TIP3   OH2 8849   2.793   5.108   1.934  0.0597 -0.1626  0.4989
 2948TIP3    H1 8850   2.791   5.138   1.843 -0.7197  1.1786  0.9433
 2948TIP3    H2 8851   2.840   5.176   1.981  0.3571 -0.7964  1.1307
 2949TIP3   OH2 8852   4.513   3.642   4.942 -0.3684  0.0875  0.5071
 2949TIP3    H1 8853   4.599   3.602   4.954 -0.6749 -1.6007 -2.5539
 2949TIP3    H2 8854   4.453   3.587   4.993 -0.0507 -0.3835  0.3685
 2950TIP3   OH2 8855   3.714   2.819   1.215 -0.1536 -0.1252  0.6239
 2950TIP3    H1 8856   3.637   2.867   1.247 -1.6746 -1.1221 -1.3938
 2950TIP3    H2 8857   3.678   2.739   1.176  1.5371  0.8335 -3.2259
 2951TIP3   OH2 8858   3.668   5.064   1.769  0.3902 -0.2950 -0.0443
 2951TIP3    H1 8859   3.643   5.043   1.679 -0.5906 -0.1261  0.1794
 2951TIP3    H2 8860   3.625   5.148   1.786  0.5278 -0.3574  0.6041
 2952TIP3   OH2 8861   3.212   2.871   1.997  0.4384 -0.1392  0.1303
 2952TIP3    H1 8862   3.131   2.923   2.005  0.5083  0.0751 -0.5036
 2952TIP3    H2 8863   3.251   2.874   2.084  0.4214  0.8427  0.1126
 2953TIP3   OH2 8864   2.870   5.040   2.234  0.2584 -0.0542  0.2712
 2953TIP3    H1 8865   2.944   5.059   2.292  0.6404 -1.7605  0.3753
 2953TIP3    H2 8866   2.797   5.089   2.271  0.9975  0.5255  0.9831
 2954TIP3   OH2 8867   5.288   2.986   0.191 -0.2291 -0.1433 -0.1542
 2954TIP3    H1 8868   5.203   2.951   0.218  0.1774 -1.8396 -1.0032
 2954TIP3    H2 8869   5.348   2.958   0.260  0.0265 -0.8234 -0.6435
 2955TIP3   OH2 8870   3.311   6.079   3.849 -0.2554  0.4910  0.1803
 2955TIP3    H1 8871   3.389   6.131   3.835  0.5530 -0.6851  0.2060
 2955TIP3    H2 8872   3.294   6.085   3.943  0.6386 -0.3746  0.4150
 2956TIP3   OH2 8873   3.625   4.847   1.558  0.1165  0.1931  0.2530
 2956TIP3    H1 8874   3.552   4.834   1.498 -0.5843 -0.3100  1.2127
 2956TIP3    H2 8875   3.686   4.776   1.537 -1.7085 -2.0971  2.4915
 2957TIP3   OH2 8876   2.320   3.897   3.088  0.0211 -0.5766 -0.4780
 2957TIP3    H1 8877   2.226   3.897   3.071  0.4674 -1.1751 -3.0822
 2957TIP3    H2 8878   2.347   3.805   3.078  0.8994 -0.4046  0.1883
 2958TIP3   OH2 8879   3.940   3.649   2.810 -0.2160 -0.2553 -0.0559
 2958TIP3    H1 8880   3.869   3.585   2.800  0.5689 -1.5065  2.0510
 2958TIP3    H2 8881   3.987   3.646   2.727 -2.2449  0.1400 -1.2620
 2959TIP3   OH2 8882   4.242   5.060   2.063  0.2662 -0.8046  0.3041
 2959TIP3    H1 8883   4.213   5.030   1.977  2.7733 -1.0286 -0.5047
 2959TIP3    H2 8884   4.332   5.029   2.070  1.4015  2.4802  1.3822
 2960TIP3   OH2 8885   0.169   1.543   5.002 -0.0509 -0.0409 -0.0988
 2960TIP3    H1 8886   0.172   1.634   5.032  0.4036  0.2731 -1.0732
 2960TIP3    H2 8887   0.085   1.510   5.033  0.1976  0.4141  1.0996
 2961TIP3   OH2 8888   1.546   4.226   3.572 -0.4062  0.4974  0.3666
 2961TIP3    H1 8889   1.533   4.198   3.481 -1.0592  1.2342  0.2250
 2961TIP3    H2 8890   1.621   4.176   3.602  1.7982  2.5470 -1.5753
 2962TIP3   OH2 8891   4.368   3.923   1.218 -0.0070  0.2005  0.6989
 2962TIP3    H1 8892   4.432   3.924   1.147 -0.1888 -1.5715  0.4985
 2962TIP3    H2 8893   4.422   3.922   1.298  0.2545 -1.7359  0.5270
 2963TIP3   OH2 8894   3.905   5.677   4.415  0.0182  0.0709 -0.0001
 2963TIP3    H1 8895   3.981   5.681   4.357 -0.1928 -0.4722 -0.3217
 2963TIP3    H2 8896   3.837   5.635   4.362  0.3960 -2.2060  1.2424
 2964TIP3   OH2 8897   2.811   3.200   1.063 -0.1313 -0.0755 -0.0745
 2964TIP3    H1 8898   2.768   3.271   1.111 -1.2278  0.0436 -1.2056
 2964TIP3    H2 8899   2.742   3.164   1.008  1.1653 -0.0407 -1.7446
 2965TIP3   OH2 8900   2.279   5.169   4.349 -0.4829  0.3327  0.1137
 2965TIP3    H1 8901   2.211   5.157   4.282  1.2925  0.4366 -1.7457
 2965TIP3    H2 8902   2.273   5.261   4.373  0.0315  0.6986 -1.1695
 2966TIP3   OH2 8903   1.150   3.245   1.324 -0.7009  0.6788 -0.3506
 2966TIP3    H1 8904   1.237   3.228   1.359 -1.0068  0.5648  0.3737
 2966TIP3    H2 8905   1.135   3.338   1.343 -1.4390  0.2806  1.1421
 2967TIP3   OH2 8906   2.018   2.927   2.418  0.1074 -0.5276  0.4148
 2967TIP3    H1 8907   1.961   2.972   2.480 -1.0962 -0.6484 -0.5915
 2967TIP3    H2 8908   2.099   2.911   2.467 -0.2228  0.8417  1.4360
 2968TIP3   OH2 8909   3.819   4.357   1.071 -0.1863  0.0583  0.0338
 2968TIP3    H1 8910   3.891   4.418   1.055  1.4279 -2.0678 -0.9977
 2968TIP3    H2 8911   3.821   4.343   1.166  1.3850 -0.7031 -0.0953
 2969TIP3   OH2 8912   5.105   5.773   1.304  0.2279 -0.6072 -0.1492
 2969TIP3    H1 8913   5.160   5.719   1.248 -0.7081 -0.5600 -1.1168
 2969TIP3    H2 8914   5.167   5.828   1.352  1.1166 -1.7510  0.0359
 2970TIP3   OH2 8915   3.152   5.584   2.806 -0.2141  0.1574 -0.0139
 2970TIP3    H1 8916   3.114   5.496   2.802  1.6858 -0.7161  0.6782
 2970TIP3    H2 8917   3.210   5.582   2.883  1.2381  1.4307 -1.0437
 2971TIP3   OH2 8918   4.417   4.157   3.034 -0.6147  0.0382 -0.1221
 2971TIP3    H1 8919   4.495   4.187   2.988 -1.0237  0.9259 -0.2526
 2971TIP3    H2 8920   4.450   4.117   3.115  0.0483 -0.7338 -0.7640
 2972TIP3   OH2 8921   5.458   0.316   3.585 -0.5825  0.1656  0.1841
 2972TIP3    H1 8922   5.391   0.365   3.632  0.6625  2.4553 -0.3290
 2972TIP3    H2 8923   5.537   0.369   3.595 -0.0082  0.1204 -3.5192
 2973TIP3   OH2 8924   3.688   3.417   2.441 -0.9329  0.0174  0.1652
 2973TIP3    H1 8925   3.596   3.436   2.462 -0.2660  0.0391  3.2852
 2973TIP3    H2 8926   3.728   3.503   2.428 -0.8801  0.1324  1.0385
 2974TIP3   OH2 8927   4.314   4.023   2.518 -0.1492 -0.0644 -0.2096
 2974TIP3    H1 8928   4.270   4.096   2.475 -0.4920  0.0532  0.3291
 2974TIP3    H2 8929   4.243   3.963   2.541  0.0755 -0.3255 -0.2015
 2975TIP3   OH2 8930   3.122   4.626   1.979 -0.7510 -0.4227  0.4021
 2975TIP3    H1 8931   3.081   4.588   2.056  0.5187 -1.1067  0.7552
 2975TIP3    H2 8932   3.093   4.717   1.979 -1.8659 -0.7720  0.9081
 2976TIP3   OH2 8933   5.581   0.302   4.256 -0.0360  0.0782 -0.0857
 2976TIP3    H1 8934   5.528   0.292   4.335  1.4588 -0.7662  0.8411
 2976TIP3    H2 8935   5.553   0.386   4.218  0.1804  1.1627  2.0830
 2977TIP3   OH2 8936   3.322   5.534   1.872 -0.1115 -0.2980  0.3823
 2977TIP3    H1 8937   3.251   5.484   1.832  0.3519 -0.5568 -0.1388
 2977TIP3    H2 8938   3.313   5.519   1.966 -2.5777  2.1304  0.5952
 2978TIP3   OH2 8939   1.937   3.726   2.571 -0.1360  0.0495  0.0852
 2978TIP3    H1 8940   1.991   3.647   2.564 -0.5358 -0.1903 -0.2853
 2978TIP3    H2 8941   1.981   3.778   2.639  1.6624  0.7386 -1.5724
 2979TIP3   OH2 8942   3.660   3.209   2.780  0.4089  1.2447  0.3127
 2979TIP3    H1 8943   3.605   3.281   2.750 -0.3852  0.2016 -0.8109
 2979TIP3    H2 8944   3.739   3.216   2.727  1.2053  2.4908  1.6321
 2980TIP3   OH2 8945   0.395   0.446   1.147 -0.0661 -0.0584 -0.7464
 2980TIP3    H1 8946   0.417   0.422   1.237 -3.0463 -0.9808 -0.1934
 2980TIP3    H2 8947   0.396   0.363   1.099  1.1056  0.3731 -1.4927
 2981TIP3   OH2 8948   6.151   1.242   2.282  0.2061  0.2383 -0.1136
 2981TIP3    H1 8949   6.115   1.243   2.193 -1.3731  0.4037  0.5116
 2981TIP3    H2 8950   6.078   1.270   2.337  1.7208  2.0160  1.0349
 2982TIP3   OH2 8951   3.550   5.524   1.255  0.3114  0.3225 -0.2319
 2982TIP3    H1 8952   3.618   5.545   1.319  0.7322 -1.9478  0.1010
 2982TIP3    H2 8953   3.595   5.471   1.189 -1.3944 -2.2373  0.6214
 2983TIP3   OH2 8954   2.997   3.637   2.499 -0.2987 -0.3387  0.3590
 2983TIP3    H1 8955   3.075   3.582   2.505  0.6004  0.9102  0.3518
 2983TIP3    H2 8956   2.976   3.642   2.406  1.0695  1.2911  0.1115
 2984TIP3   OH2 8957   3.566   3.851   2.490  0.2859  0.1389 -0.0210
 2984TIP3    H1 8958   3.618   3.930   2.506  0.3704 -0.1911  1.4203
 2984TIP3    H2 8959   3.628   3.779   2.503 -0.3449 -0.2323  1.0453
 2985TIP3   OH2 8960   4.267   0.282   2.817 -0.4303  0.4689  0.1560
 2985TIP3    H1 8961   4.346   0.228   2.813 -0.1101  0.8971  0.5954
 2985TIP3    H2 8962   4.200   0.230   2.773 -0.4264 -0.7880  1.5947
 2986TIP3   OH2 8963   4.278   5.896   2.544  0.5935 -0.0759  0.1729
 2986TIP3    H1 8964   4.241   5.873   2.629  0.8318  2.2170  0.9128
 2986TIP3    H2 8965   4.205   5.936   2.496  1.0928  0.8588  0.1919
 2987TIP3   OH2 8966   3.902   4.393   0.293 -0.3300 -0.7155  0.0582
 2987TIP3    H1 8967   3.904   4.337   0.371 -1.3665 -1.0490 -0.1467
 2987TIP3    H2 8968   3.912   4.482   0.328 -0.8257 -0.8612  0.5818
 2988TIP3   OH2 8969   3.924   4.060   2.320  0.5056  0.7884  0.4876
 2988TIP3    H1 8970   3.948   4.042   2.229  1.5985  3.3736  0.2151
 2988TIP3    H2 8971   3.950   3.982   2.368 -0.5705 -0.8392 -1.4872
 2989TIP3   OH2 8972   6.230   3.012   3.495  0.0572  0.0062  0.3845
 2989TIP3    H1 8973   6.172   3.086   3.473 -0.6061  0.0578  2.2322
 2989TIP3    H2 8974   6.287   3.003   3.419 -0.8571  1.4575 -0.4963
 2990TIP3   OH2 8975   0.854   6.092   4.279 -0.2523 -0.2529 -0.6166
 2990TIP3    H1 8976   0.777   6.147   4.292  0.4295  0.6223 -0.2688
 2990TIP3    H2 8977   0.927   6.143   4.315  0.2557 -1.7480  0.5355
 2991TIP3   OH2 8978   2.418   1.034   5.170 -0.2983  0.5385 -0.2781
 2991TIP3    H1 8979   2.471   1.106   5.204  0.9691  0.3489 -1.7624
 2991TIP3    H2 8980   2.343   1.029   5.228  1.2236  0.9478  1.7809
 2992TIP3   OH2 8981   0.183   0.400   4.468  0.5442 -0.3820 -0.0308
 2992TIP3    H1 8982   0.095   0.371   4.445 -0.0508  0.9399  0.5055
 2992TIP3    H2 8983   0.199   0.476   4.411  1.3910 -0.7153 -0.2374
 2993TIP3   OH2 8984   4.250   3.833   3.335  0.0901  0.2952  0.1085
 2993TIP3    H1 8985   4.259   3.737   3.340 -1.9305 -0.0206 -1.5606
 2993TIP3    H2 8986   4.164   3.846   3.296  0.0614  2.8315  0.9915
 2994TIP3   OH2 8987   1.681   2.937   2.923 -0.5182 -0.4088 -0.4663
 2994TIP3    H1 8988   1.585   2.936   2.921 -0.5215 -2.3544 -0.3939
 2994TIP3    H2 8989   1.703   2.927   3.015 -0.2393  0.5193 -0.4308
 2995TIP3   OH2 8990   4.202   5.770   0.974 -0.4935 -0.5760  0.0090
 2995TIP3    H1 8991   4.169   5.852   0.937 -1.0727 -0.7229  0.1799
 2995TIP3    H2 8992   4.140   5.703   0.944  0.7486 -1.1749 -1.2672
 2996TIP3   OH2 8993   3.152   2.799   1.368  0.0056  0.0071 -0.0474
 2996TIP3    H1 8994   3.103   2.727   1.407  0.0893  0.0954  0.2249
 2996TIP3    H2 8995   3.128   2.876   1.421 -0.0103  0.1589 -0.2761
 2997TIP3   OH2 8996   5.442   4.781   2.014 -0.0416  0.0689 -0.8503
 2997TIP3    H1 8997   5.514   4.788   2.076 -1.1494  0.3929  0.4278
 2997TIP3    H2 8998   5.414   4.689   2.020 -1.8034  0.6767  1.0811
 2998TIP3   OH2 8999   5.126   5.195   2.050  0.5458 -0.4556 -0.2228
 2998TIP3    H1 9000   5.082   5.222   2.131  1.6354  0.7638 -0.0236
 2998TIP3    H2 9001   5.148   5.103   2.065 -0.3857 -0.5893  0.3626
 2999TIP3   OH2 9002   4.703   4.332   3.593 -0.2926  1.0878 -0.4190
 2999TIP3    H1 9003   4.771   4.304   3.653 -0.7597  1.7432  0.4438
 2999TIP3    H2 9004   4.641   4.259   3.590 -0.1621  0.9707 -0.2567
 3000TIP3   OH2 9005   1.258   0.774   5.201 -0.1890 -0.5742  0.2975
 3000TIP3    H1 9006   1.306   0.730   5.272  0.0358 -0.3697  0.2732
 3000TIP3    H2 9007   1.323   0.784   5.131 -1.1556 -3.3682 -1.0618
 3001TIP3   OH2 9008   5.602   1.984   2.606 -0.5963  0.5005  0.0029
 3001TIP3    H1 9009   5.696   1.989   2.621 -0.6182  2.1607 -0.3372
 3001TIP3    H2 9010   5.570   2.073   2.620 -2.5606 -0.5732  2.8821
 3002TIP3   OH2 9011   2.560   3.688   2.317  0.3736  0.6568 -0.0411
 3002TIP3    H1 9012   2.565   3.773   2.273  1.3143  0.7028  0.1544
 3002TIP3    H2 9013   2.539   3.710   2.408  0.3952  0.6650 -0.0379
 3003TIP3   OH2 9014   1.409   0.912   0.489  0.1995  0.1538 -0.2725
 3003TIP3    H1 9015   1.351   0.884   0.559  0.2799 -1.6598 -0.9084
 3003TIP3    H2 9016   1.363   0.986   0.447 -0.7634 -0.0555  0.4113
 3004TIP3   OH2 9017   2.771   3.277   2.413 -0.2581  0.2719 -0.3953
 3004TIP3    H1 9018   2.698   3.219   2.432 -0.6833  0.4985 -1.3062
 3004TIP3    H2 9019   2.801   3.307   2.499 -0.3562 -0.8893  0.0458
 3005TIP3   OH2 9020   2.830   5.520   1.036  0.4099  0.1545 -0.4692
 3005TIP3    H1 9021   2.809   5.472   1.116 -0.0857  1.4584  0.2060
 3005TIP3    H2 9022   2.924   5.538   1.042  0.0514  1.8149  0.7300
 3006TIP3   OH2 9023   2.031   4.227   3.136  0.0005 -0.3689 -0.0384
 3006TIP3    H1 9024   1.964   4.239   3.204  0.7304  1.6866  0.3554
 3006TIP3    H2 9025   2.000   4.280   3.063  2.1820  2.2442  0.8865
 3007TIP3   OH2 9026   4.386   2.666   4.748 -0.0666  0.2261 -0.1811
 3007TIP3    H1 9027   4.296   2.686   4.772  0.1704  0.7500  0.2517
 3007TIP3    H2 9028   4.407   2.587   4.798 -1.1367 -1.3882 -2.2023
 3008TIP3   OH2 9029   3.360   5.360   0.505  0.1827  0.4717 -0.4368
 3008TIP3    H1 9030   3.339   5.360   0.412 -2.0572  0.4419  0.0369
 3008TIP3    H2 9031   3.338   5.272   0.535  4.4139 -0.7558 -0.5704
 3009TIP3   OH2 9032   2.241   3.377   3.949  0.0671  0.1777 -0.4839
 3009TIP3    H1 9033   2.185   3.430   3.892 -2.1492 -2.1118 -0.5358
 3009TIP3    H2 9034   2.302   3.335   3.888  0.0663  0.5508 -0.7497
 3010TIP3   OH2 9035   4.679   1.802   1.046 -0.2557 -0.3734 -0.1617
 3010TIP3    H1 9036   4.628   1.784   1.125  0.7270 -3.5341 -0.1767
 3010TIP3    H2 9037   4.709   1.892   1.057 -1.3331 -0.2829  2.3946
 3011TIP3   OH2 9038   5.118   3.859   2.110 -0.1259  0.1392  0.0111
 3011TIP3    H1 9039   5.182   3.827   2.046  0.4383  0.5551  0.3521
 3011TIP3    H2 9040   5.064   3.783   2.131  1.1036 -0.5695  0.7058
 3012TIP3   OH2 9041   6.394   0.446   2.085 -0.1943  0.4699 -0.3564
 3012TIP3    H1 9042   6.399   0.351   2.077  1.1338  0.4703  0.4212
 3012TIP3    H2 9043   6.339   0.460   2.162  1.0715  0.3049  0.5906
 3013TIP3   OH2 9044   6.150   4.664   2.851  0.9910  0.2593  0.2762
 3013TIP3    H1 9045   6.210   4.620   2.912  0.0167 -1.1329  0.2624
 3013TIP3    H2 9046   6.119   4.740   2.900  0.9765 -0.3021  1.1627
 3014TIP3   OH2 9047   3.716   3.457   4.178 -0.4400  0.1470  0.0530
 3014TIP3    H1 9048   3.631   3.445   4.137 -1.0893  2.5583  0.6356
 3014TIP3    H2 9049   3.779   3.425   4.112 -1.7795 -2.2017 -0.1290
 3015TIP3   OH2 9050   2.365   3.597   1.165 -0.2071  0.6648 -0.1028
 3015TIP3    H1 9051   2.305   3.578   1.093 -0.7108 -0.2481  0.5530
 3015TIP3    H2 9052   2.320   3.664   1.217 -1.8683 -1.9010  1.8606
 3016TIP3   OH2 9053   3.035   4.478   3.270  0.1328  0.0559 -0.5180
 3016TIP3    H1 9054   2.966   4.502   3.208  0.4131  1.9562 -0.1268
 3016TIP3    H2 9055   3.011   4.391   3.300 -1.7017  0.3972 -0.9388
 3017TIP3   OH2 9056   3.321   4.321   0.094 -0.0942  0.3824 -0.4854
 3017TIP3    H1 9057   3.308   4.284   0.006 -2.5417  1.2802 -0.5411
 3017TIP3    H2 9058   3.337   4.246   0.150  0.8317 -0.2593 -1.5836
 3018TIP3   OH2 9059   5.007   4.867   2.976  0.4489 -0.0957 -0.4404
 3018TIP3    H1 9060   5.014   4.781   3.018  0.3864  0.4304  0.6895
 3018TIP3    H2 9061   5.024   4.929   3.047 -1.1652  0.8605 -0.8632
 3019TIP3   OH2 9062   3.069   5.826   0.985  0.2391  0.5952  0.5882
 3019TIP3    H1 9063   3.015   5.805   0.908  0.6325 -1.2113  0.7899
 3019TIP3    H2 9064   3.144   5.873   0.950  0.3874 -0.1761 -0.1269
 3020TIP3   OH2 9065   4.412   5.719   1.762 -0.3086  0.2074 -0.2375
 3020TIP3    H1 9066   4.370   5.760   1.687 -0.2983 -0.9739 -0.8955
 3020TIP3    H2 9067   4.344   5.715   1.829 -0.4388  0.8608 -0.3241
 3021TIP3   OH2 9068   3.370   2.519   4.171 -0.6698  0.4566  0.0579
 3021TIP3    H1 9069   3.415   2.598   4.200 -0.0297  0.7472 -1.6469
 3021TIP3    H2 9070   3.428   2.447   4.198 -1.1826  0.5693  1.4761
 3022TIP3   OH2 9071   2.222   3.744   1.353  0.2571  0.2192  0.0454
 3022TIP3    H1 9072   2.128   3.759   1.345 -0.2206 -0.7945  2.9447
 3022TIP3    H2 9073   2.230   3.686   1.428  3.1548 -0.4731 -0.7477
 3023TIP3   OH2 9074   4.679   3.510   3.254  0.5432  0.1948 -0.0898
 3023TIP3    H1 9075   4.588   3.535   3.236  0.6816  0.5744 -0.2564
 3023TIP3    H2 9076   4.715   3.584   3.301  0.9754  0.3377 -0.6451
 3024TIP3   OH2 9077   4.680   5.702   3.907 -0.1321 -0.6430 -0.1600
 3024TIP3    H1 9078   4.741   5.653   3.851  0.2555 -0.5142  0.1419
 3024TIP3    H2 9079   4.594   5.664   3.888 -0.3764  1.0099 -2.6315
 3025TIP3   OH2 9080   3.809   3.162   3.597 -0.5820  0.4329 -0.1048
 3025TIP3    H1 9081   3.835   3.173   3.689 -1.7313 -0.3048  0.3118
 3025TIP3    H2 9082   3.770   3.246   3.573  1.0536  1.1361 -0.3716
 3026TIP3   OH2 9083   3.876   2.148   2.950  0.0258 -0.0358  0.2002
 3026TIP3    H1 9084   3.782   2.166   2.944  0.2425  1.8615  1.9456
 3026TIP3    H2 9085   3.915   2.231   2.979  2.4141 -0.4334 -1.6802
 3027TIP3   OH2 9086   4.097   5.672   4.212 -0.3086 -0.3827  0.0684
 3027TIP3    H1 9087   4.148   5.713   4.142 -0.1005 -0.1440  0.3579
 3027TIP3    H2 9088   4.113   5.578   4.201 -0.2456 -0.3429 -0.1820
 3028TIP3   OH2 9089   4.276   1.848   2.545 -0.7424  0.7305  0.1518
 3028TIP3    H1 9090   4.183   1.867   2.554 -1.1679 -1.0940 -0.2364
 3028TIP3    H2 9091   4.317   1.934   2.534 -2.5074  1.4543 -0.9604
 3029TIP3   OH2 9092   2.755   6.030   1.266  0.1621 -0.7086  1.0704
 3029TIP3    H1 9093   2.800   6.037   1.182 -1.3285  0.2532  0.3252
 3029TIP3    H2 9094   2.800   5.959   1.312  0.9931 -1.2346 -0.5294
 3030TIP3   OH2 9095   2.653   5.166   2.384 -0.0807 -0.6548  0.2828
 3030TIP3    H1 9096   2.562   5.151   2.407 -0.2814 -1.8651 -1.2527
 3030TIP3    H2 9097   2.702   5.148   2.464 -1.0801 -1.1540  0.7834
 3031TIP3   OH2 9098   3.178   5.141   1.304 -0.2994  0.6386  0.3243
 3031TIP3    H1 9099   3.095   5.105   1.272 -1.1556  1.6290  1.4040
 3031TIP3    H2 9100   3.209   5.197   1.233 -1.6062  1.9177  0.7535
 3032TIP3   OH2 9101   3.276   6.025   0.851 -0.1025 -0.1750 -0.1716
 3032TIP3    H1 9102   3.352   6.039   0.795  1.4781  2.5756  2.4939
 3032TIP3    H2 9103   3.204   6.069   0.806  0.4587 -0.4857 -1.3924
 3033TIP3   OH2 9104   3.483   4.334   3.891  0.4050 -0.3202 -0.6943
 3033TIP3    H1 9105   3.570   4.371   3.876 -0.0897  1.0287 -0.3528
 3033TIP3    H2 9106   3.485   4.305   3.982  0.6422 -0.6930 -0.8189
 3034TIP3   OH2 9107   2.037   3.092   0.614 -0.3080 -0.2240  0.0294
 3034TIP3    H1 9108   1.980   3.032   0.662 -1.8355  0.0687 -1.4056
 3034TIP3    H2 9109   2.078   3.037   0.546 -1.6855  0.3326 -1.2675
 3035TIP3   OH2 9110   5.927   5.612   3.104  0.1492  0.4050  0.4576
 3035TIP3    H1 9111   5.841   5.586   3.136 -0.6059 -0.5539 -2.2369
 3035TIP3    H2 9112   5.918   5.705   3.085  0.5395  0.9355  2.6854
 3036TIP3   OH2 9113   2.294   2.316   3.108 -0.3364 -0.1295  0.4843
 3036TIP3    H1 9114   2.254   2.403   3.106  0.5346  0.2319 -1.3177
 3036TIP3    H2 9115   2.315   2.302   3.201 -0.3068  1.6458  0.7615
 3037TIP3   OH2 9116   5.614   3.709   1.000  0.4011  0.4790  0.5335
 3037TIP3    H1 9117   5.596   3.788   1.051  1.9954 -0.0523  1.9854
 3037TIP3    H2 9118   5.708   3.712   0.982 -0.0199  0.3052 -1.8471
 3038TIP3   OH2 9119   3.595   1.092   4.603  0.4291  0.0224  0.2610
 3038TIP3    H1 9120   3.535   1.052   4.541 -0.6867  0.0682  1.3032
 3038TIP3    H2 9121   3.544   1.102   4.683  2.2527 -1.2858  1.6150
 3039TIP3   OH2 9122   5.882   0.413   2.295  0.0025  0.0771  0.4875
 3039TIP3    H1 9123   5.970   0.445   2.314  0.2879 -0.7378  0.5933
 3039TIP3    H2 9124   5.878   0.328   2.339  0.1625 -1.1811 -1.8083
 3040TIP3   OH2 9125   0.402   1.561   4.619  0.0056 -0.4555  0.0820
 3040TIP3    H1 9126   0.496   1.547   4.627  0.0211 -0.9555 -0.9399
 3040TIP3    H2 9127   0.365   1.474   4.604 -0.5860 -0.2241  0.1544
 3041TIP3   OH2 9128   4.756   3.972   5.201 -0.2356  0.0722 -0.2281
 3041TIP3    H1 9129   4.800   4.055   5.218  0.6334 -0.1448 -1.3850
 3041TIP3    H2 9130   4.798   3.938   5.122 -1.0223 -1.1633 -0.1277
 3042TIP3   OH2 9131   4.545   3.469   1.878 -0.5424 -0.4736 -0.3311
 3042TIP3    H1 9132   4.596   3.545   1.907 -2.2032  0.6315 -0.2378
 3042TIP3    H2 9133   4.607   3.396   1.881  0.3218  0.3135  2.3647
 3043TIP3   OH2 9134   2.928   4.101   3.052  0.4279  0.2976  0.0739
 3043TIP3    H1 9135   2.986   4.038   3.094  0.5046 -0.4776 -1.1603
 3043TIP3    H2 9136   2.873   4.048   2.993 -0.5530  1.1881  0.1587
 3044TIP3   OH2 9137   4.642   3.574   4.231  0.8964  0.1046 -0.1165
 3044TIP3    H1 9138   4.622   3.649   4.287  0.2104 -0.1313 -0.0468
 3044TIP3    H2 9139   4.701   3.610   4.164  0.4423  0.7414 -0.1802
 3045TIP3   OH2 9140   5.239   5.674   2.073  0.3597 -0.0556  0.8374
 3045TIP3    H1 9141   5.251   5.581   2.054 -2.3433 -0.0455 -1.2028
 3045TIP3    H2 9142   5.149   5.679   2.107  1.0334  1.6078  2.4122
 3046TIP3   OH2 9143   4.346   2.279   1.011  0.1844  0.1648  0.0822
 3046TIP3    H1 9144   4.415   2.321   1.062 -0.8556  1.0136  0.7953
 3046TIP3    H2 9145   4.270   2.278   1.069 -0.0012 -2.1671 -0.1274
 3047TIP3   OH2 9146   1.360   2.172   3.269 -0.5353 -0.1138  0.6516
 3047TIP3    H1 9147   1.277   2.137   3.235 -0.6928 -0.0399  0.9531
 3047TIP3    H2 9148   1.369   2.257   3.227 -0.5828 -0.1496  0.5689
 3048TIP3   OH2 9149   4.654   4.297   4.625  0.2161 -0.2749  0.0255
 3048TIP3    H1 9150   4.574   4.337   4.590  0.6701  2.1679  1.6852
 3048TIP3    H2 9151   4.647   4.204   4.600 -1.8128  0.4190 -2.1925
 3049TIP3   OH2 9152   2.851   2.656   3.288 -0.1251  0.1227  0.1801
 3049TIP3    H1 9153   2.916   2.720   3.315  1.1967 -0.7820 -0.8137
 3049TIP3    H2 9154   2.801   2.699   3.219 -0.0272  0.4928  0.3373
 3050TIP3   OH2 9155   4.013   5.793   2.417 -0.3357 -0.1676 -0.3924
 3050TIP3    H1 9156   4.017   5.886   2.443 -1.2656 -0.6301  1.5264
 3050TIP3    H2 9157   3.941   5.789   2.355 -1.3793  0.1204  0.7880
 3051TIP3   OH2 9158   2.557   4.184   1.690  0.0946  0.1893  0.6734
 3051TIP3    H1 9159   2.558   4.272   1.728 -1.0566  0.7094 -0.4890
 3051TIP3    H2 9160   2.465   4.161   1.686  0.1148  0.5296 -2.7043
 3052TIP3   OH2 9161   3.498   2.207   2.047 -0.2655  0.3402  0.2934
 3052TIP3    H1 9162   3.416   2.192   2.000 -0.0872 -0.5282  0.2621
 3052TIP3    H2 9163   3.471   2.250   2.128 -0.7711 -0.1076  0.3649
 3053TIP3   OH2 9164   3.297   3.674   1.403  0.6400  0.1544 -0.0488
 3053TIP3    H1 9165   3.251   3.594   1.427  1.9526 -0.8192 -0.7173
 3053TIP3    H2 9166   3.319   3.662   1.311  1.1659  1.1273 -0.0572
 3054TIP3   OH2 9167   5.545   5.246   0.049 -0.1840  0.4893  0.3728
 3054TIP3    H1 9168   5.494   5.304  -0.008  0.1297 -1.1215 -1.5871
 3054TIP3    H2 9169   5.633   5.250   0.013  0.0770 -0.3224  0.9246
 3055TIP3   OH2 9170   4.331   4.576   2.366  0.2279 -0.0339 -0.1671
 3055TIP3    H1 9171   4.426   4.587   2.364  0.4425 -1.5658  0.5021
 3055TIP3    H2 9172   4.296   4.660   2.338  1.7586  1.4438  2.1199
 3056TIP3   OH2 9173   2.586   4.039   1.412 -0.6861  0.2451 -0.9867
 3056TIP3    H1 9174   2.590   4.074   1.501  0.7943 -0.2993 -0.8349
 3056TIP3    H2 9175   2.495   4.055   1.385 -0.6817  1.9930 -0.0358
 3057TIP3   OH2 9176   6.044   2.069   2.287  0.6488  1.1245 -0.0083
 3057TIP3    H1 9177   6.079   2.157   2.276  0.9366  0.9786 -0.2583
 3057TIP3    H2 9178   6.101   2.029   2.354  1.1611  0.7792 -0.6467
 3058TIP3   OH2 9179   2.355   2.604   3.082 -0.4323  0.0153  0.2897
 3058TIP3    H1 9180   2.378   2.585   3.173 -1.5807  0.6404  0.7070
 3058TIP3    H2 9181   2.386   2.693   3.067 -0.7228  0.1065  0.2274
 3059TIP3   OH2 9182   1.933   6.057   1.684  0.0561  0.1420 -0.7335
 3059TIP3    H1 9183   1.963   6.114   1.754 -0.1985 -0.1073 -0.4225
 3059TIP3    H2 9184   2.000   6.065   1.616 -0.6766  1.8779 -1.2707
 3060TIP3   OH2 9185   5.946   1.254   0.373  0.0898  0.0634  0.3543
 3060TIP3    H1 9186   5.874   1.218   0.424 -0.4435  0.9135  0.2086
 3060TIP3    H2 9187   5.933   1.217   0.285 -0.4479  0.5662  0.2103
 3061TIP3   OH2 9188   3.106   5.864   5.243 -0.4671 -0.1925  0.1034
 3061TIP3    H1 9189   3.196   5.837   5.227 -0.3159  0.8190 -0.8035
 3061TIP3    H2 9190   3.055   5.815   5.178 -0.1666  1.7760 -1.7060
 3062TIP3   OH2 9191   2.646   4.456   0.612  0.4081  0.0995 -0.1185
 3062TIP3    H1 9192   2.683   4.444   0.524  0.6759 -0.2596  0.0387
 3062TIP3    H2 9193   2.637   4.367   0.646  1.1868  0.2813  0.5794
 3063TIP3   OH2 9194   2.833   2.182   3.302  0.0289  0.2148  0.8494
 3063TIP3    H1 9195   2.743   2.216   3.299  0.2504  0.7063 -2.8317
 3063TIP3    H2 9196   2.887   2.259   3.319 -0.0029  0.5006 -0.3240
 3064TIP3   OH2 9197   0.568   1.246   4.527  0.2980  0.2491  0.3542
 3064TIP3    H1 9198   0.516   1.265   4.449  0.0027 -0.3742  0.3923
 3064TIP3    H2 9199   0.626   1.321   4.537  1.7043 -0.5255 -1.5899
 3065TIP3   OH2 9200   4.258   2.020   4.188 -0.4344 -0.5500  0.4160
 3065TIP3    H1 9201   4.329   1.976   4.235  2.2561  3.2081  0.1314
 3065TIP3    H2 9202   4.266   1.988   4.098 -0.9850 -2.3074  0.9647
 3066TIP3   OH2 9203   3.729   5.987   2.468  0.8285  0.0614 -0.3900
 3066TIP3    H1 9204   3.736   5.908   2.521 -3.1247  1.2470  2.0819
 3066TIP3    H2 9205   3.682   5.959   2.390 -2.9792  0.3758  1.6769
 3067TIP3   OH2 9206   0.188   0.742   2.281 -0.0081  0.1193 -0.2614
 3067TIP3    H1 9207   0.238   0.751   2.362  3.8237 -1.3119 -2.3152
 3067TIP3    H2 9208   0.153   0.653   2.284  1.0157 -0.3105 -0.5779
 3068TIP3   OH2 9209   5.779   0.329   4.033  0.0643  0.3166 -0.3804
 3068TIP3    H1 9210   5.778   0.243   3.992 -0.8124  0.4387 -0.6216
 3068TIP3    H2 9211   5.713   0.323   4.102  0.2645  0.6815 -0.1544
 3069TIP3   OH2 9212   3.587   4.084   3.513  0.3857 -0.1155  0.1030
 3069TIP3    H1 9213   3.535   4.147   3.463  1.1380 -0.1123 -0.6876
 3069TIP3    H2 9214   3.676   4.118   3.510  0.9514 -1.6443 -1.0582
 3070TIP3   OH2 9215   4.116   6.075   3.705  0.2515 -0.5824  0.8913
 3070TIP3    H1 9216   4.135   6.022   3.783 -1.3194  0.2405  1.8658
 3070TIP3    H2 9217   4.073   6.014   3.644  0.1077 -0.8715  1.2769
 3071TIP3   OH2 9218   2.494   5.989   1.353 -0.1178 -0.9742  1.1212
 3071TIP3    H1 9219   2.583   5.998   1.318 -0.4133  1.5502  0.9529
 3071TIP3    H2 9220   2.464   5.904   1.320  1.6998 -1.2090  0.0025
 3072TIP3   OH2 9221   4.275   2.831   0.953  0.0769 -0.1502 -0.0865
 3072TIP3    H1 9222   4.302   2.766   0.889 -0.3830 -0.4696  0.0440
 3072TIP3    H2 9223   4.199   2.874   0.914 -0.2169 -0.3589  0.2432
 3073TIP3   OH2 9224   0.941   0.565   2.258  0.7135  0.1926 -0.1948
 3073TIP3    H1 9225   0.907   0.517   2.182  1.5956  0.1406 -0.5594
 3073TIP3    H2 9226   0.958   0.497   2.323  1.6722  0.0323 -0.6018
 3074TIP3   OH2 9227   1.954   3.723   1.286  0.3041  0.2057 -0.4190
 3074TIP3    H1 9228   1.879   3.774   1.317 -0.0080 -0.2984 -0.3294
 3074TIP3    H2 9229   1.954   3.736   1.191 -1.5697 -1.9721 -0.7727
 3075TIP3   OH2 9230   5.206   1.438   3.279  0.1092 -0.6493 -0.1750
 3075TIP3    H1 9231   5.254   1.366   3.239 -0.9450 -0.8630 -1.0571
 3075TIP3    H2 9232   5.148   1.471   3.210  0.3093  0.8097  0.3237
 3076TIP3   OH2 9233   4.865   3.345   1.472 -0.4919 -0.1296  0.1526
 3076TIP3    H1 9234   4.792   3.338   1.411 -0.2589  2.5634 -0.4958
 3076TIP3    H2 9235   4.912   3.262   1.462 -1.2793 -0.3294 -2.2707
 3077TIP3   OH2 9236   4.435   3.112   1.631  0.2045 -0.1924 -0.6982
 3077TIP3    H1 9237   4.462   3.189   1.582  0.5594  1.2062  1.6306
 3077TIP3    H2 9238   4.517   3.075   1.665 -0.3401  1.7837  3.0324
 3078TIP3   OH2 9239   4.961   2.902   0.205 -0.0310  0.4159  0.5029
 3078TIP3    H1 9240   4.945   2.934   0.116  1.3132  0.0801  0.1300
 3078TIP3    H2 9241   4.945   2.977   0.261 -1.6377  0.4301  0.0433
 3079TIP3   OH2 9242   3.416   2.533   1.640 -0.0333  0.2398  0.0209
 3079TIP3    H1 9243   3.486   2.477   1.674  0.0611 -0.2127 -0.9028
 3079TIP3    H2 9244   3.389   2.586   1.716  0.7383 -0.1607  0.5880
 3080TIP3   OH2 9245   4.364   2.377   1.745 -0.8934  0.0430 -0.8026
 3080TIP3    H1 9246   4.339   2.287   1.727 -0.9421 -0.0538 -0.2520
 3080TIP3    H2 9247   4.315   2.401   1.823  1.8369 -0.6582  1.2260
 3081TIP3   OH2 9248   1.914   4.482   0.718 -0.4310 -0.2318 -0.5010
 3081TIP3    H1 9249   1.966   4.459   0.641 -0.4947  0.4404 -0.7475
 3081TIP3    H2 9250   1.889   4.397   0.756  2.1116 -0.5533  0.4876
 3082TIP3   OH2 9251   2.386   2.333   1.020 -0.1824 -0.0710 -0.2782
 3082TIP3    H1 9252   2.403   2.309   0.929  1.1612 -0.6705  0.1194
 3082TIP3    H2 9253   2.355   2.253   1.062 -2.4350  0.6008 -0.5790
 3083TIP3   OH2 9254   6.225   0.973   2.053  0.2285 -0.1815  0.2094
 3083TIP3    H1 9255   6.231   1.027   1.975  2.1642 -1.5387 -0.6181
 3083TIP3    H2 9256   6.293   1.007   2.112 -0.2251 -0.1211  0.7067
 3084TIP3   OH2 9257   0.404   1.323   2.990 -0.2619  0.9848  0.0589
 3084TIP3    H1 9258   0.345   1.342   2.917 -0.1252  1.9623  0.1917
 3084TIP3    H2 9259   0.346   1.305   3.064 -0.4069 -0.6932 -0.4465
 3085TIP3   OH2 9260   4.493   4.607   1.157  0.4126  0.0245  0.4599
 3085TIP3    H1 9261   4.542   4.662   1.219 -0.6867  1.3559  0.1594
 3085TIP3    H2 9262   4.428   4.665   1.120  0.2232 -1.1137 -1.0152
 3086TIP3   OH2 9263   6.372   3.839   4.471 -0.7968  0.0570  0.4545
 3086TIP3    H1 9264   6.355   3.887   4.552 -1.7958 -1.1989  1.0085
 3086TIP3    H2 9265   6.333   3.753   4.486 -0.1751 -0.4930 -1.0174
 3087TIP3   OH2 9266   5.686   5.880   1.483  0.3944  0.1635  0.4545
 3087TIP3    H1 9267   5.645   5.808   1.530  1.6603 -0.3443  0.7922
 3087TIP3    H2 9268   5.616   5.944   1.472 -0.8121 -1.2442 -0.1241
 3088TIP3   OH2 9269   2.773   2.618   5.128  0.1260 -0.5835 -0.2235
 3088TIP3    H1 9270   2.701   2.580   5.079  0.0005  1.5453 -1.7930
 3088TIP3    H2 9271   2.819   2.673   5.064  1.1220  0.7321  1.5582
 3089TIP3   OH2 9272   6.428   5.388   0.314 -0.2795  0.2091  0.1311
 3089TIP3    H1 9273   6.457   5.459   0.371 -0.8847  1.4860 -1.1322
 3089TIP3    H2 9274   6.334   5.380   0.331 -0.5704  0.9649 -1.0623
 3090TIP3   OH2 9275   3.428   3.100   0.590 -0.0550  0.0820  0.0469
 3090TIP3    H1 9276   3.400   3.051   0.667  1.5118 -1.2020 -0.1850
 3090TIP3    H2 9277   3.351   3.101   0.533 -0.2832 -1.6381  0.2942
 3091TIP3   OH2 9278   6.497   4.438   0.290  0.2584 -0.2827  0.9196
 3091TIP3    H1 9279   6.492   4.531   0.312  1.5099  0.2037 -0.7636
 3091TIP3    H2 9280   6.406   4.411   0.277 -0.0744  0.8146  0.9556
 3092TIP3   OH2 9281   3.985   4.535   3.406  0.3934  0.0642 -0.1472
 3092TIP3    H1 9282   4.034   4.453   3.399 -0.8592 -0.6046 -1.4143
 3092TIP3    H2 9283   3.897   4.508   3.432 -0.4874  0.8598 -2.2516
 3093TIP3   OH2 9284   4.910   4.033   1.735  0.2939 -0.1967  0.3714
 3093TIP3    H1 9285   4.902   4.128   1.729  0.7370 -0.1863 -0.0151
 3093TIP3    H2 9286   4.829   4.006   1.779 -0.4887  0.2220 -0.7865
 3094TIP3   OH2 9287   0.165   0.254   1.756 -0.6018  0.2510 -0.2771
 3094TIP3    H1 9288   0.227   0.313   1.713  0.1129 -0.4997 -0.2934
 3094TIP3    H2 9289   0.197   0.245   1.845 -1.3496  0.7750  0.0526
 3095TIP3   OH2 9290   4.811   4.480   2.796 -0.2011  0.2398 -0.4291
 3095TIP3    H1 9291   4.764   4.410   2.840 -1.2480  0.9045 -0.4709
 3095TIP3    H2 9292   4.765   4.491   2.713  0.8820 -0.0378 -1.0771
 3096TIP3   OH2 9293   5.466   2.082   2.236 -0.1272 -0.3461  0.4718
 3096TIP3    H1 9294   5.526   2.156   2.231  0.0425 -0.5120 -0.0180
 3096TIP3    H2 9295   5.432   2.073   2.147 -0.7119 -0.3916  0.6962
 3097TIP3   OH2 9296   6.359   5.338   2.289 -0.3523  0.4232  0.2508
 3097TIP3    H1 9297   6.441   5.365   2.250 -1.0203  0.3091 -1.2810
 3097TIP3    H2 9298   6.291   5.379   2.235 -1.3220 -1.2976  0.1089
 3098TIP3   OH2 9299   2.532   5.226   5.261  0.4493  0.1843  0.0512
 3098TIP3    H1 9300   2.623   5.203   5.279  0.6456  0.1688 -0.9373
 3098TIP3    H2 9301   2.481   5.157   5.304  0.9260 -0.1454  0.0976
 3099TIP3   OH2 9302   4.390   5.996   3.394 -0.2994  0.4421 -0.3409
 3099TIP3    H1 9303   4.425   6.053   3.325  1.5975 -0.7007 -0.3394
 3099TIP3    H2 9304   4.320   5.947   3.351 -2.6927  3.4358 -0.0960
 3100TIP3   OH2 9305   4.796   4.662   1.927  0.0728 -0.1530 -0.0729
 3100TIP3    H1 9306   4.805   4.757   1.928 -2.0526  0.0731 -0.2163
 3100TIP3    H2 9307   4.717   4.646   1.875 -0.4216 -1.8904  1.1593
 3101TIP3   OH2 9308   5.693   4.872   2.144  0.1563 -0.1778  0.1362
 3101TIP3    H1 9309   5.675   4.866   2.238  0.9190  0.9606  0.3633
 3101TIP3    H2 9310   5.718   4.783   2.119 -0.8904 -0.6708  0.8355
 3102TIP3   OH2 9311   5.351   4.838   1.306 -0.2004  0.4600 -0.5234
 3102TIP3    H1 9312   5.330   4.766   1.365  0.3543 -2.9003 -4.2025
 3102TIP3    H2 9313   5.268   4.864   1.268  0.0077 -0.4601 -1.6103
 3103TIP3   OH2 9314   4.495   4.448   1.958  0.4694 -0.5320 -0.7005
 3103TIP3    H1 9315   4.442   4.416   1.884 -0.1558 -0.6306 -0.2120
 3103TIP3    H2 9316   4.521   4.368   2.004  1.4957 -0.5219 -1.2344
 3104TIP3   OH2 9317   0.053   0.523   2.700 -0.1622  0.4332 -0.3307
 3104TIP3    H1 9318   0.119   0.581   2.661 -3.3575  2.8975 -2.2464
 3104TIP3    H2 9319   0.060   0.442   2.649  0.0638  1.3835 -1.8602
 3105TIP3   OH2 9320   1.078   0.464   1.246 -0.1142  0.1155 -0.3090
 3105TIP3    H1 9321   1.120   0.529   1.189 -0.8412  1.6925  0.9202
 3105TIP3    H2 9322   1.150   0.417   1.286  0.4245 -1.4669 -2.9839
 3106TIP3   OH2 9323   6.088   3.713   2.078 -0.0035 -0.2560  0.1776
 3106TIP3    H1 9324   6.148   3.746   2.011 -1.0182 -1.3925 -1.3273
 3106TIP3    H2 9325   6.083   3.619   2.062 -2.0309 -0.2047  0.3920
 3107TIP3   OH2 9326   4.948   4.821  -0.003  0.2144  0.5702  0.3858
 3107TIP3    H1 9327   4.860   4.850  -0.028  0.2441  1.5890  1.4373
 3107TIP3    H2 9328   4.935   4.733   0.033 -0.4137  0.8121  0.7688
 3108TIP3   OH2 9329   5.911   3.980   2.813  0.0727 -0.3759 -0.0944
 3108TIP3    H1 9330   5.869   3.918   2.753  0.1124 -0.9434  0.4579
 3108TIP3    H2 9331   5.929   3.928   2.892  1.7874 -0.1263 -0.3038
 3109TIP3   OH2 9332   3.410   1.931   5.108 -0.9857 -0.3107  0.3811
 3109TIP3    H1 9333   3.444   1.851   5.069 -0.2952 -0.5866  1.5331
 3109TIP3    H2 9334   3.444   2.002   5.053  0.1666 -0.6815  0.6188
 3110TIP3   OH2 9335   1.889   0.576   0.852 -0.1778  0.2407  0.0472
 3110TIP3    H1 9336   1.812   0.544   0.805 -0.4444 -0.6178  1.0716
 3110TIP3    H2 9337   1.860   0.658   0.892 -0.9764 -0.7873  1.5939
 3111TIP3   OH2 9338   5.909   4.888   0.803  0.2419  0.0486  0.1199
 3111TIP3    H1 9339   5.984   4.938   0.833  0.2194 -0.9158  1.8900
 3111TIP3    H2 9340   5.834   4.930   0.846  0.0072 -0.2472  0.0005
 3112TIP3   OH2 9341   2.117   0.734   5.256  0.3895  0.4470 -0.5787
 3112TIP3    H1 9342   2.030   0.709   5.287  0.6802 -0.1233 -0.2262
 3112TIP3    H2 9343   2.174   0.721   5.332  0.5781  1.9722 -0.4482
 3113TIP3   OH2 9344   3.948   4.558   2.679  0.0743 -0.0939  0.2884
 3113TIP3    H1 9345   3.854   4.544   2.667  0.3498 -1.4945 -0.3607
 3113TIP3    H2 9346   3.960   4.558   2.774 -0.6012  0.2631  0.3786
 3114TIP3   OH2 9347   4.330   2.495   2.517  0.1455 -0.1525 -0.5521
 3114TIP3    H1 9348   4.241   2.512   2.486  0.0866  0.0479 -0.2713
 3114TIP3    H2 9349   4.328   2.520   2.609  0.5907  0.2062 -0.6398
 3115TIP3   OH2 9350   2.702   5.115   3.155  0.0887  0.0603  0.2783
 3115TIP3    H1 9351   2.642   5.042   3.143  0.7246 -0.4926  0.4784
 3115TIP3    H2 9352   2.772   5.081   3.211  0.6397  0.6741 -0.0243
 3116TIP3   OH2 9353   2.934   3.735   3.000 -0.1882  0.1334  0.1207
 3116TIP3    H1 9354   2.955   3.708   2.911 -0.7442  0.2641 -0.0555
 3116TIP3    H2 9355   2.857   3.791   2.990 -0.0971  0.3549  0.6562
 3117TIP3   OH2 9356   0.835   5.009   1.348  0.5555 -0.0101 -0.4724
 3117TIP3    H1 9357   0.854   5.012   1.442  0.8433  1.0005 -0.5622
 3117TIP3    H2 9358   0.899   5.068   1.309 -0.0360  0.1324 -1.2312
 3118TIP3   OH2 9359   0.602   0.242   2.033  0.0485  0.3032  0.1969
 3118TIP3    H1 9360   0.558   0.210   1.955  1.8178  0.1305 -0.7516
 3118TIP3    H2 9361   0.535   0.290   2.081 -1.1663  0.0219 -1.1962
 3119TIP3   OH2 9362   2.686   0.049   2.317 -0.1274  0.4585  0.1952
 3119TIP3    H1 9363   2.675  -0.020   2.251  0.0912  0.1402  0.4892
 3119TIP3    H2 9364   2.620   0.115   2.294  3.6327  3.0644 -3.7573
 3120TIP3   OH2 9365   2.334   0.776   0.970 -0.6020 -0.3138 -0.0367
 3120TIP3    H1 9366   2.381   0.845   1.017 -0.9064  0.6945 -1.1986
 3120TIP3    H2 9367   2.245   0.779   1.005 -1.0950  1.1110 -1.3671
 3121TIP3   OH2 9368   3.262   3.317   0.251  0.1347  0.2346  0.3389
 3121TIP3    H1 9369   3.304   3.378   0.313  0.7672  0.1099  0.0387
 3121TIP3    H2 9370   3.189   3.367   0.216  0.3664  0.6618  0.4482
 3122TIP3   OH2 9371   1.950   1.275   0.765 -0.0816 -0.0752 -0.5506
 3122TIP3    H1 9372   1.976   1.196   0.813  2.6044 -0.6850 -2.8664
 3122TIP3    H2 9373   1.864   1.254   0.730 -0.0635 -1.3835  0.1469
 3123TIP3   OH2 9374   3.275   4.129   3.357 -0.1445 -0.0086 -0.3424
 3123TIP3    H1 9375   3.244   4.215   3.328 -1.5340 -0.8891 -1.5110
 3123TIP3    H2 9376   3.368   4.128   3.332 -0.3387  0.8010 -1.1287
 3124TIP3   OH2 9377   6.360   3.955   4.232  0.5132 -0.2857  0.2225
 3124TIP3    H1 9378   6.275   3.914   4.213 -0.9063  2.0280  1.3722
 3124TIP3    H2 9379   6.380   3.927   4.322 -0.7827  1.9784  1.2591
 3125TIP3   OH2 9380   5.068   2.098   5.157  0.3863  0.3434  0.2045
 3125TIP3    H1 9381   5.035   2.082   5.246 -0.5768  0.7765 -0.0684
 3125TIP3    H2 9382   5.038   2.023   5.106 -1.0785  1.2293 -0.2733
 3126TIP3   OH2 9383   3.799   1.116   4.797 -0.2648  0.5029  0.3613
 3126TIP3    H1 9384   3.762   1.099   4.710  0.3249  0.8801  0.0349
 3126TIP3    H2 9385   3.787   1.034   4.844 -0.3093  0.1954 -0.1771
 3127TIP3   OH2 9386   0.236   6.028   2.005  0.5201  0.3122  0.6182
 3127TIP3    H1 9387   0.141   6.017   1.993  0.4806 -0.4113  1.5521
 3127TIP3    H2 9388   0.262   6.088   1.934 -0.6279  0.5057  0.3451
 3128TIP3   OH2 9389   5.696   3.399   1.588 -0.1161 -0.1055  0.1031
 3128TIP3    H1 9390   5.718   3.416   1.497  0.6326  0.4736  0.3945
 3128TIP3    H2 9391   5.748   3.462   1.638  1.4868 -2.1646  1.0990
 3129TIP3   OH2 9392   5.549   4.428   0.579  0.5860 -0.2387 -0.0300
 3129TIP3    H1 9393   5.560   4.435   0.674 -0.8941 -0.2207  0.1418
 3129TIP3    H2 9394   5.456   4.439   0.564  0.8424  0.0479 -1.5248
 3130TIP3   OH2 9395   5.919   5.397   0.224  0.2890  0.2149 -0.0008
 3130TIP3    H1 9396   5.870   5.324   0.263  0.5901  0.4204  0.7850
 3130TIP3    H2 9397   5.856   5.440   0.166 -0.2534  0.0339  0.4408
 3131TIP3   OH2 9398   0.936   5.880   5.270  0.0219  0.1040 -0.3222
 3131TIP3    H1 9399   0.958   5.942   5.340  3.8796  0.7432 -1.9504
 3131TIP3    H2 9400   0.899   5.934   5.201  2.3576  0.5501 -1.2991
 3132TIP3   OH2 9401   0.239   3.473   0.059 -0.2857 -0.0838  0.7438
 3132TIP3    H1 9402   0.276   3.400   0.109 -1.7642  0.5627  2.8464
 3132TIP3    H2 9403   0.234   3.545   0.121 -1.7121  0.8952 -0.4677
 3133TIP3   OH2 9404   4.846   4.378   3.996 -0.1330 -0.5847 -0.5093
 3133TIP3    H1 9405   4.801   4.366   3.912 -2.0696 -0.8798  0.5269
 3133TIP3    H2 9406   4.845   4.291   4.035 -2.9923  0.3316  1.6084
 3134TIP3   OH2 9407   3.331   3.110   4.613 -0.2468 -0.3965 -0.2859
 3134TIP3    H1 9408   3.241   3.130   4.639 -0.7010 -0.3822 -1.8329
 3134TIP3    H2 9409   3.333   3.015   4.605  0.1173 -0.4680  0.5798
 3135TIP3   OH2 9410   1.095   0.143   0.210  0.2285  0.1977 -0.6834
 3135TIP3    H1 9411   1.162   0.126   0.144 -0.3174  1.1042 -1.4728
 3135TIP3    H2 9412   1.058   0.228   0.186 -1.2921 -0.3538 -0.3233
 3136TIP3   OH2 9413   3.314   0.130   4.785  0.4882  0.3701  0.0692
 3136TIP3    H1 9414   3.283   0.046   4.818 -0.2891  1.3464  1.9295
 3136TIP3    H2 9415   3.407   0.133   4.808  0.4474  0.1389  0.2625
 3137TIP3   OH2 9416   3.762   4.512   0.629 -0.2597 -0.5860  0.5032
 3137TIP3    H1 9417   3.840   4.550   0.669  0.1345 -0.9847  0.1154
 3137TIP3    H2 9418   3.784   4.420   0.615 -0.6391 -0.6021 -0.0003
 3138TIP3   OH2 9419   5.519   4.242   1.919 -0.2115 -0.1016  0.5282
 3138TIP3    H1 9420   5.595   4.269   1.971 -0.9125  2.1245  0.4590
 3138TIP3    H2 9421   5.531   4.148   1.905  2.8302  0.3140  0.0541
 3139TIP3   OH2 9422   2.697   5.119   1.071  0.6515 -0.0407 -0.0333
 3139TIP3    H1 9423   2.725   5.043   1.121  1.1714 -0.1986 -0.5664
 3139TIP3    H2 9424   2.715   5.193   1.128  1.2591 -0.2213  0.0128
 3140TIP3   OH2 9425   4.841   5.416   2.259  0.1969  0.0272 -0.6457
 3140TIP3    H1 9426   4.789   5.337   2.271  1.8450 -0.7359  1.6971
 3140TIP3    H2 9427   4.932   5.387   2.272  0.8236  2.2833  0.1506
 3141TIP3   OH2 9428   5.119   5.367   3.099  0.2516 -0.1978  1.2011
 3141TIP3    H1 9429   5.095   5.336   3.186 -1.8327 -0.1977  0.6660
 3141TIP3    H2 9430   5.070   5.311   3.039 -0.7252  1.7581  0.1279
 3142TIP3   OH2 9431   4.911   4.215   1.429  0.0021 -0.1458 -0.1206
 3142TIP3    H1 9432   4.904   4.311   1.430  0.7423 -0.0812  0.9084
 3142TIP3    H2 9433   4.870   4.187   1.511 -0.9802 -0.7858 -0.8155
 3143TIP3   OH2 9434   5.195   5.667   4.419 -0.1715  0.1229  0.1042
 3143TIP3    H1 9435   5.248   5.687   4.496 -0.4186  0.9424  0.0617
 3143TIP3    H2 9436   5.258   5.656   4.348  0.0583 -0.6737  0.4306
 3144TIP3   OH2 9437   5.584   3.484   0.770  0.0686  0.0875  0.3763
 3144TIP3    H1 9438   5.631   3.561   0.740  0.7969 -0.4221  0.1880
 3144TIP3    H2 9439   5.551   3.508   0.857  1.1244  0.2704  0.7340
 3145TIP3   OH2 9440   3.841   2.852   2.693  0.7782  0.1016 -0.6111
 3145TIP3    H1 9441   3.867   2.928   2.745 -1.2637  0.2655  0.2201
 3145TIP3    H2 9442   3.882   2.778   2.738 -1.0981  0.2192  1.4237
 3146TIP3   OH2 9443   6.000   0.091   2.323  0.0938  0.2488 -0.5052
 3146TIP3    H1 9444   5.993   0.067   2.231  0.2189 -0.3560 -0.3568
 3146TIP3    H2 9445   5.945   0.027   2.369 -0.3084  0.8079 -0.2027
 3147TIP3   OH2 9446   4.525   5.386   4.051  0.1548  0.6113 -0.3426
 3147TIP3    H1 9447   4.563   5.437   4.122  0.0229  0.5627 -0.2365
 3147TIP3    H2 9448   4.475   5.449   4.000 -0.2115  0.5450 -0.0700
 3148TIP3   OH2 9449   5.976   4.053   3.977  0.3554 -0.5118 -0.3408
 3148TIP3    H1 9450   6.068   4.080   3.985  0.1944 -0.2748  0.7176
 3148TIP3    H2 9451   5.969   3.974   4.030 -0.2761 -0.0066  0.3295
 3149TIP3   OH2 9452   3.571   5.664   1.868 -0.1289 -0.1742 -0.6610
 3149TIP3    H1 9453   3.502   5.600   1.853 -0.8655  0.1484  1.2059
 3149TIP3    H2 9454   3.526   5.749   1.862 -0.0985  0.0128  1.4011
 3150TIP3   OH2 9455   6.081   3.433   2.033  0.1764 -0.2772  0.0411
 3150TIP3    H1 9456   6.114   3.431   1.943  0.3532  0.0246  0.0973
 3150TIP3    H2 9457   6.085   3.342   2.062  0.2998 -0.3470 -0.1927
 3151TIP3   OH2 9458   0.310   4.827   0.141 -0.1284 -0.1625  0.4735
 3151TIP3    H1 9459   0.260   4.748   0.164 -1.2816  0.7865  1.3082
 3151TIP3    H2 9460   0.402   4.800   0.148 -0.5012 -1.2058  1.5634
 3152TIP3   OH2 9461   0.634   4.437   1.986  0.4895 -0.4143  0.4875
 3152TIP3    H1 9462   0.614   4.478   2.070  0.4162  0.2195  0.1658
 3152TIP3    H2 9463   0.644   4.344   2.006 -1.3941 -0.5604  0.8997
 3153TIP3   OH2 9464   5.643   5.563   3.189  0.1024 -0.6037 -0.6376
 3153TIP3    H1 9465   5.607   5.475   3.198 -2.1810  0.1243 -2.2884
 3153TIP3    H2 9466   5.596   5.615   3.255  1.4219 -0.6069  0.3159
 3154TIP3   OH2 9467   6.366   0.363   1.604  0.2229 -0.2642 -0.1188
 3154TIP3    H1 9468   6.337   0.426   1.538 -0.2560  1.5959  1.7869
 3154TIP3    H2 9469   6.414   0.297   1.555  0.4039  1.3874 -2.2475
 3155TIP3   OH2 9470   0.782   5.288   4.045 -0.1086 -0.0653 -0.3952
 3155TIP3    H1 9471   0.692   5.277   4.014 -0.2191 -1.2037  0.3038
 3155TIP3    H2 9472   0.779   5.262   4.137  1.3504 -2.1483 -0.8925
 3156TIP3   OH2 9473   4.864   4.927   3.947  0.2546 -0.0459 -0.2457
 3156TIP3    H1 9474   4.914   4.857   3.989 -0.1293  0.3063  0.8049
 3156TIP3    H2 9475   4.782   4.885   3.921 -0.4814  0.2847  1.4691
 3157TIP3   OH2 9476   5.151   5.716   0.952  0.4579  1.1990 -0.2618
 3157TIP3    H1 9477   5.240   5.727   0.918 -0.1277 -1.0902 -2.6652
 3157TIP3    H2 9478   5.111   5.650   0.896 -1.5374 -0.6558  3.1600
 3158TIP3   OH2 9479   0.238   0.048   0.358  0.2207  0.1958 -0.4497
 3158TIP3    H1 9480   0.245   0.010   0.446  1.0887 -0.3806 -0.7669
 3158TIP3    H2 9481   0.267  -0.022   0.299 -0.4882  0.5361 -1.2060
 3159TIP3   OH2 9482   1.587   0.604   1.496 -0.5007  0.3238 -0.1670
 3159TIP3    H1 9483   1.626   0.553   1.567 -0.7345  1.1680  0.5753
 3159TIP3    H2 9484   1.662   0.642   1.451 -0.3485 -0.2494 -0.4029
 3160TIP3   OH2 9485   4.806   5.855   2.026  0.6892 -0.2739  0.1307
 3160TIP3    H1 9486   4.797   5.943   2.062  2.5818  0.1003 -0.2554
 3160TIP3    H2 9487   4.722   5.812   2.045  0.3934  1.0240  1.9074
 3161TIP3   OH2 9488   5.602   3.346   2.475  0.2117 -0.1907  0.7067
 3161TIP3    H1 9489   5.643   3.408   2.535  0.5248  0.3764 -0.0821
 3161TIP3    H2 9490   5.634   3.260   2.504  3.9818  0.3831 -1.3671
 3162TIP3   OH2 9491   4.892   4.149   2.788 -0.0375 -0.2821 -0.0436
 3162TIP3    H1 9492   4.966   4.162   2.847 -0.3290  1.5520 -0.0548
 3162TIP3    H2 9493   4.911   4.203   2.712 -1.2731  0.0163 -0.1613
 3163TIP3   OH2 9494   4.305   5.558   2.744 -0.1268  0.2939  0.3163
 3163TIP3    H1 9495   4.304   5.463   2.737  3.8974  0.1994 -0.0928
 3163TIP3    H2 9496   4.274   5.588   2.658 -1.6593 -0.5961  0.5360
 3164TIP3   OH2 9497   1.949  -0.004   0.915 -0.5897 -0.7515 -0.1001
 3164TIP3    H1 9498   1.962   0.091   0.910 -3.7951 -0.2875 -0.6354
 3164TIP3    H2 9499   1.984  -0.038   0.832 -0.4911  0.0944 -0.4081
 3165TIP3   OH2 9500   0.771   0.853   1.834 -0.7530  0.3224 -0.1257
 3165TIP3    H1 9501   0.678   0.875   1.846 -0.9569 -1.9286  3.2314
 3165TIP3    H2 9502   0.810   0.868   1.920  1.4208 -1.4168 -0.7607
 3166TIP3   OH2 9503   4.596   4.905   2.426 -0.0518  0.3660  0.1234
 3166TIP3    H1 9504   4.609   4.810   2.426 -1.6092  0.1203 -1.2273
 3166TIP3    H2 9505   4.511   4.918   2.468 -0.6629  1.0106 -1.2601
 3167TIP3   OH2 9506   3.272   0.990   4.773 -0.4949 -0.4198 -0.6256
 3167TIP3    H1 9507   3.236   0.938   4.845  0.2218  0.7206  0.5676
 3167TIP3    H2 9508   3.347   0.940   4.742 -0.5275 -0.6865 -0.2746
 3168TIP3   OH2 9509   0.096   0.065   1.539  0.2161 -0.2318  0.2032
 3168TIP3    H1 9510   0.111   0.142   1.595 -0.6855 -0.2520  0.4821
 3168TIP3    H2 9511   0.007   0.037   1.561  0.5955 -1.4373  0.1949
 3169TIP3   OH2 9512   4.053   3.709   0.055 -0.2859  0.1368  0.4201
 3169TIP3    H1 9513   4.034   3.711   0.149  0.7600 -1.1743  0.6815
 3169TIP3    H2 9514   3.990   3.647   0.020  1.2111 -1.6505  0.7598
 3170TIP3   OH2 9515   3.493   3.877   1.530 -0.4806  1.1501 -0.2922
 3170TIP3    H1 9516   3.521   3.921   1.610 -0.3266 -0.0876  0.3513
 3170TIP3    H2 9517   3.419   3.822   1.558  0.2643 -0.1104 -0.7661
 3171TIP3   OH2 9518   3.450   1.603   5.148 -0.4327  0.5914 -0.2559
 3171TIP3    H1 9519   3.442   1.639   5.059  0.2989 -0.2276 -0.6670
 3171TIP3    H2 9520   3.408   1.517   5.143 -0.6772  0.6832  0.2720
 3172TIP3   OH2 9521   0.269   3.594   2.223  0.3391 -0.3141 -0.2522
 3172TIP3    H1 9522   0.213   3.561   2.294 -0.6008  3.8419  1.0738
 3172TIP3    H2 9523   0.354   3.554   2.240 -0.1795 -0.3855  2.5020
 3173TIP3   OH2 9524   4.542   2.501   4.893  0.0020  0.0666 -0.1758
 3173TIP3    H1 9525   4.497   2.507   4.977 -2.2512 -0.8863 -1.2664
 3173TIP3    H2 9526   4.575   2.411   4.889 -0.2451 -0.0134 -0.4698
 3174TIP3   OH2 9527   5.633   2.077   0.747 -0.0554 -0.1807 -0.0438
 3174TIP3    H1 9528   5.581   2.031   0.681  0.1065 -0.8551  0.2963
 3174TIP3    H2 9529   5.697   2.013   0.776 -0.5308 -0.0982  1.2384
 3175TIP3   OH2 9530   5.533   4.349   1.108 -0.0380  0.7990 -0.5806
 3175TIP3    H1 9531   5.532   4.311   1.196 -0.0224 -1.0835 -1.3584
 3175TIP3    H2 9532   5.441   4.352   1.082  0.1311 -1.3045 -1.5613
 3176TIP3   OH2 9533   4.868   5.499   3.770 -0.1135  0.2064 -0.0767
 3176TIP3    H1 9534   4.903   5.439   3.836  0.5351 -0.2881 -0.8551
 3176TIP3    H2 9535   4.811   5.444   3.716 -0.5372  0.5754 -0.0015
 3177TIP3   OH2 9536   0.023   4.384   3.230 -0.0096  0.2159  0.4325
 3177TIP3    H1 9537  -0.014   4.467   3.258 -0.8801  0.0513 -0.1918
 3177TIP3    H2 9538   0.040   4.337   3.312 -1.2430  0.2810  0.7506
 3178TIP3   OH2 9539   0.538   2.458   2.716 -0.3278  0.2993 -0.0350
 3178TIP3    H1 9540   0.496   2.401   2.651  1.8530 -0.4422 -0.8302
 3178TIP3    H2 9541   0.530   2.546   2.679 -1.6446  0.2495  0.0935
 3179TIP3   OH2 9542   5.261   6.006   1.393  0.4948  0.5242 -0.1130
 3179TIP3    H1 9543   5.352   6.022   1.417  0.7324 -0.9446  0.0209
 3179TIP3    H2 9544   5.210   6.055   1.458  1.1824  0.1208  0.7420
 3180TIP3   OH2 9545   2.190   0.154   4.603  0.2072  0.6057 -0.3473
 3180TIP3    H1 9546   2.258   0.190   4.660  0.2384 -1.2201  0.8023
 3180TIP3    H2 9547   2.238   0.103   4.538  0.0686  1.3849 -1.0744
 3181TIP3   OH2 9548   0.134   4.753   3.097  0.2274 -0.0126  0.4705
 3181TIP3    H1 9549   0.154   4.681   3.037  0.4282  0.9164 -0.6196
 3181TIP3    H2 9550   0.039   4.755   3.102  0.1475  0.9210 -1.1245
 3182TIP3   OH2 9551   3.626   1.369   5.282  0.3529 -0.6682  0.1774
 3182TIP3    H1 9552   3.599   1.403   5.197 -0.3140  1.0702  1.0519
 3182TIP3    H2 9553   3.609   1.441   5.343  2.3446 -1.3103  1.5339
 3183TIP3   OH2 9554   3.178   5.999   3.617  0.1857  0.2606  1.0091
 3183TIP3    H1 9555   3.238   5.973   3.548 -1.3675  0.6286 -0.5192
 3183TIP3    H2 9556   3.232   6.046   3.680  1.4178  0.9605 -0.5326
 3184TIP3   OH2 9557   4.859   5.602   1.418  0.0360 -0.0239  0.2079
 3184TIP3    H1 9558   4.906   5.655   1.353 -0.7914  1.3251  0.6846
 3184TIP3    H2 9559   4.897   5.628   1.502  0.6796 -1.3214  0.3291
 3185TIP3   OH2 9560   5.967   4.401   2.863 -0.5594 -0.6369 -0.1562
 3185TIP3    H1 9561   5.989   4.319   2.817 -0.5698 -0.1566 -1.0276
 3185TIP3    H2 9562   5.999   4.470   2.805 -1.5946  0.0030  0.0269
 3186TIP3   OH2 9563   4.869   3.458   3.081  0.7395  0.1718  0.2099
 3186TIP3    H1 9564   4.803   3.469   3.149 -0.0430 -1.7153 -0.2120
 3186TIP3    H2 9565   4.951   3.484   3.123 -0.1107  1.6404  1.0187
 3187TIP3   OH2 9566   4.070   4.242   2.701  0.7554  0.2018 -0.4588
 3187TIP3    H1 9567   4.120   4.309   2.654  1.6777  0.2727  0.6081
 3187TIP3    H2 9568   4.082   4.263   2.793  1.6819 -1.8845 -0.0855
 3188TIP3   OH2 9569   0.449   2.532   1.659 -0.4310  0.4195  0.1091
 3188TIP3    H1 9570   0.534   2.555   1.622  0.1982 -1.4001  0.3673
 3188TIP3    H2 9571   0.423   2.609   1.710  0.9477  1.0804 -0.1786
 3189TIP3   OH2 9572   5.090   4.872   0.631  0.1993 -0.4394 -0.0059
 3189TIP3    H1 9573   5.105   4.887   0.537  0.4454 -1.6195 -0.1698
 3189TIP3    H2 9574   5.002   4.907   0.647  0.2932  0.0839 -0.5996
 3190TIP3   OH2 9575   3.139   4.254   2.991  0.3378  0.3560  0.0615
 3190TIP3    H1 9576   3.062   4.199   3.005 -2.4590  3.3321 -2.5664
 3190TIP3    H2 9577   3.128   4.326   3.054  0.7745  0.9873 -0.5837
 3191TIP3   OH2 9578   6.116   5.606   1.876  0.7153 -0.4886  0.5881
 3191TIP3    H1 9579   6.024   5.605   1.901  0.2993  1.8742 -0.7041
 3191TIP3    H2 9580   6.120   5.666   1.801  3.7154  1.5540  2.2822
 3192TIP3   OH2 9581   3.679   3.422   3.533  0.1811  0.4081 -0.3470
 3192TIP3    H1 9582   3.669   3.408   3.438  1.9734  0.6722 -0.6033
 3192TIP3    H2 9583   3.724   3.507   3.539 -0.8371  0.8747  0.7941
 3193TIP3   OH2 9584   6.017   4.665   2.319  0.0657  0.0356 -0.0736
 3193TIP3    H1 9585   5.998   4.733   2.383 -1.1952 -2.1417  1.9811
 3193TIP3    H2 9586   6.059   4.595   2.369 -1.5764 -2.0147 -1.4148
 3194TIP3   OH2 9587   0.390   4.523   0.430  0.0069 -0.6549 -0.4780
 3194TIP3    H1 9588   0.410   4.576   0.353  1.5201 -0.3006  0.1424
 3194TIP3    H2 9589   0.356   4.441   0.395 -1.5664  0.3995 -1.4617
 3195TIP3   OH2 9590   0.764   0.061   1.637  0.2993 -0.0115 -0.0320
 3195TIP3    H1 9591   0.757  -0.013   1.697 -0.7611  1.1562  1.3153
 3195TIP3    H2 9592   0.727   0.135   1.685  1.8904  1.5386 -1.1281
 3196TIP3   OH2 9593   4.478   4.137   1.648 -0.7054 -0.4163  0.7568
 3196TIP3    H1 9594   4.515   4.203   1.589 -1.1147 -0.9760 -0.1323
 3196TIP3    H2 9595   4.399   4.178   1.683  0.6629  0.7381  2.5680
 3197TIP3   OH2 9596   3.173   4.678   1.561 -1.0149 -0.2155 -0.4518
 3197TIP3    H1 9597   3.233   4.735   1.514 -1.4255  0.0496 -0.6568
 3197TIP3    H2 9598   3.153   4.608   1.499  0.4667 -1.2796  0.2253
 3198TIP3   OH2 9599   5.240   3.702   2.605  0.0526  0.6376  0.2688
 3198TIP3    H1 9600   5.213   3.634   2.543  1.0352  1.6818 -1.3101
 3198TIP3    H2 9601   5.171   3.768   2.600 -0.9834 -0.2754  1.9205
 3199TIP3   OH2 9602   5.652   4.981   0.674  0.3872 -0.0377 -0.0212
 3199TIP3    H1 9603   5.658   4.961   0.581  1.1940  0.1290 -0.0122
 3199TIP3    H2 9604   5.639   4.896   0.716  2.2688 -0.4004 -0.1076
 3200TIP3   OH2 9605   1.052   3.028   2.137 -0.4798 -0.0983  0.3278
 3200TIP3    H1 9606   1.044   3.033   2.042  2.2862  1.3454  0.1438
 3200TIP3    H2 9607   1.077   2.937   2.154  0.6165  0.0420 -0.4789
 3201TIP3   OH2 9608   6.224   3.500   3.279 -0.1622  0.3120  0.1934
 3201TIP3    H1 9609   6.246   3.432   3.215  0.3128  2.1847 -1.6888
 3201TIP3    H2 9610   6.295   3.497   3.343  0.3354 -0.3587 -0.3799
 3202TIP3   OH2 9611   1.695   0.858   0.163 -0.0184  0.1434  0.5946
 3202TIP3    H1 9612   1.774   0.909   0.179 -0.6539  1.4638 -0.4396
 3202TIP3    H2 9613   1.624   0.920   0.171 -0.7554 -0.3893 -1.4273
 3203TIP3   OH2 9614   4.246   3.206   2.179  0.1172  0.3476 -0.5652
 3203TIP3    H1 9615   4.275   3.118   2.155 -1.3447  0.1495 -1.6098
 3203TIP3    H2 9616   4.239   3.253   2.096 -1.0479  0.8529 -0.1851
 3204TIP3   OH2 9617   6.130   4.698   0.192 -0.1597  0.3527 -0.4942
 3204TIP3    H1 9618   6.052   4.724   0.142  0.3297  1.2610 -0.7944
 3204TIP3    H2 9619   6.109   4.722   0.282 -0.8455 -0.8345 -0.3211
 3205TIP3   OH2 9620   5.355   2.949   3.071 -0.3187  0.1473  0.1334
 3205TIP3    H1 9621   5.304   2.949   2.990  1.6738  1.3710 -1.1385
 3205TIP3    H2 9622   5.408   2.869   3.067 -1.5587 -0.7582  1.1322
 3206TIP3   OH2 9623   2.869   5.721   0.822  0.3637  0.0763  0.5063
 3206TIP3    H1 9624   2.868   5.687   0.733 -0.1374  1.0328  0.1447
 3206TIP3    H2 9625   2.853   5.644   0.877 -2.3067 -0.0296 -0.3778
 3207TIP3   OH2 9626   0.314   5.194   4.588 -0.6498  0.2638  0.7969
 3207TIP3    H1 9627   0.343   5.147   4.510 -1.4696  0.8553  0.1190
 3207TIP3    H2 9628   0.351   5.146   4.661  1.6763  0.7505 -0.0227
 3208TIP3   OH2 9629   0.464   0.143   1.825  0.1218 -0.2993 -0.4716
 3208TIP3    H1 9630   0.452   0.193   1.744 -1.4801  0.9911  0.5340
 3208TIP3    H2 9631   0.475   0.052   1.796 -0.8521  0.0861 -2.1035
 3209TIP3   OH2 9632   5.880   2.468   5.126  0.0734 -0.3762 -0.5818
 3209TIP3    H1 9633   5.922   2.552   5.139 -1.2837 -0.1465  3.0405
 3209TIP3    H2 9634   5.952   2.405   5.118  1.1264  0.4804  1.8429
 3210TIP3   OH2 9635   5.123   4.900   1.098 -0.7402  0.3642  0.6516
 3210TIP3    H1 9636   5.168   4.937   1.022 -0.3603 -0.0777  0.6629
 3210TIP3    H2 9637   5.030   4.918   1.082 -0.6889 -0.0271 -0.0755
 3211TIP3   OH2 9638   4.668   5.025   2.986 -0.2643 -0.1055 -0.1575
 3211TIP3    H1 9639   4.762   5.038   2.996 -0.0153 -1.3714 -0.8282
 3211TIP3    H2 9640   4.658   4.932   2.967 -1.6409  0.0473 -0.2394
 3212TIP3   OH2 9641   4.740   2.737   1.901  0.2214 -0.6389  0.0040
 3212TIP3    H1 9642   4.675   2.687   1.852 -1.3806  0.9772  0.4266
 3212TIP3    H2 9643   4.792   2.781   1.834 -0.3211 -0.4418 -0.2853
 3213TIP3   OH2 9644   2.769   5.260   1.668 -0.4717 -0.1763 -0.2533
 3213TIP3    H1 9645   2.842   5.199   1.661 -1.4398 -1.3182 -0.5851
 3213TIP3    H2 9646   2.699   5.221   1.615 -1.3078  0.9162  0.0084
 3214TIP3   OH2 9647   5.489   4.505   1.790 -0.3487 -0.3754  0.1510
 3214TIP3    H1 9648   5.471   4.538   1.878 -0.4120  0.3546 -0.1321
 3214TIP3    H2 9649   5.509   4.412   1.803 -0.7181 -0.3582  0.8910
 3215TIP3   OH2 9650   0.508   3.575   1.498 -0.1806 -0.0198  0.0935
 3215TIP3    H1 9651   0.415   3.593   1.510  0.0205  1.1364 -0.0857
 3215TIP3    H2 9652   0.528   3.509   1.565 -0.8666  0.5891  0.9097
 3216TIP3   OH2 9653   5.428   4.180   2.734 -0.1366 -0.2964 -0.1067
 3216TIP3    H1 9654   5.522   4.187   2.754 -0.2783 -0.0683  0.5068
 3216TIP3    H2 9655   5.400   4.101   2.779 -0.5417  0.4340  0.9575
 3217TIP3   OH2 9656   5.121   5.218   1.068  0.0258 -0.4151  0.6560
 3217TIP3    H1 9657   5.114   5.312   1.086 -0.3778 -0.2572 -0.3049
 3217TIP3    H2 9658   5.149   5.213   0.977 -0.6708 -1.2400  0.4862
 3218TIP3   OH2 9659   1.992   3.828   4.333 -0.1420 -1.1643  0.4503
 3218TIP3    H1 9660   1.935   3.760   4.366 -0.4958 -0.9906  0.2007
 3218TIP3    H2 9661   1.996   3.813   4.238  0.0903 -1.0771  0.4454
 3219TIP3   OH2 9662   0.385   4.067   5.096  0.0422 -0.3539  0.1372
 3219TIP3    H1 9663   0.410   4.081   5.187  0.9611  0.9816 -0.3132
 3219TIP3    H2 9664   0.464   4.034   5.053 -0.1752 -0.2557 -0.3469
 3220TIP3   OH2 9665   6.324   0.000   1.624 -0.1559  0.4531  0.3836
 3220TIP3    H1 9666   6.275   0.045   1.555  1.3385  0.9981 -0.3519
 3220TIP3    H2 9667   6.270   0.010   1.702 -1.6124  0.3028 -0.5875
 3221TIP3   OH2 9668   1.082   0.239   2.798  0.6570  0.8892 -0.4848
 3221TIP3    H1 9669   1.048   0.321   2.832  0.8942  0.5732  0.5435
 3221TIP3    H2 9670   1.004   0.183   2.790  0.5771  1.0197 -0.6272
 3222TIP3   OH2 9671   6.156   6.120   2.269 -0.6220 -0.0689  0.6691
 3222TIP3    H1 9672   6.213   6.049   2.240 -1.4065 -0.4234  0.0092
 3222TIP3    H2 9673   6.175   6.129   2.363 -0.1262 -0.7807  0.6393
 3223TIP3   OH2 9674   2.113   2.994   4.916 -0.1040  0.4748  0.1107
 3223TIP3    H1 9675   2.102   2.933   4.843 -0.2690 -0.6178  1.0312
 3223TIP3    H2 9676   2.024   3.014   4.944 -0.0641  1.5705 -0.5344
 3224TIP3   OH2 9677   1.660   0.812   0.574 -0.2400  0.2772 -0.4598
 3224TIP3    H1 9678   1.699   0.893   0.608 -1.1384  0.9412 -1.0106
 3224TIP3    H2 9679   1.578   0.840   0.535  0.2624 -0.6527 -2.1915
 3225TIP3   OH2 9680   3.786   5.816   1.780 -0.4220  0.5795  0.1933
 3225TIP3    H1 9681   3.731   5.739   1.796  1.4118 -0.5822  1.1220
 3225TIP3    H2 9682   3.848   5.817   1.853  0.3945  2.2105 -0.4882
 3226TIP3   OH2 9683   4.934   4.554   0.086  0.1585  0.6744 -0.3073
 3226TIP3    H1 9684   4.944   4.513   0.000  0.4372  1.7366 -0.7923
 3226TIP3    H2 9685   4.853   4.516   0.121  1.4258 -1.7097  0.0902
 3227TIP3   OH2 9686   4.209   3.782   0.860  0.1817  0.3413 -0.2397
 3227TIP3    H1 9687   4.161   3.795   0.942 -0.1731 -0.0378 -0.3870
 3227TIP3    H2 9688   4.209   3.868   0.819 -0.5894  0.2887 -0.3557
 3228TIP3   OH2 9689   3.513   3.604   1.644 -0.1993  0.1550 -0.0540
 3228TIP3    H1 9690   3.475   3.623   1.559  1.4263 -0.8057 -1.0287
 3228TIP3    H2 9691   3.450   3.546   1.686 -1.8733  2.0921  0.1595
 3229TIP3   OH2 9692   4.672   4.613   1.497  0.2400  0.2470 -0.1352
 3229TIP3    H1 9693   4.628   4.673   1.437  0.1255  0.1076 -0.1894
 3229TIP3    H2 9694   4.646   4.643   1.584 -2.6428 -1.8568 -0.2014
 3230TIP3   OH2 9695   2.846   3.399   0.548 -0.5961 -0.0502 -0.2453
 3230TIP3    H1 9696   2.915   3.465   0.544 -0.6397  0.0861  1.0044
 3230TIP3    H2 9697   2.892   3.317   0.562 -0.6108 -0.1503 -0.7614
 3231TIP3   OH2 9698   1.922   1.268   5.159 -0.1678 -0.1317 -0.5834
 3231TIP3    H1 9699   1.894   1.273   5.068 -0.7419 -1.0696 -0.4666
 3231TIP3    H2 9700   1.876   1.191   5.194 -2.4920  2.0815  1.3993
 3232TIP3   OH2 9701   6.078   5.888   3.431  0.1593 -0.4119  0.7536
 3232TIP3    H1 9702   6.060   5.938   3.352 -0.0295  0.0257  1.0676
 3232TIP3    H2 9703   5.993   5.882   3.475  0.6676  1.3889  2.0866
 3233TIP3   OH2 9704   5.417   4.929   1.780 -0.2946  0.1017  0.4287
 3233TIP3    H1 9705   5.441   4.902   1.869  0.9921  0.9540  0.3608
 3233TIP3    H2 9706   5.330   4.968   1.790  0.2550  1.0919  1.5048
 3234TIP3   OH2 9707   4.429   4.193   0.794 -0.3376  0.1562  0.3779
 3234TIP3    H1 9708   4.436   4.274   0.743 -1.1837  1.5018  2.3267
 3234TIP3    H2 9709   4.520   4.167   0.810 -0.0492 -0.8759 -2.6506
 3235TIP3   OH2 9710   5.280   4.327   0.877  0.0156 -0.5553 -0.3489
 3235TIP3    H1 9711   5.254   4.336   0.785  0.1861 -0.6950 -0.4099
 3235TIP3    H2 9712   5.234   4.249   0.907 -2.7488  1.3763  0.6275
 3236TIP3   OH2 9713   2.579   3.759   1.489  0.1292  0.4098 -0.2779
 3236TIP3    H1 9714   2.541   3.845   1.477 -0.2876  0.6122  2.2336
 3236TIP3    H2 9715   2.672   3.776   1.507  0.1844  0.2851 -0.4401
 3237TIP3   OH2 9716   2.050   2.340   4.902 -0.0602 -0.8598 -0.8016
 3237TIP3    H1 9717   2.082   2.339   4.812 -0.3318 -0.9583 -0.8987
 3237TIP3    H2 9718   2.070   2.428   4.934 -0.9916 -0.4452 -1.3383
 3238TIP3   OH2 9719   0.309   3.693   2.907 -0.6023  0.1846 -0.3547
 3238TIP3    H1 9720   0.216   3.669   2.914 -1.0649  1.6702 -1.0118
 3238TIP3    H2 9721   0.312   3.784   2.937  0.8415 -0.1987  0.7126
 3239TIP3   OH2 9722   0.050   5.553   1.928 -0.5783  0.4498  0.3387
 3239TIP3    H1 9723   0.021   5.560   1.837 -0.2965 -0.6930  0.1428
 3239TIP3    H2 9724   0.139   5.587   1.928 -0.1814 -0.5577 -0.0480
 3240TIP3   OH2 9725   0.386   4.218   1.871  0.9847 -0.5418  0.4638
 3240TIP3    H1 9726   0.407   4.190   1.782  2.6549 -1.8652  1.2335
 3240TIP3    H2 9727   0.457   4.183   1.924 -1.2170 -1.8395  2.6696
 3241TIP3   OH2 9728   1.911   3.710   5.013  0.9187  0.4898 -0.5004
 3241TIP3    H1 9729   1.983   3.770   5.030  0.6660  1.3180 -2.1999
 3241TIP3    H2 9730   1.951   3.636   4.966  0.6283  1.1200 -1.7681
 3242TIP3   OH2 9731   4.904   5.040   5.116 -0.0877 -0.3439 -0.1509
 3242TIP3    H1 9732   4.929   5.076   5.031  0.6846 -0.2115  0.1276
 3242TIP3    H2 9733   4.820   4.998   5.100  0.1036 -0.4203 -1.0121
 3243TIP3   OH2 9734   4.502   5.562   0.684 -0.4203 -0.0167 -0.6933
 3243TIP3    H1 9735   4.589   5.531   0.658 -0.3433  1.0386 -1.7859
 3243TIP3    H2 9736   4.519   5.630   0.750 -0.4496 -0.3030 -0.3909
 3244TIP3   OH2 9737   6.338   3.781   2.920 -0.5329 -0.2716 -0.1855
 3244TIP3    H1 9738   6.257   3.733   2.903 -0.8664  0.4416 -0.6219
 3244TIP3    H2 9739   6.319   3.871   2.895 -0.0142  0.1648  0.9732
 3245TIP3   OH2 9740   0.986   4.893   3.754  0.4268  0.4763  0.3752
 3245TIP3    H1 9741   0.965   4.986   3.752 -1.0615  0.1858  1.7262
 3245TIP3    H2 9742   0.912   4.851   3.711  1.2004 -0.0762 -0.4353
 3246TIP3   OH2 9743   1.850   1.821   2.101  0.7946 -0.1309 -0.2167
 3246TIP3    H1 9744   1.901   1.887   2.149 -0.0543  0.4755 -0.1360
 3246TIP3    H2 9745   1.865   1.841   2.009 -1.0578  1.4545 -0.2080
 3247TIP3   OH2 9746   5.441   1.663   0.920  0.6564 -0.1404  0.3304
 3247TIP3    H1 9747   5.474   1.718   0.991  1.3098  0.5763 -0.5155
 3247TIP3    H2 9748   5.371   1.714   0.881 -0.5358 -1.0701  1.2383
 3248TIP3   OH2 9749   3.824   5.312   1.627 -0.1038  0.0490  1.1839
 3248TIP3    H1 9750   3.864   5.395   1.599  1.0695 -0.6913  0.6192
 3248TIP3    H2 9751   3.732   5.320   1.601 -0.2797  1.6408  2.2005
 3249TIP3   OH2 9752   5.608   4.042   2.481 -0.5458  0.2405 -0.0692
 3249TIP3    H1 9753   5.589   4.068   2.391  1.3760 -0.7516 -0.7904
 3249TIP3    H2 9754   5.560   3.961   2.494  1.2006 -0.9887 -1.0851
 3250TIP3   OH2 9755   1.951   5.063   3.571 -0.4327 -0.4197  0.3328
 3250TIP3    H1 9756   2.043   5.040   3.554 -0.9176 -1.9143 -0.3154
 3250TIP3    H2 9757   1.916   4.990   3.621 -2.4955 -2.0724 -3.3262
 3251TIP3   OH2 9758   0.707   5.756   3.167 -0.3318 -0.3725 -0.1025
 3251TIP3    H1 9759   0.639   5.822   3.163  0.8744  0.9429  0.8269
 3251TIP3    H2 9760   0.759   5.770   3.088 -0.8057 -1.0314 -0.5390
 3252TIP3   OH2 9761   0.223   5.747   2.871  0.6236  0.2634  0.1364
 3252TIP3    H1 9762   0.134   5.710   2.874 -0.1974  2.2131  0.4103
 3252TIP3    H2 9763   0.276   5.684   2.920 -0.7551 -0.5131  0.6732
 3253TIP3   OH2 9764   2.276   0.770   3.108  0.6072 -0.0721  0.0563
 3253TIP3    H1 9765   2.361   0.770   3.064  0.5754 -1.3357  0.0006
 3253TIP3    H2 9766   2.294   0.734   3.195 -0.0252 -1.1154 -0.2453
 3254TIP3   OH2 9767   2.145   4.231   4.200 -0.3402  0.6578 -0.1835
 3254TIP3    H1 9768   2.145   4.177   4.279 -0.4595  0.6995 -0.1552
 3254TIP3    H2 9769   2.080   4.190   4.143  0.8918 -0.3187 -0.9031
 3255TIP3   OH2 9770   0.606   5.465   4.593  0.0776 -0.2781 -0.0826
 3255TIP3    H1 9771   0.599   5.395   4.528  0.6443 -1.2712  0.9191
 3255TIP3    H2 9772   0.675   5.522   4.559 -0.1306 -0.3857 -0.7082
 3256TIP3   OH2 9773   1.663   0.044   1.764 -0.2166  0.1459 -0.1768
 3256TIP3    H1 9774   1.592   0.009   1.818 -1.5512  1.8437 -0.7814
 3256TIP3    H2 9775   1.652   0.002   1.679  1.1146 -1.5602  0.4607
 3257TIP3   OH2 9776   1.605   0.334   1.697  0.6099  0.1198 -0.7974
 3257TIP3    H1 9777   1.520   0.329   1.740  1.0746  1.0076  0.2430
 3257TIP3    H2 9778   1.634   0.424   1.712  2.7013 -0.7806  0.7301
 3258TIP3   OH2 9779   0.165   5.188   2.185  0.2949  0.3819  0.0864
 3258TIP3    H1 9780   0.149   5.281   2.165 -0.5448  0.0953 -0.6315
 3258TIP3    H2 9781   0.109   5.141   2.124  0.1020 -0.5892  0.9975
 3259TIP3   OH2 9782   4.646   5.535   2.504 -0.0211 -0.1906 -0.4873
 3259TIP3    H1 9783   4.580   5.603   2.492 -1.4535 -0.9835  2.3944
 3259TIP3    H2 9784   4.669   5.507   2.416 -4.3148 -0.6426 -1.5637
 3260TIP3   OH2 9785   0.144   5.828   0.569 -0.4143  0.4223 -0.1898
 3260TIP3    H1 9786   0.132   5.810   0.662 -1.4625 -0.0374 -0.4042
 3260TIP3    H2 9787   0.108   5.916   0.557 -1.2514  0.0584 -0.3574
 3261TIP3   OH2 9788   2.727   0.607   2.315 -0.3750  0.0652 -0.8141
 3261TIP3    H1 9789   2.699   0.517   2.299  1.6804 -0.7755  0.1394
 3261TIP3    H2 9790   2.821   0.607   2.296 -0.5192  2.2452 -1.7192
 3262TIP3   OH2 9791   5.237   0.079   2.198 -0.1445  0.4946  0.0508
 3262TIP3    H1 9792   5.320   0.116   2.226  0.0203  0.3752 -0.2781
 3262TIP3    H2 9793   5.234   0.095   2.103  0.8288 -2.0923 -0.4540
 3263TIP3   OH2 9794   1.575   5.613   3.006 -0.2348  0.0111  0.1134
 3263TIP3    H1 9795   1.493   5.651   3.038  0.4290  0.5737  1.1557
 3263TIP3    H2 9796   1.620   5.685   2.962 -1.2103 -0.7887 -2.2845
 3264TIP3   OH2 9797   5.429   3.475   1.249 -0.3138 -0.3724  0.2203
 3264TIP3    H1 9798   5.364   3.535   1.286  0.0464  0.2013 -0.0685
 3264TIP3    H2 9799   5.379   3.422   1.186 -0.3380  0.6549 -0.6429
 3265TIP3   OH2 9800   6.008   3.803   1.775  0.0135  0.0640  0.2740
 3265TIP3    H1 9801   5.938   3.866   1.789  0.1995  0.4959 -0.6968
 3265TIP3    H2 9802   6.077   3.853   1.731  0.0912 -0.8567 -0.6676
 3266TIP3   OH2 9803   1.184   4.748   3.409 -0.0896  0.0179  0.3088
 3266TIP3    H1 9804   1.183   4.764   3.315 -0.1441 -1.6555  0.0053
 3266TIP3    H2 9805   1.229   4.824   3.446 -0.1606  0.7385 -1.0515
 3267TIP3   OH2 9806   4.493   3.874   1.487 -0.2469  0.1990 -0.4861
 3267TIP3    H1 9807   4.463   3.787   1.514  1.8401 -1.0634 -2.0153
 3267TIP3    H2 9808   4.461   3.933   1.554  1.1143 -2.2150  2.3834
 3268TIP3   OH2 9809   0.177   4.431   2.499  0.0295  0.2968  0.3716
 3268TIP3    H1 9810   0.259   4.474   2.523 -0.5822  1.5736  0.2131
 3268TIP3    H2 9811   0.182   4.421   2.404  0.4138 -0.4857  0.4754
 3269TIP3   OH2 9812   2.782   4.839   2.712  0.1907  0.0070 -0.7229
 3269TIP3    H1 9813   2.747   4.928   2.716  0.1882  0.0869 -2.3763
 3269TIP3    H2 9814   2.705   4.783   2.723  0.1822  0.2016  0.2467
 3270TIP3   OH2 9815   0.610   4.548   2.232 -0.5013 -0.3102 -0.3413
 3270TIP3    H1 9816   0.545   4.613   2.256 -0.4006 -0.3006 -0.0926
 3270TIP3    H2 9817   0.602   4.480   2.300 -1.3826 -1.1036 -1.2220
 3271TIP3   OH2 9818   4.427   2.569   0.767  0.9687 -0.5150 -0.1276
 3271TIP3    H1 9819   4.513   2.528   0.763  0.3294 -1.7880 -1.1311
 3271TIP3    H2 9820   4.367   2.498   0.792  0.4479  0.7406  2.3853
 3272TIP3   OH2 9821   5.712   5.211   4.815 -0.2921  0.0794 -0.4794
 3272TIP3    H1 9822   5.784   5.149   4.830  0.9003  1.6783  0.5939
 3272TIP3    H2 9823   5.633   5.158   4.823  0.6262 -0.9815  2.3872
 3273TIP3   OH2 9824   0.245   4.891   2.768 -0.6249  0.1662  0.0720
 3273TIP3    H1 9825   0.317   4.871   2.828 -1.0838 -4.2720 -0.7036
 3273TIP3    H2 9826   0.192   4.955   2.816  1.0641 -0.3777  2.8180
 3274TIP3   OH2 9827   6.336   5.715   1.387 -0.4965  0.2146  0.0651
 3274TIP3    H1 9828   6.385   5.736   1.467  1.4478 -1.9392 -0.4973
 3274TIP3    H2 9829   6.303   5.799   1.356 -0.4726  1.2043  2.6107
 3275TIP3   OH2 9830   0.136   3.535   4.817  0.4932  0.2029  0.1765
 3275TIP3    H1 9831   0.106   3.608   4.764  0.0739 -0.9129 -1.1591
 3275TIP3    H2 9832   0.064   3.517   4.877  0.0759  0.0586 -0.3662
 3276TIP3   OH2 9833   2.078   4.702   2.599 -0.0076  0.7618  0.3070
 3276TIP3    H1 9834   2.026   4.781   2.588 -0.4230  0.4501 -0.0003
 3276TIP3    H2 9835   2.075   4.660   2.513 -0.8130 -0.2142  0.8042
 3277TIP3   OH2 9836   5.531   2.760   0.581  0.1647  0.7822 -0.1239
 3277TIP3    H1 9837   5.485   2.706   0.645 -0.1752  1.2797  0.0523
 3277TIP3    H2 9838   5.605   2.796   0.629  1.0759 -0.4570 -0.5500
 3278TIP3   OH2 9839   6.210   5.890   3.746 -0.2711  0.2000  0.3530
 3278TIP3    H1 9840   6.192   5.887   3.840 -0.4726  0.7341  0.3353
 3278TIP3    H2 9841   6.127   5.917   3.706 -0.2087 -0.0924  0.0117
 3279TIP3   OH2 9842   2.410   4.359   3.196  0.6073  0.3148  0.5090
 3279TIP3    H1 9843   2.359   4.422   3.245  1.1185  1.2095 -0.0839
 3279TIP3    H2 9844   2.357   4.279   3.195 -0.0545  0.7472  1.2362
 3280TIP3   OH2 9845   1.365   5.823   1.798  0.1157 -0.6751 -0.6163
 3280TIP3    H1 9846   1.291   5.780   1.755 -0.2258  1.1184 -1.9350
 3280TIP3    H2 9847   1.433   5.827   1.730  1.0520 -1.4159  0.2728
 3281TIP3   OH2 9848   0.265   4.683   2.067  0.0152 -0.9795 -0.0209
 3281TIP3    H1 9849   0.174   4.700   2.089 -0.1089 -0.1286 -1.1194
 3281TIP3    H2 9850   0.279   4.731   1.985  1.9801  0.4853  1.1051
 3282TIP3   OH2 9851   2.274   4.129   3.235 -0.0131 -0.1369  0.3519
 3282TIP3    H1 9852   2.189   4.163   3.206  0.2424  0.6902  0.5628
 3282TIP3    H2 9853   2.297   4.063   3.170 -0.0756  0.7507 -0.5639
 3283TIP3   OH2 9854   1.077   5.737   1.646  0.4326 -0.6670 -0.6316
 3283TIP3    H1 9855   1.001   5.704   1.597  0.2302  0.1065 -0.8490
 3283TIP3    H2 9856   1.041   5.801   1.706  0.8200 -0.8706 -0.1807
 3284TIP3   OH2 9857   1.078   5.527   4.356  0.0708  0.2583  0.5158
 3284TIP3    H1 9858   1.170   5.529   4.329  0.2737 -1.4093  0.9980
 3284TIP3    H2 9859   1.030   5.567   4.283  0.9867 -0.7150 -0.6451
 3285TIP3   OH2 9860   6.488   5.533   1.651 -0.4166 -0.1208 -0.3143
 3285TIP3    H1 9861   6.428   5.460   1.668 -0.2912 -0.3468 -0.8468
 3285TIP3    H2 9862   6.524   5.515   1.565  1.8072 -0.9235  0.7618
 3286TIP3   OH2 9863   2.159   5.442   3.864  0.1746  0.0661 -0.1188
 3286TIP3    H1 9864   2.199   5.357   3.885 -0.7415 -0.3199  0.0862
 3286TIP3    H2 9865   2.097   5.422   3.794  1.6064  0.9649 -1.6688
 3287TIP3   OH2 9866   5.532   3.045   0.734 -1.2440 -0.0282 -0.1711
 3287TIP3    H1 9867   5.557   3.104   0.663 -1.8823  2.2395  1.4338
 3287TIP3    H2 9868   5.441   3.066   0.753 -1.0900 -0.5914  1.3233
 3288TIP3   OH2 9869   1.075   3.889   2.829 -0.2745  0.2349  0.4638
 3288TIP3    H1 9870   1.064   3.867   2.922 -0.7582 -1.6343 -0.0186
 3288TIP3    H2 9871   0.991   3.926   2.802  0.4770  2.6034  1.2273
 3289TIP3   OH2 9872   1.590   0.099   2.179 -0.2758  0.2639 -0.4948
 3289TIP3    H1 9873   1.583   0.178   2.233  1.6146  0.6634 -0.7795
 3289TIP3    H2 9874   1.674   0.060   2.205 -0.1224 -0.4204 -1.9671
 3290TIP3   OH2 9875   0.168   5.139   2.876 -0.3828  0.5291 -0.5235
 3290TIP3    H1 9876   0.149   5.225   2.838  0.7781  0.9416 -0.1849
 3290TIP3    H2 9877   0.140   5.148   2.968  1.3312  1.1237 -0.0351
 3291TIP3   OH2 9878   0.982   3.622   2.700 -0.2047  0.1915  0.4199
 3291TIP3    H1 9879   1.027   3.582   2.626 -1.5880 -1.2917  0.3697
 3291TIP3    H2 9880   1.005   3.715   2.694  0.5689 -0.0913 -1.2339
 3292TIP3   OH2 9881   5.899   5.231   2.435 -0.2396 -0.0314 -0.0557
 3292TIP3    H1 9882   5.938   5.170   2.497 -0.7519  0.1355  0.4297
 3292TIP3    H2 9883   5.810   5.245   2.467 -0.2078  0.7700 -0.3114
 3293TIP3   OH2 9884   1.359   3.905   2.020 -0.1770  0.2674  0.3758
 3293TIP3    H1 9885   1.368   3.816   2.054  1.3868 -0.5565 -2.0845
 3293TIP3    H2 9886   1.422   3.956   2.071  1.8038 -0.8668 -0.8581
 3294TIP3   OH2 9887   5.745   4.494   3.613 -0.0670 -0.1277  0.4153
 3294TIP3    H1 9888   5.750   4.590   3.611 -0.3819 -0.1060  0.5196
 3294TIP3    H2 9889   5.772   4.466   3.526 -0.0313  0.0603  0.3659
 3295TIP3   OH2 9890   0.144   3.927   5.209 -0.2349 -0.4366  0.3687
 3295TIP3    H1 9891   0.155   3.874   5.130  1.1214 -0.3132  0.4514
 3295TIP3    H2 9892   0.168   4.015   5.181  2.0979 -0.7237  1.3536
 3296TIP3   OH2 9893   5.870   1.023   1.556  0.2187  0.6381  0.0110
 3296TIP3    H1 9894   5.953   1.054   1.591  0.4454  0.0838 -0.0290
 3296TIP3    H2 9895   5.803   1.071   1.606  0.5027 -1.4619  2.4883
 3297TIP3   OH2 9896   5.677   2.591   3.563  0.3156  0.2486 -0.1124
 3297TIP3    H1 9897   5.671   2.516   3.622  1.3301  0.3610  0.1600
 3297TIP3    H2 9898   5.765   2.584   3.525 -0.2802  0.2540 -1.5187
 3298TIP3   OH2 9899   1.537   4.446   2.698  0.3144 -0.0575 -0.2308
 3298TIP3    H1 9900   1.442   4.437   2.704  0.5007 -0.7570  1.8149
 3298TIP3    H2 9901   1.558   4.518   2.758  1.1523 -0.3967 -0.1125
 3299TIP3   OH2 9902   5.838   0.199   3.003  0.0490 -0.2010 -0.0474
 3299TIP3    H1 9903   5.868   0.160   3.085 -1.4033 -0.0411  0.5697
 3299TIP3    H2 9904   5.755   0.155   2.985 -0.0941  0.4326 -0.9441
 3300TIP3   OH2 9905   1.794   6.067   2.863  0.0178  0.2276 -0.0065
 3300TIP3    H1 9906   1.788   5.971   2.865 -1.2275  0.3184  1.1652
 3300TIP3    H2 9907   1.803   6.088   2.770  1.5253 -1.0834 -0.1834
 3301TIP3   OH2 9908   0.750   1.586   0.282 -0.0992  0.2561 -0.4167
 3301TIP3    H1 9909   0.665   1.589   0.326  0.4114  1.0854  0.5604
 3301TIP3    H2 9910   0.804   1.532   0.340  1.0742  2.7915  0.9121
 3302TIP3   OH2 9911   6.379   0.751   3.268 -0.7472  0.4133 -0.1455
 3302TIP3    H1 9912   6.307   0.813   3.255 -1.1192  0.3405  1.4010
 3302TIP3    H2 9913   6.344   0.667   3.238 -0.8481  0.6279 -0.6258
 3303TIP3   OH2 9914   6.099   5.359   5.180  0.4052  0.1604  0.2267
 3303TIP3    H1 9915   6.041   5.362   5.104 -0.5924  1.0528  1.0071
 3303TIP3    H2 9916   6.168   5.298   5.155  0.7866  1.4288 -1.8825
 3304TIP3   OH2 9917   0.128   4.957   3.281  0.8953  0.0662  0.1345
 3304TIP3    H1 9918   0.188   4.933   3.351  0.6469 -1.2102 -0.0840
 3304TIP3    H2 9919   0.141   4.890   3.214  0.8054  1.0276 -0.8450
 3305TIP3   OH2 9920   1.499   4.339   2.192  0.5223  0.1792 -0.1415
 3305TIP3    H1 9921   1.543   4.330   2.107 -0.3480  1.0372 -0.6864
 3305TIP3    H2 9922   1.571   4.339   2.256  1.7287  5.2814 -1.2541
 3306TIP3   OH2 9923   2.508   5.390   2.281 -0.1636  0.0196  0.0247
 3306TIP3    H1 9924   2.572   5.327   2.315  0.2544 -0.1928 -1.1185
 3306TIP3    H2 9925   2.487   5.357   2.193 -0.6881  0.9304 -0.1948
 3307TIP3   OH2 9926   2.753   5.359   1.276  0.6945 -0.0611 -0.4031
 3307TIP3    H1 9927   2.834   5.343   1.323  0.3757 -0.7205 -0.0773
 3307TIP3    H2 9928   2.684   5.344   1.341  0.3931  3.0584  0.0714
 3308TIP3   OH2 9929   0.227   3.033   4.135  0.1827 -0.0935  0.6571
 3308TIP3    H1 9930   0.273   2.996   4.060 -2.7507 -0.3239 -1.0902
 3308TIP3    H2 9931   0.228   2.962   4.200 -0.6078 -1.3154 -0.6243
 3309TIP3   OH2 9932   3.623   0.805   3.654 -0.1429 -0.2633  0.1110
 3309TIP3    H1 9933   3.572   0.837   3.579  3.2364 -2.2311 -3.2279
 3309TIP3    H2 9934   3.647   0.715   3.630 -1.0587 -1.8918  4.7695
 3310TIP3   OH2 9935   1.094   5.227   2.522  0.0608 -0.2459  0.1237
 3310TIP3    H1 9936   1.134   5.291   2.463 -0.0248 -0.2007  0.1142
 3310TIP3    H2 9937   1.006   5.262   2.539 -0.2219 -0.7052 -0.4073
 3311TIP3   OH2 9938   2.816   5.406   2.508  0.3566  0.3770 -0.3011
 3311TIP3    H1 9939   2.728   5.381   2.534 -0.6707  2.9906 -1.1184
 3311TIP3    H2 9940   2.873   5.369   2.576 -1.4576 -0.3175  0.8667
 3312TIP3   OH2 9941   4.382   5.360   2.322  0.0333  0.0631  0.0164
 3312TIP3    H1 9942   4.418   5.332   2.406  0.0955 -0.8584 -0.3097
 3312TIP3    H2 9943   4.307   5.302   2.309 -0.8029  1.1200  0.0878
 3313TIP3   OH2 9944   2.793   3.184   4.786  0.1796 -0.0494 -0.3559
 3313TIP3    H1 9945   2.771   3.124   4.857 -1.8124 -0.1867 -1.0606
 3313TIP3    H2 9946   2.754   3.144   4.708  2.2988  0.1214 -1.5306
 3314TIP3   OH2 9947   6.097   6.034   0.515  0.1924  0.3495 -0.1335
 3314TIP3    H1 9948   6.068   6.125   0.511 -0.0639  0.2171 -2.0996
 3314TIP3    H2 9949   6.016   5.983   0.516  0.3364  0.1297  0.2921
 3315TIP3   OH2 9950   1.551   5.277   3.183 -0.0742  0.1075  0.8321
 3315TIP3    H1 9951   1.627   5.282   3.125 -0.0196  0.3453  0.9229
 3315TIP3    H2 9952   1.482   5.238   3.130 -0.3758  1.4328  0.2539
 3316TIP3   OH2 9953   0.195   2.613   1.498 -0.2295 -0.1973  0.2626
 3316TIP3    H1 9954   0.178   2.519   1.492  0.4461 -0.3318  0.4018
 3316TIP3    H2 9955   0.113   2.651   1.528 -0.9357 -0.5747 -1.1435
 3317TIP3   OH2 9956   5.329   0.625   4.752 -0.0024  0.0225  0.0274
 3317TIP3    H1 9957   5.325   0.720   4.741  1.7014  0.3381  1.7508
 3317TIP3    H2 9958   5.262   0.606   4.818 -0.9856 -0.0921 -1.0096
 3318TIP3   OH2 9959   3.738   5.529   2.957 -0.5190  0.3240  0.5339
 3318TIP3    H1 9960   3.784   5.455   2.997  0.2837  0.7342  0.3769
 3318TIP3    H2 9961   3.772   5.606   3.003  0.8971  0.8590 -1.3446
 3319TIP3   OH2 9962   1.012   5.306   3.610  0.1907 -0.1352  0.3649
 3319TIP3    H1 9963   0.942   5.259   3.655  0.2330 -0.0796  0.4897
 3319TIP3    H2 9964   0.976   5.327   3.523  0.7980 -1.9494 -0.3502
 3320TIP3   OH2 9965   3.216   1.831   1.740  0.2174 -0.2265 -0.3231
 3320TIP3    H1 9966   3.298   1.875   1.718 -0.2898  0.1308 -1.5411
 3320TIP3    H2 9967   3.221   1.747   1.694 -0.2223 -0.0907 -0.6150
 3321TIP3   OH2 9968   4.415   2.516   5.153  0.1431 -0.3478 -0.2168
 3321TIP3    H1 9969   4.422   2.480   5.241  2.3124 -0.0671 -0.2496
 3321TIP3    H2 9970   4.331   2.563   5.152 -0.8240 -1.9911  1.0616
 3322TIP3   OH2 9971   3.395   5.942   4.243 -0.4073  0.1218 -0.0527
 3322TIP3    H1 9972   3.350   5.969   4.323  1.2234 -0.1590  1.0040
 3322TIP3    H2 9973   3.366   5.852   4.229  2.2816 -1.2331  2.5196
 3323TIP3   OH2 9974   5.784   0.672   1.729  0.0926  0.3127  0.2568
 3323TIP3    H1 9975   5.827   0.703   1.649 -0.0714 -1.0049 -0.3569
 3323TIP3    H2 9976   5.819   0.584   1.743 -0.3506  0.2848  1.2905
 3324TIP3   OH2 9977   3.328   0.494   2.057 -0.2598 -0.4541 -0.2632
 3324TIP3    H1 9978   3.397   0.441   2.096 -2.0165 -3.0296 -0.5566
 3324TIP3    H2 9979   3.351   0.500   1.965  0.9240  0.8887  0.1094
 3325TIP3   OH2 9980   2.857   1.457   3.079  0.1338  0.2200 -0.4589
 3325TIP3    H1 9981   2.891   1.543   3.054 -0.6639  0.1559 -1.8156
 3325TIP3    H2 9982   2.817   1.422   2.999  1.6085 -1.9831 -0.2950
 3326TIP3   OH2 9983   5.687   0.151   3.791  0.9227  0.7274 -0.4288
 3326TIP3    H1 9984   5.777   0.164   3.760  0.7899  1.3127 -0.5806
 3326TIP3    H2 9985   5.638   0.224   3.752  0.6650  1.2377  0.8266
 3327TIP3   OH2 9986   0.359   4.525   0.939  0.5322 -0.2183 -0.0771
 3327TIP3    H1 9987   0.299   4.461   0.901  1.4629 -0.2297 -1.5839
 3327TIP3    H2 9988   0.384   4.581   0.866  0.9133  0.9218  0.9201
 3328TIP3   OH2 9989   3.754   4.557   3.197 -0.1536  0.4660 -0.4089
 3328TIP3    H1 9990   3.690   4.488   3.181  0.2797 -0.2741  0.9818
 3328TIP3    H2 9991   3.768   4.555   3.292  0.8747  1.5626 -0.5256
 3329TIP3   OH2 9992   3.605   5.073   3.207 -0.3920 -0.1046  0.0831
 3329TIP3    H1 9993   3.526   5.027   3.236 -0.5287  0.0112 -0.0957
 3329TIP3    H2 9994   3.677   5.025   3.246 -0.5573 -0.1412  0.3478
 3330TIP3   OH2 9995   1.960   5.691   0.345 -0.0351  0.1433 -0.0391
 3330TIP3    H1 9996   1.956   5.682   0.250  3.1730 -3.0624  0.0411
 3330TIP3    H2 9997   1.879   5.650   0.376  0.1823 -1.2610 -1.2707
 3331TIP3   OH2 9998   5.441   1.100   1.509 -0.5893 -0.0832 -0.1998
 3331TIP3    H1 9999   5.468   1.076   1.597 -1.7082 -2.3181 -0.4250
 3331TIP3    H210000   5.418   1.017   1.467 -0.0883  0.9331 -2.5943
 3332TIP3   OH210001   3.033   5.753   2.412 -0.3329  0.2015  0.1085
 3332TIP3    H110002   3.100   5.733   2.477 -2.1029 -0.5864  1.7215
 3332TIP3    H210003   3.047   5.845   2.390  2.0212 -0.2663 -0.4663
 3333TIP3   OH210004   2.541   5.843   2.060 -0.0191 -0.5660  0.4015
 3333TIP3    H110005   2.545   5.938   2.055  0.8846 -0.6419 -0.4222
 3333TIP3    H210006   2.625   5.817   2.099  0.0807 -1.0677 -0.1329
 3334TIP3   OH210007   4.561   0.099   1.670 -0.3558  0.0363  0.1372
 3334TIP3    H110008   4.539   0.025   1.726  0.1016  0.0635  0.3618
 3334TIP3    H210009   4.640   0.071   1.623 -2.0401 -0.8713 -2.2173
 3335TIP3   OH210010   3.604   0.681   2.734 -0.2232 -0.3623 -0.3401
 3335TIP3    H110011   3.628   0.617   2.668  0.7373 -0.8050  0.4232
 3335TIP3    H210012   3.688   0.713   2.768 -0.6901  0.9945 -0.4232
 3336TIP3   OH210013   5.867   5.653   1.961 -0.1515  0.2263 -0.0875
 3336TIP3    H110014   5.807   5.711   1.914 -0.1379  0.1462 -0.2060
 3336TIP3    H210015   5.882   5.697   2.045  2.0296  1.8129 -1.2412
 3337TIP3   OH210016   1.405   5.399   1.168 -0.7810 -0.3948  0.6563
 3337TIP3    H110017   1.374   5.310   1.186 -0.3263 -0.0948  3.1385
 3337TIP3    H210018   1.497   5.397   1.193 -0.4523  0.4424 -0.4807
 3338TIP3   OH210019   2.332   4.636   0.807  0.1261  0.5379  0.0587
 3338TIP3    H110020   2.415   4.647   0.760  0.9850  1.3107  1.7157
 3338TIP3    H210021   2.265   4.663   0.744  1.1586  0.3346 -1.1464
 3339TIP3   OH210022   2.335   5.437   4.414 -0.1264 -0.0105 -0.0191
 3339TIP3    H110023   2.277   5.511   4.398 -0.7313 -0.4390  0.1618
 3339TIP3    H210024   2.391   5.465   4.487 -0.9628 -0.0749  0.6550
 3340TIP3   OH210025   0.616   3.248   0.556 -0.7172 -0.1432 -0.2046
 3340TIP3    H110026   0.652   3.204   0.633 -0.9740 -0.2295 -0.1335
 3340TIP3    H210027   0.692   3.288   0.514 -0.7104  0.7785  0.6564
 3341TIP3   OH210028   1.079   4.644   1.871 -0.2026  0.3777  0.1033
 3341TIP3    H110029   1.104   4.632   1.779 -0.8262  0.7030 -0.1149
 3341TIP3    H210030   0.984   4.629   1.872  0.2913 -2.9826  1.2860
 3342TIP3   OH210031   0.005   1.646   2.020  0.0353 -0.1245  0.3639
 3342TIP3    H110032  -0.035   1.615   2.101  0.2595  1.0627  0.9273
 3342TIP3    H210033   0.056   1.722   2.046 -0.4207  0.6626 -0.9973
 3343TIP3   OH210034   5.794   5.617   1.045 -0.1177  0.0596  0.0973
 3343TIP3    H110035   5.820   5.526   1.058 -1.5053 -0.3749 -0.0568
 3343TIP3    H210036   5.704   5.611   1.013 -0.3270  1.5007  0.4104
 3344TIP3   OH210037   1.089   0.888   2.450 -0.4656  0.0608  0.4123
 3344TIP3    H110038   1.007   0.846   2.423 -0.9581 -0.3991  2.5862
 3344TIP3    H210039   1.135   0.821   2.500  1.6394  0.0418 -1.4454
 3345TIP3   OH210040   4.265   0.024   2.365 -0.1089  0.5215  0.3395
 3345TIP3    H110041   4.358   0.016   2.344  0.0781 -3.3038  2.2563
 3345TIP3    H210042   4.263   0.083   2.440  0.8708 -0.1450  0.9046
 3346TIP3   OH210043   0.272   4.738   1.787 -0.0284 -0.3316  0.6770
 3346TIP3    H110044   0.216   4.661   1.773 -0.4714  0.0795  0.1983
 3346TIP3    H210045   0.243   4.801   1.722  0.6710  0.0648  0.7460
 3347TIP3   OH210046   2.084   4.857   3.264 -0.0262  0.0481  0.1395
 3347TIP3    H110047   2.130   4.834   3.345 -0.0273 -0.0769  0.1054
 3347TIP3    H210048   2.081   4.953   3.264 -1.7385  0.0051  1.2406
 3348TIP3   OH210049   4.971   0.833   3.133  0.4748  0.2870 -0.3591
 3348TIP3    H110050   4.978   0.887   3.211 -1.8148  0.0215  0.0499
 3348TIP3    H210051   4.902   0.874   3.081 -0.7990 -1.7888 -0.3614
 3349TIP3   OH210052   1.074   4.426   2.441  0.2836 -0.9782  0.3132
 3349TIP3    H110053   1.151   4.446   2.388 -0.1533 -0.5625 -0.1779
 3349TIP3    H210054   1.005   4.482   2.404  0.6036  1.2356  2.9558
 3350TIP3   OH210055   2.239   4.583   3.970  0.3398 -0.3773 -0.0822
 3350TIP3    H110056   2.282   4.658   4.010  1.5692  0.3570 -2.6203
 3350TIP3    H210057   2.150   4.585   4.003  1.1288  0.5370  2.0517
 3351TIP3   OH210058   3.355   5.946   2.269 -0.4579 -0.2571 -0.2925
 3351TIP3    H110059   3.376   5.861   2.306 -0.3415 -0.5878 -1.0987
 3351TIP3    H210060   3.275   5.931   2.218  0.2664 -0.1831 -1.4687
 3352TIP3   OH210061   0.769   2.570   1.917 -1.2242 -0.8832 -0.0972
 3352TIP3    H110062   0.847   2.527   1.883  0.6725 -0.1527  3.1282
 3352TIP3    H210063   0.768   2.548   2.010 -3.6835  0.9202  0.3587
 3353TIP3   OH210064   2.194   5.367   2.252  0.0208  0.0451  0.0168
 3353TIP3    H110065   2.285   5.386   2.276 -0.0038  0.6206 -0.3343
 3353TIP3    H210066   2.191   5.380   2.157 -1.0272  2.5528  0.3619
 3354TIP3   OH210067   3.261   0.016   1.455 -0.1804 -0.4432  0.4437
 3354TIP3    H110068   3.288   0.103   1.426 -2.0013 -0.1531 -0.4940
 3354TIP3    H210069   3.297   0.008   1.543  1.9529  0.3294 -0.3324
 3355TIP3   OH210070   1.205   5.628   1.047  0.4450  0.1361 -0.1669
 3355TIP3    H110071   1.212   5.693   1.117  0.7284 -0.7625  0.6564
 3355TIP3    H210072   1.259   5.555   1.077 -0.7676 -0.9399 -0.5612
 3356TIP3   OH210073   0.318   3.582   4.279  0.1148  0.0397  0.0200
 3356TIP3    H110074   0.259   3.513   4.308 -0.6612  0.7697  0.2238
 3356TIP3    H210075   0.267   3.631   4.214  1.0083 -0.1862 -0.8605
 3357TIP3   OH210076   5.213   0.511   4.510 -0.8205 -0.7407  0.3505
 3357TIP3    H110077   5.264   0.565   4.571 -0.3145 -1.2662  0.3943
 3357TIP3    H210078   5.140   0.567   4.484 -0.5072 -0.1676  0.6934
 3358TIP3   OH210079   2.818   3.360   2.161 -0.1873 -0.3874 -0.4471
 3358TIP3    H110080   2.910   3.377   2.180  0.0926  1.0144 -2.7076
 3358TIP3    H210081   2.781   3.328   2.243  1.6252  1.9566  1.3700
 3359TIP3   OH210082   4.551   0.570   1.289  0.0179 -0.4806 -0.1812
 3359TIP3    H110083   4.608   0.518   1.233  0.4255  0.7438 -0.9153
 3359TIP3    H210084   4.562   0.531   1.376  1.2665 -0.8389 -0.4811
 3360TIP3   OH210085   2.771   1.140   2.630  0.0275  0.3765 -1.0872
 3360TIP3    H110086   2.696   1.095   2.591 -0.4997  0.2186  0.0799
 3360TIP3    H210087   2.833   1.070   2.651 -0.1254  0.3583 -0.7007
 3361TIP3   OH210088   3.908   0.282   3.485  0.2401  0.3631  0.6996
 3361TIP3    H110089   3.926   0.376   3.478  1.0950  0.1976  0.5351
 3361TIP3    H210090   3.995   0.243   3.493 -0.0768 -0.4642  0.1376
 3362TIP3   OH210091   4.832   0.157   0.540 -0.3731 -0.0575 -0.6234
 3362TIP3    H110092   4.902   0.173   0.477  0.1274 -2.3885 -0.7339
 3362TIP3    H210093   4.854   0.211   0.616  1.6150 -0.8402 -0.6185
 3363TIP3   OH210094   1.256   4.482   2.238  0.2006 -0.2052 -0.2096
 3363TIP3    H110095   1.309   4.561   2.248  0.1898  0.0736 -2.1866
 3363TIP3    H210096   1.319   4.412   2.220  0.2382 -0.7316  1.8608
 3364TIP3   OH210097   0.464   0.822   2.929  0.2440 -0.5628 -0.0360
 3364TIP3    H110098   0.388   0.874   2.905  0.4375 -0.1619  0.2137
 3364TIP3    H210099   0.530   0.844   2.862 -0.2031 -1.6994 -0.8593
 3365TIP3   OH210100   4.352   0.402   0.998  0.4554  0.5032 -0.1844
 3365TIP3    H110101   4.316   0.395   0.910  0.3965  0.0205 -0.1210
 3365TIP3    H210102   4.354   0.496   1.016 -4.1702  0.4141  1.2277
 3366TIP3   OH210103   0.282   3.401   3.562 -0.5106 -0.1090 -0.1824
 3366TIP3    H110104   0.376   3.398   3.578 -0.2120  0.0028 -1.8547
 3366TIP3    H210105   0.247   3.451   3.636  0.5584 -1.3164  1.1668
 3367TIP3   OH210106   5.268   0.310   3.022  0.4581  0.0240  0.1973
 3367TIP3    H110107   5.192   0.360   3.052  1.1615  0.0596  1.9684
 3367TIP3    H210108   5.343   0.354   3.061  1.1518 -1.8712  1.0884
 3368TIP3   OH210109   2.946   5.000   1.268  0.3753 -0.0975  0.5831
 3368TIP3    H110110   2.981   4.912   1.282 -1.0437 -0.9600 -1.1811
 3368TIP3    H210111   2.854   4.994   1.293 -0.3094  0.2605 -1.7314
 3369TIP3   OH210112   2.006   5.348   3.584 -0.1337 -0.0253 -0.5155
 3369TIP3    H110113   1.969   5.260   3.587  0.2303 -0.1607 -0.0320
 3369TIP3    H210114   1.943   5.398   3.531 -0.2947 -0.5924 -0.8715
 3370TIP3   OH210115   5.435   0.894   2.826  0.0289  0.4621  0.1383
 3370TIP3    H110116   5.469   0.946   2.753 -0.3645 -0.0170 -0.3995
 3370TIP3    H210117   5.361   0.944   2.859  0.5584  0.9586  0.5798
 3371TIP3   OH210118   2.825   4.524   3.078 -0.6639 -0.0299  0.6519
 3371TIP3    H110119   2.779   4.561   3.002 -0.1619  0.0375  0.3817
 3371TIP3    H210120   2.785   4.438   3.091  1.7132 -1.5952 -1.9329
 3372TIP3   OH210121   6.330   5.017   1.167 -0.3302 -0.7066  0.4975
 3372TIP3    H110122   6.357   5.090   1.112  0.9680 -2.6407 -1.4926
 3372TIP3    H210123   6.238   5.002   1.145 -0.1901 -0.6032 -0.1552
 3373TIP3   OH210124   2.145   5.186   2.944  0.7270  0.7869  0.6655
 3373TIP3    H110125   2.102   5.258   2.899  0.2348 -1.3542 -2.5035
 3373TIP3    H210126   2.238   5.198   2.925  0.6343  0.5669  0.0420
 3374TIP3   OH210127   1.384   5.102   3.640 -0.5551  0.0206  0.0935
 3374TIP3    H110128   1.377   5.195   3.619 -2.3652  0.0422  0.7333
 3374TIP3    H210129   1.426   5.064   3.563 -0.0046  1.3163 -0.2688
 3375TIP3   OH210130   2.537   4.890   3.111  0.0893 -0.5199 -0.6204
 3375TIP3    H110131   2.568   4.827   3.176  0.5240 -2.1880 -2.3853
 3375TIP3    H210132   2.475   4.945   3.158  0.1313 -1.9236  1.1220
 3376TIP3   OH210133   4.508   1.372   4.079 -0.0980 -0.0312  0.1120
 3376TIP3    H110134   4.484   1.405   3.992  0.9103 -0.7666 -0.4481
 3376TIP3    H210135   4.451   1.421   4.139  0.8653  2.2395 -0.7613
 3377TIP3   OH210136   4.964   0.615   2.228 -0.3108 -0.4626 -0.4644
 3377TIP3    H110137   4.985   0.528   2.262 -1.7625 -0.8426 -0.5055
 3377TIP3    H210138   4.974   0.674   2.304 -0.8964 -0.9108 -0.0315
 3378TIP3   OH210139   4.137   2.198   2.450  0.4692  0.4849  0.3923
 3378TIP3    H110140   4.101   2.282   2.478 -0.2866  0.9105 -1.7266
 3378TIP3    H210141   4.075   2.167   2.384  1.5728 -0.9919  0.0294
 3379TIP3   OH210142   4.033   4.672   3.968  0.5274  0.5449  0.2488
 3379TIP3    H110143   3.981   4.747   3.940  0.6824  0.3904 -0.4669
 3379TIP3    H210144   4.042   4.618   3.888 -0.6626 -0.8606  1.0225
 3380TIP3   OH210145   1.224   5.329   4.677 -0.4183  0.0431 -0.5033
 3380TIP3    H110146   1.142   5.364   4.712 -0.3040  2.6639 -2.6371
 3380TIP3    H210147   1.290   5.352   4.743 -1.0313  0.0573  0.1120
 3381TIP3   OH210148   2.809   5.507   1.631 -0.0328  0.0799 -0.2349
 3381TIP3    H110149   2.779   5.416   1.625  1.0918 -0.2823 -0.4310
 3381TIP3    H210150   2.890   5.509   1.581 -1.0938  1.6747 -1.9172
 3382TIP3   OH210151   4.154   2.016   0.747  0.2202  0.0217 -0.3705
 3382TIP3    H110152   4.173   1.977   0.833  0.0064  1.5813  0.3988
 3382TIP3    H210153   4.082   1.962   0.713  0.3001 -0.6159  0.4303
 3383TIP3   OH210154   6.325   2.351   5.236  0.4843 -0.6090 -0.2545
 3383TIP3    H110155   6.386   2.421   5.210  0.0049  0.0247  0.3115
 3383TIP3    H210156   6.382   2.279   5.262  1.0068  0.1359  0.6975
 3384TIP3   OH210157   4.765   0.390   2.555  0.3336  0.1015 -0.5763
 3384TIP3    H110158   4.709   0.323   2.514  1.9900 -2.0275  0.5176
 3384TIP3    H210159   4.713   0.470   2.550 -2.4188 -1.5787 -0.5065
 3385TIP3   OH210160   1.033   4.148   0.504 -0.8629  0.2050  0.1388
 3385TIP3    H110161   1.014   4.199   0.425  0.0223  2.0978  1.1253
 3385TIP3    H210162   0.965   4.174   0.566  0.6255  1.5163  1.2360
 3386TIP3   OH210163   4.396   1.568   1.635 -0.2983 -0.4609 -0.0069
 3386TIP3    H110164   4.368   1.584   1.725  1.0043 -2.2780  0.7504
 3386TIP3    H210165   4.366   1.646   1.587  1.4074  1.8545  2.4961
 3387TIP3   OH210166   4.672   5.658   1.653  0.0552 -0.0178 -0.4910
 3387TIP3    H110167   4.649   5.676   1.562 -0.8162  1.3033 -0.0292
 3387TIP3    H210168   4.588   5.655   1.699  0.5838  1.9074  0.6953
 3388TIP3   OH210169   5.294   2.237   1.397  0.2745  0.5247  0.2180
 3388TIP3    H110170   5.358   2.292   1.350  0.4968 -0.5783 -0.7852
 3388TIP3    H210171   5.346   2.164   1.431 -0.2495  0.2530  0.4352
 3389TIP3   OH210172   1.515   5.355   2.228 -0.1976  0.3536 -0.2719
 3389TIP3    H110173   1.600   5.387   2.260  0.0543 -1.8147  1.3902
 3389TIP3    H210174   1.516   5.375   2.134  2.1336  0.4560 -0.2657
 3390TIP3   OH210175   4.945   0.650   0.081  0.2170  0.1262 -0.3120
 3390TIP3    H110176   5.027   0.698   0.078  0.2512  0.1717  0.8965
 3390TIP3    H210177   4.886   0.707   0.131 -0.8910  0.5914 -2.1234
 3391TIP3   OH210178   5.888   1.316   4.222 -0.1253 -0.1893 -0.5275
 3391TIP3    H110179   5.910   1.328   4.314 -1.4697  1.5262 -0.3989
 3391TIP3    H210180   5.946   1.376   4.175  1.0401 -1.5687 -0.8629
 3392TIP3   OH210181   3.505   5.285   3.750  0.3477  0.2595  0.3841
 3392TIP3    H110182   3.594   5.251   3.762  0.1521  0.0968  1.4914
 3392TIP3    H210183   3.450   5.223   3.799 -0.2597  0.9046  0.5263
 3393TIP3   OH210184   1.563   5.591   1.948 -0.1440  0.4473 -0.1388
 3393TIP3    H110185   1.521   5.641   2.018  1.6536 -0.4257  1.6249
 3393TIP3    H210186   1.637   5.645   1.921 -0.2874  0.3551 -0.7232
 3394TIP3   OH210187   1.267   5.358   2.333  0.0887  0.0431  0.4088
 3394TIP3    H110188   1.265   5.438   2.386  2.1227  1.0316 -0.9275
 3394TIP3    H210189   1.360   5.341   2.319 -0.3184 -2.5075  0.5349
 3395TIP3   OH210190   4.390   4.364   1.282 -0.0173 -0.4296  0.6898
 3395TIP3    H110191   4.352   4.317   1.207  0.9185 -0.1872  0.0558
 3395TIP3    H210192   4.413   4.450   1.247  1.1305 -0.5821  1.0516
 3396TIP3   OH210193   4.669   0.464   1.560 -0.7928 -0.2091  0.4133
 3396TIP3    H110194   4.673   0.559   1.571 -0.3935 -0.2705  0.8048
 3396TIP3    H210195   4.580   0.441   1.586 -1.2642  0.1983 -0.8199
 3397TIP3   OH210196   4.610   0.041   0.441 -0.2879  0.2062  0.6193
 3397TIP3    H110197   4.609   0.105   0.370  1.7001 -0.0733  0.3010
 3397TIP3    H210198   4.686   0.064   0.494 -0.2291 -1.1797  1.1738
 3398TIP3   OH210199   1.878   5.080   2.328 -0.1514 -0.1996 -0.2573
 3398TIP3    H110200   1.887   4.993   2.290  0.4911 -0.9551  1.5754
 3398TIP3    H210201   1.785   5.101   2.316 -0.6953 -1.8667  0.7520
 3399TIP3   OH210202   3.784   3.611   1.239 -0.3034 -0.0396 -0.4559
 3399TIP3    H110203   3.738   3.690   1.265 -0.7183 -1.3762  3.1199
 3399TIP3    H210204   3.816   3.573   1.321 -0.4675 -3.8140 -2.0287
 3400TIP3   OH210205   0.404   4.470   5.210  0.3261 -0.5117 -0.7428
 3400TIP3    H110206   0.436   4.544   5.262  1.1359 -3.0139  2.4378
 3400TIP3    H210207   0.482   4.439   5.163  0.3904 -0.5376 -0.6184
 3401TIP3   OH210208   4.849   0.436   1.926 -0.2405  0.6929  0.6366
 3401TIP3    H110209   4.916   0.504   1.920 -0.1483  0.4404 -1.6486
 3401TIP3    H210210   4.766   0.483   1.914 -0.2637  0.6100  0.4618
 3402TIP3   OH210211   2.021   5.712   2.426  0.0430 -0.2020 -0.0998
 3402TIP3    H110212   2.021   5.801   2.463  0.0385  0.1834 -1.0305
 3402TIP3    H210213   1.933   5.702   2.390 -1.2197 -1.9322  3.2257
 3403TIP3   OH210214   5.114   5.817   2.358 -0.7736 -0.3667  0.0931
 3403TIP3    H110215   5.103   5.778   2.445 -0.9252 -0.6657 -0.0590
 3403TIP3    H210216   5.041   5.781   2.306 -0.1169 -0.9530 -0.4294
 3404TIP3   OH210217   3.708   3.879   0.697 -0.2212 -0.1048 -0.9091
 3404TIP3    H110218   3.704   3.828   0.778 -2.1444 -0.3041 -1.1048
 3404TIP3    H210219   3.661   3.960   0.718  2.1314  1.2824 -0.8456
 3405TIP3   OH210220   2.036   6.017   1.323  0.5065 -0.5668  0.1025
 3405TIP3    H110221   1.962   6.078   1.331 -1.6080 -2.9369 -0.6707
 3405TIP3    H210222   2.085   6.028   1.405 -1.2493  0.3952  1.0651
 3406TIP3   OH210223   4.854   4.153   2.174  0.3204  0.4749 -0.1825
 3406TIP3    H110224   4.933   4.153   2.120  1.2836 -1.2569  1.1588
 3406TIP3    H210225   4.840   4.061   2.195 -0.7363  0.9989  1.4641
 3407TIP3   OH210226   5.841   0.829   1.381 -0.4732  0.1709 -0.0090
 3407TIP3    H110227   5.822   0.894   1.449  0.8216 -1.1999  1.7313
 3407TIP3    H210228   5.761   0.776   1.376 -0.1076 -0.5413  1.4216
 3408TIP3   OH210229   2.360   5.841   3.821  0.3500 -0.5364  0.1915
 3408TIP3    H110230   2.354   5.827   3.727 -0.8970 -0.2450  0.2169
 3408TIP3    H210231   2.437   5.896   3.833  1.6149 -2.1223 -0.4743
 3409TIP3   OH210232   4.178   3.484   4.801 -0.3773 -0.6126  0.0119
 3409TIP3    H110233   4.224   3.471   4.883  1.0079  0.5627 -0.5453
 3409TIP3    H210234   4.116   3.412   4.795 -0.2358 -0.8942  1.9101
 3410TIP3   OH210235   0.422   1.351   2.374  0.2376  0.1288 -0.1618
 3410TIP3    H110236   0.497   1.306   2.334  0.1149 -1.5806  1.4483
 3410TIP3    H210237   0.435   1.339   2.468 -1.7896  0.2444  0.1462
 3411TIP3   OH210238   4.303   0.413   2.544 -0.2202 -0.3786  0.2583
 3411TIP3    H110239   4.243   0.341   2.526 -0.8148 -0.0944  1.0798
 3411TIP3    H210240   4.261   0.462   2.614  0.0391  0.9491 -0.5065
 3412TIP3   OH210241   3.866   2.400   1.851  0.5359  0.0519  0.4526
 3412TIP3    H110242   3.919   2.460   1.799 -1.2366  0.0253 -1.4576
 3412TIP3    H210243   3.889   2.313   1.819  0.7017 -0.0770  0.9241
 3413TIP3   OH210244   6.379   1.011   3.437  0.1329 -0.1853 -0.0919
 3413TIP3    H110245   6.387   0.920   3.410 -0.4869 -0.1887 -0.2834
 3413TIP3    H210246   6.317   1.049   3.374 -1.4434 -0.2204  1.4068
 3414TIP3   OH210247   0.835   4.909   0.529 -0.5176  0.5129  0.3569
 3414TIP3    H110248   0.823   4.814   0.533 -0.2746  0.4645 -0.0056
 3414TIP3    H210249   0.887   4.930   0.607  0.2266  0.2165 -0.0502
 3415TIP3   OH210250   0.166   5.573   0.837 -0.7656  0.2395  0.6104
 3415TIP3    H110251   0.070   5.578   0.833 -0.7662 -1.1288 -1.7280
 3415TIP3    H210252   0.194   5.664   0.842 -2.1500  0.7209  0.0228
 3416TIP3   OH210253   2.672   5.369   3.477  0.4611 -0.3826 -0.2666
 3416TIP3    H110254   2.750   5.419   3.500  0.8352 -0.6098 -1.0343
 3416TIP3    H210255   2.670   5.369   3.381 -2.2251  2.3233 -0.2676
 3417TIP3   OH210256   5.244   1.048   4.367  0.1631 -0.2014 -0.1488
 3417TIP3    H110257   5.287   0.962   4.364 -0.1050 -0.3597  0.4904
 3417TIP3    H210258   5.286   1.098   4.297  0.3444 -0.8420 -0.5022
 3418TIP3   OH210259   0.965   4.427   2.740 -0.0816 -0.0591  0.3725
 3418TIP3    H110260   1.026   4.474   2.798 -1.5917  1.1173  1.0345
 3418TIP3    H210261   0.918   4.496   2.693 -0.9379 -0.9599 -0.1108
 3419TIP3   OH210262   3.520   4.916   2.053  0.4258  0.3517 -0.3709
 3419TIP3    H110263   3.430   4.936   2.077  1.0667  0.9888  1.5936
 3419TIP3    H210264   3.519   4.823   2.031 -0.3714 -0.0818  1.4043
 3420TIP3   OH210265   5.680   0.298   0.274 -0.6700 -0.2945 -0.0597
 3420TIP3    H110266   5.753   0.303   0.213 -1.5990 -0.8394 -1.2256
 3420TIP3    H210267   5.602   0.305   0.220 -1.5610 -2.8069  0.7975
 3421TIP3   OH210268   0.137   6.106   4.439 -0.1793  0.4815  0.1496
 3421TIP3    H110269   0.219   6.064   4.463 -0.0615  1.6744  1.9385
 3421TIP3    H210270   0.098   6.048   4.374  2.1721  0.0127 -0.8682
 3422TIP3   OH210271   1.276   5.811   1.443 -0.2934 -0.0143 -0.0144
 3422TIP3    H110272   1.241   5.794   1.530 -1.3237  2.5402  0.1029
 3422TIP3    H210273   1.199   5.813   1.386 -0.1517  3.1676 -0.1630
 3423TIP3   OH210274   2.590   0.684   0.619 -0.4802  0.2901 -0.0469
 3423TIP3    H110275   2.496   0.674   0.631 -0.2984  0.0527  1.3101
 3423TIP3    H210276   2.617   0.746   0.686  0.3071  0.5022 -0.5469
 3424TIP3   OH210277   1.240   5.425   1.442  0.0873 -0.2424  0.2494
 3424TIP3    H110278   1.292   5.451   1.366  0.1350 -0.5623  0.1688
 3424TIP3    H210279   1.299   5.434   1.516  0.3659 -0.9130  0.1187
 3425TIP3   OH210280   3.172   1.134   1.802  0.1710  0.4473 -0.4157
 3425TIP3    H110281   3.125   1.051   1.814 -0.5965  1.0723  1.0562
 3425TIP3    H210282   3.263   1.114   1.824  0.4582 -0.5638 -2.4155
 3426TIP3   OH210283   3.394   4.446   2.469 -0.2640  0.1432  0.1689
 3426TIP3    H110284   3.426   4.365   2.509 -1.3653 -0.1903  0.3825
 3426TIP3    H210285   3.301   4.450   2.493 -0.8711  0.1266 -2.0383
 3427TIP3   OH210286   5.314   3.173   0.484  0.6149 -0.3045  0.0099
 3427TIP3    H110287   5.373   3.236   0.527  1.1520 -1.6191  1.2202
 3427TIP3    H210288   5.237   3.169   0.541  1.2110 -1.8379  0.7384
 3428TIP3   OH210289   2.224   5.057   5.090 -0.4118 -0.4276 -0.1135
 3428TIP3    H110290   2.161   5.125   5.114  0.0313  0.5508 -1.6757
 3428TIP3    H210291   2.183   5.011   5.017 -0.4354 -1.4488  0.5338
 3429TIP3   OH210292   3.913   0.035   2.614  0.2858 -0.0155 -0.0827
 3429TIP3    H110293   3.881  -0.054   2.629 -0.7073  0.1342 -1.2480
 3429TIP3    H210294   3.835   0.090   2.614  0.8738  0.8239  0.4080
 3430TIP3   OH210295   3.667   4.559   1.931 -0.1660 -0.0384 -0.1844
 3430TIP3    H110296   3.572   4.559   1.943 -0.1758  0.0418 -0.2619
 3430TIP3    H210297   3.689   4.651   1.914  0.1158  0.1930  1.3800
 3431TIP3   OH210298   1.735   2.636   4.976 -0.5429  0.6755  0.3472
 3431TIP3    H110299   1.745   2.552   4.929  1.1467  1.7344 -1.2735
 3431TIP3    H210300   1.672   2.685   4.923 -0.1462  1.1158  0.2824
 3432TIP3   OH210301   4.193   1.029   0.521  0.6287  0.3197  0.1078
 3432TIP3    H110302   4.269   0.991   0.476 -0.5297 -0.3983 -1.3014
 3432TIP3    H210303   4.182   0.975   0.599  0.1682 -1.0725 -0.8874
 3433TIP3   OH210304   5.910   1.902   2.106  0.4390  0.5946  0.1539
 3433TIP3    H110305   5.857   1.864   2.176 -2.2728  0.8286 -1.7222
 3433TIP3    H210306   5.942   1.985   2.143  1.3906 -0.5825  2.0878
 3434TIP3   OH210307   1.961   5.617   1.408 -0.3446  0.6349 -0.2285
 3434TIP3    H110308   2.020   5.587   1.338  0.6560  1.2046  0.3447
 3434TIP3    H210309   2.020   5.647   1.477 -1.3289 -0.7922  1.2631
 3435TIP3   OH210310   5.127   5.624   0.309 -0.1482  0.7794  0.7027
 3435TIP3    H110311   5.035   5.651   0.304 -1.3571 -3.0963  0.2477
 3435TIP3    H210312   5.148   5.628   0.402 -1.2773  0.2040  0.9947
 3436TIP3   OH210313   5.191   6.094  -0.033 -0.2641  0.2489  0.4188
 3436TIP3    H110314   5.167   6.069   0.056  0.0215  2.1209  1.0501
 3436TIP3    H210315   5.248   6.170  -0.021 -1.7830  1.6999 -1.4381
 3437TIP3   OH210316   3.754   0.957   1.297 -0.5542 -0.1944 -0.0456
 3437TIP3    H110317   3.721   0.983   1.384 -1.3214  0.4300 -0.5202
 3437TIP3    H210318   3.773   1.039   1.253 -0.3919 -0.5069 -0.5611
 3438TIP3   OH210319   5.091   4.904   3.472  0.0595 -0.0958  0.2262
 3438TIP3    H110320   5.099   4.971   3.540  0.1055 -0.5491  0.6705
 3438TIP3    H210321   5.024   4.844   3.506 -1.8484  1.0793 -1.2949
 3439TIP3   OH210322   2.383   5.953   1.764 -0.5271  0.2898 -0.2807
 3439TIP3    H110323   2.367   5.902   1.844 -0.2799  1.5948  0.6083
 3439TIP3    H210324   2.478   5.951   1.753 -0.5742 -0.0271 -0.6448
 3440TIP3   OH210325   0.098   0.537   1.238  0.5903 -0.5072  0.4961
 3440TIP3    H110326   0.178   0.520   1.189 -0.2572 -0.9212 -0.7708
 3440TIP3    H210327   0.108   0.486   1.318  2.2814  0.7013  1.0915
 3441TIP3   OH210328   0.328   0.697   1.461 -0.1524 -0.4202  0.0466
 3441TIP3    H110329   0.331   0.746   1.378 -3.4760 -0.4156 -0.1606
 3441TIP3    H210330   0.338   0.764   1.529  0.0443 -0.0754 -0.3213
 3442TIP3   OH210331   2.261   3.396   0.305 -0.4851 -0.2299  0.1268
 3442TIP3    H110332   2.291   3.306   0.296 -1.9741 -0.9211  1.8489
 3442TIP3    H210333   2.180   3.390   0.356  0.6990  2.2947  2.4308
 3443TIP3   OH210334   3.377   5.676   0.249 -0.3682 -0.1648 -0.7652
 3443TIP3    H110335   3.419   5.694   0.333  0.6425 -0.1715 -1.2568
 3443TIP3    H210336   3.283   5.677   0.268 -0.1403 -0.4986  0.4238
 3444TIP3   OH210337   4.231   0.089   1.886 -0.0434  0.0985  0.3041
 3444TIP3    H110338   4.185   0.064   1.966  1.4712  0.8831  1.4471
 3444TIP3    H210339   4.323   0.072   1.906  0.1458 -1.9828 -2.1327
 3445TIP3   OH210340   3.145   5.964   1.825  0.1740 -0.3372  0.1205
 3445TIP3    H110341   3.129   5.914   1.745  0.7263 -2.4103  1.2392
 3445TIP3    H210342   3.208   6.031   1.800 -2.2449  1.2550 -1.9385
 3446TIP3   OH210343   4.627   6.084   2.111  0.6646  0.6877 -0.4919
 3446TIP3    H110344   4.572   6.068   2.034 -1.1021  2.1641  0.4307
 3446TIP3    H210345   4.658   6.174   2.100  1.4508  0.4751 -0.0847
 3447TIP3   OH210346   3.268   3.641   3.662  0.1077  0.5637  0.5690
 3447TIP3    H110347   3.215   3.589   3.722  0.2056  0.3530  0.4723
 3447TIP3    H210348   3.344   3.586   3.643 -0.5975  0.0650 -0.8361
 3448TIP3   OH210349   4.638   5.600   0.947  0.2068 -0.5106  0.3518
 3448TIP3    H110350   4.707   5.629   0.887  0.2972 -0.8107  0.3063
 3448TIP3    H210351   4.659   5.508   0.964  0.1944 -0.4233  0.8609
 3449TIP3   OH210352   2.436   2.433   4.538 -0.1970  0.0054 -0.6011
 3449TIP3    H110353   2.364   2.384   4.577 -0.6518  0.4150 -0.9080
 3449TIP3    H210354   2.413   2.525   4.551  1.5444  0.1776  1.5995
 3450TIP3   OH210355   3.926   0.398   0.838  0.0207  0.4080  0.0249
 3450TIP3    H110356   3.906   0.402   0.744 -0.6076  0.4371  0.1600
 3450TIP3    H210357   3.881   0.319   0.868  0.5207  0.2024  0.2323
 3451TIP3   OH210358   4.402   1.277   1.847 -0.6642  0.2581 -0.1642
 3451TIP3    H110359   4.319   1.324   1.841 -1.4769 -0.8891  1.9141
 3451TIP3    H210360   4.400   1.233   1.932  2.6952  1.3867  0.6038
 3452TIP3   OH210361   5.635   0.945   0.447  0.0483 -0.3081 -0.0083
 3452TIP3    H110362   5.615   0.865   0.398 -1.0284  0.0709 -0.1826
 3452TIP3    H210363   5.639   0.916   0.539 -2.6151 -0.1514  0.1772
 3453TIP3   OH210364   4.937   0.814   1.478 -0.2506  0.3068 -0.4893
 3453TIP3    H110365   5.022   0.771   1.474  0.1526  1.0338  0.1262
 3453TIP3    H210366   4.915   0.833   1.386  0.9346  1.4426 -0.5498
 3454TIP3   OH210367   3.076   4.535   0.743  0.2649  0.2922  0.5383
 3454TIP3    H110368   3.095   4.549   0.836 -1.1696  1.9108  0.6225
 3454TIP3    H210369   3.104   4.616   0.701 -1.3757  0.5729 -0.0694
 3455TIP3   OH210370   5.995   1.459   0.689 -0.0613  0.4343  0.7322
 3455TIP3    H110371   6.016   1.366   0.684  0.4040  0.4390  2.4345
 3455TIP3    H210372   6.072   1.504   0.656 -0.1533  0.2291  0.2397
 3456TIP3   OH210373   0.001   0.742   0.853 -0.1431  0.6526 -0.5193
 3456TIP3    H110374   0.055   0.762   0.777  0.1232  1.6751 -0.0794
 3456TIP3    H210375   0.038   0.661   0.888  1.2170  1.4126 -0.1411
 3457TIP3   OH210376   3.210   5.222   2.103 -0.3598 -0.3871 -0.0711
 3457TIP3    H110377   3.276   5.275   2.149 -0.1478  0.0718 -0.8966
 3457TIP3    H210378   3.131   5.276   2.105 -0.8195 -1.0909  1.2351
 3458TIP3   OH210379   5.787   2.089   2.357 -0.3383 -0.2410  0.3046
 3458TIP3    H110380   5.774   1.995   2.369  1.3719 -0.8210 -2.0131
 3458TIP3    H210381   5.879   2.097   2.331 -1.1313  1.8258 -2.0260
 3459TIP3   OH210382   2.471   0.483   4.084  0.0807  0.2108 -0.0887
 3459TIP3    H110383   2.537   0.461   4.019  0.2622 -1.7650  0.7144
 3459TIP3    H210384   2.389   0.485   4.035  0.3082 -0.5415 -0.5119
 3460TIP3   OH210385   3.329   5.430   2.954  0.0461  0.3523 -0.2752
 3460TIP3    H110386   3.400   5.387   3.001 -0.1171  1.2915  0.8665
 3460TIP3    H210387   3.270   5.359   2.929  0.6348 -0.2673  0.0958
 3461TIP3   OH210388   1.870   0.727   3.838  0.6363 -0.4634  0.1180
 3461TIP3    H110389   1.847   0.729   3.745  0.7588  0.1115  0.0962
 3461TIP3    H210390   1.786   0.727   3.884  0.5359 -3.0049 -0.0102
 3462TIP3   OH210391   5.226   5.192   3.458 -0.3122  0.6224 -0.6713
 3462TIP3    H110392   5.320   5.180   3.462 -0.3753  0.2529 -0.2761
 3462TIP3    H210393   5.198   5.145   3.380  0.0221  1.9845 -1.6203
 3463TIP3   OH210394   0.276   0.167   1.315  0.5513 -0.0628 -0.3232
 3463TIP3    H110395   0.321   0.161   1.230  0.5984 -0.5783 -0.2628
 3463TIP3    H210396   0.215   0.093   1.315 -1.1633  1.3361 -0.9109
 3464TIP3   OH210397   5.169   1.401   0.814  0.2200 -0.3702  0.2457
 3464TIP3    H110398   5.226   1.346   0.761  1.0507  1.1605 -0.4910
 3464TIP3    H210399   5.114   1.446   0.750  1.3593  1.6364  0.6331
 3465TIP3   OH210400   3.757   5.754   2.282  0.8326  0.1625 -0.1171
 3465TIP3    H110401   3.716   5.834   2.248  1.6255 -0.3637 -2.4455
 3465TIP3    H210402   3.752   5.692   2.209 -0.4194 -2.1718  1.8803
 3466TIP3   OH210403   5.793   5.179   0.359 -0.1762 -0.2989 -0.1082
 3466TIP3    H110404   5.822   5.130   0.437 -0.2662 -0.0473  0.0834
 3466TIP3    H210405   5.744   5.115   0.308 -3.5150  0.4949  1.9186
 3467TIP3   OH210406   4.669   0.915   0.549  0.0944 -0.6580 -0.3262
 3467TIP3    H110407   4.682   0.837   0.495 -2.1536 -0.2646 -1.4813
 3467TIP3    H210408   4.612   0.886   0.620 -0.0707 -0.2554 -0.2967
 3468TIP3   OH210409   0.531   0.679   2.623 -0.5768 -0.6997 -0.3697
 3468TIP3    H110410   0.615   0.663   2.666 -0.6060 -0.3758 -0.1867
 3468TIP3    H210411   0.536   0.631   2.540 -0.8021 -1.9286  0.3206
 3469TIP3   OH210412   4.426   0.050   0.993 -0.2543 -0.0368 -0.3266
 3469TIP3    H110413   4.453   0.058   1.084 -0.0283 -1.4276 -0.2609
 3469TIP3    H210414   4.377   0.131   0.975  0.3357  0.5763  0.7956
 3470TIP3   OH210415   1.459   2.643   0.703  0.4133  0.3761  0.3322
 3470TIP3    H110416   1.377   2.604   0.734  0.3086 -0.1616 -0.5983
 3470TIP3    H210417   1.484   2.704   0.772 -0.1479 -0.3358  1.1818
 3471TIP3   OH210418   0.470   6.064   0.972 -0.1264  0.1117 -0.3406
 3471TIP3    H110419   0.514   6.118   0.907 -0.4243 -0.8666 -1.3680
 3471TIP3    H210420   0.533   5.996   0.994  0.3150  0.9464  1.0866
 3472TIP3   OH210421   1.936   5.976   2.517 -0.2397 -0.0337 -0.4945
 3472TIP3    H110422   1.992   5.991   2.593 -0.5688  0.1785 -0.2916
 3472TIP3    H210423   1.969   6.035   2.450 -0.2728  0.1542 -0.3469
 3473TIP3   OH210424   0.479   6.076   1.564 -0.5185  0.4041  0.0277
 3473TIP3    H110425   0.432   6.072   1.481 -1.4227 -1.1354  0.6075
 3473TIP3    H210426   0.550   6.139   1.549  0.3629 -1.1253 -2.4396
 3474TIP3   OH210427   3.886   0.914   0.120  0.1481 -0.3242  0.3172
 3474TIP3    H110428   3.963   0.971   0.116 -1.1274  1.3894 -0.4446
 3474TIP3    H210429   3.868   0.904   0.214  1.6540 -1.2507  0.5209
 3475TIP3   OH210430   1.717   0.575   1.751  0.1877  0.5954  0.2992
 3475TIP3    H110431   1.798   0.552   1.796  1.5038  1.0144 -1.7680
 3475TIP3    H210432   1.666   0.623   1.816  0.7926 -1.2784  2.1865
 3476TIP3   OH210433   6.334   2.240   2.450  0.4356  0.1711 -0.6126
 3476TIP3    H110434   6.373   2.251   2.363  2.2403 -1.7319 -0.0944
 3476TIP3    H210435   6.407   2.248   2.511 -0.4891 -0.4367  0.6154
 3477TIP3   OH210436   1.978   3.523   5.241  0.2101  0.7315  0.3744
 3477TIP3    H110437   2.052   3.568   5.200 -1.7736  1.0536 -3.0455
 3477TIP3    H210438   1.968   3.442   5.191 -0.2758 -0.4676  2.3512
 3478TIP3   OH210439   4.072   5.935   2.768 -0.0051  0.6508  0.5556
 3478TIP3    H110440   4.095   5.961   2.857 -0.4608 -0.1581  0.9154
 3478TIP3    H210441   4.050   6.017   2.724  1.9612  1.2749  0.6586
 3479TIP3   OH210442   3.986   2.566   0.372  0.3088 -0.5105  0.7212
 3479TIP3    H110443   3.894   2.589   0.360 -0.0431 -1.2858  1.8280
 3479TIP3    H210444   4.023   2.642   0.417  0.3365  0.0196 -0.1829
 3480TIP3   OH210445   4.956   3.853   2.796  0.2099  0.8560  0.0099
 3480TIP3    H110446   4.921   3.939   2.821 -1.9653 -0.1290  0.5097
 3480TIP3    H210447   4.901   3.791   2.844  0.8758 -0.8596 -1.4176
 3481TIP3   OH210448   5.178   3.038   2.841 -0.6299  0.2851  0.0035
 3481TIP3    H110449   5.094   3.053   2.885 -1.1360 -0.1041 -0.8129
 3481TIP3    H210450   5.159   3.052   2.749 -0.6324 -3.1277 -0.5971
 3482TIP3   OH210451   1.373   5.465   1.694 -0.4419  0.3747  0.1584
 3482TIP3    H110452   1.401   5.420   1.774 -1.2428 -1.5601 -0.6151
 3482TIP3    H210453   1.452   5.507   1.661  0.3472 -0.4894  0.9170
 3483TIP3   OH210454   2.707   1.559   1.405  0.0920  0.3927  0.3144
 3483TIP3    H110455   2.660   1.583   1.325  0.8003 -1.0571 -0.5522
 3483TIP3    H210456   2.659   1.605   1.475 -2.1033 -0.3597 -0.6398
 3484TIP3   OH210457   6.129   1.070   1.587  0.0119  0.0886  0.2168
 3484TIP3    H110458   6.212   1.034   1.618 -1.1877 -3.1450 -0.0425
 3484TIP3    H210459   6.143   1.086   1.494  0.4068 -0.3429  0.1967
 3485TIP3   OH210460   6.120   0.138   0.930 -0.6575  0.6610 -0.0256
 3485TIP3    H110461   6.034   0.102   0.909 -0.8529  1.5289 -0.7670
 3485TIP3    H210462   6.103   0.230   0.952  0.2971  1.4574 -2.3658
 3486TIP3   OH210463   6.279   5.468   1.097  0.0615 -0.0240 -0.2686
 3486TIP3    H110464   6.280   5.527   1.172  1.9375 -0.3151 -0.0244
 3486TIP3    H210465   6.254   5.383   1.134 -0.0881  0.0644 -0.1661
 3487TIP3   OH210466   2.466   1.129   2.864 -0.6376  0.7987 -0.2204
 3487TIP3    H110467   2.459   1.172   2.949 -0.1811  1.9611 -0.7519
 3487TIP3    H210468   2.403   1.175   2.809 -0.9034  0.0759 -0.5145
 3488TIP3   OH210469   5.712   1.164   2.495 -0.3989  0.0658 -0.5854
 3488TIP3    H110470   5.786   1.193   2.442  0.0169  0.8728  0.4309
 3488TIP3    H210471   5.727   1.070   2.509  0.5266  0.2683 -0.2178
 3489TIP3   OH210472   4.990   0.825   2.029 -0.3674 -0.1225  0.2909
 3489TIP3    H110473   4.954   0.802   2.114 -1.6087  1.1318  0.1242
 3489TIP3    H210474   4.919   0.870   1.984  0.8831  0.8995 -0.7047
 3490TIP3   OH210475   3.743   5.144   1.305  0.3903  0.0330  0.4675
 3490TIP3    H110476   3.670   5.136   1.366  0.1686 -1.4831  0.0125
 3490TIP3    H210477   3.821   5.141   1.360  0.1504  0.3551  0.8289
 3491TIP3   OH210478   4.929   1.783   1.914 -0.2836  0.9257  0.1505
 3491TIP3    H110479   4.882   1.846   1.967 -1.2000  0.0778  0.3635
 3491TIP3    H210480   4.864   1.752   1.850 -0.0609 -0.3468  0.5285
 3492TIP3   OH210481   6.373   3.965   4.717  0.0609 -0.1436 -0.0466
 3492TIP3    H110482   6.347   3.875   4.738  0.5681 -0.2833 -0.0170
 3492TIP3    H210483   6.328   4.019   4.782 -1.0449 -0.2888 -0.6796
 3493TIP3   OH210484   5.761   0.273   2.062  0.2774 -0.2170  0.2906
 3493TIP3    H110485   5.764   0.351   2.118 -0.1439 -0.2359  0.3358
 3493TIP3    H210486   5.690   0.219   2.099  1.6207 -1.3805  1.2711
 3494TIP3   OH210487   4.109   1.682   1.090  0.2713 -0.2580  0.6459
 3494TIP3    H110488   4.044   1.737   1.046  0.9996  0.8478  0.9373
 3494TIP3    H210489   4.072   1.667   1.177 -0.6909 -1.6064  0.0299
 3495TIP3   OH210490   4.514   0.657   0.110 -0.8150 -0.1292  0.0618
 3495TIP3    H110491   4.547   0.721   0.046 -0.3738  0.4728  0.8868
 3495TIP3    H210492   4.574   0.583   0.104  0.8428  1.0492  1.7146
 3496TIP3   OH210493   5.092   0.294   4.149  0.3249 -0.5999 -0.3337
 3496TIP3    H110494   5.098   0.233   4.223 -0.8889  0.7080  0.8762
 3496TIP3    H210495   5.080   0.238   4.073  0.3288 -1.9323  0.6223
 3497TIP3   OH210496   6.089   0.343   2.668  0.6117 -0.1971 -0.9510
 3497TIP3    H110497   6.032   0.376   2.737 -0.5098 -0.6001 -1.6623
 3497TIP3    H210498   6.151   0.414   2.651 -0.8786  0.9946 -1.4663
 3498TIP3   OH210499   3.762   0.659   2.973  0.2323  0.0076 -0.9531
 3498TIP3    H110500   3.829   0.590   2.975 -0.2957 -0.5192 -1.2463
 3498TIP3    H210501   3.742   0.675   3.065  1.4922  0.8985 -0.8169
 3499TIP3   OH210502   2.396   4.915   1.726 -0.2423 -0.1040 -0.3543
 3499TIP3    H110503   2.434   4.958   1.803  2.1145 -0.4660 -1.2817
 3499TIP3    H210504   2.356   4.987   1.677 -1.8363  0.1251  1.1942
 3500TIP3   OH210505   6.345   1.088   1.775 -0.3492 -0.5192 -0.0331
 3500TIP3    H110506   6.342   0.993   1.769 -0.3083 -0.4853 -0.7286
 3500TIP3    H210507   6.394   1.106   1.855  0.2510 -1.0832 -0.2709
 3501TIP3   OH210508   1.561   5.815   1.600 -0.1159  0.5435 -0.1127
 3501TIP3    H110509   1.644   5.790   1.560  0.5006  2.1354  0.1317
 3501TIP3    H210510   1.495   5.785   1.538  0.7499  1.5156 -1.5279
 3502TIP3   OH210511   2.159   2.603   4.510  0.0311 -0.0675  0.9945
 3502TIP3    H110512   2.103   2.595   4.433 -0.3191 -1.3491  1.3646
 3502TIP3    H210513   2.207   2.685   4.497  0.0006 -0.2913 -0.6089
 3503TIP3   OH210514   6.329   0.737   0.475 -0.8357  0.1992 -0.5012
 3503TIP3    H110515   6.287   0.737   0.561 -0.9973  0.0041 -0.5821
 3503TIP3    H210516   6.385   0.815   0.477  0.6201 -0.8397  0.5032
 3504TIP3   OH210517   3.012   0.538   0.084 -0.0583  0.0624 -0.0157
 3504TIP3    H110518   3.014   0.553  -0.011  0.6121  1.3302  0.1845
 3504TIP3    H210519   2.942   0.474   0.096  0.5301 -0.8867 -1.4730
 3505TIP3   OH210520   5.878   0.030   0.872 -0.3874 -1.3512  0.0281
 3505TIP3    H110521   5.883   0.083   0.792  0.5368  0.8244  1.4821
 3505TIP3    H210522   5.795   0.056   0.913  1.1426  0.8014  1.9212
 3506TIP3   OH210523   2.295   3.338   5.023 -0.1349 -0.7947  0.4718
 3506TIP3    H110524   2.318   3.267   4.963  0.0579 -1.1301  0.9464
 3506TIP3    H210525   2.352   3.411   4.997  0.4815 -1.1790  0.7403
 3507TIP3   OH210526   2.554   5.659   0.050  0.8327 -0.1118 -0.2368
 3507TIP3    H110527   2.539   5.753   0.042  0.2399 -0.3587 -2.1919
 3507TIP3    H210528   2.478   5.627   0.099  0.0688  0.1475 -1.2430
 3508TIP3   OH210529   1.008   0.629   3.342 -0.2039  0.5406  0.6870
 3508TIP3    H110530   1.002   0.648   3.436 -0.7875  1.2039  0.5249
 3508TIP3    H210531   0.929   0.577   3.324  0.5895 -0.7245  0.8203
 3509TIP3   OH210532   4.214   1.087   1.049 -0.2009  0.4172 -0.1202
 3509TIP3    H110533   4.260   1.048   1.123  1.1433  0.8409 -0.7121
 3509TIP3    H210534   4.149   1.022   1.024 -0.1925 -0.0192  0.9977
 3510TIP3   OH210535   5.132   0.264   1.690  0.0589 -0.0386  0.0964
 3510TIP3    H110536   5.088   0.340   1.652  1.7269  0.6630 -0.5064
 3510TIP3    H210537   5.185   0.229   1.619  0.0902 -1.1582  0.6605
 3511TIP3   OH210538   5.907   1.436   2.639 -0.0498 -0.2291 -0.8686
 3511TIP3    H110539   5.840   1.386   2.686 -0.9723 -0.5043 -2.4490
 3511TIP3    H210540   5.988   1.386   2.653 -0.7261 -1.4910 -1.3724
 3512TIP3   OH210541   1.756   4.183   2.113  0.3228 -0.5395  0.1097
 3512TIP3    H110542   1.699   4.128   2.166 -1.2303  1.4863  0.5883
 3512TIP3    H210543   1.821   4.217   2.175  1.9183 -2.5948 -0.3767
 3513TIP3   OH210544   0.809   1.534   2.993  0.2129 -0.2323 -0.2774
 3513TIP3    H110545   0.892   1.489   3.006  0.5133  0.6397  0.9847
 3513TIP3    H210546   0.834   1.624   2.970 -0.3766 -0.5012 -1.9928
 3514TIP3   OH210547   5.946   0.443   1.878 -0.4866 -0.1858  0.5197
 3514TIP3    H110548   6.019   0.393   1.840  0.7985  1.8402  0.2711
 3514TIP3    H210549   5.886   0.376   1.911  0.9200 -1.9058 -0.3271
 3515TIP3   OH210550   1.020   3.419  -0.019  0.2393  0.2268  0.2060
 3515TIP3    H110551   1.030   3.353   0.050  0.0854  1.0034  0.9789
 3515TIP3    H210552   0.925   3.431  -0.026  0.3362  1.7572  1.4028
 3516TIP3   OH210553   1.086   1.888   4.832 -0.0481  0.3292  0.1303
 3516TIP3    H110554   1.167   1.845   4.804 -0.9262 -0.6045 -1.0702
 3516TIP3    H210555   1.082   1.873   4.926  0.0218 -1.6831 -0.1490
 3517TIP3   OH210556   0.690   1.287   3.677  0.5515 -0.1423  0.2058
 3517TIP3    H110557   0.649   1.202   3.694 -0.0718  0.3492  1.2731
 3517TIP3    H210558   0.766   1.267   3.624  0.4372 -1.3801  0.4858
 3518TIP3   OH210559   5.914   1.290   1.363  0.0466  0.6993 -0.1748
 3518TIP3    H110560   5.847   1.286   1.431  1.7382 -1.3639  1.4361
 3518TIP3    H210561   5.900   1.211   1.310  0.2988  1.0146 -0.7206
 3519TIP3   OH210562   1.956   5.187   1.458  0.1668  0.3955  0.7484
 3519TIP3    H110563   2.006   5.251   1.509  0.3290  1.3110 -0.5554
 3519TIP3    H210564   1.963   5.217   1.368 -0.8035 -0.7733  0.2758
 3520TIP3   OH210565   1.154   1.748   2.193  0.7295 -0.2854  0.1312
 3520TIP3    H110566   1.196   1.683   2.250  2.3007  0.8475  0.3020
 3520TIP3    H210567   1.181   1.832   2.230 -1.6994  0.4945  0.2235
 3521TIP3   OH210568   1.360   0.365   3.032 -0.5817 -0.6991 -0.6060
 3521TIP3    H110569   1.268   0.381   3.053 -0.3858  0.8981 -0.8697
 3521TIP3    H210570   1.364   0.366   2.937  0.1697  2.3087 -0.5993
 3522TIP3   OH210571   4.168   6.132   1.155  0.3454  0.2532  0.1176
 3522TIP3    H110572   4.131   6.147   1.242 -0.9719 -1.7277 -0.0688
 3522TIP3    H210573   4.235   6.065   1.169  1.2965  1.1330 -0.1500
 3523TIP3   OH210574   1.422   0.996   2.648 -0.4615 -0.1641 -0.2364
 3523TIP3    H110575   1.385   1.038   2.571 -0.5654  1.1674  0.5123
 3523TIP3    H210576   1.464   1.067   2.696  0.8149 -1.2107  0.2426
 3524TIP3   OH210577   4.487   5.990   1.863 -0.2441 -0.2707 -0.0416
 3524TIP3    H110578   4.571   6.023   1.832 -0.5578  0.6621  0.0592
 3524TIP3    H210579   4.487   5.898   1.840  0.2156  0.0420 -1.3237
 3525TIP3   OH210580   3.482   5.284   1.826  0.4427  0.1240 -0.3171
 3525TIP3    H110581   3.431   5.289   1.745 -0.9648 -1.2910  0.4503
 3525TIP3    H210582   3.460   5.365   1.873 -0.3509 -0.0148 -0.4319
 3526TIP3   OH210583   6.096   0.445   3.566 -0.0050  0.8293  0.2263
 3526TIP3    H110584   6.037   0.379   3.603  1.1510 -0.1623  0.3520
 3526TIP3    H210585   6.093   0.517   3.629 -1.4523  0.9962 -0.0260
 3527TIP3   OH210586   4.185   5.060   1.572 -0.0903  0.3231  0.0079
 3527TIP3    H110587   4.197   5.138   1.517 -1.2567 -1.2409 -2.5434
 3527TIP3    H210588   4.098   5.028   1.548  1.1705 -2.8874 -0.4669
 3528TIP3   OH210589   5.463   5.039   1.518  0.2592 -0.1148  0.0344
 3528TIP3    H110590   5.377   5.019   1.478 -0.3121  0.9140  0.7309
 3528TIP3    H210591   5.459   4.998   1.604  0.8423 -0.8739 -0.2937
 3529TIP3   OH210592   2.757   0.858   0.828 -0.4716  0.6233 -0.3806
 3529TIP3    H110593   2.779   0.766   0.843 -0.3112  1.0396  2.0962
 3529TIP3    H210594   2.835   0.895   0.787  0.6288  0.3225  1.3717
 3530TIP3   OH210595   4.523   5.261   3.023 -0.2944 -0.1036 -0.1306
 3530TIP3    H110596   4.436   5.247   3.058 -0.8674  0.1966 -1.4013
 3530TIP3    H210597   4.560   5.173   3.012 -0.5629 -0.2439  0.1090
 3531TIP3   OH210598   6.024   0.392   1.050  0.7820  1.0124 -0.0237
 3531TIP3    H110599   5.974   0.473   1.058 -2.8365 -1.1546  0.3257
 3531TIP3    H210600   6.044   0.367   1.141  0.0222  0.4043 -0.0233
 3532TIP3   OH210601   5.597   5.722   1.674 -0.3912 -0.3920  0.1920
 3532TIP3    H110602   5.647   5.760   1.747  1.4170 -0.9453 -0.7135
 3532TIP3    H210603   5.624   5.631   1.671 -2.3805 -1.0008  0.4060
 3533TIP3   OH210604   3.195   1.580   1.031 -0.6862 -0.2944  0.5151
 3533TIP3    H110605   3.124   1.644   1.029 -0.9977 -0.6610 -0.7262
 3533TIP3    H210606   3.163   1.512   1.091 -1.6630 -0.7579 -0.5081
 3534TIP3   OH210607   0.812   0.431   2.037 -0.1931 -0.3743 -0.0303
 3534TIP3    H110608   0.773   0.346   2.057 -1.4301  0.0548 -0.5720
 3534TIP3    H210609   0.738   0.492   2.034  0.6513  0.6804  0.1169
 3535TIP3   OH210610   0.653   1.552   3.300 -0.1590  0.8904 -0.2797
 3535TIP3    H110611   0.644   1.616   3.370  0.1834  0.7202 -0.0764
 3535TIP3    H210612   0.673   1.604   3.222 -3.6679  1.3439 -0.9285
 3536TIP3   OH210613   2.597   2.779   4.856 -0.3085  0.0367  0.0004
 3536TIP3    H110614   2.691   2.771   4.839 -0.3700 -0.3881 -0.1395
 3536TIP3    H210615   2.577   2.708   4.917 -0.4853  0.3055  0.2604
 3537TIP3   OH210616   2.833   5.954   2.237 -0.1091  0.5218 -0.3087
 3537TIP3    H110617   2.868   6.040   2.213  1.1665 -0.2998 -1.4630
 3537TIP3    H210618   2.894   5.921   2.304 -0.5344  0.4662  0.0566
 3538TIP3   OH210619   5.723   1.488   1.578 -0.7561  0.6583  0.1375
 3538TIP3    H110620   5.689   1.413   1.528  0.3793  0.4395 -0.3126
 3538TIP3    H210621   5.661   1.558   1.561 -0.3077  0.6391 -1.7286
 3539TIP3   OH210622   4.141   5.735   4.703  0.3272  0.5642  0.3433
 3539TIP3    H110623   4.109   5.646   4.686 -0.1567  0.4676  1.6380
 3539TIP3    H210624   4.066   5.780   4.744  0.6826  1.4570  0.0259
 3540TIP3   OH210625   5.202   5.640   3.374 -0.3817  0.4296  0.5701
 3540TIP3    H110626   5.135   5.640   3.305 -0.6471  1.8515  0.8183
 3540TIP3    H210627   5.153   5.653   3.455  0.0904  0.3818  0.8629
 3541TIP3   OH210628   2.998   5.330   2.758 -0.7540  1.1861 -0.3128
 3541TIP3    H110629   3.024   5.238   2.754  1.1403  1.7192 -0.7487
 3541TIP3    H210630   2.960   5.340   2.846  0.9416  0.4631  0.5305
 3542TIP3   OH210631   4.102   1.477   0.606 -0.0606  0.4103 -0.0462
 3542TIP3    H110632   4.177   1.436   0.563  0.6156 -0.4718  1.8867
 3542TIP3    H210633   4.044   1.403   0.627 -0.3696  0.8144  0.5312
 3543TIP3   OH210634   3.304   0.552   3.622  0.0389  0.2599  0.1332
 3543TIP3    H110635   3.358   0.509   3.689 -1.2395 -0.2085  0.8741
 3543TIP3    H210636   3.338   0.518   3.539  2.2184  1.5074  0.4790
 3544TIP3   OH210637   3.202   1.753   2.720  0.2719 -0.6063  0.2142
 3544TIP3    H110638   3.238   1.818   2.781  0.4198 -0.3062 -0.1851
 3544TIP3    H210639   3.279   1.707   2.686  0.5359  1.6980 -2.5126
 3545TIP3   OH210640   3.079   3.317   5.021 -0.0614 -0.0835  0.0346
 3545TIP3    H110641   3.126   3.345   4.942  0.8006 -0.9126  0.2439
 3545TIP3    H210642   3.020   3.249   4.991 -0.9948  0.8053 -0.1891
 3546TIP3   OH210643   2.073   0.993   4.262  0.6808  0.0188  1.0107
 3546TIP3    H110644   2.052   0.905   4.230 -0.2103  0.2022  1.0780
 3546TIP3    H210645   2.158   0.983   4.306  1.2159 -0.5382 -0.1122
 3547TIP3   OH210646   5.823   2.290   0.615  0.2563  0.0577  0.2484
 3547TIP3    H110647   5.751   2.335   0.659  1.2167 -0.2083  2.1160
 3547TIP3    H210648   5.869   2.243   0.684  1.1316 -1.2954 -1.2036
 3548TIP3   OH210649   3.384   4.866   4.254 -0.3216  0.7520 -0.1963
 3548TIP3    H110650   3.355   4.954   4.281 -0.7265  1.4816 -2.8456
 3548TIP3    H210651   3.347   4.855   4.166  1.9667 -0.9801 -0.9845
 3549TIP3   OH210652   2.625   4.277   4.472 -0.4507  0.2672  0.4294
 3549TIP3    H110653   2.663   4.192   4.496 -0.5069  1.0338  3.4522
 3549TIP3    H210654   2.535   4.257   4.447 -0.2770 -0.6549  0.5160
 3550TIP3   OH210655   1.474   0.272   0.672 -0.0730  0.7238 -0.4812
 3550TIP3    H110656   1.532   0.255   0.746 -0.2747  0.3810 -0.4023
 3550TIP3    H210657   1.387   0.248   0.703 -0.2977  1.4740 -0.5166
 3551TIP3   OH210658   6.113   0.792   2.199 -0.8461  0.1744 -0.9287
 3551TIP3    H110659   6.049   0.861   2.216  1.0238  1.2791  1.9776
 3551TIP3    H210660   6.168   0.827   2.129  0.4128  1.8713  0.8852
 3552TIP3   OH210661   3.110   4.892   0.470  0.2060 -0.2905  0.2967
 3552TIP3    H110662   3.200   4.867   0.448  0.4190 -0.8789  1.7908
 3552TIP3    H210663   3.061   4.811   0.459 -0.5089  0.4398 -2.3181
 3553TIP3   OH210664   1.625   5.889   0.853  0.2768  0.3536 -0.8211
 3553TIP3    H110665   1.585   5.945   0.786  0.9419  0.6407 -0.9882
 3553TIP3    H210666   1.551   5.854   0.903 -0.1594  1.2606 -0.8198
 3554TIP3   OH210667   3.808   4.926   1.175 -0.7114 -0.0598  0.0872
 3554TIP3    H110668   3.789   5.014   1.209 -0.9142 -0.7682  1.8341
 3554TIP3    H210669   3.896   4.934   1.138 -1.3749  1.2941 -1.3193
 3555TIP3   OH210670   5.065   0.331   2.268  0.2736 -0.5191 -0.3167
 3555TIP3    H110671   5.036   0.261   2.327  0.8527 -0.9862 -0.5767
 3555TIP3    H210672   5.154   0.306   2.244  1.2900  1.4165  1.2663
 3556TIP3   OH210673   3.762   6.089   0.512 -0.2996  0.4158 -0.3237
 3556TIP3    H110674   3.681   6.059   0.472 -1.5787  0.4719  2.1301
 3556TIP3    H210675   3.745   6.180   0.537  1.0179  0.8806 -1.0649
 3557TIP3   OH210676   4.405   0.334   1.580  0.1137  0.3022  0.1981
 3557TIP3    H110677   4.468   0.262   1.589 -1.6667 -1.1415  1.3418
 3557TIP3    H210678   4.370   0.324   1.491  0.5730  0.3542  0.0082
 3558TIP3   OH210679   3.686   5.462   1.017 -0.3254 -0.3742  0.2197
 3558TIP3    H110680   3.725   5.392   0.964 -0.4016 -1.1418  1.1619
 3558TIP3    H210681   3.659   5.528   0.953  1.8019 -0.1756 -0.5126
 3559TIP3   OH210682   4.140   4.781   2.529  0.3270  0.1287  0.2478
 3559TIP3    H110683   4.108   4.693   2.549  0.2089 -0.1425 -1.1100
 3559TIP3    H210684   4.142   4.785   2.434  0.2484  1.6328  0.2962
 3560TIP3   OH210685   4.975   1.913   2.213  0.1818 -0.2023  0.7379
 3560TIP3    H110686   4.917   1.845   2.247 -0.2520 -0.2198 -0.0137
 3560TIP3    H210687   4.937   1.995   2.243  0.1838 -0.2531  0.8764
 3561TIP3   OH210688   0.556   0.249   3.002  0.3673  0.7213  0.0785
 3561TIP3    H110689   0.647   0.236   3.028  0.5542 -0.9032 -1.2929
 3561TIP3    H210690   0.538   0.177   2.941 -1.8422  1.0095  0.3542
 3562TIP3   OH210691   5.002   4.313   2.531  0.3016  0.1083 -0.2063
 3562TIP3    H110692   5.021   4.400   2.566 -0.1968 -0.1101  0.6310
 3562TIP3    H210693   4.935   4.327   2.465  0.5608  0.4163 -0.4041
 3563TIP3   OH210694   1.197   2.330   2.023 -0.0059 -0.2245 -0.4172
 3563TIP3    H110695   1.149   2.273   2.083 -1.8300  1.8371  0.1323
 3563TIP3    H210696   1.250   2.270   1.970  0.7138 -2.1635  2.3945
 3564TIP3   OH210697   1.692   0.938   2.131 -0.0611  0.3909  0.2689
 3564TIP3    H110698   1.743   0.947   2.051 -0.8473  0.9724 -0.1822
 3564TIP3    H210699   1.601   0.947   2.102 -0.4369 -0.8654  1.0175
 3565TIP3   OH210700   0.184   0.254   3.293  0.1099 -0.3720  0.2547
 3565TIP3    H110701   0.184   0.305   3.212  1.5714 -3.2416 -1.6540
 3565TIP3    H210702   0.151   0.168   3.268  2.8150 -2.0588  2.1716
 3566TIP3   OH210703   3.500   4.207   5.097  0.8400 -0.1627 -0.4669
 3566TIP3    H110704   3.446   4.129   5.112  2.0893 -0.9747 -0.1707
 3566TIP3    H210705   3.443   4.265   5.047  0.4352 -1.9297 -2.1375
 3567TIP3   OH210706   4.244   2.798   2.480  0.3659 -0.0291  0.4469
 3567TIP3    H110707   4.216   2.884   2.449  0.1421 -0.9894 -2.1168
 3567TIP3    H210708   4.169   2.764   2.529 -1.3738 -0.7203 -2.5894
 3568TIP3   OH210709   3.066   2.489   5.202  0.6570 -0.0283 -0.4130
 3568TIP3    H110710   3.099   2.578   5.216 -0.0637  0.4320 -1.5543
 3568TIP3    H210711   2.973   2.501   5.184  0.3642 -1.1055  0.3346
 3569TIP3   OH210712   5.631   0.060   0.973 -0.3325  0.2787 -0.1232
 3569TIP3    H110713   5.582   0.134   0.937 -2.3370  0.5450  3.0120
 3569TIP3    H210714   5.574  -0.015   0.958 -0.2263  0.0500  0.6359
 3570TIP3   OH210715   0.593   1.120   2.037  0.0893 -0.0266  0.3468
 3570TIP3    H110716   0.561   1.133   2.126  0.5271  3.5873  0.0375
 3570TIP3    H210717   0.683   1.088   2.048  0.0752  0.2361  1.2153
 3571TIP3   OH210718   2.954   4.969   5.061 -0.0392  0.0960  0.2316
 3571TIP3    H110719   2.917   4.998   4.977 -2.1877 -1.0219  0.7569
 3571TIP3    H210720   2.944   5.045   5.118 -0.8484  0.0673  0.1448
 3572TIP3   OH210721   3.191   1.081   1.535 -0.6619 -0.1349 -0.2226
 3572TIP3    H110722   3.177   1.124   1.619 -0.1385 -0.4418  0.0240
 3572TIP3    H210723   3.127   1.121   1.476 -2.5155 -1.4523  0.8541
 3573TIP3   OH210724   0.307   2.835   2.962  0.6288  0.0258 -0.2145
 3573TIP3    H110725   0.245   2.904   2.983 -0.4044 -0.5018 -1.5022
 3573TIP3    H210726   0.350   2.815   3.046 -1.3461 -0.0107  0.8158
 3574TIP3   OH210727   2.871   5.861   1.487 -0.5434 -0.5409  0.3956
 3574TIP3    H110728   2.945   5.806   1.462 -0.0379  0.1556  0.3377
 3574TIP3    H210729   2.796   5.802   1.487 -0.2578 -0.9152 -1.0993
 3575TIP3   OH210730   2.837   2.061   5.331 -0.1164 -0.0930  0.6031
 3575TIP3    H110731   2.838   2.107   5.247  0.2939 -0.3958  0.4386
 3575TIP3    H210732   2.847   1.968   5.308  1.4021 -0.0616  1.0558
 3576TIP3   OH210733   0.989   0.825   0.787 -0.1239  0.7290 -0.3449
 3576TIP3    H110734   0.947   0.744   0.758  1.9612 -0.0918 -1.1928
 3576TIP3    H210735   0.954   0.840   0.875 -0.9968 -0.7639 -0.4199
 3577TIP3   OH210736   2.109   1.379   0.553 -0.5283 -0.3961  0.7929
 3577TIP3    H110737   2.014   1.387   0.561 -0.5027  0.3862  0.3308
 3577TIP3    H210738   2.140   1.371   0.643 -1.1127 -1.6811  0.8991
 3578TIP3   OH210739   5.961   0.130   3.282  0.0398 -0.0496  0.4237
 3578TIP3    H110740   6.052   0.134   3.252 -0.0434 -1.6965 -0.1017
 3578TIP3    H210741   5.967   0.101   3.373  0.0192 -0.7470  0.2057
 3579TIP3   OH210742   5.692   0.353   1.306  0.2543 -0.0755 -0.1783
 3579TIP3    H110743   5.757   0.422   1.316  0.8574 -0.3712 -1.8838
 3579TIP3    H210744   5.608   0.396   1.322  0.6246  1.0400 -1.1895
 3580TIP3   OH210745   0.321   0.748   3.505  0.2500  0.3252 -0.6593
 3580TIP3    H110746   0.390   0.752   3.571 -0.3704 -0.7454  0.0669
 3580TIP3    H210747   0.261   0.819   3.528 -0.1886 -0.3139  0.1959
 3581TIP3   OH210748   0.137   0.967   1.548  0.0808  0.5418  0.1642
 3581TIP3    H110749   0.229   0.970   1.525  0.1658  1.6614  0.6083
 3581TIP3    H210750   0.134   0.932   1.637  0.2551  2.5179  0.9791
 3582TIP3   OH210751   1.005   0.490   1.831  0.0599  0.1254 -0.2000
 3582TIP3    H110752   0.934   0.514   1.891 -0.5095 -0.7723 -0.5220
 3582TIP3    H210753   1.073   0.557   1.848 -0.2004  0.0544  1.2416
 3583TIP3   OH210754   5.794   0.388   1.607  0.0730 -0.1140  0.0931
 3583TIP3    H110755   5.804   0.446   1.531 -0.3134 -1.1499 -0.7643
 3583TIP3    H210756   5.869   0.328   1.601  1.6676  1.5723  2.1602
 3584TIP3   OH210757   3.262   6.109   0.238  0.6359  0.5386  0.0435
 3584TIP3    H110758   3.220   6.024   0.254  2.1778  0.0215  1.4886
 3584TIP3    H210759   3.208   6.150   0.170  0.2561 -1.8721 -1.1500
 3585TIP3   OH210760   1.796   1.749   1.580 -0.1377  0.3844  0.4152
 3585TIP3    H110761   1.777   1.813   1.511 -0.6257  1.3121  1.3839
 3585TIP3    H210762   1.710   1.724   1.614  0.0359 -1.0626 -0.1880
 3586TIP3   OH210763   0.758   1.213   1.205  0.3688  0.0531  0.0142
 3586TIP3    H110764   0.849   1.234   1.186  0.5482 -2.0522 -1.6168
 3586TIP3    H210765   0.761   1.128   1.249 -0.8196 -0.0909 -0.1531
 3587TIP3   OH210766   5.112   4.120   2.004  0.3355 -0.5729  0.0969
 3587TIP3    H110767   5.068   4.127   1.919 -1.2551  0.6703  0.9974
 3587TIP3    H210768   5.129   4.026   2.014  0.8814 -0.7064 -1.7393
 3588TIP3   OH210769   1.233   0.690   4.497  0.0229 -0.1247 -0.2865
 3588TIP3    H110770   1.278   0.774   4.496  1.1906 -0.7243  0.1560
 3588TIP3    H210771   1.160   0.702   4.558 -0.6084  0.9459 -1.2369
 3589TIP3   OH210772   0.396   4.583   2.550  0.2901 -0.4726 -0.0370
 3589TIP3    H110773   0.414   4.635   2.472 -0.4276  1.4500  1.0704
 3589TIP3    H210774   0.428   4.636   2.622 -2.6545 -0.4857  1.3135
 3590TIP3   OH210775   5.782   3.790   3.445  0.4237 -0.9276 -0.3053
 3590TIP3    H110776   5.769   3.747   3.530 -0.7181 -2.4471 -1.2169
 3590TIP3    H210777   5.876   3.807   3.441  0.4154 -0.3905  1.4732
 3591TIP3   OH210778   0.897   0.591   0.705 -0.2714  0.0512 -0.7775
 3591TIP3    H110779   0.897   0.538   0.625  0.9739 -2.1417  0.6297
 3591TIP3    H210780   0.878   0.529   0.775  1.5003  1.3908  0.9504
 3592TIP3   OH210781   5.626   0.055   2.867  0.0747  0.4255  0.1905
 3592TIP3    H110782   5.648  -0.016   2.927  0.0981  0.7768  0.6092
 3592TIP3    H210783   5.551   0.023   2.817 -0.2388  0.2955  0.7306
 3593TIP3   OH210784   3.729   0.501   1.952 -0.1152  0.5340  0.3831
 3593TIP3    H110785   3.670   0.555   2.005 -0.0984  0.6730  0.2623
 3593TIP3    H210786   3.679   0.422   1.932 -0.8223  1.2959 -0.9807
 3594TIP3   OH210787   0.960   0.421   1.527 -0.0825  0.1433 -0.4296
 3594TIP3    H110788   1.036   0.468   1.492 -0.0809  0.8923  0.5719
 3594TIP3    H210789   0.927   0.477   1.597 -1.9249  0.1192 -1.2629
 3595TIP3   OH210790   6.465   2.093   1.889  0.0878  0.0290  0.2929
 3595TIP3    H110791   6.542   2.108   1.834 -1.4850  0.7426 -1.7975
 3595TIP3    H210792   6.436   2.005   1.866 -1.1170  0.6755 -0.7736
 3596TIP3   OH210793   0.865   0.305   1.147 -0.1520  0.0374 -0.1713
 3596TIP3    H110794   0.939   0.343   1.194 -0.1608 -0.6069  0.3711
 3596TIP3    H210795   0.858   0.216   1.181 -0.1967 -0.4234 -1.3505
 3597TIP3   OH210796   6.169   3.904   1.571 -0.1773  0.6027  0.4286
 3597TIP3    H110797   6.150   3.989   1.531 -1.1569 -0.3524 -1.1911
 3597TIP3    H210798   6.264   3.893   1.558 -0.3622  0.6267 -1.0188
 3598TIP3   OH210799   0.638   5.815   2.097 -0.0109  0.0479  0.0927
 3598TIP3    H110800   0.683   5.882   2.046  0.3506 -0.4357 -0.2336
 3598TIP3    H210801   0.652   5.734   2.048  0.0888 -0.3705  0.7989
 3599TIP3   OH210802   0.015   4.376   1.498 -0.5386 -0.1798  0.4890
 3599TIP3    H110803   0.016   4.346   1.407  1.0091  0.2595  0.3408
 3599TIP3    H210804  -0.006   4.298   1.548  3.2590 -1.5770  0.0940
 3600TIP3   OH210805   4.903   5.500   1.730 -0.0143 -0.0013  0.3483
 3600TIP3    H110806   4.816   5.534   1.749 -0.7511 -1.2122 -0.7117
 3600TIP3    H210807   4.963   5.570   1.755 -1.3462  1.2002  0.2381
 3601TIP3   OH210808   4.902   5.273   2.938 -0.1596 -0.2829 -0.0698
 3601TIP3    H110809   4.823   5.326   2.930 -0.8229 -1.3748 -0.9419
 3601TIP3    H210810   4.879   5.189   2.897  1.1931 -0.8863  0.3668
 3602TIP3   OH210811   1.779   2.468   0.034  0.2198 -0.1390 -0.3199
 3602TIP3    H110812   1.719   2.528   0.079  1.6925  1.1256 -0.0012
 3602TIP3    H210813   1.823   2.421   0.105  2.5165  1.8265 -0.3617
 3603TIP3   OH210814   3.425   0.979   4.353  0.0894 -0.3564 -0.6721
 3603TIP3    H110815   3.425   1.069   4.320  0.1949 -0.5067 -1.0896
 3603TIP3    H210816   3.336   0.965   4.383  0.9002  1.0555  2.6626
 3604TIP3   OH210817   3.001   2.424   1.062  0.1238  0.1901 -0.1238
 3604TIP3    H110818   3.082   2.435   1.011  1.0804 -0.4494  1.2462
 3604TIP3    H210819   3.023   2.457   1.149 -1.4759  1.1548 -0.0677
 3605TIP3   OH210820   0.576   1.062   3.834  0.1218  0.3161 -0.0276
 3605TIP3    H110821   0.500   1.059   3.892  1.0539  0.4861  1.2157
 3605TIP3    H210822   0.635   0.995   3.868  1.0813  1.0663 -0.1823
 3606TIP3   OH210823   4.208   4.497   0.241 -0.1869 -0.6291  0.3984
 3606TIP3    H110824   4.164   4.562   0.295  1.1177 -0.1180  0.8555
 3606TIP3    H210825   4.170   4.509   0.153 -0.3158  0.3821  0.5914
 3607TIP3   OH210826   0.881   3.280   4.657  0.5828  0.1726 -0.9429
 3607TIP3    H110827   0.970   3.299   4.687 -0.0254 -0.4410  1.3272
 3607TIP3    H210828   0.840   3.366   4.649  1.0225  0.3948 -0.8419
 3608TIP3   OH210829   4.688   3.750   1.790 -0.1202 -0.5041 -0.2806
 3608TIP3    H110830   4.704   3.734   1.883 -0.3180 -1.0307 -0.3349
 3608TIP3    H210831   4.637   3.831   1.788 -2.9572 -2.2082  0.2741
 3609TIP3   OH210832   4.810   3.297   0.842  0.3273 -0.1913 -0.2420
 3609TIP3    H110833   4.787   3.218   0.794  0.1965 -1.6618  2.1984
 3609TIP3    H210834   4.761   3.292   0.924  0.4053  2.3593  0.0203
 3610TIP3   OH210835   3.730   5.129   0.025  0.2352  0.4749  0.4347
 3610TIP3    H110836   3.676   5.167   0.094 -1.2077 -1.5437  0.4805
 3610TIP3    H210837   3.816   5.167   0.037 -0.1369  0.5490  3.0333
 3611TIP3   OH210838   2.721   3.319   0.284  0.0909 -0.2759 -0.5856
 3611TIP3    H110839   2.771   3.319   0.365  1.6062  1.6573 -1.4736
 3611TIP3    H210840   2.655   3.387   0.296 -0.3899 -0.7358 -0.5766
 3612TIP3   OH210841   4.904   5.012   2.773 -0.3272  0.5138  0.5028
 3612TIP3    H110842   4.814   4.998   2.743  0.3055  1.6892 -2.0586
 3612TIP3    H210843   4.939   4.924   2.787 -1.6960  0.0410  1.0134
 3613TIP3   OH210844   2.411   0.279   4.729 -0.1228  0.3167 -0.7861
 3613TIP3    H110845   2.493   0.327   4.718 -0.5882  1.0992 -0.8742
 3613TIP3    H210846   2.375   0.312   4.812 -0.5166  0.2263 -0.9222
 3614TIP3   OH210847   2.465   0.354   3.620 -0.2143 -0.0334 -0.4663
 3614TIP3    H110848   2.518   0.429   3.593  0.8734 -0.6630 -0.1129
 3614TIP3    H210849   2.487   0.340   3.712 -1.4344  0.0501 -0.1468
 3615TIP3   OH210850   2.283   0.762   4.234 -0.1627  0.3953  0.3056
 3615TIP3    H110851   2.267   0.772   4.328 -1.5006  2.4068 -0.0920
 3615TIP3    H210852   2.345   0.832   4.213  0.4155 -0.2751 -0.2656
 3616TIP3   OH210853   4.422   5.705   2.414 -0.2639 -0.1031 -0.5281
 3616TIP3    H110854   4.356   5.762   2.455 -1.6504 -2.6230  0.9027
 3616TIP3    H210855   4.371   5.632   2.380  1.6247 -1.1081 -1.2302
 3617TIP3   OH210856   5.730   1.636   3.148  0.2323  0.5378 -0.2876
 3617TIP3    H110857   5.746   1.606   3.237 -1.2472  0.1978 -0.1231
 3617TIP3    H210858   5.729   1.556   3.095 -0.0517  0.6300 -0.4247
 3618TIP3   OH210859   6.013   5.656   3.761  0.2426  0.0518  0.4552
 3618TIP3    H110860   6.104   5.683   3.758  0.2335  0.5512  3.5820
 3618TIP3    H210861   5.964   5.732   3.729  0.8707 -0.1606 -1.0627
 3619TIP3   OH210862   0.825   5.819   4.470  0.2974  0.5448 -0.3010
 3619TIP3    H110863   0.735   5.813   4.437  0.2654  0.2021 -0.1500
 3619TIP3    H210864   0.868   5.881   4.411 -0.2945  1.4261  0.1948
 3620TIP3   OH210865   4.159   1.920   1.395  0.1454  0.5455 -0.0038
 3620TIP3    H110866   4.129   2.003   1.433  0.7865 -0.4266  2.7541
 3620TIP3    H210867   4.116   1.852   1.447  0.5974 -0.8752 -1.4322
 3621TIP3   OH210868   0.253   0.816   2.549  0.3844 -0.0932 -0.5108
 3621TIP3    H110869   0.331   0.776   2.588  0.9161  0.9936 -0.4436
 3621TIP3    H210870   0.266   0.910   2.559 -2.0753  0.0830  1.7489
 3622TIP3   OH210871   0.295   4.494   4.752 -0.1109 -0.5134 -0.2096
 3622TIP3    H110872   0.243   4.493   4.832 -0.3642 -0.1855 -0.3663
 3622TIP3    H210873   0.355   4.567   4.762 -0.3568 -0.2744 -0.4492
 3623TIP3   OH210874   4.997   5.802   4.309  0.7280  0.2743  0.1699
 3623TIP3    H110875   5.061   5.744   4.350  1.3271 -1.3060 -2.8853
 3623TIP3    H210876   5.048   5.876   4.277  0.2941  1.3892  1.9800
 3624TIP3   OH210877   4.331   1.073   3.811 -0.2669 -0.1936  0.0040
 3624TIP3    H110878   4.318   0.979   3.826  0.3577 -0.4896 -1.2347
 3624TIP3    H210879   4.247   1.103   3.776 -0.0628 -0.5639 -0.8283
 3625TIP3   OH210880   1.835   0.753   1.426 -0.0768  0.3625  0.6223
 3625TIP3    H110881   1.831   0.689   1.355  1.1074 -0.7664  1.5247
 3625TIP3    H210882   1.881   0.828   1.389  0.9091 -0.3871  0.3015
 3626TIP3   OH210883   6.075   5.771   1.650  0.5074  0.0792 -0.2762
 3626TIP3    H110884   6.028   5.850   1.624  1.9020  0.6750 -1.0833
 3626TIP3    H210885   6.086   5.722   1.568 -0.5124 -1.0579  0.2495
 3627TIP3   OH210886   1.766   0.694   4.621 -0.3083 -0.0032  0.0551
 3627TIP3    H110887   1.718   0.636   4.679  0.6168 -0.6406  0.1866
 3627TIP3    H210888   1.857   0.668   4.631  0.0310  0.9862 -0.4331
 3628TIP3   OH210889   4.841   5.007   4.674 -0.6681 -0.3639 -0.3951
 3628TIP3    H110890   4.855   5.042   4.586  1.2998  1.1708  0.4926
 3628TIP3    H210891   4.795   5.077   4.721  0.8972  0.0019  0.6197
 3629TIP3   OH210892   2.947   3.852   1.147  0.3997  0.1716  0.0528
 3629TIP3    H110893   2.884   3.923   1.162 -0.5335 -0.7345  0.4226
 3629TIP3    H210894   3.032   3.894   1.158 -0.1618  1.0174  1.3102
 3630TIP3   OH210895   0.829   4.722   4.406  0.4988  0.7506  0.3480
 3630TIP3    H110896   0.848   4.696   4.497  3.1971 -0.8610 -0.6076
 3630TIP3    H210897   0.857   4.646   4.354 -0.3806  1.9315 -1.8859
 3631TIP3   OH210898   3.429   1.103   0.080 -0.1792 -0.1053  0.1551
 3631TIP3    H110899   3.413   1.088  -0.013 -0.6098  2.4561 -0.2300
 3631TIP3    H210900   3.344   1.091   0.122 -0.2215 -0.1742  0.0471
 3632TIP3   OH210901   0.348   5.426   3.786  0.4737 -0.1107  0.1548
 3632TIP3    H110902   0.259   5.393   3.774  0.4244  0.1665 -0.2859
 3632TIP3    H210903   0.367   5.470   3.703  1.1577 -0.4839  0.1175
 3633TIP3   OH210904   5.180   5.670   0.587 -0.0597 -0.1293  0.1762
 3633TIP3    H110905   5.160   5.581   0.616 -0.8941 -0.9040 -2.6170
 3633TIP3    H210906   5.145   5.726   0.656 -3.1762 -1.8302  0.0627
 3634TIP3   OH210907   4.037   0.797   3.424 -0.0095 -0.3392 -0.1520
 3634TIP3    H110908   4.117   0.838   3.456 -0.0093  0.0373 -0.6281
 3634TIP3    H210909   4.013   0.848   3.347  0.8485 -2.1627 -1.6783
 3635TIP3   OH210910   4.706   5.202   1.844  0.0063  0.0704 -0.8209
 3635TIP3    H110911   4.617   5.231   1.860  0.2232  1.3934 -1.9114
 3635TIP3    H210912   4.744   5.270   1.788  1.5264 -0.7399 -0.8113
 3636TIP3   OH210913   1.891   0.515   4.384 -0.1495  0.0256  0.3208
 3636TIP3    H110914   1.967   0.529   4.328 -0.9223  0.1716 -0.7251
 3636TIP3    H210915   1.925   0.519   4.473  1.0068  0.3990 -0.1276
 3637TIP3   OH210916   5.045   5.062   3.718 -0.3614  0.4566  0.6320
 3637TIP3    H110917   5.016   5.061   3.809 -1.3483  2.0136  0.3510
 3637TIP3    H210918   5.076   5.152   3.704  2.5725 -0.5695  0.2841
 3638TIP3   OH210919   2.441   3.561   4.094  0.4880 -0.2445 -0.2843
 3638TIP3    H110920   2.411   3.529   4.008 -0.3540  0.6684 -0.3409
 3638TIP3    H210921   2.426   3.487   4.153  0.8255 -0.7872 -0.8721
 3639TIP3   OH210922   3.756   3.855   0.069 -0.3296  0.1793  0.0972
 3639TIP3    H110923   3.680   3.798   0.073 -0.7830  0.7336 -0.4776
 3639TIP3    H210924   3.828   3.797   0.043 -0.5072 -0.3862  0.8704
 3640TIP3   OH210925   3.931   2.601   0.050 -0.3607  0.3688  0.0968
 3640TIP3    H110926   3.922   2.524   0.107 -1.7968 -0.2600 -0.9688
 3640TIP3    H210927   4.013   2.587   0.003  0.1167  0.2081  0.9602
 3641TIP3   OH210928   4.874   3.702   0.230  0.8606  0.9026  0.2397
 3641TIP3    H110929   4.932   3.712   0.306  0.5548  2.3934  0.2842
 3641TIP3    H210930   4.803   3.646   0.263  0.8045  1.4155  1.0150
 3642TIP3   OH210931   2.149   1.225   1.176 -0.4219  0.2076 -0.5798
 3642TIP3    H110932   2.086   1.296   1.159  0.4766  0.8180 -1.3967
 3642TIP3    H210933   2.174   1.193   1.090  0.8973  0.4171 -0.2918
 3643TIP3   OH210934   3.025   3.658   0.482 -0.2581 -0.0285 -0.1982
 3643TIP3    H110935   3.039   3.727   0.417 -0.3215 -0.4024 -0.6122
 3643TIP3    H210936   3.114   3.633   0.509 -0.1371 -1.3417 -1.7069
 3644TIP3   OH210937   6.060   4.735   3.972  0.0511  0.3191  0.1828
 3644TIP3    H110938   5.988   4.760   4.029 -0.2812  0.9521 -0.4945
 3644TIP3    H210939   6.135   4.723   4.030 -0.1061  1.6321  0.6759
 3645TIP3   OH210940   1.538   0.707   4.388  0.1263  0.5444  0.2589
 3645TIP3    H110941   1.454   0.750   4.375  0.2413  0.5201 -0.6134
 3645TIP3    H210942   1.533   0.628   4.334  0.6194  0.4290  0.3807
 3646TIP3   OH210943   0.925   1.669   4.944  0.1991  1.0727 -0.4015
 3646TIP3    H110944   0.876   1.746   4.974 -0.5844 -0.2395  1.7556
 3646TIP3    H210945   1.015   1.685   4.971  0.4039  2.0819 -1.6414
 3647TIP3   OH210946   5.340   3.999   4.544  0.4578 -0.3611  0.1598
 3647TIP3    H110947   5.352   3.922   4.489 -1.9645 -0.6390 -0.0227
 3647TIP3    H210948   5.329   4.071   4.482 -0.1994 -0.3423  0.2948
 3648TIP3   OH210949   2.618   0.685   4.548 -0.0169  0.0544  0.2224
 3648TIP3    H110950   2.604   0.689   4.453 -1.1166  0.3061  0.3831
 3648TIP3    H210951   2.607   0.593   4.570 -0.6368  0.1243  0.2231
 3649TIP3   OH210952   2.666   0.857   2.607  0.3103 -0.5392  0.3595
 3649TIP3    H110953   2.590   0.812   2.569  0.8481 -1.1844  0.0503
 3649TIP3    H210954   2.723   0.787   2.637  0.0547 -0.0499  2.0670
 3650TIP3   OH210955   0.829   0.381   0.885 -0.1776  0.1165 -0.0623
 3650TIP3    H110956   0.838   0.376   0.980  0.2388  2.1183  0.0159
 3650TIP3    H210957   0.879   0.306   0.852 -1.2137 -1.2295  1.3062
 3651TIP3   OH210958   2.699   1.774   4.971 -0.2451 -0.7063 -0.1503
 3651TIP3    H110959   2.782   1.728   4.975  0.1739 -0.0817 -1.4719
 3651TIP3    H210960   2.663   1.752   4.886 -2.0373 -1.9666  0.8860
 3652TIP3   OH210961   1.964   1.174   3.824  0.2055 -0.0342 -0.1501
 3652TIP3    H110962   2.029   1.236   3.858 -1.6189  1.0797  1.4390
 3652TIP3    H210963   2.014   1.096   3.801  1.8959  0.1769  2.6100
 3653TIP3   OH210964   6.238   0.700   4.053  0.1364 -0.1760  0.5275
 3653TIP3    H110965   6.146   0.697   4.082  0.1025  0.9295  0.5554
 3653TIP3    H210966   6.235   0.743   3.968  0.7507  0.9921  1.0775
 3654TIP3   OH210967   5.802   4.730   4.529  0.2822 -0.3509 -0.1618
 3654TIP3    H110968   5.737   4.758   4.594  0.4854  0.6589 -0.3886
 3654TIP3    H210969   5.883   4.722   4.579  0.1571 -0.8749 -0.0329
 3655TIP3   OH210970   5.234   5.370   0.561  0.4362  0.0707 -0.0810
 3655TIP3    H110971   5.275   5.413   0.485  0.9650 -1.5759 -0.7433
 3655TIP3    H210972   5.168   5.313   0.522  1.0861 -1.1981  0.6552
 3656TIP3   OH210973   5.059   5.902   4.653  0.8300 -0.3883  0.1191
 3656TIP3    H110974   4.989   5.967   4.655  2.6646  1.6371  0.6970
 3656TIP3    H210975   5.136   5.951   4.625  2.4150 -2.1746  1.2425
 3657TIP3   OH210976   5.371   5.458   3.141 -0.6320 -0.0690  0.0537
 3657TIP3    H110977   5.352   5.549   3.164  0.6068  0.0926  0.5237
 3657TIP3    H210978   5.287   5.421   3.115 -1.2801  1.0022  0.5945
 3658TIP3   OH210979   0.986   0.631   5.236 -0.2868 -0.3898  0.2767
 3658TIP3    H110980   1.074   0.652   5.206 -0.0656 -1.6885 -0.0029
 3658TIP3    H210981   0.972   0.688   5.312 -0.2059  1.6927 -1.2504
 3659TIP3   OH210982   5.769   0.852   3.697 -0.2279  0.0062 -0.1205
 3659TIP3    H110983   5.694   0.841   3.756 -0.5043  0.0423 -0.4636
 3659TIP3    H210984   5.757   0.939   3.659 -1.3552 -0.9594 -2.0456
 3660TIP3   OH210985   0.451   0.207   2.706  0.2093  0.4361  0.1643
 3660TIP3    H110986   0.369   0.184   2.662  1.0981  0.3699 -1.5013
 3660TIP3    H210987   0.437   0.296   2.739 -0.0543  0.9346 -1.2898
 3661TIP3   OH210988   3.561   2.392   1.827  0.2311 -0.2218 -0.1947
 3661TIP3    H110989   3.653   2.400   1.805  0.2626  1.4065  0.4432
 3661TIP3    H210990   3.559   2.340   1.907  0.6446  0.3029  0.1549
 3662TIP3   OH210991   1.350   0.404   2.314 -0.0089 -0.2047  0.5269
 3662TIP3    H110992   1.388   0.392   2.227 -1.9542 -1.4543 -0.1746
 3662TIP3    H210993   1.321   0.496   2.314  0.6400  0.0014  0.1082
 3663TIP3   OH210994   2.053   1.465   3.864  0.0367  0.8901  0.3490
 3663TIP3    H110995   2.145   1.451   3.839  0.2452  2.5549  0.1540
 3663TIP3    H210996   2.005   1.455   3.782  0.0305 -0.0033  0.4539
 3664TIP3   OH210997   3.338   2.343   0.836  0.2629 -0.0212 -0.1801
 3664TIP3    H110998   3.258   2.382   0.802 -0.4039  0.7812  2.1671
 3664TIP3    H210999   3.399   2.416   0.843  1.2237 -0.6312 -1.9481
 3665TIP3   OH211000   4.836   4.285   1.072  0.0553 -0.7294  0.2554
 3665TIP3    H111001   4.786   4.237   1.137 -2.6895  1.1850 -0.3587
 3665TIP3    H211002   4.783   4.281   0.993  1.8673 -0.3789 -1.0243
 3666TIP3   OH211003   5.317   5.685   4.176 -0.0765  0.2699  0.1387
 3666TIP3    H111004   5.379   5.620   4.208  0.7035  1.6614  1.4991
 3666TIP3    H211005   5.365   5.768   4.179 -1.1652  0.9769 -1.2486
 3667TIP3   OH211006   5.987   5.100   4.010 -0.0187 -0.2300  0.0030
 3667TIP3    H111007   5.923   5.054   4.065 -0.7705 -1.5206 -1.9296
 3667TIP3    H211008   6.014   5.036   3.945  1.7738  0.9255 -0.4323
 3668TIP3   OH211009   2.159   0.940   4.959 -0.1836  0.4964  0.2967
 3668TIP3    H111010   2.242   0.965   5.000  0.5197 -0.2773 -0.6074
 3668TIP3    H211011   2.183   0.921   4.868 -1.1491 -0.8828  0.3198
 3669TIP3   OH211012   3.100   1.884   4.852  0.5001 -0.5754  0.3769
 3669TIP3    H111013   3.162   1.894   4.780  2.3942  0.8781  2.1168
 3669TIP3    H211014   3.077   1.974   4.876 -0.0532 -1.0375  1.6274
 3670TIP3   OH211015   3.067   2.559   0.519 -0.0522 -0.1120 -0.2413
 3670TIP3    H111016   3.124   2.633   0.498  0.9265 -0.7669  0.0501
 3670TIP3    H211017   2.979   2.590   0.500  0.3577  1.1026 -0.1874
 3671TIP3   OH211018   4.588   4.127   0.271  0.1311 -0.3397  0.1548
 3671TIP3    H111019   4.616   4.190   0.338  1.3098 -0.8031  0.1005
 3671TIP3    H211020   4.530   4.178   0.214  1.4705  0.8488 -0.1816
 3672TIP3   OH211021   3.514   2.593   0.257  0.1198  0.7992  0.1764
 3672TIP3    H111022   3.541   2.502   0.245  0.2361  1.0825 -2.0854
 3672TIP3    H211023   3.430   2.588   0.301 -1.8403 -0.6434 -3.4506
 3673TIP3   OH211024   3.872   5.039   1.538  0.0942 -0.0755  0.0424
 3673TIP3    H111025   3.855   5.125   1.575  0.1822  0.5219 -1.2871
 3673TIP3    H211026   3.797   4.986   1.564 -1.1030  1.0422 -1.0896
 3674TIP3   OH211027   2.835   3.585   0.893 -0.7135  0.6205 -0.7112
 3674TIP3    H111028   2.896   3.512   0.883  1.0752  1.9179  0.4835
 3674TIP3    H211029   2.844   3.611   0.984 -2.0646  1.7061 -0.8806
 3675TIP3   OH211030   2.753   0.630   3.593  0.2774 -0.9067 -0.1473
 3675TIP3    H111031   2.847   0.628   3.577  0.9358  1.9254  2.8552
 3675TIP3    H211032   2.744   0.605   3.685 -1.6427  1.1400  0.2758
 3676TIP3   OH211033   4.003   5.194   4.746  0.5552  0.1795 -0.1436
 3676TIP3    H111034   3.976   5.118   4.694 -0.6232 -2.0413  3.5557
 3676TIP3    H211035   3.923   5.245   4.757  0.7764  0.5903 -0.4619
 3677TIP3   OH211036   5.285   3.806   1.897  0.1323  0.9149  0.4033
 3677TIP3    H111037   5.239   3.828   1.816  0.4901  0.1557 -0.0187
 3677TIP3    H211038   5.326   3.721   1.878 -0.2797  0.4472  1.5893
 3678TIP3   OH211039   2.299   1.879   5.101  0.0142  0.5040 -0.0064
 3678TIP3    H111040   2.275   1.873   5.009 -1.6338 -0.1251  0.4297
 3678TIP3    H211041   2.283   1.970   5.125  1.5558  0.9424 -0.6210
 3679TIP3   OH211042   5.687   1.325   3.247  0.1755 -0.0033 -0.3486
 3679TIP3    H111043   5.765   1.276   3.273  0.2595  0.1303 -0.3488
 3679TIP3    H211044   5.636   1.333   3.328  0.5897  0.6897 -0.1485
 3680TIP3   OH211045   3.844   1.597   4.893 -0.2455  0.4080 -0.4347
 3680TIP3    H111046   3.867   1.505   4.904 -0.7049  0.3494  0.1260
 3680TIP3    H211047   3.843   1.612   4.799  0.2020 -0.0641 -0.5127
 3681TIP3   OH211048   6.337   0.945   2.921  0.4532 -0.4939  0.4474
 3681TIP3    H111049   6.258   0.965   2.972 -0.2742 -1.0120 -0.4429
 3681TIP3    H211050   6.409   0.957   2.982 -0.3105  0.1404  1.2370
 3682TIP3   OH211051   5.311   5.749   0.154 -0.1747 -0.1781  0.2995
 3682TIP3    H111052   5.376   5.765   0.222  0.2850 -1.6220  0.2127
 3682TIP3    H211053   5.232   5.724   0.201 -0.8898  2.2090  0.4350
 3683TIP3   OH211054   1.547   2.817   4.852 -0.2938  0.2862  0.1763
 3683TIP3    H111055   1.541   2.900   4.900  0.7565 -0.8090  2.2840
 3683TIP3    H211056   1.475   2.764   4.887  0.0279 -0.2632  0.0162
 3684TIP3   OH211057   2.760   1.222   0.774  0.3180 -0.0596 -0.1689
 3684TIP3    H111058   2.800   1.305   0.803 -1.0051  0.7180 -0.5297
 3684TIP3    H211059   2.831   1.176   0.730  1.1257  0.8148  0.1912
 3685TIP3   OH211060   5.795   5.783   3.385  0.3343  0.7165 -0.3448
 3685TIP3    H111061   5.704   5.792   3.357  0.2112  0.8033  0.0881
 3685TIP3    H211062   5.845   5.835   3.322  0.0530  0.9491 -0.3740
 3686TIP3   OH211063   2.700   5.422   0.276 -0.3840  0.2252  0.4783
 3686TIP3    H111064   2.700   5.509   0.315  1.4231  0.3436  0.2453
 3686TIP3    H211065   2.779   5.380   0.310  0.1381 -0.3988 -1.4200
 3687TIP3   OH211066   6.404   0.074   5.063 -0.2548  0.3723 -0.1319
 3687TIP3    H111067   6.351   0.074   5.143  0.3760  0.4571  0.2889
 3687TIP3    H211068   6.341   0.057   4.993 -0.6637 -0.7093  0.4830
 3688TIP3   OH211069   4.155   5.396   0.873 -0.0253  0.6150  0.5208
 3688TIP3    H111070   4.205   5.402   0.792 -3.1674 -1.2019 -1.6619
 3688TIP3    H211071   4.104   5.477   0.876  0.0173  0.6371  0.6693
 3689TIP3   OH211072   3.335   1.360   5.154  0.2011 -0.6608 -0.2298
 3689TIP3    H111073   3.399   1.301   5.195  0.0218  0.0505  1.0998
 3689TIP3    H211074   3.261   1.303   5.133 -0.8891 -0.5823  3.0680
 3690TIP3   OH211075   2.949   6.025   4.247  0.6782  0.3279 -0.4031
 3690TIP3    H111076   2.932   6.105   4.297  1.1734  0.4744 -0.4686
 3690TIP3    H211077   3.000   6.054   4.172 -0.3154  0.1512 -1.1511
 3691TIP3   OH211078   3.305   4.296   0.808  0.5839 -0.1423 -0.3446
 3691TIP3    H111079   3.244   4.260   0.873  2.0027 -1.1256  0.4630
 3691TIP3    H211080   3.381   4.324   0.859  0.6589  1.4306 -1.2997
 3692TIP3   OH211081   4.690   1.242   4.847  0.5982 -0.0845 -0.2345
 3692TIP3    H111082   4.713   1.165   4.795  1.0193  1.2406 -2.0783
 3692TIP3    H211083   4.602   1.223   4.881  1.1318 -1.8078  0.2014
 3693TIP3   OH211084   5.466   0.567   3.174 -0.1263 -0.1762  0.5501
 3693TIP3    H111085   5.519   0.617   3.236 -1.0604 -0.8277  1.9023
 3693TIP3    H211086   5.397   0.528   3.228 -0.5550 -1.3088 -0.8002
 3694TIP3   OH211087   1.015   2.150   5.205  0.0424 -0.5351  0.0839
 3694TIP3    H111088   1.091   2.095   5.186  0.8024  0.3812  0.4251
 3694TIP3    H211089   0.960   2.144   5.127  0.8693 -0.5421 -0.4994
 3695TIP3   OH211090   5.530   3.117   1.105  0.2885  0.8978 -0.1161
 3695TIP3    H111091   5.489   3.114   1.018  0.6565  2.0609 -0.3385
 3695TIP3    H211092   5.562   3.207   1.113  0.7963  0.6237  0.9800
 3696TIP3   OH211093   2.472   4.157   0.765  0.2353  0.2193  0.2893
 3696TIP3    H111094   2.538   4.173   0.696 -0.5601  0.1631 -0.4931
 3696TIP3    H211095   2.450   4.065   0.756  1.0574 -0.1098  1.4701
 3697TIP3   OH211096   3.453   0.362   4.495  0.2699  0.5302 -0.1205
 3697TIP3    H111097   3.485   0.301   4.429  0.7091  0.1732  0.4161
 3697TIP3    H211098   3.429   0.441   4.446  1.2010  0.5011 -0.6306
 3698TIP3   OH211099   5.247   0.131   5.037  0.2090  0.3839 -0.4367
 3698TIP3    H111100   5.324   0.076   5.022 -0.0641  0.5923 -2.7105
 3698TIP3    H211101   5.188   0.076   5.088  1.4448 -0.1280  0.4759
 3699TIP3   OH211102   1.522   4.745   4.578  0.1255  0.0146  0.2573
 3699TIP3    H111103   1.439   4.781   4.610  0.2580 -0.6915  1.3931
 3699TIP3    H211104   1.505   4.724   4.486 -1.2800 -1.1424  0.7733
 3700TIP3   OH211105   3.145   2.738   0.927 -0.3914  0.0921 -0.9955
 3700TIP3    H111106   3.235   2.750   0.959 -0.8547 -2.1878  1.3307
 3700TIP3    H211107   3.119   2.824   0.895  1.7679  1.3589  0.5227
 3701TIP3   OH211108   5.390   1.291   2.764 -0.3416 -0.2963  0.4928
 3701TIP3    H111109   5.403   1.269   2.856  0.3692  1.3425  0.7904
 3701TIP3    H211110   5.449   1.364   2.748 -0.9101 -0.1684 -1.1172
 3702TIP3   OH211111   3.323   5.247   1.092 -0.3734  0.0205  0.7021
 3702TIP3    H111112   3.249   5.247   1.031 -1.2452  0.9315  1.7430
 3702TIP3    H211113   3.381   5.179   1.059 -0.3091  1.2342 -1.7768
 3703TIP3   OH211114   3.940   2.828   3.832  0.0100 -0.7584  0.4418
 3703TIP3    H111115   3.905   2.824   3.743 -0.1248  1.1471  0.3754
 3703TIP3    H211116   3.880   2.775   3.884 -1.3953  0.2075 -0.1561
 3704TIP3   OH211117   5.579   0.287   1.772 -0.1285  0.3008  0.5047
 3704TIP3    H111118   5.601   0.352   1.838 -2.1905  0.9080  0.6336
 3704TIP3    H211119   5.657   0.281   1.716 -0.1468  3.3410  0.1166
 3705TIP3   OH211120   4.576   4.412   0.957 -0.3462 -0.2121  0.1499
 3705TIP3    H111121   4.519   4.462   1.015 -0.9367  0.6751 -1.1742
 3705TIP3    H211122   4.665   4.432   0.987 -0.5865  1.4027 -0.1630
 3706TIP3   OH211123   4.004   2.141   4.661 -0.2411 -0.0496  0.2739
 3706TIP3    H111124   3.918   2.100   4.669  0.9270 -2.4424  1.2495
 3706TIP3    H211125   3.997   2.223   4.711 -2.0004 -0.1081  0.1446
 3707TIP3   OH211126   3.220   0.424   4.294 -0.5316 -0.1259 -0.3333
 3707TIP3    H111127   3.213   0.368   4.217  0.5861  0.0692 -0.5839
 3707TIP3    H211128   3.291   0.485   4.273  0.9576 -1.1659  1.5272
 3708TIP3   OH211129   2.152   6.025   3.557 -0.0783 -0.6148 -0.8248
 3708TIP3    H111130   2.186   5.949   3.510  0.7132  0.8749 -2.7721
 3708TIP3    H211131   2.215   6.095   3.537 -1.8900  1.0583 -0.7905
 3709TIP3   OH211132   4.525   5.852   0.552  0.5305 -0.0521 -0.0772
 3709TIP3    H111133   4.546   5.798   0.476  0.8413  0.8455 -0.6413
 3709TIP3    H211134   4.454   5.805   0.596  1.2661 -1.2704 -0.1624
 3710TIP3   OH211135   5.042   4.714   2.239  1.0509  0.3077 -0.2994
 3710TIP3    H111136   4.979   4.725   2.167 -1.8589 -0.7387  2.0062
 3710TIP3    H211137   5.087   4.798   2.245 -2.2203  2.0826 -0.0879
 3711TIP3   OH211138   3.005   2.189   5.101 -0.0772 -0.0561 -0.2529
 3711TIP3    H111139   3.055   2.121   5.145 -0.8761 -0.1158  0.5682
 3711TIP3    H211140   3.031   2.270   5.145 -0.9873 -0.1334  0.4393
 3712TIP3   OH211141   3.227   2.484   0.240  0.1186  0.0565  0.4341
 3712TIP3    H111142   3.245   2.390   0.244 -1.4626 -0.3533 -1.3993
 3712TIP3    H211143   3.185   2.504   0.323 -0.9720 -1.1826  0.1897
 3713TIP3   OH211144   1.889   0.930   1.912  0.0244  0.7232 -0.3260
 3713TIP3    H111145   1.921   1.020   1.919 -0.5431  0.9239 -0.2824
 3713TIP3    H211146   1.854   0.923   1.824  0.1317  0.5202 -0.3544
 3714TIP3   OH211147   4.853   1.543   3.930 -0.2619 -0.2082 -0.3379
 3714TIP3    H111148   4.822   1.498   4.008  1.0938 -1.2248 -0.3838
 3714TIP3    H211149   4.934   1.499   3.906  1.5501  2.7746  0.0821
 3715TIP3   OH211150   4.233   1.343   4.409 -0.3704 -0.2801  0.1876
 3715TIP3    H111151   4.282   1.292   4.474 -2.5651  0.2330  2.2945
 3715TIP3    H211152   4.164   1.386   4.459 -1.6417  0.7549 -2.3772
 3716TIP3   OH211153   0.457   4.835   2.965 -0.4469  0.1899  0.1376
 3716TIP3    H111154   0.542   4.878   2.967 -0.5824  0.4241  1.1853
 3716TIP3    H211155   0.442   4.806   3.055 -1.1413 -0.5000 -0.1957
 3717TIP3   OH211156   5.618   4.199   0.398 -0.1296  0.1484  0.1736
 3717TIP3    H111157   5.558   4.217   0.325  0.4716  1.5902  0.0263
 3717TIP3    H211158   5.598   4.267   0.462 -0.4224 -0.9209  1.2237
 3718TIP3   OH211159   5.157   2.436   1.040 -0.7539 -0.2676  0.0365
 3718TIP3    H111160   5.252   2.434   1.028 -0.7808  0.5754 -0.3445
 3718TIP3    H211161   5.123   2.446   0.951 -1.1623  0.3927  0.2657
 3719TIP3   OH211162   1.519   1.576   4.766  0.0878 -0.4792  0.1873
 3719TIP3    H111163   1.606   1.615   4.777  0.3956 -0.9455 -0.5844
 3719TIP3    H211164   1.484   1.619   4.687 -1.2638  1.3094  1.7102
 3720TIP3   OH211165   4.804   3.820   0.656  0.2502  0.2489  0.5717
 3720TIP3    H111166   4.801   3.725   0.663 -0.6246  0.2295 -0.0939
 3720TIP3    H211167   4.898   3.841   0.648  0.4664 -0.5177  1.0501
 3721TIP3   OH211168   2.009   0.137   1.970 -0.1927  0.2087 -0.0541
 3721TIP3    H111169   2.054   0.208   2.016  1.2708 -0.4414 -0.4372
 3721TIP3    H211170   1.923   0.132   2.010  0.7471  0.2202  2.0353
 3722TIP3   OH211171   4.674   2.080   2.632 -0.2806 -0.4384  0.0645
 3722TIP3    H111172   4.720   2.162   2.651  0.1214 -0.7230  0.3301
 3722TIP3    H211173   4.591   2.107   2.593 -0.5650  0.1131  1.0567
 3723TIP3   OH211174   1.681   0.991   5.157 -0.3184  1.2464  0.2473
 3723TIP3    H111175   1.733   0.921   5.117 -0.6131  1.4176 -0.4461
 3723TIP3    H211176   1.646   1.041   5.083  1.0770  3.0096  0.7237
 3724TIP3   OH211177   3.478   0.156   3.398  0.4366  0.3239 -0.0521
 3724TIP3    H111178   3.396   0.149   3.348 -0.6361  0.6603  1.6042
 3724TIP3    H211179   3.487   0.071   3.441  1.7204 -0.2054 -1.3517
 3725TIP3   OH211180   4.437   5.047   1.696  0.2275 -0.6419  0.3671
 3725TIP3    H111181   4.354   5.073   1.655 -0.0281 -0.5826  0.9141
 3725TIP3    H211182   4.416   5.038   1.789  0.2723 -2.9755  0.1714
 3726TIP3   OH211183   2.391   5.728   1.310  0.1314 -0.1662  0.2405
 3726TIP3    H111184   2.310   5.741   1.261  0.9427  0.5084 -0.9484
 3726TIP3    H211185   2.379   5.643   1.353 -1.9237  0.7647  1.5521
 3727TIP3   OH211186   4.479   1.193   3.334  0.7000  0.6820  0.5372
 3727TIP3    H111187   4.566   1.222   3.362  1.0616 -1.3865  1.6778
 3727TIP3    H211188   4.447   1.139   3.407 -0.7510 -0.1124 -0.6584
 3728TIP3   OH211189   4.465   4.611   0.149  0.0125  0.1588  0.6624
 3728TIP3    H111190   4.443   4.570   0.065 -2.0355  2.9003 -0.2477
 3728TIP3    H211191   4.401   4.576   0.211 -0.8228  0.8586  0.2115
 3729TIP3   OH211192   0.299   4.523   0.097  0.2011 -0.0441  0.0951
 3729TIP3    H111193   0.372   4.496   0.042  0.0714 -1.6266  0.6675
 3729TIP3    H211194   0.222   4.484   0.056 -0.2228  0.9885 -0.0894
 3730TIP3   OH211195   2.960   0.307   4.945  0.0888  0.3726  0.1159
 3730TIP3    H111196   2.911   0.387   4.965 -1.2097 -0.2042 -0.7100
 3730TIP3    H211197   3.046   0.322   4.985 -1.0118  1.0546  2.3253
 3731TIP3   OH211198   0.073   5.163   3.130 -0.2718  0.3904  0.6603
 3731TIP3    H111199   0.097   5.101   3.199  0.3647 -1.4034 -1.1405
 3731TIP3    H211200  -0.017   5.139   3.107  0.0135  0.0464 -0.1165
 3732TIP3   OH211201   2.453   5.767   4.804  0.4583  0.4773  0.0185
 3732TIP3    H111202   2.443   5.854   4.763  0.6046 -0.0426 -1.1380
 3732TIP3    H211203   2.545   5.763   4.829  0.4689  0.6230  0.0091
 3733TIP3   OH211204   2.316   0.378   4.391 -0.2568  0.0577 -0.1294
 3733TIP3    H111205   2.405   0.343   4.394 -0.7942 -1.3715 -0.4211
 3733TIP3    H211206   2.298   0.408   4.480 -0.4337 -2.1006  0.6021
 3734TIP3   OH211207   4.514   1.815   0.801  0.5691 -0.2387  0.4921
 3734TIP3    H111208   4.519   1.818   0.897 -2.9963  1.4373  0.6991
 3734TIP3    H211209   4.501   1.723   0.781  1.1175 -0.5761  1.6168
 3735TIP3   OH211210   4.816   2.577   4.394 -0.2017 -0.0420 -0.2067
 3735TIP3    H111211   4.771   2.648   4.439  0.9973 -0.3762  1.5964
 3735TIP3    H211212   4.819   2.604   4.303 -1.8706  1.0923  0.0593
 3736TIP3   OH211213   4.316   1.821   3.864  0.0377 -0.1569 -0.0823
 3736TIP3    H111214   4.403   1.807   3.902 -0.3748  1.5731  1.5762
 3736TIP3    H211215   4.328   1.807   3.770  2.3098  0.9441  0.0212
 3737TIP3   OH211216   0.865   0.422   4.668 -0.2566  0.0550 -0.6116
 3737TIP3    H111217   0.804   0.494   4.685 -2.0922 -1.0957 -2.1592
 3737TIP3    H211218   0.810   0.345   4.662  1.4907 -1.1994 -0.9668
 3738TIP3   OH211219   0.150   4.377   4.554 -0.1175  0.4967 -0.1682
 3738TIP3    H111220   0.201   4.439   4.607  0.6263  0.7759 -1.1849
 3738TIP3    H211221   0.138   4.301   4.611  1.9511  0.1976 -0.0859
 3739TIP3   OH211222   3.183   1.629   3.401  0.1914  0.4507 -0.1140
 3739TIP3    H111223   3.237   1.658   3.475  1.3613  2.2726 -1.6485
 3739TIP3    H211224   3.245   1.594   3.338 -0.6271  0.4808 -0.9463
 3740TIP3   OH211225   5.523   3.886   1.221  0.2413  0.3305  0.2635
 3740TIP3    H111226   5.526   3.979   1.245 -3.4969  0.5832  0.0471
 3740TIP3    H211227   5.520   3.840   1.305  0.8635  0.4481  0.3546
 3741TIP3   OH211228   4.792   5.314   1.123 -0.7029 -0.1392 -0.2974
 3741TIP3    H111229   4.886   5.329   1.125 -0.9392  1.3799  1.6749
 3741TIP3    H211230   4.778   5.244   1.187 -1.0762  0.8964  0.7802
 3742TIP3   OH211231   0.278   2.645   1.230 -0.6104  0.1561  0.0423
 3742TIP3    H111232   0.275   2.551   1.212  0.3818  0.1406 -0.0439
 3742TIP3    H211233   0.290   2.651   1.325  0.3294  0.1807 -0.0724
 3743TIP3   OH211234   4.511   0.578   2.509  0.6266  0.0507 -0.6518
 3743TIP3    H111235   4.513   0.561   2.414  1.3996 -0.8450 -0.4859
 3743TIP3    H211236   4.439   0.524   2.541  0.3956  0.3170 -0.7250
 3744TIP3   OH211237   0.460   4.787   5.007  0.5410  0.2527 -0.5642
 3744TIP3    H111238   0.380   4.832   5.034 -1.2741 -2.1202 -1.7929
 3744TIP3    H211239   0.495   4.748   5.087 -0.5841 -0.2983 -0.3428
 3745TIP3   OH211240   3.824   4.688   1.383  0.3437 -0.1172  0.1038
 3745TIP3    H111241   3.823   4.749   1.309  1.3547 -2.0885 -1.6078
 3745TIP3    H211242   3.915   4.656   1.386 -0.1991 -1.6421  0.8570
 3746TIP3   OH211243   3.589   2.288   4.107  0.2645 -0.4945  0.2613
 3746TIP3    H111244   3.589   2.324   4.018  1.6047 -0.9107  0.0759
 3746TIP3    H211245   3.678   2.255   4.119 -0.5028 -2.3762  0.9713
 3747TIP3   OH211246   4.879   2.034   4.773 -0.2061  0.3078  0.1162
 3747TIP3    H111247   4.801   2.020   4.827 -0.4138  1.7291  0.1901
 3747TIP3    H211248   4.952   2.015   4.831 -0.3974  2.5733  1.1672
 3748TIP3   OH211249   3.542   5.701   3.760 -0.3138 -0.0422 -0.0429
 3748TIP3    H111250   3.473   5.742   3.813  0.4290  0.0914  0.8240
 3748TIP3    H211251   3.575   5.630   3.816  1.5786  1.1037  0.3351
 3749TIP3   OH211252   0.238   3.579   1.584  0.4047  0.6717 -0.0519
 3749TIP3    H111253   0.222   3.485   1.592 -0.0766  0.8168  0.8020
 3749TIP3    H211254   0.202   3.616   1.665  0.1276  1.6438 -0.6068
 3750TIP3   OH211255   5.412   2.531   4.358  0.1652  0.3597 -0.2910
 3750TIP3    H111256   5.368   2.606   4.398 -1.2432  0.1424 -1.3925
 3750TIP3    H211257   5.476   2.570   4.298 -0.1256  0.6799 -0.3956
 3751TIP3   OH211258   5.268   5.150   5.261  0.0087  0.1407 -0.0131
 3751TIP3    H111259   5.306   5.160   5.174 -1.5760 -0.4326 -0.7834
 3751TIP3    H211260   5.312   5.074   5.298  0.5527  0.2780 -0.3800
 3752TIP3   OH211261   1.987   0.115   4.929  0.0394  0.6018  0.2169
 3752TIP3    H111262   1.910   0.057   4.925  0.6602 -0.1846 -0.4849
 3752TIP3    H211263   1.974   0.177   4.857  1.2223 -1.0082 -1.4210
 3753TIP3   OH211264   4.534   0.956   2.685  0.4609  0.2432  0.1448
 3753TIP3    H111265   4.620   0.921   2.662  0.3655  0.1235 -0.0362
 3753TIP3    H211266   4.478   0.929   2.612 -0.1333 -1.2275  1.1229
 3754TIP3   OH211267   3.165   1.525   4.772  0.0062 -0.2626  0.6659
 3754TIP3    H111268   3.172   1.568   4.857  1.9186  1.0283 -0.1148
 3754TIP3    H211269   3.159   1.432   4.793  0.1708  0.0728  2.2341
 3755TIP3   OH211270   2.882   4.775   3.197  0.5245 -0.2826 -0.8347
 3755TIP3    H111271   2.824   4.772   3.273  2.6794  1.4273  0.9702
 3755TIP3    H211272   2.876   4.688   3.159 -3.0722 -0.1747 -0.6311
 3756TIP3   OH211273   6.140   0.519   4.761  0.1808  0.6516  0.3265
 3756TIP3    H111274   6.128   0.605   4.801  0.7177  1.0412 -0.3479
 3756TIP3    H211275   6.143   0.535   4.667 -0.1263 -0.1548  0.1695
 3757TIP3   OH211276   5.322   4.995   3.908 -0.3178 -0.9163  0.2061
 3757TIP3    H111277   5.285   5.083   3.907 -3.9419 -2.3205  1.6156
 3757TIP3    H211278   5.304   4.961   3.820  1.2027 -0.2353 -0.3818
 3758TIP3   OH211279   4.898   5.776   3.198 -0.4740  0.3036 -0.2867
 3758TIP3    H111280   4.866   5.745   3.283 -0.7687 -1.4208 -1.0000
 3758TIP3    H211281   4.831   5.747   3.136  1.1683 -1.0417 -1.4627
 3759TIP3   OH211282   3.405   4.205   0.587 -0.6149  0.1941 -0.0335
 3759TIP3    H111283   3.496   4.233   0.596  0.2557 -2.6318  0.2027
 3759TIP3    H211284   3.358   4.251   0.656  0.6539  1.4882 -0.0162
 3760TIP3   OH211285   1.826   5.365   5.033 -0.7355  0.0501  0.0023
 3760TIP3    H111286   1.892   5.435   5.036 -0.6672 -0.0363  0.5719
 3760TIP3    H211287   1.878   5.285   5.028 -0.7372 -0.1600  2.8014
 3761TIP3   OH211288   4.206   4.230   0.490 -0.8421  0.2494 -0.2230
 3761TIP3    H111289   4.248   4.276   0.563 -1.0834 -0.8413  0.6263
 3761TIP3    H211290   4.277   4.185   0.445 -0.8761 -0.2829  0.2433
 3762TIP3   OH211291   3.198   2.917   3.870  0.0007 -0.0353  0.4322
 3762TIP3    H111292   3.128   2.851   3.872 -0.5001  0.4614 -0.3145
 3762TIP3    H211293   3.190   2.958   3.784  2.0792 -0.8694 -0.1838
 3763TIP3   OH211294   6.451   2.774   1.469 -0.3191  0.2718 -0.2581
 3763TIP3    H111295   6.447   2.716   1.393 -2.9907  1.3670 -1.0080
 3763TIP3    H211296   6.520   2.837   1.448  1.1219 -1.3187 -0.3698
 3764TIP3   OH211297   0.333   2.153   0.493  0.2815  0.5451  0.6745
 3764TIP3    H111298   0.365   2.063   0.490 -0.4367  0.2766  1.1072
 3764TIP3    H211299   0.412   2.205   0.512  0.4780 -0.1230  1.7515
 3765TIP3   OH211300   4.982   5.367   4.072  0.0959 -0.7782 -0.0516
 3765TIP3    H111301   4.921   5.390   4.142  0.9162 -0.5618  0.6013
 3765TIP3    H211302   5.041   5.442   4.065  0.5448 -1.1533 -0.3958
 3766TIP3   OH211303   0.281   5.056   4.044  0.6336  0.0261 -0.1217
 3766TIP3    H111304   0.225   4.996   4.092  0.3766  1.3513  1.2837
 3766TIP3    H211305   0.369   5.021   4.055  0.5069 -0.0105  0.8171
 3767TIP3   OH211306   0.086   3.815   0.328 -0.0909  0.2673 -0.0412
 3767TIP3    H111307   0.002   3.769   0.333 -0.0029  0.1881  1.0276
 3767TIP3    H211308   0.082   3.878   0.400  1.3697 -0.7764  0.9870
 3768TIP3   OH211309   2.025   0.572   4.623 -0.5892  0.0864 -0.1951
 3768TIP3    H111310   1.989   0.485   4.642 -1.3077 -0.0218 -1.9360
 3768TIP3    H211311   2.119   0.563   4.640 -1.1116 -0.0695  2.9158
 3769TIP3   OH211312   2.937   4.148   0.903  0.0624  0.0387  0.1403
 3769TIP3    H111313   2.847   4.181   0.907  0.8564  2.0374  3.3612
 3769TIP3    H211314   2.929   4.056   0.928 -1.2940 -0.3626 -1.6310
 3770TIP3   OH211315   0.566   3.832   1.939 -0.1286  0.4807 -0.4972
 3770TIP3    H111316   0.504   3.857   1.871 -0.1223  0.1448 -0.6229
 3770TIP3    H211317   0.648   3.818   1.893 -0.6974 -2.1944 -0.7743
 3771TIP3   OH211318   5.466   5.178   0.664  0.0584  0.1740 -0.2946
 3771TIP3    H111319   5.511   5.102   0.627 -1.1463 -0.0340 -1.3689
 3771TIP3    H211320   5.397   5.198   0.600 -0.8580  0.9765  0.9334
 3772TIP3   OH211321   3.535   4.950   3.686 -0.0171  0.0720  0.4927
 3772TIP3    H111322   3.461   4.999   3.650  0.7825 -0.1222 -1.4785
 3772TIP3    H211323   3.602   5.015   3.701 -0.0113  0.0152  0.7096
 3773TIP3   OH211324   5.844   1.775   4.089 -0.3618 -0.0343 -0.1390
 3773TIP3    H111325   5.900   1.831   4.143  0.0703 -0.4578 -0.1425
 3773TIP3    H211326   5.768   1.757   4.144 -0.2902  0.1786  0.0323
 3774TIP3   OH211327   5.297   0.899   2.463 -0.1628 -0.1962  0.1643
 3774TIP3    H111328   5.378   0.855   2.437  0.0361  2.1553 -3.5568
 3774TIP3    H211329   5.324   0.963   2.529  0.6179 -0.9634  0.6027
 3775TIP3   OH211330   6.283   4.057   2.771 -0.2464 -0.8835 -0.7230
 3775TIP3    H111331   6.199   4.093   2.741 -0.1330 -0.7958 -0.9393
 3775TIP3    H211332   6.320   4.014   2.693  0.7457  0.6341 -1.1038
 3776TIP3   OH211333   4.054   0.619   4.869  0.0360 -0.1944  0.2290
 3776TIP3    H111334   4.100   0.695   4.831  1.8636 -0.2980  2.1330
 3776TIP3    H211335   3.961   0.637   4.852  0.5528  1.5631 -0.9759
 3777TIP3   OH211336   3.539   3.699   0.086 -0.2855 -0.3581 -0.2224
 3777TIP3    H111337   3.507   3.749   0.162  0.7274  1.3292 -0.8827
 3777TIP3    H211338   3.533   3.607   0.114 -0.0550  0.2242  1.8530
 3778TIP3   OH211339   4.121   4.834   0.136 -0.0116  0.1162  0.4313
 3778TIP3    H111340   4.101   4.742   0.120  0.2182 -0.3366  2.4948
 3778TIP3    H211341   4.062   4.882   0.079  0.0290 -1.3119 -0.8566
 3779TIP3   OH211342   3.878   2.086   0.437 -0.4301  0.4125 -0.2891
 3779TIP3    H111343   3.809   2.043   0.488 -0.3238 -0.3477 -0.7698
 3779TIP3    H211344   3.949   2.022   0.435 -0.6471  0.1943 -1.8568
 3780TIP3   OH211345   2.514   0.642   4.800  0.2899 -0.8485  0.0792
 3780TIP3    H111346   2.559   0.683   4.727 -0.3837 -0.5813 -0.1911
 3780TIP3    H211347   2.507   0.712   4.866  0.7151 -1.0304  0.3168
 3781TIP3   OH211348   5.731   4.918   1.504 -0.1085  0.7483 -0.5842
 3781TIP3    H111349   5.638   4.940   1.500 -0.7345 -1.8809 -1.4083
 3781TIP3    H211350   5.733   4.833   1.548  2.0159  1.3342  0.4955
 3782TIP3   OH211351   5.510   0.995   1.770  0.3958  0.5052  0.3161
 3782TIP3    H111352   5.535   0.917   1.820 -0.6547  0.2697  0.4673
 3782TIP3    H211353   5.488   1.060   1.837 -1.2054  0.1261  0.1636
 3783TIP3   OH211354   3.973   1.592   2.187  0.3326  0.1576 -0.2270
 3783TIP3    H111355   4.063   1.561   2.185 -0.0165 -0.9633  0.4161
 3783TIP3    H211356   3.949   1.590   2.280  0.7205  3.7059  0.0099
 3784TIP3   OH211357   4.562   0.436   3.678 -0.1471  0.6472  0.5399
 3784TIP3    H111358   4.476   0.474   3.661  0.4625  2.2234  0.9197
 3784TIP3    H211359   4.573   0.442   3.773 -0.6593 -1.8406  0.7780
 3785TIP3   OH211360   2.187   1.227   4.705 -0.0437  0.4920 -0.1156
 3785TIP3    H111361   2.255   1.172   4.664 -0.7474 -0.3236 -0.2136
 3785TIP3    H211362   2.130   1.253   4.632 -2.3125 -2.4153  0.5218
 3786TIP3   OH211363   0.918   5.642   4.886 -0.4046  0.2289 -0.1675
 3786TIP3    H111364   0.921   5.561   4.836 -0.9252  0.3510 -0.4106
 3786TIP3    H211365   0.849   5.627   4.952 -0.4509  0.4427 -0.1658
 3787TIP3   OH211366   1.698   2.060   5.089 -0.6695  0.2371  0.0236
 3787TIP3    H111367   1.643   2.094   5.160  1.3704  2.5653  0.5740
 3787TIP3    H211368   1.781   2.107   5.100  0.7672 -1.8095 -1.9273
 3788TIP3   OH211369   1.185   0.145   5.081  0.2070 -0.0594 -0.7102
 3788TIP3    H111370   1.092   0.152   5.057  0.2806 -0.6285 -1.1885
 3788TIP3    H211371   1.219   0.233   5.068  0.2781 -0.3657 -2.9411
 3789TIP3   OH211372   2.762   2.783   1.361 -0.0415 -0.3631 -0.5099
 3789TIP3    H111373   2.803   2.779   1.275 -0.8103  1.8485 -1.0004
 3789TIP3    H211374   2.754   2.876   1.380 -1.7951 -0.7990  1.0264
 3790TIP3   OH211375   2.254  -0.002   4.992  0.3727 -0.3035  0.1840
 3790TIP3    H111376   2.171   0.041   4.972  2.0703  1.3321 -3.8078
 3790TIP3    H211377   2.279   0.033   5.078 -1.3753  1.8550 -0.1350
 3791TIP3   OH211378   5.472   0.095   4.683 -0.0345  0.2959  0.3491
 3791TIP3    H111379   5.529   0.151   4.630  0.6858  1.0029  1.8597
 3791TIP3    H211380   5.439   0.152   4.752 -0.7501 -0.6851  0.8347
 3792TIP3   OH211381   1.720   5.812   4.938 -0.0898 -0.8437  0.0633
 3792TIP3    H111382   1.797   5.864   4.962  0.0523 -0.3384 -1.4618
 3792TIP3    H211383   1.755   5.738   4.890 -0.5622 -0.6359 -0.6037
 3793TIP3   OH211384   4.174   2.317   4.892 -0.0792  0.3807  0.3509
 3793TIP3    H111385   4.188   2.320   4.987 -1.9225 -0.0918  0.6515
 3793TIP3    H211386   4.180   2.224   4.870 -0.9680  0.3534  0.2149
 3794TIP3   OH211387   5.133   2.256   0.268 -0.6132 -0.4718 -0.6908
 3794TIP3    H111388   5.063   2.314   0.238 -1.3479 -0.8505  0.2629
 3794TIP3    H211389   5.210   2.283   0.218 -1.1792  0.6738 -0.9611
 3795TIP3   OH211390   1.738   5.749   3.802  0.3826  0.1071  0.3243
 3795TIP3    H111391   1.739   5.773   3.710  2.2625  1.0683  0.5780
 3795TIP3    H211392   1.707   5.658   3.803 -1.5282  0.7100 -1.0655
 3796TIP3   OH211393   3.459   0.912   3.859 -0.3962  0.4332  0.0453
 3796TIP3    H111394   3.506   0.855   3.798  0.5447 -0.0645  1.2181
 3796TIP3    H211395   3.367   0.886   3.850 -0.1082 -0.5278 -0.2055
 3797TIP3   OH211396   5.562   6.012   5.051  0.4948  0.6915 -0.6011
 3797TIP3    H111397   5.555   6.107   5.045  2.3948  1.0158  1.6848
 3797TIP3    H211398   5.655   5.996   5.065 -0.0768 -1.3667  1.0887
 3798TIP3   OH211399   0.998   6.056   3.857 -0.2748 -0.0117  0.2341
 3798TIP3    H111400   1.058   6.097   3.920  0.0729  0.2945 -0.2934
 3798TIP3    H211401   1.056   6.005   3.800 -0.5417  0.1278 -0.1559
 3799TIP3   OH211402   1.694   1.211   3.839 -0.7513  0.1318 -0.9067
 3799TIP3    H111403   1.699   1.302   3.868  1.5790 -0.7564  1.7587
 3799TIP3    H211404   1.785   1.189   3.816 -1.3565 -1.4377 -1.8727
 3800TIP3   OH211405   4.109   0.093   3.601 -0.8229  0.6371  0.4974
 3800TIP3    H111406   4.136   0.126   3.687 -1.1786 -0.1872  0.9286
 3800TIP3    H211407   4.166   0.018   3.585 -1.3736  0.2312  0.4281
 3801TIP3   OH211408   4.249   0.086   4.866 -1.0774 -0.7351 -0.3502
 3801TIP3    H111409   4.185   0.097   4.937 -0.5979 -1.5157  0.2033
 3801TIP3    H211410   4.332   0.112   4.905 -0.6844 -1.9162 -0.3979
 3802TIP3   OH211411   3.887   0.227   4.379  0.0210 -0.4378  0.1808
 3802TIP3    H111412   3.859   0.215   4.471 -0.4674 -1.8718 -0.1297
 3802TIP3    H211413   3.830   0.168   4.330 -0.2792  0.9441 -1.1562
 3803TIP3   OH211414   3.891   0.096   3.943  0.2518  0.0166  0.6889
 3803TIP3    H111415   3.964   0.110   3.883 -1.2603  0.7605 -0.9927
 3803TIP3    H211416   3.865   0.005   3.929 -0.0255  0.1551  0.3281
 3804TIP3   OH211417   4.493   5.100   1.276 -0.2355 -0.0447  0.1984
 3804TIP3    H111418   4.581   5.133   1.291  0.4530 -1.8607  0.3371
 3804TIP3    H211419   4.437   5.177   1.281  1.4020  1.2340 -0.4996
 3805TIP3   OH211420   3.688   1.762   2.533 -0.0458 -0.1113  0.1274
 3805TIP3    H111421   3.688   1.849   2.571  2.0621 -0.1103  0.1918
 3805TIP3    H211422   3.596   1.736   2.532 -0.6555  1.9465  0.4561
 3806TIP3   OH211423   4.509   1.088   3.594 -0.4090  0.2504 -0.6677
 3806TIP3    H111424   4.543   1.177   3.597  0.1308 -0.0256  2.9921
 3806TIP3    H211425   4.437   1.088   3.657  0.3663 -2.1860  0.2799
 3807TIP3   OH211426   2.263   0.823   1.732  0.2415 -0.2640  0.5446
 3807TIP3    H111427   2.169   0.803   1.731  0.0370  0.7164 -0.5547
 3807TIP3    H211428   2.281   0.846   1.822 -0.5181 -0.7363  0.8288
 3808TIP3   OH211429   4.536   1.062   4.059  0.2585 -0.6495 -0.1391
 3808TIP3    H111430   4.506   1.010   3.985  0.7974  0.1339 -0.9197
 3808TIP3    H211431   4.507   1.151   4.039 -0.6740 -0.6404  1.1914
 3809TIP3   OH211432   5.547   4.438   1.404 -0.0358  0.1075 -0.1706
 3809TIP3    H111433   5.605   4.364   1.424  1.6701  1.3285 -0.4637
 3809TIP3    H211434   5.607   4.507   1.376 -1.7586  1.0335 -1.5899
 3810TIP3   OH211435   0.952   5.410   2.799 -0.1960  0.1924  0.0918
 3810TIP3    H111436   0.878   5.416   2.860 -0.8506 -0.8166 -0.5873
 3810TIP3    H211437   1.006   5.487   2.819 -0.6321  0.1207  1.6285
 3811TIP3   OH211438   3.902   2.774   4.894  0.2995 -0.3228 -0.0450
 3811TIP3    H111439   3.808   2.760   4.901  0.2281  0.0189 -0.3003
 3811TIP3    H211440   3.932   2.708   4.832  0.2364 -0.4532  0.0625
 3812TIP3   OH211441   0.300   5.304   4.188 -0.7571  0.3832 -0.3366
 3812TIP3    H111442   0.305   5.222   4.138  1.6766  0.0701  0.3245
 3812TIP3    H211443   0.341   5.369   4.131  0.0595  0.4805  0.3405
 3813TIP3   OH211444   4.204   1.508   5.083 -0.2232  0.6414 -0.0067
 3813TIP3    H111445   4.118   1.468   5.094  0.5980 -1.2661 -0.1670
 3813TIP3    H211446   4.217   1.559   5.163 -1.4266  0.8100  0.0911
 3814TIP3   OH211447   1.480   0.040   5.025 -0.1042  0.0483 -0.7228
 3814TIP3    H111448   1.542   0.007   4.959  1.6904  1.3528  0.2616
 3814TIP3    H211449   1.474  -0.031   5.090  2.2098  0.8197  0.3805
 3815TIP3   OH211450   4.386   1.272   5.261  0.2398 -0.1183  0.2478
 3815TIP3    H111451   4.343   1.203   5.310  0.4175 -0.3156  0.1269
 3815TIP3    H211452   4.319   1.340   5.250  0.9732  1.1517  3.1919
 3816TIP3   OH211453   2.876   1.378   5.160  0.0211 -0.0083  0.1914
 3816TIP3    H111454   2.904   1.286   5.162  2.7319  0.8060  2.1890
 3816TIP3    H211455   2.956   1.427   5.141 -1.2260  2.0212  0.0706
 3817TIP3   OH211456   2.172   1.715   4.600 -0.2704 -0.0884  0.3205
 3817TIP3    H111457   2.215   1.679   4.523  1.9315 -1.1735  1.9751
 3817TIP3    H211458   2.235   1.779   4.634 -0.1177 -1.3170  2.4892
 3818TIP3   OH211459   6.064   4.200   0.957 -0.1772  0.1562  0.0395
 3818TIP3    H111460   6.003   4.274   0.964 -0.1258  0.2093 -0.0699
 3818TIP3    H211461   6.029   4.134   1.017 -1.1843 -0.4020 -1.1441
 3819TIP3   OH211462   5.223   0.147   3.287  0.9272 -0.6569  0.2998
 3819TIP3    H111463   5.311   0.129   3.255  0.4819 -0.6342 -0.9774
 3819TIP3    H211464   5.170   0.075   3.254 -0.1510  1.0347 -1.7532
 3820TIP3   OH211465   4.855   4.730   0.909  0.0725  0.0468  0.4668
 3820TIP3    H111466   4.904   4.778   0.842  0.0604  1.1426  1.2499
 3820TIP3    H211467   4.849   4.641   0.873  0.6788  0.4452 -0.6682
 3821TIP3   OH211468   5.145   4.516   1.204 -0.2003 -0.2468  0.2238
 3821TIP3    H111469   5.115   4.521   1.295  0.3604 -2.6712  0.5565
 3821TIP3    H211470   5.099   4.441   1.167  2.0142 -1.2677 -0.5491
 3822TIP3   OH211471   6.187   3.223   0.011  0.3466  0.2889  0.5894
 3822TIP3    H111472   6.107   3.197  -0.035  0.8825 -0.4273  0.0247
 3822TIP3    H211473   6.197   3.157   0.080  1.0650 -0.3097 -0.0790
 3823TIP3   OH211474   5.760   3.144   2.083 -0.6928 -0.5261  0.0400
 3823TIP3    H111475   5.664   3.152   2.087 -0.7506 -1.2790  0.2810
 3823TIP3    H211476   5.776   3.091   2.005 -0.4333  0.2363 -0.4210
 3824TIP3   OH211477   3.128   1.230   4.555  0.2748  0.3017  0.1178
 3824TIP3    H111478   3.131   1.256   4.647 -0.1327 -1.3617  0.6190
 3824TIP3    H211479   3.048   1.271   4.522 -1.5046 -1.9632  1.4465
 3825TIP3   OH211480   5.115   4.925   1.540 -0.0868 -0.1345  0.5218
 3825TIP3    H111481   5.113   4.854   1.604 -1.4471  1.3332  2.1733
 3825TIP3    H211482   5.132   5.004   1.591  0.1743  0.9118 -1.1142
 3826TIP3   OH211483   2.733   5.710   4.824  0.1668 -0.0991  0.1852
 3826TIP3    H111484   2.760   5.625   4.858  0.1501 -0.6148 -1.0356
 3826TIP3    H211485   2.763   5.709   4.733 -0.3898  0.9502 -0.0108
 3827TIP3   OH211486   4.948   3.290   2.685  0.0583 -0.0822  0.3531
 3827TIP3    H111487   4.964   3.223   2.619 -0.2050  0.1261  0.0763
 3827TIP3    H211488   5.010   3.270   2.756 -0.6228 -1.1392  0.6610
 3828TIP3   OH211489   0.747   1.030   4.624 -0.5286  0.3542  0.4149
 3828TIP3    H111490   0.799   0.984   4.558 -0.8778 -0.7156  0.8934
 3828TIP3    H211491   0.672   1.065   4.575 -0.0325  0.8151 -0.0275
 3829TIP3   OH211492   1.658   1.385   3.097  0.0962 -0.0809  0.3065
 3829TIP3    H111493   1.592   1.435   3.145  0.1482  0.9834 -0.7245
 3829TIP3    H211494   1.741   1.413   3.134  0.0766 -0.0199  0.3048
 3830TIP3   OH211495   1.230   2.029   3.504 -0.4467 -0.1501 -0.4858
 3830TIP3    H111496   1.141   2.060   3.521 -0.7966 -0.5636 -1.4745
 3830TIP3    H211497   1.255   2.072   3.422 -0.3478 -1.2483 -1.0444
 3831TIP3   OH211498   3.768   1.367   2.758  0.2318 -0.1535 -0.0662
 3831TIP3    H111499   3.862   1.388   2.761  0.3837 -1.0114  2.2283
 3831TIP3    H211500   3.736   1.388   2.846 -1.2565 -1.9654 -0.1423
 3832TIP3   OH211501   2.499   5.602   4.581 -0.2135 -0.1477 -0.5022
 3832TIP3    H111502   2.487   5.642   4.667  0.3450  0.6878 -0.7994
 3832TIP3    H211503   2.479   5.673   4.519  1.0020 -0.2552 -1.0355
 3833TIP3   OH211504   3.429   1.732   4.925 -0.4077 -0.0308  0.3094
 3833TIP3    H111505   3.391   1.803   4.873  0.1609 -0.2598 -0.4400
 3833TIP3    H211506   3.463   1.670   4.860  1.8671  0.5021  0.9322
 3834TIP3   OH211507   1.461   4.813   0.329  0.0733 -0.1983 -0.5793
 3834TIP3    H111508   1.547   4.789   0.295  0.6907  3.0259 -1.4290
 3834TIP3    H211509   1.405   4.816   0.251 -0.6528 -1.5454 -0.1259
 3835TIP3   OH211510   2.642   0.736   3.940  0.2581 -0.1622  0.5259
 3835TIP3    H111511   2.694   0.656   3.929  1.9492  1.2352 -2.2953
 3835TIP3    H211512   2.707   0.805   3.954 -1.1074  0.9460  1.5796
 3836TIP3   OH211513   5.280   0.406   3.324 -0.1517 -0.2495  0.2954
 3836TIP3    H111514   5.287   0.396   3.419  1.0656  0.9743  0.3522
 3836TIP3    H211515   5.272   0.316   3.291 -0.5817 -0.6822  1.5475
 3837TIP3   OH211516   3.601   5.471   0.483  0.3861  0.8081 -0.2034
 3837TIP3    H111517   3.666   5.425   0.429 -0.3177  1.1325 -1.3379
 3837TIP3    H211518   3.534   5.405   0.500 -0.3061  1.2317 -1.2881
 3838TIP3   OH211519   0.422   4.174   0.417 -0.2147 -0.4918  0.2673
 3838TIP3    H111520   0.352   4.196   0.355  0.3141  0.5501  0.0266
 3838TIP3    H211521   0.444   4.084   0.396 -1.3688 -0.7839  0.2361
 3839TIP3   OH211522   0.870   5.606   1.511  0.1131 -0.2910  0.2094
 3839TIP3    H111523   0.830   5.543   1.451 -2.3739 -1.2273  2.7308
 3839TIP3    H211524   0.834   5.690   1.485  0.4579 -0.4282 -0.7375
 3840TIP3   OH211525   0.062   3.217   0.528 -0.0575  0.3823  0.3129
 3840TIP3    H111526   0.013   3.240   0.607 -0.1015 -1.2350  0.7826
 3840TIP3    H211527   0.113   3.140   0.553 -0.0321 -0.1147 -1.2257
 3841TIP3   OH211528   6.132   4.263   0.082  0.1719 -0.2277  0.4092
 3841TIP3    H111529   6.048   4.217   0.085 -0.1424  0.2730 -0.6304
 3841TIP3    H211530   6.129   4.323   0.156 -0.2738 -0.4091  0.5402
 3842TIP3   OH211531   4.679   4.543   2.165 -0.3664 -0.0889  0.0210
 3842TIP3    H111532   4.619   4.496   2.107 -0.8250  0.2368  0.2285
 3842TIP3    H211533   4.735   4.593   2.106 -0.9781  0.4164 -0.1421
 3843TIP3   OH211534   3.536   1.895   4.102  0.2783  0.4201 -0.2428
 3843TIP3    H111535   3.551   1.817   4.048 -0.6410 -1.6759  2.4053
 3843TIP3    H211536   3.485   1.863   4.176  1.9060  3.0841  2.1378
 3844TIP3   OH211537   5.701   4.142   1.555  0.0651  0.1199 -0.1443
 3844TIP3    H111538   5.706   4.223   1.606 -0.1164  0.1919 -0.2391
 3844TIP3    H211539   5.765   4.154   1.485  1.2965 -0.5447  0.8563
 3845TIP3   OH211540   3.131   0.838   3.224 -0.9561 -0.1220 -0.2810
 3845TIP3    H111541   3.103   0.747   3.221 -0.1105 -0.4905  2.0322
 3845TIP3    H211542   3.176   0.853   3.141 -0.4492 -2.0102 -0.3530
 3846TIP3   OH211543   1.444   5.687   4.965  0.0046  0.1979  0.2836
 3846TIP3    H111544   1.527   5.718   4.930  0.0218 -1.1158 -0.8852
 3846TIP3    H211545   1.457   5.593   4.978 -0.9156  0.1911  1.2027
 3847TIP3   OH211546   0.971   4.422   4.692 -0.5459 -0.5087  0.5129
 3847TIP3    H111547   0.985   4.329   4.674  0.2668 -0.5434  1.2486
 3847TIP3    H211548   1.060   4.457   4.703 -0.7280  0.8654 -2.1883
 3848TIP3   OH211549   4.287   3.730   0.236 -0.1030  0.1973 -0.0017
 3848TIP3    H111550   4.292   3.748   0.330  0.0183 -0.1778  0.0653
 3848TIP3    H211551   4.225   3.795   0.202 -2.9653 -1.9217  0.9266
 3849TIP3   OH211552   3.643   0.387   4.728 -0.0840 -0.3491  1.2037
 3849TIP3    H111553   3.627   0.303   4.771  0.6307 -1.6025 -0.8870
 3849TIP3    H211554   3.595   0.380   4.645  1.4890  0.5881  0.2022
 3850TIP3   OH211555   1.820   5.408   4.111 -0.3187 -0.0377  0.2478
 3850TIP3    H111556   1.816   5.392   4.205  3.1394  1.4257  0.7204
 3850TIP3    H211557   1.858   5.329   4.074  1.1488  0.5301  0.4991
 3851TIP3   OH211558   4.220   0.383   4.005 -0.2193 -0.5563  0.0567
 3851TIP3    H111559   4.300   0.332   4.001  1.8406  2.5961 -1.4010
 3851TIP3    H211560   4.232   0.441   4.080 -0.8760  0.3208 -0.5131
 3852TIP3   OH211561   6.181   4.727   2.559 -0.4840 -0.1830 -0.1175
 3852TIP3    H111562   6.193   4.643   2.516  0.2365 -0.9909  1.5921
 3852TIP3    H211563   6.143   4.705   2.644  0.8480  1.0940  0.8356
 3853TIP3   OH211564   2.516   1.797   5.292 -0.0796  0.0609 -0.5712
 3853TIP3    H111565   2.453   1.790   5.221 -1.7769 -1.4931  1.0354
 3853TIP3    H211566   2.520   1.891   5.311 -2.4278  0.1379 -0.2875
 3854TIP3   OH211567   3.809   2.843   0.085 -0.3922 -0.2562  0.4173
 3854TIP3    H111568   3.871   2.891   0.139 -0.8228 -0.3327  0.9789
 3854TIP3    H211569   3.862   2.778   0.039  0.2661  1.0231 -0.6740
 3855TIP3   OH211570   2.887   3.492   4.032 -0.0232  0.2806  0.0379
 3855TIP3    H111571   2.850   3.543   4.105 -0.5613 -0.1301  0.0631
 3855TIP3    H211572   2.934   3.556   3.979  1.3706  0.3981  1.3771
 3856TIP3   OH211573   5.261   5.212   0.833  0.3589  0.3230  0.3697
 3856TIP3    H111574   5.316   5.237   0.759  1.9087 -0.4394  1.2384
 3856TIP3    H211575   5.275   5.117   0.842 -0.7266  0.2011  0.9144
 3857TIP3   OH211576   5.906   4.199   1.366  0.0899 -0.0906 -0.2419
 3857TIP3    H111577   5.988   4.196   1.415  0.4426  1.7427 -0.6813
 3857TIP3    H211578   5.920   4.267   1.300 -1.6702 -0.0007 -0.5487
 3858TIP3   OH211579   3.900   0.492   4.334  0.2859  0.0551  0.6703
 3858TIP3    H111580   3.993   0.514   4.334  0.1707  0.6238 -0.4935
 3858TIP3    H211581   3.898   0.397   4.348  1.0482  0.0351  0.6894
 3859TIP3   OH211582   0.847   3.769   0.705  0.0209 -0.2324  0.0152
 3859TIP3    H111583   0.939   3.765   0.731 -0.5152 -0.5130  1.9295
 3859TIP3    H211584   0.832   3.862   0.687  1.1206 -0.4210 -2.0516
 3860TIP3   OH211585   4.896   4.482   0.806  0.2951 -0.3487  0.4698
 3860TIP3    H111586   4.989   4.495   0.787 -0.2383 -0.7296 -2.6712
 3860TIP3    H211587   4.885   4.387   0.804 -0.1488 -0.3086  0.9284
 3861TIP3   OH211588   4.793   5.155   1.342 -0.2522 -0.0703  0.4560
 3861TIP3    H111589   4.814   5.203   1.423  0.9426 -0.5112  0.4110
 3861TIP3    H211590   4.824   5.066   1.358 -2.2021 -0.7790  0.4250
 3862TIP3   OH211591   0.175   5.677   4.756  0.1056  0.1720  0.0341
 3862TIP3    H111592   0.084   5.675   4.726 -0.4579  0.2930  1.6744
 3862TIP3    H211593   0.219   5.610   4.704 -0.4896  1.4010 -2.1155
 3863TIP3   OH211594   3.443   1.358   3.971 -0.2237  0.1852 -0.0656
 3863TIP3    H111595   3.537   1.352   3.954 -0.1853  0.8736 -0.1144
 3863TIP3    H211596   3.423   1.282   4.026  0.6351  0.8149  1.1501
 3864TIP3   OH211597   3.317   1.836   4.290  0.4075  0.3433  0.2304
 3864TIP3    H111598   3.307   1.930   4.304 -0.0558  0.0458  2.0870
 3864TIP3    H211599   3.286   1.796   4.372 -1.5173 -1.5316 -1.3351
 3865TIP3   OH211600   2.025   3.658   4.096 -0.0544  0.4985 -0.3109
 3865TIP3    H111601   2.036   3.704   4.013  1.4375 -0.7948 -0.8475
 3865TIP3    H211602   1.963   3.588   4.077  1.5304 -0.8173 -0.7827
 3866TIP3   OH211603   4.311   0.050   4.379  0.7890  0.3405  0.4521
 3866TIP3    H111604   4.312   0.125   4.320 -0.1398 -0.4679 -0.6117
 3866TIP3    H211605   4.242   0.069   4.443  0.7099  0.4988  0.3183
 3867TIP3   OH211606   1.676   1.142   3.236  0.3693 -0.0805 -0.1413
 3867TIP3    H111607   1.656   1.226   3.194 -0.4763  0.1925  0.7747
 3867TIP3    H211608   1.751   1.108   3.187  0.2319  0.8425 -1.0190
 3868TIP3   OH211609   3.046   1.044   4.278  0.0043  0.2432 -0.4071
 3868TIP3    H111610   3.061   0.962   4.231 -1.7245 -0.2087 -0.2197
 3868TIP3    H211611   3.080   1.029   4.366  1.3519  0.3676 -0.9049
 3869TIP3   OH211612   2.582   4.626   3.887  0.3607 -0.5867  0.2705
 3869TIP3    H111613   2.514   4.667   3.942 -0.2450 -0.9842 -0.1810
 3869TIP3    H211614   2.533   4.582   3.818  1.1054 -0.5622 -0.2689
 3870TIP3   OH211615   5.212   0.084   1.913 -0.4300 -0.1922  0.4573
 3870TIP3    H111616   5.290   0.039   1.881 -0.5055 -0.1520  0.2135
 3870TIP3    H211617   5.182   0.137   1.838 -1.2972 -1.0215  0.2118
 3871TIP3   OH211618   6.252   4.453   1.571 -0.3848 -0.2895  0.2002
 3871TIP3    H111619   6.335   4.440   1.617 -1.7913  2.1594  3.6265
 3871TIP3    H211620   6.278   4.487   1.485  2.1795  1.1098  1.4536
 3872TIP3   OH211621   4.582   0.437   3.961  0.3573  0.5213 -0.4511
 3872TIP3    H111622   4.515   0.370   3.969  0.2761  0.6218 -0.2900
 3872TIP3    H211623   4.642   0.420   4.034  0.4793  0.4647 -0.5627
 3873TIP3   OH211624   2.175   5.714   2.986 -0.0822 -0.2185 -0.3465
 3873TIP3    H111625   2.177   5.809   2.998 -0.5549  0.0046 -1.9304
 3873TIP3    H211626   2.264   5.685   3.008 -0.3130  0.4086  1.4714
 3874TIP3   OH211627   1.900   1.193   4.170  0.7791  0.0531  0.1606
 3874TIP3    H111628   1.969   1.131   4.194 -0.2275 -1.0124  0.3466
 3874TIP3    H211629   1.836   1.140   4.123  0.4371  1.1852 -0.6673
 3875TIP3   OH211630   6.388   2.374   0.443  0.5578  0.9398 -0.4247
 3875TIP3    H111631   6.400   2.432   0.518  0.0353  0.5003  0.0031
 3875TIP3    H211632   6.477   2.347   0.419  0.6747  0.4052  0.5783
 3876TIP3   OH211633   5.097   2.436   1.823  0.3440 -0.0978 -0.4251
 3876TIP3    H111634   5.145   2.508   1.781 -0.7254  0.3402 -0.9008
 3876TIP3    H211635   5.148   2.358   1.802 -0.0496  0.1420 -2.3635
 3877TIP3   OH211636   3.147   0.028   1.966  0.2357 -0.6162 -0.2202
 3877TIP3    H111637   3.128   0.076   1.885 -1.1048  1.5801  1.3056
 3877TIP3    H211638   3.220   0.076   2.006  0.4381 -1.2639  0.1920
 3878TIP3   OH211639   0.849   0.108   3.784  0.2224  0.5140 -0.5073
 3878TIP3    H111640   0.825   0.016   3.771  1.4646  0.0415  0.4631
 3878TIP3    H211641   0.828   0.149   3.700 -0.0057 -0.7314 -1.0833
 3879TIP3   OH211642   4.504   5.829   3.568 -0.1616 -0.3997 -0.2866
 3879TIP3    H111643   4.441   5.760   3.546 -0.4092 -1.1106  2.5622
 3879TIP3    H211644   4.479   5.903   3.512 -1.1235 -1.9429 -1.9441
 3880TIP3   OH211645   4.267   2.211   2.196 -0.2452 -0.5447  0.2557
 3880TIP3    H111646   4.242   2.300   2.171 -1.8965 -1.0766 -0.0611
 3880TIP3    H211647   4.230   2.200   2.284  0.4097 -0.7312  0.5052
 3881TIP3   OH211648   2.598   5.852   5.132  0.5689  0.1974  0.1857
 3881TIP3    H111649   2.529   5.908   5.166  0.9430  0.6285  0.2412
 3881TIP3    H211650   2.560   5.764   5.131 -0.7226  0.7474 -1.8452
 3882TIP3   OH211651   2.437  -0.013   4.778 -0.4076 -0.2782  0.3404
 3882TIP3    H111652   2.436   0.080   4.757 -3.9951 -0.3330  0.0690
 3882TIP3    H211653   2.379  -0.021   4.854 -1.0838 -2.4330 -0.3714
 3883TIP3   OH211654   5.087   1.035   1.619 -0.3782 -0.0068  0.1244
 3883TIP3    H111655   5.144   0.978   1.671  0.2533 -1.2113 -1.8118
 3883TIP3    H211656   5.023   0.975   1.581  0.3748  0.5060 -2.0548
 3884TIP3   OH211657   5.418   0.338   4.490  0.1137  0.6818 -0.1869
 3884TIP3    H111658   5.493   0.390   4.516 -0.4980  1.1492  0.6748
 3884TIP3    H211659   5.342   0.394   4.507 -0.5460 -0.4442  0.6969
 3885TIP3   OH211660   0.901   5.916   4.097 -0.0666 -0.0894 -0.0173
 3885TIP3    H111661   0.938   5.969   4.026  0.6883 -0.9821 -0.2958
 3885TIP3    H211662   0.893   5.978   4.170 -1.9529  1.1300 -1.2110
 3886TIP3   OH211663   5.722   2.788   3.872  0.3276 -0.0925 -0.2451
 3886TIP3    H111664   5.666   2.739   3.813  2.2910  0.8907 -3.0560
 3886TIP3    H211665   5.665   2.856   3.909 -1.0245 -0.9397 -0.7515
 3887TIP3   OH211666   0.578   2.192   1.607  0.2591  0.1003 -0.1218
 3887TIP3    H111667   0.577   2.178   1.701 -0.4377  1.6970  0.1238
 3887TIP3    H211668   0.502   2.247   1.590  0.4140 -0.1231 -1.6049
 3888TIP3   OH211669   3.140   5.023   4.067  0.0826 -0.1297  0.5939
 3888TIP3    H111670   3.079   5.067   4.126  0.1360  0.5779  0.1411
 3888TIP3    H211671   3.139   4.932   4.094  0.1584  0.2002  1.7209
 3889TIP3   OH211672   4.406   2.181   3.906  0.2551 -0.6088 -0.0241
 3889TIP3    H111673   4.372   2.177   3.817 -0.6429  1.0765  0.2167
 3889TIP3    H211674   4.500   2.163   3.896 -0.0176 -1.4629 -1.1687
 3890TIP3   OH211675   4.857   4.955   0.717  0.0188  0.0111 -0.0056
 3890TIP3    H111676   4.784   4.938   0.658  1.5736 -0.6257 -1.7780
 3890TIP3    H211677   4.826   5.027   0.772 -1.8624 -0.0994 -0.8796
 3891TIP3   OH211678   3.042   3.496   0.206 -0.6119 -0.3358  0.0186
 3891TIP3    H111679   2.988   3.514   0.283  1.0307  0.1683  1.0714
 3891TIP3    H211680   3.071   3.583   0.176  0.6845 -0.6837  0.2469
 3892TIP3   OH211681   5.919   3.973   4.899 -0.2516 -0.0330 -0.1665
 3892TIP3    H111682   5.825   3.978   4.879 -0.6559 -1.6142  1.2103
 3892TIP3    H211683   5.930   4.027   4.977 -0.0981 -0.1651 -0.0971
 3893TIP3   OH211684   4.872   1.472   4.651  0.2856 -0.1205 -0.2438
 3893TIP3    H111685   4.878   1.562   4.621  0.0972  0.3336  1.0358
 3893TIP3    H211686   4.787   1.441   4.619 -0.7811  0.9826  1.4681
 3894TIP3   OH211687   5.828   2.567   3.271 -0.1311  0.2409 -0.0438
 3894TIP3    H111688   5.852   2.559   3.363 -0.8935 -0.6284  0.0771
 3894TIP3    H211689   5.912   2.563   3.224  0.1024 -1.2973  0.4728
 3895TIP3   OH211690   6.326   0.084   4.454 -0.5951  0.1152  0.0865
 3895TIP3    H111691   6.320   0.034   4.373 -1.0736 -1.6313  1.1663
 3895TIP3    H211692   6.345   0.018   4.521 -0.4193  1.4995  1.4175
 3896TIP3   OH211693   4.596   0.768   3.596  0.8639 -0.0331 -0.4373
 3896TIP3    H111694   4.661   0.704   3.568  0.3301 -0.6902 -0.2029
 3896TIP3    H211695   4.642   0.851   3.595  1.9036 -0.5811  0.3509
 3897TIP3   OH211696   3.299   5.102   4.372  0.2516  0.2304 -0.0156
 3897TIP3    H111697   3.226   5.149   4.333  0.8055  0.1202 -1.1899
 3897TIP3    H211698   3.270   5.085   4.462  0.0033  2.7154  0.4216
 3898TIP3   OH211699   6.040   1.113   4.872  0.6567  0.7079 -0.7496
 3898TIP3    H111700   5.952   1.146   4.889  1.3972  2.3196  0.0330
 3898TIP3    H211701   6.063   1.063   4.950  0.4902  0.3795 -0.9083
 3899TIP3   OH211702   3.959   4.824   3.590  0.1407  0.1237 -0.1303
 3899TIP3    H111703   3.883   4.867   3.549 -0.6789 -2.0642 -1.0029
 3899TIP3    H211704   4.028   4.831   3.525  0.2533  0.8453  0.0667
 3900TIP3   OH211705   0.390   1.369   5.063 -0.5536 -0.0654 -0.3145
 3900TIP3    H111706   0.318   1.429   5.043 -0.3531  0.3350  0.1796
 3900TIP3    H211707   0.435   1.358   4.979 -0.3359  0.8067 -0.3154
 3901TIP3   OH211708   3.370   2.103   3.752 -0.2422 -0.4209  0.1084
 3901TIP3    H111709   3.290   2.086   3.702 -0.2788 -2.7367  0.8910
 3901TIP3    H211710   3.339   2.144   3.833 -0.6451 -1.3572  0.4314
 3902TIP3   OH211711   1.281   4.864   0.113  0.3943  0.2077 -0.4751
 3902TIP3    H111712   1.187   4.849   0.126  0.4776 -0.6789 -0.9031
 3902TIP3    H211713   1.295   4.953   0.146 -0.1907 -0.4250  1.6085
 3903TIP3   OH211714   5.951   0.382   5.165 -0.1373 -0.2545  0.0156
 3903TIP3    H111715   5.923   0.378   5.073 -2.6739 -0.8844  0.7770
 3903TIP3    H211716   5.937   0.474   5.190 -0.2488 -0.2696  0.0094
 3904TIP3   OH211717   4.557   1.120   3.064  0.3035  0.3558 -0.2107
 3904TIP3    H111718   4.507   1.131   3.145  0.1548  0.4682 -0.3178
 3904TIP3    H211719   4.648   1.137   3.089  0.5929 -2.0032  0.4759
 3905TIP3   OH211720   4.872   2.839   3.798  0.4441  0.3097  0.1024
 3905TIP3    H111721   4.783   2.820   3.828  0.6358 -0.4643  0.1845
 3905TIP3    H211722   4.880   2.934   3.807  0.4499  0.1269  2.4013
 3906TIP3   OH211723   5.560   2.738   5.148 -0.1969 -1.1321  0.0123
 3906TIP3    H111724   5.502   2.766   5.078 -0.9427 -1.6549  0.4177
 3906TIP3    H211725   5.504   2.690   5.209  0.5966 -1.3910  0.5576
 3907TIP3   OH211726   3.609   0.347   5.176  0.1256 -0.0644  0.5108
 3907TIP3    H111727   3.589   0.306   5.260  0.6085 -0.2300  0.5491
 3907TIP3    H211728   3.536   0.406   5.159 -0.2815 -0.5082  0.7386
 3908TIP3   OH211729   4.968   0.743   4.775 -0.1898 -0.3903  0.5564
 3908TIP3    H111730   4.954   0.775   4.686  0.1586 -1.8532 -0.0409
 3908TIP3    H211731   4.906   0.669   4.783  0.2841 -0.7112  1.2778
 3909TIP3   OH211732   3.596   0.137   0.685  0.6159  0.7854  0.7971
 3909TIP3    H111733   3.662   0.185   0.734  1.1236 -0.1878  1.0815
 3909TIP3    H211734   3.610   0.163   0.594  1.4845  0.4882  0.8372
 3910TIP3   OH211735   3.255   2.398   3.237  0.6782  0.4445 -0.2001
 3910TIP3    H111736   3.247   2.336   3.165  0.9809 -0.7708  0.8033
 3910TIP3    H211737   3.193   2.468   3.215 -0.1577 -0.5372 -1.0158
 3911TIP3   OH211738   5.950   2.527   3.510  0.0768 -0.4847  0.5619
 3911TIP3    H111739   5.983   2.438   3.516  0.4856 -0.5582 -2.2135
 3911TIP3    H211740   5.973   2.568   3.594 -0.0247 -2.9196  1.8127
 3912TIP3   OH211741   3.325   0.147   0.558  0.4894 -0.2080 -0.1605
 3912TIP3    H111742   3.337   0.241   0.570  1.1644 -0.1737 -1.1197
 3912TIP3    H211743   3.406   0.108   0.593  0.6125 -0.3739 -0.6296
 3913TIP3   OH211744   3.508   1.545   4.735  0.4291  0.4064  0.6185
 3913TIP3    H111745   3.543   1.478   4.795  1.4470  0.7010  0.3741
 3913TIP3    H211746   3.460   1.495   4.670 -1.2985  0.1311  2.0682
 3914TIP3   OH211747   0.593   0.749   4.089  0.0980  0.0579 -0.1485
 3914TIP3    H111748   0.502   0.771   4.068  0.2486  0.5583 -0.2709
 3914TIP3    H211749   0.586   0.673   4.147 -0.4811  1.1145  1.2179
 3915TIP3   OH211750   5.863   1.458   5.129 -0.1380  0.1690  0.3308
 3915TIP3    H111751   5.837   1.549   5.142 -0.3932  0.2508 -0.7300
 3915TIP3    H211752   5.931   1.443   5.195  0.2842  1.2827  0.1662
 3916TIP3   OH211753   4.445   0.693   5.146  0.0492  0.2355 -0.0143
 3916TIP3    H111754   4.427   0.735   5.230 -1.3324 -1.5130  0.5999
 3916TIP3    H211755   4.360   0.661   5.117  0.7010 -0.1194 -1.5666
 3917TIP3   OH211756   5.134   1.399   4.653 -0.4017 -0.0649  0.0106
 3917TIP3    H111757   5.044   1.429   4.665 -0.5644 -0.7779  0.5473
 3917TIP3    H211758   5.166   1.449   4.578 -1.5821 -0.5694 -0.8354
 3918TIP3   OH211759   5.381   1.338   2.296  0.1744  0.0641  0.0481
 3918TIP3    H111760   5.340   1.375   2.218 -0.4319  0.6373  0.6308
 3918TIP3    H211761   5.454   1.286   2.262  1.4250  2.2592 -0.7608
 3919TIP3   OH211762   5.611   4.249   4.584 -0.0159  0.0911  0.1793
 3919TIP3    H111763   5.706   4.248   4.590  0.1656 -1.5513 -2.1679
 3919TIP3    H211764   5.588   4.342   4.591  1.7101  0.4636  1.1596
 3920TIP3   OH211765   5.606   0.924   4.676 -0.4509 -0.1374  0.0847
 3920TIP3    H111766   5.613   0.988   4.747 -1.5751  0.2355 -0.1175
 3920TIP3    H211767   5.689   0.930   4.630 -0.6450  1.4247 -0.1097
 3921TIP3   OH211768   0.292   4.220   0.054  0.6269  0.2321 -0.2100
 3921TIP3    H111769   0.360   4.164   0.016  1.4392  0.6982  0.5333
 3921TIP3    H211770   0.233   4.240  -0.019  0.9341 -0.6986 -0.7201
 3922TIP3   OH211771   1.524   1.357   0.114 -0.2010 -0.4114 -0.2706
 3922TIP3    H111772   1.530   1.387   0.023  0.5947 -2.3180 -0.8554
 3922TIP3    H211773   1.534   1.262   0.109  3.8740 -0.1915  2.2124
 3923TIP3   OH211774   4.747   0.558   4.797 -0.0525 -0.0831 -0.6192
 3923TIP3    H111775   4.681   0.537   4.863 -0.0853  0.5725 -0.4332
 3923TIP3    H211776   4.699   0.559   4.714 -0.1747 -0.1050 -0.5487
 3924TIP3   OH211777   4.594   0.974   5.117  0.0831  0.6560  0.3230
 3924TIP3    H111778   4.503   1.002   5.112 -0.5862 -1.7368 -1.6871
 3924TIP3    H211779   4.593   0.900   5.178  0.1437 -1.1911 -1.8393
 3925TIP3   OH211780   3.798   0.426   1.443 -0.5553 -0.2899  0.1199
 3925TIP3    H111781   3.884   0.384   1.444 -0.8791 -0.9425  1.8157
 3925TIP3    H211782   3.816   0.517   1.465 -0.3190 -0.4630  0.6416
 3926TIP3   OH211783   2.527   0.324   2.901 -0.6033  0.0559  0.6919
 3926TIP3    H111784   2.442   0.340   2.943 -0.3757 -1.1488  1.6494
 3926TIP3    H211785   2.511   0.339   2.808 -1.3271  1.9908  1.1011
 3927TIP3   OH211786   4.066   0.891   3.960  0.2843 -0.2802 -0.4544
 3927TIP3    H111787   4.150   0.869   3.921  0.4091  1.2791 -1.1241
 3927TIP3    H211788   4.036   0.967   3.910 -1.6265 -0.9593 -0.3748
 3928TIP3   OH211789   5.424   1.291   4.606  0.5751 -0.3621 -0.2006
 3928TIP3    H111790   5.392   1.202   4.594  1.2281 -0.7211  0.6716
 3928TIP3    H211791   5.399   1.313   4.696 -0.1542  0.5736 -0.6241
 3929TIP3   OH211792   3.012   1.038   3.753 -0.7746 -0.2447  0.5998
 3929TIP3    H111793   3.020   0.976   3.680  0.1508  0.1287  0.3807
 3929TIP3    H211794   3.009   1.124   3.710  0.1782  0.0021  1.0209
 3930TIP3   OH211795   5.487   3.051   2.188 -0.1690 -0.3911 -0.0816
 3930TIP3    H111796   5.449   3.136   2.208 -4.4688 -2.4942  1.6168
 3930TIP3    H211797   5.517   3.018   2.273 -1.6622 -1.8973 -0.1110
 3931TIP3   OH211798   1.925   4.544   4.370 -0.0847 -0.6355 -0.2409
 3931TIP3    H111799   1.838   4.538   4.329 -0.1650  0.4971 -0.2334
 3931TIP3    H211800   1.936   4.636   4.391  1.9032 -0.4561 -1.9002
 3932TIP3   OH211801   3.601   0.304   1.296  0.8644 -0.1280 -0.2043
 3932TIP3    H111802   3.673   0.357   1.331  1.2227 -0.4469 -0.4457
 3932TIP3    H211803   3.615   0.217   1.333 -0.3110  0.1939  0.9985
 3933TIP3   OH211804   5.682   3.850   0.466  0.0963  0.5778  0.5901
 3933TIP3    H111805   5.601   3.884   0.505 -0.4959 -0.0251 -0.0990
 3933TIP3    H211806   5.668   3.856   0.372  0.4414 -0.4914  0.4620
 3934TIP3   OH211807   5.800   1.443   1.878 -0.2508 -1.0369  0.4629
 3934TIP3    H111808   5.790   1.352   1.905 -0.3142 -1.3819 -0.7308
 3934TIP3    H211809   5.836   1.439   1.790  2.8521  0.0968  1.5645
 3935TIP3   OH211810   4.804   1.036   4.661 -0.0258  0.4575 -0.5604
 3935TIP3    H111811   4.867   1.081   4.605 -1.0970  0.9598 -1.3751
 3935TIP3    H211812   4.791   0.951   4.619 -1.8183  1.3291 -1.8292
 3936TIP3   OH211813   1.761   5.577   2.681  0.2555  0.0472  0.1456
 3936TIP3    H111814   1.816   5.500   2.697 -1.1334 -0.6795  1.5017
 3936TIP3    H211815   1.691   5.545   2.625 -0.1209  0.4046  0.4122
 3937TIP3   OH211816   0.126   1.263   4.343 -0.7132 -0.1973  0.1547
 3937TIP3    H111817   0.041   1.219   4.341 -0.3652 -0.8430 -1.1969
 3937TIP3    H211818   0.107   1.353   4.371 -2.1778  0.3517 -2.4762
 3938TIP3   OH211819   5.721   1.030   5.158  0.2621  0.0747 -0.3306
 3938TIP3    H111820   5.813   1.018   5.182  0.0813  0.3400  0.5021
 3938TIP3    H211821   5.704   1.123   5.176  0.4729  0.6061 -2.6759
 3939TIP3   OH211822   5.360   3.484  -0.024 -0.8506 -0.0637 -0.0800
 3939TIP3    H111823   5.341   3.399   0.015  1.0302 -1.2559 -1.6491
 3939TIP3    H211824   5.335   3.547   0.043  1.0590 -1.9922  2.5954
 3940TIP3   OH211825   5.997   2.017   0.327 -0.1493  0.5538  0.2254
 3940TIP3    H111826   6.084   2.050   0.351 -0.6183  1.1232  1.1514
 3940TIP3    H211827   5.989   1.934   0.373 -1.1879  1.8075  2.4056
 3941TIP3   OH211828   5.816   1.477   4.703 -0.4330  0.0617 -0.0071
 3941TIP3    H111829   5.730   1.439   4.687 -0.5085  0.1247  0.2541
 3941TIP3    H211830   5.859   1.476   4.617 -0.9187  0.5962 -0.2612
 3942TIP3   OH211831   6.331   1.765   3.916 -0.7556  0.1673  0.1761
 3942TIP3    H111832   6.333   1.811   3.832  0.4482  0.5263  0.3821
 3942TIP3    H211833   6.346   1.834   3.981 -1.4411 -0.1443  0.6712
 3943TIP3   OH211834   4.669   1.346   3.521  0.4562  0.2752  0.4606
 3943TIP3    H111835   4.718   1.403   3.462  0.8680  0.0857  0.6138
 3943TIP3    H211836   4.735   1.316   3.585  0.1464 -0.0060  0.6487
 3944TIP3   OH211837   0.631   0.344   3.589  0.1747 -0.1327  0.6778
 3944TIP3    H111838   0.595   0.412   3.646  0.9330  0.0111  0.9825
 3944TIP3    H211839   0.554   0.300   3.553 -0.3092  0.0788  1.4488
 3945TIP3   OH211840   6.357   2.209   4.838 -0.7153 -0.0835  0.1195
 3945TIP3    H111841   6.363   2.165   4.754 -1.2028 -0.8127  0.4680
 3945TIP3    H211842   6.279   2.264   4.832 -1.1152 -0.6262  0.3252
 3946TIP3   OH211843   6.309   4.091   0.474 -0.2618 -0.4854  0.0985
 3946TIP3    H111844   6.252   4.137   0.412  0.9544  0.5379 -0.2884
 3946TIP3    H211845   6.255   4.079   0.552 -1.3187 -0.4247 -0.6040
 3947TIP3   OH211846   1.769   4.384   4.890 -0.0937 -0.0420  0.5485
 3947TIP3    H111847   1.816   4.441   4.952  0.9811 -1.2210  0.8346
 3947TIP3    H211848   1.688   4.432   4.871 -0.2726  0.5206  2.5747
 3948TIP3   OH211849   5.073   1.266   3.482 -0.2169 -0.8707 -0.2411
 3948TIP3    H111850   5.026   1.314   3.550 -1.2437 -1.2098 -0.7039
 3948TIP3    H211851   5.126   1.332   3.438  0.3641 -0.6257  0.8093
 3949TIP3   OH211852   3.795   0.864   4.929 -0.8559 -0.4448 -0.1413
 3949TIP3    H111853   3.800   0.797   4.860  0.5726  0.1292 -0.6083
 3949TIP3    H211854   3.843   0.826   5.002 -4.2117 -1.9695  1.3442
 3950TIP3   OH211855   1.826   0.137   3.959  0.4197 -0.0792 -0.2346
 3950TIP3    H111856   1.761   0.206   3.948  1.1157  0.6191 -0.0164
 3950TIP3    H211857   1.846   0.136   4.052  0.0316 -0.9282 -0.1571
 3951TIP3   OH211858   0.068   2.236   4.509  0.7249  0.0527  0.1179
 3951TIP3    H111859   0.075   2.141   4.502  0.0016 -0.0241  0.3626
 3951TIP3    H211860   0.089   2.268   4.421  0.2479 -0.3832 -0.1650
 3952TIP3   OH211861   0.682   0.355   4.960 -0.4329  0.1072  0.5367
 3952TIP3    H111862   0.715   0.442   4.936  1.2986  0.1990  3.0324
 3952TIP3    H211863   0.587   0.363   4.957 -0.2799  1.1875 -2.2831
 3953TIP3   OH211864   6.350   0.582   5.247  0.3486 -0.4136 -0.0034
 3953TIP3    H111865   6.278   0.645   5.252  0.0226 -0.7994  0.1740
 3953TIP3    H211866   6.354   0.543   5.334 -0.5085 -1.8019 -0.5608
 3954TIP3   OH211867   0.452   1.708   2.629 -0.6651  0.3784  0.6974
 3954TIP3    H111868   0.523   1.679   2.686 -0.6435  0.3718  0.6669
 3954TIP3    H211869   0.387   1.746   2.689 -0.6621  0.3309  0.7313
 3955TIP3   OH211870   3.118   1.258   4.815  0.0362  0.4904 -0.3138
 3955TIP3    H111871   3.170   1.238   4.893  0.0565  1.3342 -0.1147
 3955TIP3    H211872   3.044   1.197   4.820  0.0423  0.5280  0.3633
 3956TIP3   OH211873   5.388   1.502   2.976  0.0211 -0.3942  0.0138
 3956TIP3    H111874   5.450   1.432   2.994 -0.6937 -0.6862  1.4580
 3956TIP3    H211875   5.440   1.582   2.981  0.7255 -0.7879 -1.0685
 3957TIP3   OH211876   0.539   2.604   0.017 -0.4872  0.3532 -0.2276
 3957TIP3    H111877   0.635   2.595   0.016 -0.6227 -1.1545 -1.4338
 3957TIP3    H211878   0.524   2.691  -0.019  0.3483 -0.6437 -3.1437
 3958TIP3   OH211879   4.136   0.942   4.821 -0.1260  0.1524  0.1898
 3958TIP3    H111880   4.194   0.944   4.745 -1.6587  0.5817 -0.9680
 3958TIP3    H211881   4.102   1.031   4.828 -0.7276 -0.1214  0.8009
 3959TIP3   OH211882   5.334   3.599   4.816  0.0604 -0.8385  0.2178
 3959TIP3    H111883   5.261   3.540   4.831 -0.3181 -0.7161 -1.1076
 3959TIP3    H211884   5.399   3.546   4.769 -0.8208  0.1361 -2.1595
 3960TIP3   OH211885   3.476   1.830   3.698 -0.1784 -0.2418 -0.8193
 3960TIP3    H111886   3.440   1.778   3.769  0.2854  1.2787  0.5433
 3960TIP3    H211887   3.463   1.921   3.725  2.1034  0.3553 -1.5714
 3961TIP3   OH211888   3.287   6.116   3.261  0.2897  0.1711 -0.0821
 3961TIP3    H111889   3.229   6.068   3.321 -0.3066  0.6258 -0.2880
 3961TIP3    H211890   3.354   6.155   3.318 -0.0188  0.2309  0.2407
 3962TIP3   OH211891   0.418   2.155   5.048  0.2006 -0.5982 -0.0866
 3962TIP3    H111892   0.452   2.234   5.006  0.8329 -1.1238 -0.5664
 3962TIP3    H211893   0.494   2.116   5.092  0.0304 -1.3027 -0.4197
 3963TIP3   OH211894   0.708   4.186   0.342  0.5509 -0.6303 -0.3862
 3963TIP3    H111895   0.614   4.197   0.349  0.6613  0.6460 -0.8039
 3963TIP3    H211896   0.724   4.096   0.370 -0.8256 -0.9765 -0.7024
 3964TIP3   OH211897   0.047   2.545   2.947  0.3063 -0.0706  0.3295
 3964TIP3    H111898   0.132   2.503   2.964 -0.1677 -0.9621  0.5136
 3964TIP3    H211899   0.027   2.522   2.857 -0.8539 -1.8357  1.0289
 3965TIP3   OH211900   2.620   0.324   3.897  0.3026 -0.4015  0.4723
 3965TIP3    H111901   2.605   0.271   3.975  0.9196  1.8011  2.1281
 3965TIP3    H211902   2.654   0.262   3.832  1.5452 -1.9239  2.5129
 3966TIP3   OH211903   3.588   4.845   4.503 -0.0585 -0.1070  0.0123
 3966TIP3    H111904   3.632   4.929   4.489 -1.7558  0.5046 -1.9461
 3966TIP3    H211905   3.551   4.852   4.591  2.5184 -0.1005  1.1334
 3967TIP3   OH211906   3.860   1.845   4.564  1.0438  0.0379  0.2990
 3967TIP3    H111907   3.844   1.751   4.557 -2.3060  0.7586 -3.4029
 3967TIP3    H211908   3.821   1.870   4.648  1.8328 -1.7937  1.2412
 3968TIP3   OH211909   4.655   3.007   1.763  0.3293 -0.4252  0.4779
 3968TIP3    H111910   4.669   3.097   1.790  0.1341 -1.2482  3.5860
 3968TIP3    H211911   4.742   2.976   1.737  0.5559  0.4091  0.2354
 3969TIP3   OH211912   0.586   3.373   0.199 -0.0943  0.1521 -0.0319
 3969TIP3    H111913   0.499   3.339   0.181  0.0028  0.2438 -0.6917
 3969TIP3    H211914   0.625   3.387   0.112 -0.2223  2.1493  0.2041
 3970TIP3   OH211915   4.717   1.729   3.750  0.6959  0.5113  0.4152
 3970TIP3    H111916   4.764   1.681   3.819 -1.3069  0.4586  1.7782
 3970TIP3    H211917   4.674   1.801   3.796 -0.8008  0.3789 -0.7376
 3971TIP3   OH211918   6.274   0.546   2.646 -0.5463 -0.3070  0.4645
 3971TIP3    H111919   6.258   0.593   2.728  1.9062  2.5115 -0.5752
 3971TIP3    H211920   6.369   0.531   2.645 -0.7125 -1.3847 -1.2891
 3972TIP3   OH211921   4.176   0.798   2.359 -0.0175 -0.1332 -0.0397
 3972TIP3    H111922   4.156   0.889   2.338 -0.9435 -0.3947 -0.3159
 3972TIP3    H211923   4.233   0.802   2.435 -0.5100  0.6551  0.2849
 3973TIP3   OH211924   5.213   1.545   3.545 -0.1040  0.1703 -0.7259
 3973TIP3    H111925   5.140   1.607   3.552  0.4218  1.0136 -2.3678
 3973TIP3    H211926   5.217   1.524   3.452  2.2792  0.8089 -0.7942
 3974TIP3   OH211927   3.030   5.792   4.395  0.0757  0.0970 -0.2045
 3974TIP3    H111928   3.009   5.851   4.323  0.1575 -2.2281 -2.2128
 3974TIP3    H211929   3.119   5.817   4.422 -0.2853  1.5350 -0.3343
 3975TIP3   OH211930   5.770   1.056   3.495 -0.3106  0.0231 -0.5665
 3975TIP3    H111931   5.846   1.092   3.540  0.0893 -0.9334 -0.4502
 3975TIP3    H211932   5.806   1.018   3.414 -0.0661 -3.6168  1.1355
 3976TIP3   OH211933   0.313   2.364   3.583 -0.2512 -0.6671  0.2677
 3976TIP3    H111934   0.291   2.393   3.494  0.3833 -1.3290 -0.1077
 3976TIP3    H211935   0.341   2.443   3.628  0.2857 -0.4809 -0.3902
 3977TIP3   OH211936   1.964   5.521   2.958 -0.1692 -0.0512 -0.3817
 3977TIP3    H111937   2.045   5.572   2.964 -0.4532  0.4393 -0.6749
 3977TIP3    H211938   1.957   5.498   2.866 -0.4453  0.0409 -0.3852
 3978TIP3   OH211939   0.116   1.826   4.266 -0.0561  0.2583 -0.3512
 3978TIP3    H111940   0.133   1.761   4.198 -2.2007  0.5959 -1.2735
 3978TIP3    H211941   0.122   1.778   4.348  1.8293 -0.3174 -0.8215
 3979TIP3   OH211942   2.618   2.696   0.068 -0.5645  0.6938  0.4162
 3979TIP3    H111943   2.705   2.718   0.037 -0.8960  0.1868 -0.8982
 3979TIP3    H211944   2.628   2.610   0.109 -0.3045  0.9721  0.9418
 3980TIP3   OH211945   6.099   0.826   3.313  0.5133  0.0358 -0.3466
 3980TIP3    H111946   6.044   0.747   3.309  1.6153 -0.6895 -1.3049
 3980TIP3    H211947   6.084   0.860   3.402 -1.1526 -0.3790 -0.4426
 3981TIP3   OH211948   5.314   0.571   2.615  0.4682  0.0103  0.2414
 3981TIP3    H111949   5.265   0.587   2.534  0.8138 -0.5299 -0.0764
 3981TIP3    H211950   5.261   0.509   2.664  0.3368  0.2139  0.3551
 3982TIP3   OH211951   5.854   0.643   2.047  0.0585  0.1771  0.6199
 3982TIP3    H111952   5.895   0.600   1.972  0.6049  1.4268  0.1996
 3982TIP3    H211953   5.911   0.622   2.121 -1.4463 -2.5876  1.0675
 3983TIP3   OH211954   2.474   5.028   4.748 -0.1371  0.0708 -0.3118
 3983TIP3    H111955   2.448   5.088   4.817  0.7265 -0.6745  0.6707
 3983TIP3    H211956   2.447   4.941   4.779  0.8949 -0.3563 -0.5865
 3984TIP3   OH211957   4.572   4.822   1.347 -0.0897 -0.3568  0.0081
 3984TIP3    H111958   4.503   4.887   1.359  0.3428  0.0120  0.5304
 3984TIP3    H211959   4.651   4.874   1.331  0.1603 -0.7682 -0.0950
 3985TIP3   OH211960   4.847   2.647   5.046  0.6850  0.1415 -0.0885
 3985TIP3    H111961   4.889   2.574   5.093  1.3001  0.1922 -0.5607
 3985TIP3    H211962   4.792   2.604   4.980  2.0944  0.1248 -1.2661
 3986TIP3   OH211963   6.173   1.367   4.954  0.2699  0.2109  0.4806
 3986TIP3    H111964   6.084   1.403   4.954  1.0249  2.2061  1.7602
 3986TIP3    H211965   6.163   1.279   4.990 -1.2425  0.2622  0.2512
 3987TIP3   OH211966   5.987   1.046   5.281  0.3119  0.5773 -0.2967
 3987TIP3    H111967   6.034   0.981   5.229 -0.9879  0.2091 -1.0495
 3987TIP3    H211968   6.025   1.130   5.257  1.7470  0.1366  0.3983
 3988TIP3   OH211969   5.507   1.879   4.819  0.4460  0.3328 -0.0219
 3988TIP3    H111970   5.488   1.899   4.727  1.9278 -3.0757 -1.1915
 3988TIP3    H211971   5.423   1.852   4.856  0.2302 -0.4342 -1.0371
 3989TIP3   OH211972   1.321   1.115   4.687  0.1293  0.0581  0.3000
 3989TIP3    H111973   1.256   1.053   4.720  1.4887 -1.6947 -0.2338
 3989TIP3    H211974   1.319   1.104   4.592  1.1573  0.0201  0.2759
 3990TIP3   OH211975   3.438   1.075   2.761  0.3824  0.2846  0.4485
 3990TIP3    H111976   3.502   1.038   2.823  0.1550  1.2681  1.2745
 3990TIP3    H211977   3.360   1.091   2.813 -0.8221 -1.5848 -0.7060
 3991TIP3   OH211978   1.404   5.732   4.476 -0.6173 -0.1737  0.6034
 3991TIP3    H111979   1.498   5.733   4.458 -0.4189  1.6750  1.5234
 3991TIP3    H211980   1.363   5.726   4.391  0.3291  1.7132 -0.0160
 3992TIP3   OH211981   2.865   5.759   3.562 -0.3183 -0.3218  0.4784
 3992TIP3    H111982   2.876   5.688   3.499 -0.9994 -0.3980  0.4473
 3992TIP3    H211983   2.789   5.734   3.615 -1.3099  0.9480 -0.3077
 3993TIP3   OH211984   5.622   0.682   3.522  0.1093  0.0506  0.3010
 3993TIP3    H111985   5.661   0.708   3.438 -1.0737 -2.0170 -0.9105
 3993TIP3    H211986   5.674   0.729   3.587  0.6008  2.2614 -1.6060
 3994TIP3   OH211987   0.629   3.136   1.771 -0.1015  0.2633  0.2324
 3994TIP3    H111988   0.683   3.158   1.848  0.6602  0.5324 -0.3717
 3994TIP3    H211989   0.550   3.096   1.808 -0.0299  0.9890  1.1875
 3995TIP3   OH211990   2.024   4.721   0.732 -0.2819  0.3927 -0.2665
 3995TIP3    H111991   1.973   4.641   0.729  0.9660 -0.4476  0.7612
 3995TIP3    H211992   2.090   4.710   0.664  2.0878 -0.9892  2.1630
 3996TIP3   OH211993   0.023   3.197   0.219 -0.1122 -0.1150  0.1501
 3996TIP3    H111994   0.079   3.168   0.147 -0.7223  0.1640 -0.4421
 3996TIP3    H211995  -0.032   3.122   0.239 -0.4457  0.0425 -0.1686
 3997TIP3   OH211996   0.504   4.907   0.703  0.1734  0.2724  0.6859
 3997TIP3    H111997   0.483   4.814   0.694  1.0781  0.1174  0.0367
 3997TIP3    H211998   0.425   4.947   0.738 -0.5763 -0.5718 -0.0310
 3998TIP3   OH211999   5.098   0.805   3.508  0.3555 -0.1546  0.7440
 3998TIP3    H112000   5.091   0.748   3.431 -0.3529 -1.1999  1.5744
 3998TIP3    H212001   5.183   0.784   3.546 -0.1322 -1.0335  1.3464
 3999TIP3   OH212002   6.099   2.380   2.422  0.2410 -0.6315 -0.0613
 3999TIP3    H112003   6.186   2.341   2.423  1.4794  2.0074  0.0687
 3999TIP3    H212004   6.084   2.405   2.331 -0.3380 -0.9691 -0.0623
 4000TIP3   OH212005   5.810   0.953   4.477 -0.1552  0.1671  0.2983
 4000TIP3    H112006   5.767   1.017   4.421  2.5124  0.6175 -1.3147
 4000TIP3    H212007   5.809   0.872   4.425  0.9061  0.1854  0.2369
 4001TIP3   OH212008   2.336   5.727   5.084  0.7184 -0.2220 -0.4341
 4001TIP3    H112009   2.350   5.748   4.992 -4.2887 -0.6648 -1.4239
 4001TIP3    H212010   2.367   5.637   5.093  1.7278  0.0106 -1.5477
 4002TIP3   OH212011   5.853   1.886   2.997 -0.0736 -0.4243 -0.1808
 4002TIP3    H112012   5.945   1.901   3.018 -0.0893  2.1080 -1.7561
 4002TIP3    H212013   5.806   1.914   3.076  0.3833  0.3833 -0.1886
 4003TIP3   OH212014   5.585   0.707   3.853 -0.4318 -0.0450  0.0571
 4003TIP3    H112015   5.674   0.675   3.867 -0.6910 -1.1049 -0.7202
 4003TIP3    H212016   5.572   0.772   3.923  1.4876  1.2681 -0.7501
 4004TIP3   OH212017   3.095   5.747   3.732 -0.0232  0.3203  0.9210
 4004TIP3    H112018   3.018   5.712   3.688  2.0056 -1.6699 -1.1612
 4004TIP3    H212019   3.121   5.823   3.679  1.1352 -0.7705 -0.1098
 4005TIP3   OH212020   0.233   4.349   0.745 -0.1240 -0.1768  0.0112
 4005TIP3    H112021   0.276   4.427   0.709 -0.7902  0.2286  0.0968
 4005TIP3    H212022   0.297   4.279   0.732  1.4191  0.8104  1.9585
 4006TIP3   OH212023   0.166   0.044   4.413  0.0870 -0.0086  0.1477
 4006TIP3    H112024   0.131  -0.045   4.420 -0.4020  0.2120  0.4646
 4006TIP3    H212025   0.205   0.061   4.499 -1.5193  0.8114  0.7148
 4007TIP3   OH212026  -0.022   3.632   1.804 -0.1746 -0.2569 -0.1245
 4007TIP3    H112027   0.053   3.646   1.861  0.5405 -0.0027 -1.1151
 4007TIP3    H212028  -0.020   3.539   1.783 -0.2138 -0.2759 -0.0450
 4008TIP3   OH212029   6.214   0.789   4.818  0.2112  0.6480 -0.0466
 4008TIP3    H112030   6.164   0.840   4.755  0.6799  2.1816  0.8008
 4008TIP3    H212031   6.301   0.830   4.819  0.7323 -0.4207  0.3549
 4009TIP3   OH212032   2.962   1.531   2.558 -0.6911 -0.1051 -0.1631
 4009TIP3    H112033   2.953   1.619   2.593  0.4204 -0.6766  1.6305
 4009TIP3    H212034   2.963   1.474   2.635  1.9484 -1.3819 -1.0693
 4010TIP3   OH212035   4.439   1.271   2.378  0.1930 -0.5431  0.5651
 4010TIP3    H112036   4.522   1.232   2.406 -0.5358 -2.1458  0.5547
 4010TIP3    H212037   4.376   1.246   2.447 -0.0669  1.5870  1.1465
 4011TIP3   OH212038   4.076   1.927   3.620  0.1936 -0.0413 -0.8316
 4011TIP3    H112039   4.052   1.890   3.705  1.3019  0.8061 -0.1296
 4011TIP3    H212040   3.998   1.916   3.566 -1.7348  2.5011  1.3191
 4012TIP3   OH212041   1.330   5.112   0.234  0.2844  0.5256 -0.1229
 4012TIP3    H112042   1.309   5.199   0.201 -0.2669  2.0135  3.9160
 4012TIP3    H212043   1.424   5.115   0.252  0.2810  0.2579 -0.0601
 4013TIP3   OH212044   0.335   0.817   4.079  0.0250  0.1231 -0.1736
 4013TIP3    H112045   0.293   0.893   4.119 -0.1788  0.6480 -1.3776
 4013TIP3    H212046   0.284   0.742   4.112 -0.4089  0.5834  0.2050
 4014TIP3   OH212047   4.794   0.389   4.180  0.3019 -0.4642 -0.0106
 4014TIP3    H112048   4.781   0.484   4.180 -0.3337 -0.5260  1.8954
 4014TIP3    H212049   4.886   0.377   4.205  0.7161 -0.3402 -1.4200
 4015TIP3   OH212050   5.036   0.252   3.720 -0.0569  0.8450 -0.0359
 4015TIP3    H112051   5.072   0.184   3.663 -0.5044  1.2123 -0.7702
 4015TIP3    H212052   5.073   0.334   3.685 -0.5964  1.1037 -0.0148
 4016TIP3   OH212053   2.046   0.642   3.442 -0.1476  0.0191 -0.2086
 4016TIP3    H112054   2.057   0.548   3.453 -1.4649  0.1996  3.2014
 4016TIP3    H212055   2.132   0.679   3.458 -0.3782 -0.3665  2.0045
 4017TIP3   OH212056   1.349   3.646   2.392  0.2346 -0.1426  0.4661
 4017TIP3    H112057   1.299   3.603   2.462  0.0722 -0.8342 -0.0806
 4017TIP3    H212058   1.440   3.640   2.421  0.2102 -0.8303  0.3999
 4018TIP3   OH212059   3.751   1.356   4.522  0.2038 -0.8420 -0.1406
 4018TIP3    H112060   3.707   1.272   4.536  0.3274 -0.8360  0.2806
 4018TIP3    H212061   3.769   1.358   4.428 -0.0496 -1.1644 -0.1965
 4019TIP3   OH212062   5.706   5.817   0.096  0.1671  0.1534  0.3818
 4019TIP3    H112063   5.716   5.912   0.104  2.0542 -0.0635  0.6945
 4019TIP3    H212064   5.702   5.801   0.002  3.6485  0.1989  0.1673
 4020TIP3   OH212065   5.885   1.255   3.957 -1.0528  0.2088  0.2089
 4020TIP3    H112066   5.887   1.351   3.958  0.5727  0.1869 -0.0168
 4020TIP3    H212067   5.879   1.231   4.050 -1.2961  0.5177  0.2767
 4021TIP3   OH212068   5.446   2.204   3.690  0.6821 -0.3157 -0.1102
 4021TIP3    H112069   5.447   2.116   3.653  0.0309 -0.6635  0.6839
 4021TIP3    H212070   5.478   2.193   3.779 -0.0870  0.1352  0.2229
 4022TIP3   OH212071   4.143   1.532   2.649  0.5696 -0.0565  0.1855
 4022TIP3    H112072   4.159   1.447   2.610  1.2657 -0.1299  0.6243
 4022TIP3    H212073   4.088   1.578   2.585  1.0683 -0.4481 -0.5315
 4023TIP3   OH212074   2.858   0.321   2.299  0.0557 -0.6743 -0.1858
 4023TIP3    H112075   2.893   0.373   2.227  1.1693 -1.3327 -0.1247
 4023TIP3    H212076   2.895   0.234   2.286 -0.9820 -1.1993  0.3013
 4024TIP3   OH212077   6.128   3.793   0.558 -0.6030 -0.1311 -0.1935
 4024TIP3    H112078   6.059   3.823   0.498 -1.2666 -1.3889 -0.0952
 4024TIP3    H212079   6.125   3.697   0.550 -0.3298 -0.2877  1.4305
 4025TIP3   OH212080   4.831   0.481   3.306 -0.1205  0.0577  0.6440
 4025TIP3    H112081   4.896   0.542   3.272 -1.1911 -0.3119 -2.1565
 4025TIP3    H212082   4.870   0.395   3.294 -0.9259 -0.1363 -0.6222
 4026TIP3   OH212083   5.413   1.255   4.904 -0.4658 -0.1980 -0.0221
 4026TIP3    H112084   5.486   1.193   4.897 -0.4622 -0.0389 -1.5779
 4026TIP3    H212085   5.335   1.201   4.894 -0.4979 -0.0784 -0.3959
 4027TIP3   OH212086   2.029   3.433   1.368 -0.2494 -0.2491  0.0027
 4027TIP3    H112087   2.091   3.484   1.420  1.4653 -2.6271  0.3749
 4027TIP3    H212088   1.985   3.497   1.312  1.5822  1.6536  0.6979
 4028TIP3   OH212089   5.899   2.953   1.125 -0.1017  0.2935 -0.0182
 4028TIP3    H112090   5.897   2.932   1.032  0.5683  0.6220 -0.1096
 4028TIP3    H212091   5.946   3.036   1.130  1.7331 -0.7486  0.7906
 4029TIP3   OH212092   2.529   1.273   4.277  0.2564 -0.7564 -0.2439
 4029TIP3    H112093   2.603   1.213   4.273  0.1288 -0.8824 -0.7913
 4029TIP3    H212094   2.563   1.356   4.244  0.3494 -0.6112  0.2141
 4030TIP3   OH212095   3.767   0.114   5.228 -0.1175  0.2485  0.6588
 4030TIP3    H112096   3.723   0.198   5.235 -0.7218 -0.1460  1.6829
 4030TIP3    H212097   3.696   0.049   5.235  0.1172 -0.3461 -1.7529
 4031TIP3   OH212098   4.317   5.185   4.162  0.1380 -0.0682  0.2546
 4031TIP3    H112099   4.377   5.249   4.123 -0.1435  1.0669  1.6177
 4031TIP3    H212100   4.370   5.138   4.226 -0.2116  0.4027  0.9028
 4032TIP3   OH212101   4.659   2.334   4.378  0.4500 -0.6394  0.3775
 4032TIP3    H112102   4.702   2.415   4.351  1.9336 -2.5130 -3.3474
 4032TIP3    H212103   4.597   2.315   4.308 -0.4141 -2.3562  1.5635
 4033TIP3   OH212104   6.287   3.067   4.013 -0.1381 -0.3154  0.3458
 4033TIP3    H112105   6.328   3.005   3.952 -0.0416 -1.8750  1.9698
 4033TIP3    H212106   6.274   3.146   3.961  1.3850 -1.0923 -1.2594
 4034TIP3   OH212107   0.993   4.895   0.113  0.4387 -0.4506 -0.2482
 4034TIP3    H112108   0.908   4.851   0.107  0.8786 -1.4870  1.0636
 4034TIP3    H212109   0.974   4.975   0.163 -0.2165  0.5317 -2.0238
 4035TIP3   OH212110   1.540   5.206   0.799  0.4390  0.3971 -0.5368
 4035TIP3    H112111   1.509   5.117   0.817  2.9669 -0.2231  1.0049
 4035TIP3    H212112   1.632   5.195   0.776  0.4101  2.4904 -1.7645
 4036TIP3   OH212113   4.170   2.645   3.263 -0.4076 -0.7477  0.2923
 4036TIP3    H112114   4.173   2.590   3.342  0.1072  1.8660  2.1522
 4036TIP3    H212115   4.094   2.701   3.276 -0.3369 -0.3218 -1.1062
 4037TIP3   OH212116   5.196   1.116   3.663 -0.3931 -0.2883  0.0943
 4037TIP3    H112117   5.154   1.137   3.580 -0.5282 -1.0463 -0.0283
 4037TIP3    H212118   5.289   1.137   3.649 -0.6546  1.0926  0.2705
 4038TIP3   OH212119   1.390   1.801   3.479  0.3809  0.0810 -0.0447
 4038TIP3    H112120   1.325   1.736   3.455  1.0935 -2.0829  3.4805
 4038TIP3    H212121   1.340   1.876   3.511 -0.4546 -1.0464  1.3540
 4039TIP3   OH212122   0.843   3.212   0.760  0.5180  0.1571 -0.3381
 4039TIP3    H112123   0.919   3.270   0.752  0.1774  0.4267 -1.8129
 4039TIP3    H212124   0.769   3.272   0.773  0.2522  0.0268 -1.2243
 4040TIP3   OH212125   4.851   0.965   4.974 -0.2816  0.4392  0.9606
 4040TIP3    H112126   4.764   0.969   5.012 -0.6940  2.3388 -0.1299
 4040TIP3    H212127   4.837   0.970   4.880  1.0160  1.1482  0.7876
 4041TIP3   OH212128   6.019   3.093   2.215  0.2991 -0.1305  0.1736
 4041TIP3    H112129   5.928   3.075   2.191  0.6117  0.0173 -1.1625
 4041TIP3    H212130   6.017   3.103   2.310 -0.9316 -1.0053  0.2544
 4042TIP3   OH212131   3.201   0.835   2.934  0.1577  0.5541  0.1222
 4042TIP3    H112132   3.171   0.748   2.908 -0.3284  0.4523  1.0201
 4042TIP3    H212133   3.296   0.825   2.947  0.1495  0.2310 -0.0714
 4043TIP3   OH212134   4.875   0.313   4.745  0.3635  0.3336  0.0240
 4043TIP3    H112135   4.920   0.290   4.827 -1.0624  1.1925  1.0724
 4043TIP3    H212136   4.846   0.403   4.759 -1.4818 -0.1391 -0.7298
 4044TIP3   OH212137   4.806   0.848   4.050  0.0648 -0.0275 -0.1016
 4044TIP3    H112138   4.720   0.839   4.010 -0.3137  0.7062  0.5294
 4044TIP3    H212139   4.864   0.875   3.979 -0.3174 -0.1108 -0.4396
 4045TIP3   OH212140   5.272   3.336   4.237  0.2029  0.2566 -0.7232
 4045TIP3    H112141   5.307   3.414   4.192 -0.0896  0.1184 -1.1963
 4045TIP3    H212142   5.250   3.276   4.166  0.4078 -0.2527 -0.3558
 4046TIP3   OH212143   5.316   5.621   4.992  0.8616  0.2898 -0.4123
 4046TIP3    H112144   5.349   5.606   5.081 -0.6356  0.5218  0.2014
 4046TIP3    H212145   5.270   5.705   4.998  0.0577 -0.0857 -1.2030
 4047TIP3   OH212146   6.326   3.725   0.338  0.3630  0.1934  0.3385
 4047TIP3    H112147   6.277   3.805   0.356  0.9211  0.2415  1.7584
 4047TIP3    H212148   6.292   3.694   0.255 -2.1812  0.1513  1.3446
 4048TIP3   OH212149   1.131   5.575   0.270 -0.4109  0.0735  0.6868
 4048TIP3    H112150   1.185   5.597   0.347  0.4468  0.4416 -0.0095
 4048TIP3    H212151   1.043   5.602   0.294 -0.4013 -1.0947  2.0838
 4049TIP3   OH212152   5.418   5.774   4.552  0.3050  0.0247  0.0616
 4049TIP3    H112153   5.505   5.787   4.591 -0.5003  0.6068  1.7137
 4049TIP3    H212154   5.392   5.862   4.524 -1.4435  0.6151  3.2861
 4050TIP3   OH212155   1.453  -0.000   3.954  0.2063 -0.0572  0.0209
 4050TIP3    H112156   1.495  -0.055   4.020  0.0829 -2.4167 -1.8006
 4050TIP3    H212157   1.495   0.085   3.964  2.9395 -1.4026  0.6224
 4051TIP3   OH212158   0.616   3.005   0.230 -0.1613 -0.4304 -0.4354
 4051TIP3    H112159   0.685   3.030   0.168  0.5498 -1.8182 -0.2211
 4051TIP3    H212160   0.581   3.088   0.261  3.3535  0.4028  1.6180
 4052TIP3   OH212161   5.349   2.097   3.973  0.1515 -0.2153 -0.0501
 4052TIP3    H112162   5.410   2.040   3.926 -0.1663  0.1082 -0.8675
 4052TIP3    H212163   5.389   2.183   3.970  1.1994 -0.5898  2.2019
 4053TIP3   OH212164   3.274   5.396   4.653  0.2054 -0.4557 -0.1294
 4053TIP3    H112165   3.251   5.460   4.586 -0.0410 -1.7305 -1.2902
 4053TIP3    H212166   3.219   5.419   4.729  1.1048  1.5166 -0.0464
 4054TIP3   OH212167   0.865   1.127   4.269  0.0292  0.3414 -0.1803
 4054TIP3    H112168   0.836   1.216   4.249  1.5055  0.8051 -0.2991
 4054TIP3    H212169   0.786   1.083   4.302 -0.6301  1.7903  0.2136
 4055TIP3   OH212170   4.535   5.666   5.015  0.0206 -0.1063 -0.4647
 4055TIP3    H112171   4.448   5.658   4.975 -0.4289  0.0356  0.4826
 4055TIP3    H212172   4.536   5.600   5.085  0.8751 -0.4821 -0.8245
 4056TIP3   OH212173   2.695   4.182   0.589  0.1289 -0.2902  0.3241
 4056TIP3    H112174   2.781   4.188   0.630  0.4202 -0.0199 -0.3290
 4056TIP3    H212175   2.709   4.127   0.512 -0.3340 -0.4380  0.3402
 4057TIP3   OH212176   5.716   1.579   2.487  0.4085  0.0685  0.2055
 4057TIP3    H112177   5.645   1.628   2.528 -0.1653 -0.4728 -0.1409
 4057TIP3    H212178   5.751   1.525   2.558  1.2889  1.2490  0.6806
 4058TIP3   OH212179   6.096   2.236   4.272  0.5887 -0.1298  0.3183
 4058TIP3    H112180   6.112   2.330   4.279 -1.3876  0.2251  0.5453
 4058TIP3    H212181   6.183   2.197   4.266  1.4049  1.7974 -0.9225
 4059TIP3   OH212182   1.623   2.044   3.921  0.2632  0.0568  0.6641
 4059TIP3    H112183   1.591   2.079   4.003 -1.2710 -0.8066  0.4608
 4059TIP3    H212184   1.548   1.998   3.884  1.1530 -0.2151 -0.8495
 4060TIP3   OH212185   1.772   2.943   1.041  0.0955 -0.1768  0.1194
 4060TIP3    H112186   1.840   2.929   1.106 -1.6414 -0.5818  1.9209
 4060TIP3    H212187   1.731   3.025   1.067  0.5789  0.6279 -1.5886
 4061TIP3   OH212188   0.944   2.054   2.757  0.4717 -0.6833 -0.2677
 4061TIP3    H112189   0.889   2.128   2.782  0.0133 -0.7534 -1.0667
 4061TIP3    H212190   0.883   1.991   2.719  1.1651 -0.5742 -1.5659
 4062TIP3   OH212191   5.882   0.485   4.651  0.8887  0.1925  0.5238
 4062TIP3    H112192   5.826   0.556   4.683 -0.3542 -1.2320  1.5770
 4062TIP3    H212193   5.934   0.526   4.582 -1.7676  1.4844 -0.8352
 4063TIP3   OH212194   5.875   5.860   3.635  0.1724  0.1193  0.2976
 4063TIP3    H112195   5.831   5.819   3.561 -0.1037  1.2481 -0.1610
 4063TIP3    H212196   5.810   5.917   3.675  0.4708 -0.0942  1.1078
 4064TIP3   OH212197   0.540   1.837   3.701  0.2073  0.1849 -0.9191
 4064TIP3    H112198   0.461   1.785   3.689 -1.1944  2.1208 -0.3206
 4064TIP3    H212199   0.587   1.795   3.772 -1.2179  0.1010 -0.0189
 4065TIP3   OH212200   6.475   1.265   4.917  0.4114  0.1258 -0.3021
 4065TIP3    H112201   6.426   1.250   4.999  0.7143 -0.2488 -0.1907
 4065TIP3    H212202   6.419   1.325   4.868  0.2540  0.4057  0.2060
 4066TIP3   OH212203   5.062   0.311   4.981 -0.1369 -0.3691 -0.1969
 4066TIP3    H112204   5.101   0.391   4.946 -1.8213 -0.8161 -3.2078
 4066TIP3    H212205   5.132   0.246   4.975  0.2816  0.1117 -0.5790
 4067TIP3   OH212206   6.437   0.366   4.729  0.0572 -0.3527  0.6227
 4067TIP3    H112207   6.348   0.358   4.694 -1.0457  0.9606  2.9986
 4067TIP3    H212208   6.425   0.397   4.819  2.9772  1.2735  0.5254
 4068TIP3   OH212209   5.659   4.404   2.141 -0.5681  0.0500 -0.0092
 4068TIP3    H112210   5.712   4.327   2.121 -1.8329 -0.9641  0.4295
 4068TIP3    H212211   5.619   4.384   2.226 -1.0708  1.1008  0.0084
 4069TIP3   OH212212   4.280   2.682   2.248  0.3835  0.2639 -0.3271
 4069TIP3    H112213   4.357   2.625   2.235  0.1403  0.2430 -1.7309
 4069TIP3    H212214   4.278   2.697   2.342  1.9932  0.0874 -0.2386
 4070TIP3   OH212215   0.917   1.804   2.980  0.1872 -0.0986  0.0619
 4070TIP3    H112216   0.951   1.856   2.907  0.2950 -1.3608 -0.7997
 4070TIP3    H212217   0.953   1.846   3.058  1.0141  0.5735 -0.6654
 4071TIP3   OH212218   4.107   5.647   5.129  0.0632 -0.3652 -0.1590
 4071TIP3    H112219   4.046   5.617   5.197 -1.0379 -0.7852 -1.3056
 4071TIP3    H212220   4.192   5.614   5.158 -0.8999 -3.5453 -0.6776
 4072TIP3   OH212221   1.109   2.176   4.611  0.0546 -0.6064 -0.6094
 4072TIP3    H112222   1.055   2.153   4.687  0.9687 -0.2482  0.1489
 4072TIP3    H212223   1.049   2.222   4.552  0.2287  2.5517  1.5869
 4073TIP3   OH212224   0.343   2.526   4.399  0.0748 -0.1552  0.6973
 4073TIP3    H112225   0.252   2.554   4.400 -0.2846 -1.3157  1.5362
 4073TIP3    H212226   0.359   2.497   4.309 -0.2868  0.3585  0.4691
 4074TIP3   OH212227   2.125   3.717   0.750 -0.2484 -0.0245  0.0920
 4074TIP3    H112228   2.052   3.768   0.784  0.0300  0.4613 -0.0355
 4074TIP3    H212229   2.166   3.774   0.685  0.3236 -0.2403  0.2608
 4075TIP3   OH212230   0.026   0.699   4.992 -0.6879  0.2308  0.0943
 4075TIP3    H112231   0.031   0.793   5.012 -0.4369  0.3055 -0.3157
 4075TIP3    H212232   0.081   0.688   4.915 -0.1822 -0.3727  0.5422
 4076TIP3   OH212233   0.974   1.349   4.475 -0.1685 -0.2288  0.0148
 4076TIP3    H112234   0.910   1.286   4.511  0.4732 -1.0721 -0.2970
 4076TIP3    H212235   0.998   1.403   4.550  1.8645 -2.5736  1.1486
 4077TIP3   OH212236   0.063   1.572   2.530 -1.0161  0.8194  0.3982
 4077TIP3    H112237   0.005   1.631   2.579  0.3413  2.1681  0.4043
 4077TIP3    H212238   0.105   1.628   2.465 -0.7513 -0.4293 -0.5237
 4078TIP3   OH212239   2.193   1.039   3.045  0.1718  0.2140  0.2453
 4078TIP3    H112240   2.219   0.953   3.079  0.7856  0.7008  1.0320
 4078TIP3    H212241   2.186   1.027   2.950  0.7626 -0.5715  0.3002
 4079TIP3   OH212242   0.670   3.407   0.829 -0.5883 -0.2469 -0.2972
 4079TIP3    H112243   0.617   3.414   0.908  0.9526 -1.3586  0.8823
 4079TIP3    H212244   0.649   3.485   0.779 -0.6196  1.1803  1.8537
 4080TIP3   OH212245   1.655   3.234   0.049 -0.6562  0.6991  0.4111
 4080TIP3    H112246   1.603   3.300   0.096 -0.6132 -0.0993  1.6121
 4080TIP3    H212247   1.646   3.258  -0.043 -1.8786  1.4968  0.7192
 4081TIP3   OH212248   0.154   2.121   4.990 -0.0082 -0.2307  0.2653
 4081TIP3    H112249   0.244   2.149   5.006  0.0665 -0.5082  0.3312
 4081TIP3    H212250   0.162   2.047   4.931 -0.2577  0.4841 -0.6771
 4082TIP3   OH212251   3.186   4.557   0.158  0.5556  0.3795 -0.1015
 4082TIP3    H112252   3.093   4.535   0.151  0.2485  0.4685  3.1505
 4082TIP3    H212253   3.232   4.477   0.134 -0.2378  0.8504 -3.5931
 4083TIP3   OH212254   0.917   3.826   1.460 -0.1902  0.1549 -0.1616
 4083TIP3    H112255   0.919   3.874   1.543 -1.9868 -0.6775  0.3873
 4083TIP3    H212256   1.003   3.784   1.455  0.6214  1.7386  0.3524
 4084TIP3   OH212257   2.296   5.533   0.928 -0.0100 -0.4938  0.2089
 4084TIP3    H112258   2.342   5.498   1.004  1.1024  1.2087  0.3509
 4084TIP3    H212259   2.274   5.623   0.953 -1.2984 -0.5199 -0.7766
 4085TIP3   OH212260   6.408   3.821   0.639 -0.7273  0.2944  0.9972
 4085TIP3    H112261   6.362   3.872   0.572  0.6366 -2.0108 -1.8334
 4085TIP3    H212262   6.346   3.751   0.662  0.4000 -1.5480 -1.2528
 4086TIP3   OH212263   5.827   3.379   3.598 -0.2391 -0.8207 -0.0619
 4086TIP3    H112264   5.774   3.329   3.661 -0.8144  0.0556  0.1569
 4086TIP3    H212265   5.885   3.431   3.653  0.2498 -1.1327 -0.2874
 4087TIP3   OH212266   1.307   0.947   4.420  0.3384  0.2806 -0.3586
 4087TIP3    H112267   1.232   0.959   4.361  1.0085 -0.8111 -1.4500
 4087TIP3    H212268   1.375   1.002   4.384  0.7213 -0.3172 -0.5503
 4088TIP3   OH212269   0.289   0.480   4.717  0.2642 -0.1584 -0.7736
 4088TIP3    H112270   0.224   0.548   4.735  1.2609 -0.1672  3.6078
 4088TIP3    H212271   0.258   0.437   4.638 -2.7609  2.5686 -1.1764
 4089TIP3   OH212272   1.524   2.314   4.753  0.9710  0.0119 -0.3891
 4089TIP3    H112273   1.551   2.227   4.782 -1.7998  0.0416  2.5295
 4089TIP3    H212274   1.605   2.365   4.752  2.2624 -1.9524  0.1132
 4090TIP3   OH212275   1.098   3.094   4.905 -0.5547  0.6414 -0.2714
 4090TIP3    H112276   1.098   3.043   4.986 -0.4077 -0.3943 -0.9194
 4090TIP3    H212277   1.034   3.051   4.849  0.5594  0.3495 -1.3336
 4091TIP3   OH212278   1.273   1.973   5.252  0.0427 -0.1198  0.3380
 4091TIP3    H112279   1.330   2.036   5.296 -0.7573  0.3778  0.6748
 4091TIP3    H212280   1.311   1.887   5.273 -0.0864  0.1367  1.6547
 4092TIP3   OH212281   4.491   5.389   0.062 -0.2971 -0.1323  0.1143
 4092TIP3    H112282   4.476   5.347  -0.023 -0.7934 -0.8350  0.5395
 4092TIP3    H212283   4.458   5.478   0.051 -0.4181 -0.2383 -0.4094
 4093TIP3   OH212284   6.340   4.773   0.768 -0.0964 -0.0609  0.2895
 4093TIP3    H112285   6.387   4.831   0.827  0.4235  0.4083 -0.5628
 4093TIP3    H212286   6.373   4.686   0.787  1.7583  0.3609 -0.8701
 4094TIP3   OH212287   3.614   5.908   0.691 -0.0280  0.0771  0.2300
 4094TIP3    H112288   3.678   5.933   0.625  0.7650 -0.9025  0.6137
 4094TIP3    H212289   3.579   5.991   0.723  2.1756  0.6970  1.1187
 4095TIP3   OH212290   1.631   3.700   0.545  0.2661 -0.3121 -0.7394
 4095TIP3    H112291   1.539   3.721   0.562  0.0466 -0.9226 -1.1671
 4095TIP3    H212292   1.662   3.771   0.489  0.1408  0.0508 -0.3567
 4096TIP3   OH212293   2.065   3.297   4.489 -0.4462 -0.1177  0.1770
 4096TIP3    H112294   2.016   3.229   4.443 -0.1001 -0.3356  0.1348
 4096TIP3    H212295   2.042   3.378   4.443 -0.1068 -0.3340 -0.3783
 4097TIP3   OH212296   5.663   0.795   0.668  0.0523  0.1128 -0.3202
 4097TIP3    H112297   5.742   0.746   0.690  0.9614  2.0525  0.8256
 4097TIP3    H212298   5.593   0.752   0.718  0.5087 -1.1161 -0.7229
 4098TIP3   OH212299   3.762   2.045   4.757  0.7571  0.3371  0.0112
 4098TIP3    H112300   3.787   2.096   4.834 -0.7411  1.4452 -0.1969
 4098TIP3    H212301   3.666   2.045   4.759  0.7154 -0.4679 -1.3172
 4099TIP3   OH212302   5.274   4.444   0.572 -0.5011 -0.4000  0.2294
 4099TIP3    H112303   5.231   4.513   0.624  0.4509  0.4119 -0.0399
 4099TIP3    H212304   5.209   4.419   0.506 -0.0097  1.9491 -1.1975
 4100TIP3   OH212305   1.021   2.373   4.919 -0.0508 -0.6371  0.2633
 4100TIP3    H112306   0.991   2.290   4.881 -1.6581 -0.7172  1.6538
 4100TIP3    H212307   0.950   2.400   4.977  1.0349  1.0460  0.8476
 4101TIP3   OH212308   2.393   2.420   2.845  0.6250  0.0921 -0.2486
 4101TIP3    H112309   2.347   2.468   2.915  0.8679  1.0358 -0.7269
 4101TIP3    H212310   2.389   2.329   2.873 -0.6414  0.2749  0.2323
 4102TIP3   OH212311   5.234   0.067   1.140 -0.5109  0.3557 -0.5748
 4102TIP3    H112312   5.239   0.086   1.046 -0.8715  3.2002 -0.0861
 4102TIP3    H212313   5.154   0.112   1.168  0.7150  1.3142  1.4499
 4103TIP3   OH212314   2.910   1.780   2.655  0.1765 -0.3066  0.1487
 4103TIP3    H112315   2.990   1.826   2.681  0.9510 -1.1250 -0.7161
 4103TIP3    H212316   2.868   1.838   2.591  1.8983 -1.3708 -2.0592
 4104TIP3   OH212317   0.800   0.315   0.245 -0.4214  0.5729 -0.4040
 4104TIP3    H112318   0.868   0.358   0.194 -0.2813  1.2893  0.3756
 4104TIP3    H212319   0.725   0.308   0.186  0.2710 -0.0863 -1.2187
 4105TIP3   OH212320   2.730   4.988   0.042  0.1237 -0.5507 -0.1048
 4105TIP3    H112321   2.649   5.023   0.077 -0.6142 -1.4792 -0.8468
 4105TIP3    H212322   2.770   4.941   0.115  0.0538 -0.0031  0.2905
 4106TIP3   OH212323   0.736   1.702   4.122 -0.0078 -0.4314 -0.0119
 4106TIP3    H112324   0.787   1.678   4.199 -0.1032  2.5381  1.0376
 4106TIP3    H212325   0.799   1.702   4.051  0.8779  0.5232  0.7693
 4107TIP3   OH212326   3.512   5.748   1.082  0.2919 -0.3660  0.0343
 4107TIP3    H112327   3.453   5.719   1.012  0.6814 -0.4121 -0.2725
 4107TIP3    H212328   3.536   5.667   1.127  1.3687 -0.5389 -0.8145
 4108TIP3   OH212329   2.258   2.890   4.485  0.1928 -0.1006 -0.1659
 4108TIP3    H112330   2.264   2.985   4.497  0.3246  0.0428 -1.3655
 4108TIP3    H212331   2.346   2.858   4.507 -0.1687 -0.0821  1.3775
 4109TIP3   OH212332   4.868   4.894   1.420  0.2809  0.2586  0.1343
 4109TIP3    H112333   4.809   4.912   1.494 -1.4170 -0.5604 -0.9962
 4109TIP3    H212334   4.956   4.896   1.459 -0.6121 -0.7194  2.2838
 4110TIP3   OH212335   2.768   3.923   2.888 -0.2656  0.4837 -0.0257
 4110TIP3    H112336   2.676   3.933   2.862  0.0258 -1.2158 -1.8337
 4110TIP3    H212337   2.810   3.882   2.812  2.2156  2.1537  0.3684
 4111TIP3   OH212338   0.887   4.368   0.046 -0.0707  0.1796 -0.2412
 4111TIP3    H112339   0.838   4.410  -0.024 -0.3497  0.2912  0.0211
 4111TIP3    H212340   0.845   4.398   0.127 -0.6877 -1.1086 -0.0612
 4112TIP3   OH212341   2.666   1.314   4.769  0.0168 -0.5775 -0.4242
 4112TIP3    H112342   2.719   1.393   4.760 -2.3656  1.1328  0.1943
 4112TIP3    H212343   2.601   1.321   4.700  0.0873 -2.2899 -0.6947
 4113TIP3   OH212344   4.225   4.066   1.456  0.4969  0.1229  0.5482
 4113TIP3    H112345   4.245   4.021   1.538  0.0408 -1.7339 -0.3312
 4113TIP3    H212346   4.289   4.032   1.393  0.3833  0.9904 -0.0479
 4114TIP3   OH212347   2.420   1.543   4.027  0.3029 -0.1334 -0.0339
 4114TIP3    H112348   2.513   1.547   4.008 -0.1647  0.6675 -2.2214
 4114TIP3    H212349   2.393   1.634   4.039 -0.5303 -0.2255 -1.1188
 4115TIP3   OH212350   0.233   2.624   0.364  0.5303 -0.1897  0.5669
 4115TIP3    H112351   0.153   2.675   0.379  1.3930  0.8197  1.8459
 4115TIP3    H212352   0.203   2.534   0.355 -1.1595  0.6144 -2.8122
 4116TIP3   OH212353   4.461   5.350   1.505 -0.4867 -0.5517  0.0654
 4116TIP3    H112354   4.528   5.396   1.454 -1.7188  2.6285  1.1681
 4116TIP3    H212355   4.511   5.296   1.566  1.0198 -1.3226 -1.7934
 4117TIP3   OH212356   4.912   0.824   0.811 -0.5089  0.4240  0.4295
 4117TIP3    H112357   4.896   0.749   0.869 -0.6029  0.5876  0.6157
 4117TIP3    H212358   4.963   0.787   0.739 -0.5080  0.1902  0.5463
 4118TIP3   OH212359   1.086   0.131   4.262  0.0186 -0.0438  0.6773
 4118TIP3    H112360   1.114   0.136   4.171  1.0956  3.6027  1.1238
 4118TIP3    H212361   0.995   0.103   4.258  0.0722  0.0426 -1.4887
 4119TIP3   OH212362   2.544   3.427   1.654  0.0385  0.4565 -0.5223
 4119TIP3    H112363   2.555   3.435   1.559 -1.3749  0.4998 -0.6893
 4119TIP3    H212364   2.535   3.333   1.669  0.0616  0.4652 -0.4516
 4120TIP3   OH212365   0.686   1.902   2.008 -0.0233  0.4463 -0.1395
 4120TIP3    H112366   0.745   1.964   1.965 -0.1038 -0.2212 -1.2275
 4120TIP3    H212367   0.653   1.847   1.937 -0.2206 -0.6258  0.7719
 4121TIP3   OH212368   1.733   2.576   3.352  0.3794 -0.3883  0.0627
 4121TIP3    H112369   1.825   2.572   3.327 -0.1379 -0.7394 -1.8112
 4121TIP3    H212370   1.733   2.557   3.446  2.3065  0.6449  0.2872
 4122TIP3   OH212371   3.372   2.615   4.575 -0.1441  0.0012 -0.0410
 4122TIP3    H112372   3.410   2.528   4.582 -1.4617 -0.5062  0.7708
 4122TIP3    H212373   3.404   2.648   4.491  0.2756 -1.2884 -0.3939
 4123TIP3   OH212374   0.819   3.679   0.001  0.1863 -0.0255  0.5417
 4123TIP3    H112375   0.797   3.695   0.093 -1.3570 -0.2652  0.2330
 4123TIP3    H212376   0.738   3.697  -0.046  1.1185  0.5892 -0.8356
 4124TIP3   OH212377   1.955   2.027   4.515 -0.2810  0.3314 -0.1530
 4124TIP3    H112378   1.864   2.056   4.506  0.0750  1.0502 -1.4588
 4124TIP3    H212379   1.960   1.947   4.462 -0.6157 -0.7542  1.4193
 4125TIP3   OH212380   1.549   1.735   3.873 -0.5286 -0.3976 -0.1041
 4125TIP3    H112381   1.462   1.695   3.883 -1.5346  1.2521 -2.0485
 4125TIP3    H212382   1.551   1.767   3.783  2.4745 -1.2392 -0.3850
 4126TIP3   OH212383   4.053   3.244   4.747  0.1287  0.0077 -0.0221
 4126TIP3    H112384   4.056   3.154   4.714  0.8358  0.2556 -0.6265
 4126TIP3    H212385   3.965   3.274   4.724 -0.1346 -0.5455  0.2340
 4127TIP3   OH212386   2.629   6.132   1.551 -0.0218 -0.5546  0.5281
 4127TIP3    H112387   2.658   6.075   1.480 -2.3922 -2.6104  1.1245
 4127TIP3    H212388   2.642   6.079   1.630 -0.6757  0.3766  1.2654
 4128TIP3   OH212389   2.054   3.035   3.016  0.7689  0.0969 -0.0298
 4128TIP3    H112390   2.087   3.123   3.037 -0.4759  0.7218 -0.6192
 4128TIP3    H212391   2.011   3.005   3.096  0.0967  0.5568 -0.2097
 4129TIP3   OH212392   2.405   5.106   2.486 -0.0238 -0.5152 -0.4344
 4129TIP3    H112393   2.323   5.103   2.437 -0.0105 -0.1313 -0.4877
 4129TIP3    H212394   2.415   5.018   2.523  0.1545 -0.9066 -1.4196
 4130TIP3   OH212395   3.862   3.675   4.489  0.0711  0.0335  0.1487
 4130TIP3    H112396   3.839   3.596   4.537 -0.0339  0.5484  0.9622
 4130TIP3    H212397   3.956   3.687   4.505  0.1201 -0.0220 -0.1050
 4131TIP3   OH212398   3.370   5.016   0.935  0.3532 -0.2184 -0.0252
 4131TIP3    H112399   3.418   4.933   0.933 -0.6534 -0.9328  2.9786
 4131TIP3    H212400   3.280   4.992   0.912  0.5083  0.4084 -1.3116
 4132TIP3   OH212401   2.698   2.804   4.178 -0.2895 -0.6969 -0.1520
 4132TIP3    H112402   2.618   2.855   4.190  0.0436  0.1073 -1.3216
 4132TIP3    H212403   2.667   2.714   4.170 -1.0448 -0.4453 -0.1368
 4133TIP3   OH212404   1.995   5.238   1.167 -0.3709 -0.0209 -0.3434
 4133TIP3    H112405   2.044   5.251   1.086  1.0158 -0.0626  0.4869
 4133TIP3    H212406   1.915   5.193   1.140  0.4833 -0.8081 -1.5724
 4134TIP3   OH212407   2.199   3.336   2.775 -0.0665 -0.1788 -0.7700
 4134TIP3    H112408   2.268   3.307   2.834 -0.1835  1.5713  0.2756
 4134TIP3    H212409   2.214   3.287   2.694  0.6310 -1.9477  0.4156
 4135TIP3   OH212410   1.231   2.804   1.838 -0.0299  0.7989  0.2883
 4135TIP3    H112411   1.247   2.717   1.873 -1.1296  0.3475 -0.3021
 4135TIP3    H212412   1.287   2.809   1.761 -2.0645 -0.4867 -1.3309
 4136TIP3   OH212413   3.138   0.013   0.799  0.6786  0.0664  0.2014
 4136TIP3    H112414   3.108   0.095   0.838  1.7318 -0.2491  1.7349
 4136TIP3    H212415   3.059  -0.027   0.761 -0.7580 -0.4438  3.5648
 4137TIP3   OH212416   3.330   5.671   0.901  0.3198 -0.2231  0.5672
 4137TIP3    H112417   3.258   5.719   0.860 -1.0683 -0.8710  2.1932
 4137TIP3    H212418   3.342   5.593   0.847 -1.6101 -1.1614  1.4788
 4138TIP3   OH212419   4.438   6.077   0.820  0.0099 -0.0632 -0.1147
 4138TIP3    H112420   4.520   6.119   0.849 -0.1402  0.7923 -0.8852
 4138TIP3    H212421   4.465   6.022   0.747  0.4930 -2.7188  1.9825
 4139TIP3   OH212422   1.601   5.481   2.483 -0.6441  0.0080  0.0145
 4139TIP3    H112423   1.612   5.397   2.526 -1.3098 -0.3460 -0.5030
 4139TIP3    H212424   1.507   5.497   2.483 -0.5037  0.9159  0.4152
 4140TIP3   OH212425   4.220   5.228   2.974 -0.5054  0.5549  0.0786
 4140TIP3    H112426   4.170   5.150   2.949 -0.1626  0.1649  0.6046
 4140TIP3    H212427   4.261   5.257   2.892 -2.0532  1.2230 -0.4779
 4141TIP3   OH212428   6.339   0.107   0.483 -0.3016  0.7514 -0.6783
 4141TIP3    H112429   6.428   0.119   0.517 -0.2168 -1.1531 -0.1668
 4141TIP3    H212430   6.345   0.128   0.390  0.4876  1.4721 -0.4701
 4142TIP3   OH212431   2.175   2.187   4.452  0.2694 -0.2172  0.1553
 4142TIP3    H112432   2.116   2.113   4.464 -0.6923  0.3474 -0.9637
 4142TIP3    H212433   2.261   2.148   4.439  0.0231 -1.0756  1.0650
 4143TIP3   OH212434   5.274   0.153   1.446  0.2078  0.4553 -0.8191
 4143TIP3    H112435   5.212   0.110   1.387  2.3958  0.4015 -3.1368
 4143TIP3    H212436   5.337   0.085   1.469 -0.2524  0.6487  1.1071
 4144TIP3   OH212437   4.030   6.030   0.600  0.0916 -0.3076  0.1645
 4144TIP3    H112438   4.071   6.103   0.555 -0.4532  0.0614  0.2634
 4144TIP3    H212439   3.937   6.037   0.578  0.0249 -0.9244  0.2318
 4145TIP3   OH212440   3.604   4.810   1.041 -0.2685  0.1066  0.4103
 4145TIP3    H112441   3.682   4.835   1.091  0.7331 -0.8284 -0.6495
 4145TIP3    H212442   3.627   4.830   0.950 -1.3613  0.0453  0.1109
 4146TIP3   OH212443   3.810   3.802   4.159 -0.2396 -0.0827 -0.2382
 4146TIP3    H112444   3.714   3.801   4.163 -0.2038 -0.8069  0.6827
 4146TIP3    H212445   3.837   3.731   4.217  0.8587  0.0641 -0.5600
 4147TIP3   OH212446   5.216   5.262   1.572 -0.3949 -0.3257 -0.2471
 4147TIP3    H112447   5.203   5.356   1.563  0.5345 -0.2579 -0.8919
 4147TIP3    H212448   5.230   5.231   1.483  0.8249 -0.8458  0.1288
 4148TIP3   OH212449   0.411   0.250   3.463  0.3436 -0.1750  0.3874
 4148TIP3    H112450   0.428   0.156   3.460  1.1843  0.0075 -1.0263
 4148TIP3    H212451   0.362   0.268   3.383  0.5732  0.6661  0.4332
 4149TIP3   OH212452   3.819   5.438   1.272 -0.3501 -0.2321 -0.5668
 4149TIP3    H112453   3.780   5.441   1.185 -1.4149  0.1837 -0.0880
 4149TIP3    H212454   3.805   5.348   1.302 -1.6667  0.1202 -0.0847
 4150TIP3   OH212455   3.817   4.178   1.634  0.2222 -0.0747 -0.0778
 4150TIP3    H112456   3.884   4.171   1.701  0.3257  2.3256  0.1115
 4150TIP3    H212457   3.734   4.178   1.683  0.2682  0.9773  0.0093
 4151TIP3   OH212458   1.061   4.449   5.302  0.2669 -0.0837 -0.4477
 4151TIP3    H112459   1.131   4.490   5.352  0.1375  0.1061 -0.4199
 4151TIP3    H212460   1.101   4.424   5.219  0.3219  0.1916 -0.5046
 4152TIP3   OH212461   3.325   0.030   4.051  0.8585  0.4837 -0.6423
 4152TIP3    H112462   3.290   0.111   4.014 -1.6523 -0.4576 -0.4781
 4152TIP3    H212463   3.321   0.042   4.146  1.2263  0.4841 -0.6281
 4153TIP3   OH212464   4.416   4.896   0.160 -0.2261 -0.2992 -0.0391
 4153TIP3    H112465   4.455   4.812   0.138 -0.0675 -0.1253 -0.4252
 4153TIP3    H212466   4.322   4.878   0.167 -0.1760 -0.5369  0.0296
 4154TIP3   OH212467   3.365   4.693  -0.029  0.0263 -0.0614 -0.3743
 4154TIP3    H112468   3.297   4.664   0.031 -0.2722 -0.6868 -1.0154
 4154TIP3    H212469   3.446   4.692   0.023 -0.1416 -1.1029 -0.1321
 4155TIP3   OH212470   3.034   5.139   1.063 -0.3983 -0.0673 -0.3368
 4155TIP3    H112471   2.971   5.091   1.116 -0.2136  1.7653  1.5748
 4155TIP3    H212472   2.998   5.137   0.975 -1.0198 -2.6254 -0.0589
 4156TIP3   OH212473   2.099   1.988   0.315  0.7505 -0.2568 -0.5693
 4156TIP3    H112474   2.097   2.050   0.242 -1.2474  0.8620  0.3976
 4156TIP3    H212475   2.047   1.914   0.285  1.5649 -0.6469 -1.0179
 4157TIP3   OH212476   5.836   3.257   0.644  0.1297  0.3731 -0.0073
 4157TIP3    H112477   5.751   3.263   0.602  1.3249  1.0495 -2.4069
 4157TIP3    H212478   5.860   3.347   0.665 -0.8419 -0.0112  3.0369
 4158TIP3   OH212479   1.285   1.583   3.911 -0.2244 -0.1310 -0.0220
 4158TIP3    H112480   1.313   1.527   3.983  1.5106  1.6074  0.7105
 4158TIP3    H212481   1.270   1.523   3.838  0.6506 -1.6211  0.9951
 4159TIP3   OH212482   4.395   4.994   0.440 -0.3697 -0.6353 -0.0305
 4159TIP3    H112483   4.416   4.955   0.355 -0.3430 -1.3138  0.2821
 4159TIP3    H212484   4.302   5.016   0.434 -0.4584 -1.0288 -0.1001
 4160TIP3   OH212485   2.172   2.042   4.725 -0.4002 -0.1609 -0.0759
 4160TIP3    H112486   2.139   2.013   4.810 -0.6579  0.5482  0.0635
 4160TIP3    H212487   2.094   2.045   4.669 -0.1402 -1.2316 -0.5076
 4161TIP3   OH212488   6.500   2.493   3.844 -0.1712  0.3165  0.2255
 4161TIP3    H112489   6.458   2.425   3.791 -1.0111  0.1024  1.1483
 4161TIP3    H212490   6.485   2.574   3.796 -0.8107  0.1077  0.0742
 4162TIP3   OH212491   5.370   5.733   1.539 -0.4337 -0.3000  0.4638
 4162TIP3    H112492   5.456   5.703   1.567 -0.7863 -0.6200  1.2225
 4162TIP3    H212493   5.342   5.793   1.609 -1.0474 -0.6076  0.4907
 4163TIP3   OH212494   3.254   3.449   4.428  0.3728 -0.2912  0.1104
 4163TIP3    H112495   3.270   3.529   4.378  1.3125 -0.7905 -0.4133
 4163TIP3    H212496   3.192   3.399   4.375 -0.6930  0.3639  0.7374
 4164TIP3   OH212497   1.189   1.684   4.641  0.4489  0.5329 -0.9619
 4164TIP3    H112498   1.256   1.717   4.581  0.9298 -0.1978 -0.8254
 4164TIP3    H212499   1.232   1.616   4.691 -0.3689  0.1232 -0.8051
 4165TIP3   OH212500   3.314   0.809   0.160  0.4827 -0.1940 -0.1342
 4165TIP3    H112501   3.383   0.751   0.128  0.1362 -0.7235  0.0675
 4165TIP3    H212502   3.254   0.818   0.085  1.3500  1.1784 -0.6801
 4166TIP3   OH212503   1.129   0.410   3.193 -0.4024 -0.1927  0.4188
 4166TIP3    H112504   1.115   0.463   3.271  1.5671 -0.2523  0.8561
 4166TIP3    H212505   1.119   0.320   3.223  0.5809 -0.2249  0.6697
 4167TIP3   OH212506   2.015   4.976   0.870 -0.2829  0.1084 -0.1380
 4167TIP3    H112507   2.026   4.912   0.799  1.5785 -1.3852  1.4242
 4167TIP3    H212508   2.094   5.030   0.865  0.0734 -0.2958  1.0654
 4168TIP3   OH212509   3.838   0.973   3.733  0.3175  0.4172  0.0598
 4168TIP3    H112510   3.847   0.944   3.823 -1.5807  1.8469  0.7396
 4168TIP3    H212511   3.770   0.917   3.696  1.6962 -0.7425 -0.7531
 4169TIP3   OH212512   3.023   5.542   1.372 -0.9643  0.2675  0.2597
 4169TIP3    H112513   3.098   5.530   1.313 -1.1596 -0.5442  0.1681
 4169TIP3    H212514   3.034   5.473   1.438 -0.8288  1.0714  1.0867
 4170TIP3   OH212515   1.857   0.248   0.597  0.0169 -0.1873  0.1868
 4170TIP3    H112516   1.908   0.304   0.539  0.4457  0.5310  1.2396
 4170TIP3    H212517   1.781   0.301   0.622 -0.1830 -0.5053  0.2631
 4171TIP3   OH212518   2.103   0.426   5.186  0.1911  0.4734  0.3679
 4171TIP3    H112519   2.158   0.503   5.174  1.1624 -0.3721 -0.6547
 4171TIP3    H212520   2.035   0.434   5.119  1.2387 -0.3883 -0.8061
 4172TIP3   OH212521   4.276   5.151   0.826 -0.5757 -0.0148 -0.2280
 4172TIP3    H112522   4.240   5.222   0.878  1.5347  0.1978  1.0102
 4172TIP3    H212523   4.290   5.189   0.739 -0.5128  0.7646  0.1257
 4173TIP3   OH212524   2.862   2.094   3.844  0.0667 -0.4836 -0.4545
 4173TIP3    H112525   2.846   2.004   3.871  1.4550 -1.0875 -1.5923
 4173TIP3    H212526   2.869   2.090   3.749  0.0150  0.8456 -0.5265
 4174TIP3   OH212527   2.354   5.080   1.212 -0.0068  0.0180  0.0705
 4174TIP3    H112528   2.388   5.116   1.295  0.9872  1.1652 -0.8085
 4174TIP3    H212529   2.350   4.986   1.227 -0.1561  0.2407  1.5464
 4175TIP3   OH212530   5.163   0.812   0.236  0.0724  0.3734 -0.5661
 4175TIP3    H112531   5.180   0.776   0.323  0.1602 -1.2251 -1.2200
 4175TIP3    H212532   5.169   0.907   0.247  0.5334  0.1652  1.0679
 4176TIP3   OH212533   5.919   5.828   0.942 -0.3668 -0.1632 -0.4166
 4176TIP3    H112534   5.929   5.868   1.028  0.3477  0.6411 -0.8659
 4176TIP3    H212535   5.890   5.739   0.961 -0.3301  0.0403  0.6525
 4177TIP3   OH212536   2.025   0.717   4.878  0.2570 -0.0774 -0.0724
 4177TIP3    H112537   2.101   0.726   4.935  0.4469  0.7589 -0.4522
 4177TIP3    H212538   1.986   0.633   4.903 -1.2242  1.4925  3.1631
 4178TIP3   OH212539   3.948   5.294   0.125  0.2944 -0.5940 -0.0335
 4178TIP3    H112540   3.960   5.229   0.195 -0.3826  0.9761  1.5943
 4178TIP3    H212541   4.035   5.332   0.113  0.3373 -0.6018  0.2352
 4179TIP3   OH212542   1.649   2.811   2.344  0.9411  0.1319 -0.1733
 4179TIP3    H112543   1.635   2.831   2.436 -0.0412 -1.4030  0.0312
 4179TIP3    H212544   1.703   2.883   2.311 -1.2708  2.3344  0.8624
 4180TIP3   OH212545   1.329   5.669   2.750 -0.0088 -0.0101  0.2396
 4180TIP3    H112546   1.239   5.667   2.784  0.0680  2.3618  0.6933
 4180TIP3    H212547   1.377   5.607   2.805 -1.4961 -1.8054 -0.4397
 4181TIP3   OH212548   1.129   1.195   3.256  0.4575 -0.5792  0.4425
 4181TIP3    H112549   1.223   1.195   3.276  0.7497  2.0192 -0.6429
 4181TIP3    H212550   1.108   1.103   3.240  2.5884 -1.3348  1.7104
 4182TIP3   OH212551   5.379   0.310   0.431 -0.1569 -0.1929  0.6621
 4182TIP3    H112552   5.413   0.256   0.359 -0.6988  0.9031 -0.4258
 4182TIP3    H212553   5.443   0.380   0.440 -0.8011  0.4350  0.3400
 4183TIP3   OH212554   2.473   5.289   0.213  0.1121  0.3721 -0.4444
 4183TIP3    H112555   2.558   5.332   0.213 -0.2265  1.0748 -1.9417
 4183TIP3    H212556   2.410   5.359   0.231 -0.3257  0.2985 -1.6127
 4184TIP3   OH212557   4.051   4.498   1.087  0.0655  0.2930 -0.3640
 4184TIP3    H112558   4.052   4.587   1.053  3.1030  1.0913  1.6793
 4184TIP3    H212559   4.120   4.453   1.038 -0.0497 -0.3523  0.0610
 4185TIP3   OH212560   5.815   0.702   0.418  0.3841 -0.2503  0.5418
 4185TIP3    H112561   5.821   0.771   0.484 -0.3886 -0.8596  1.2586
 4185TIP3    H212562   5.902   0.700   0.378  0.6269  0.6506  1.0050
 4186TIP3   OH212563   1.903   1.655   4.597 -0.1370  0.4611 -0.5987
 4186TIP3    H112564   1.889   1.561   4.592 -0.1324  0.4830 -1.0251
 4186TIP3    H212565   1.998   1.665   4.607 -0.0857  0.4403 -1.0655
 4187TIP3   OH212566   2.382   2.648   3.452  0.0759  0.5653  0.0779
 4187TIP3    H112567   2.351   2.569   3.496  0.6632  1.1116  1.5055
 4187TIP3    H212568   2.477   2.648   3.466  0.3294  0.5596 -1.5198
 4188TIP3   OH212569   1.718   3.117   4.402 -0.4254 -0.1215  0.2623
 4188TIP3    H112570   1.641   3.098   4.456 -0.0539  0.1016  0.8736
 4188TIP3    H212571   1.685   3.175   4.333 -1.2766 -1.8026 -0.8002
 4189TIP3   OH212572   3.498   2.126   4.951  0.4436 -0.2139  0.1062
 4189TIP3    H112573   3.585   2.157   4.978  0.6658 -0.6971 -0.0579
 4189TIP3    H212574   3.442   2.204   4.957  1.1180  0.3531 -0.8147
 4190TIP3   OH212575   4.370   0.952   1.224 -0.1428 -1.0140 -0.6306
 4190TIP3    H112576   4.364   0.974   1.317 -0.5586 -0.9796 -0.6659
 4190TIP3    H212577   4.454   0.990   1.196 -0.9430  0.7381 -0.7503
 4191TIP3   OH212578   2.311   5.168   1.671 -0.1879  0.1388  0.3452
 4191TIP3    H112579   2.369   5.179   1.596  1.6078  0.0489  1.6597
 4191TIP3    H212580   2.267   5.253   1.680  2.4779  1.4773  1.4747
 4192TIP3   OH212581   1.302   1.987   4.571 -0.2348 -0.0344 -0.4527
 4192TIP3    H112582   1.227   2.046   4.573 -0.0274  0.2610 -1.2150
 4192TIP3    H212583   1.318   1.964   4.663 -0.3686  1.0279 -0.1608
 4193TIP3   OH212584   3.097   5.547   1.062 -0.0171 -0.2514 -0.4845
 4193TIP3    H112585   3.121   5.640   1.054 -0.9975  0.0568  0.0716
 4193TIP3    H212586   3.161   5.511   1.123  0.4172  0.0432 -0.7616
 4194TIP3   OH212587   0.494   2.811   4.818  0.3941 -0.2604  0.7514
 4194TIP3    H112588   0.445   2.748   4.766  1.6736 -1.1229  0.5800
 4194TIP3    H212589   0.522   2.877   4.756 -0.8796  0.4577  0.9178
 4195TIP3   OH212590   1.907   1.752   5.000  0.3408  0.4028  0.5613
 4195TIP3    H112591   1.970   1.707   5.056 -0.1102  1.1652  1.6952
 4195TIP3    H212592   1.853   1.682   4.963  0.7815 -0.1174  0.9003
 4196TIP3   OH212593   1.946   1.828   4.298  0.5372  0.0455 -0.2518
 4196TIP3    H112594   1.991   1.751   4.263 -1.1469 -1.3111  0.5096
 4196TIP3    H212595   1.976   1.901   4.243 -0.4477 -1.6809 -3.1781
 4197TIP3   OH212596   2.317   5.567   0.185  0.1906  0.1184 -0.1698
 4197TIP3    H112597   2.256   5.640   0.179  1.2930  1.1756  1.2212
 4197TIP3    H212598   2.327   5.552   0.279  1.4914 -0.5391 -0.4067
 4198TIP3   OH212599   1.856   5.326   0.575  0.5107  0.5989  0.6476
 4198TIP3    H112600   1.923   5.309   0.509  0.7612  0.1151  1.0237
 4198TIP3    H212601   1.788   5.260   0.558  0.5758  0.4749  0.8733
 4199TIP3   OH212602   2.933   1.435   4.484  0.3311  0.5261  0.3230
 4199TIP3    H112603   2.949   1.448   4.390  1.5453 -1.5079  0.2143
 4199TIP3    H212604   2.844   1.402   4.489  0.7038 -0.5710 -0.2325
 4200TIP3   OH212605   4.711   3.446   0.267  0.0607  0.2268 -0.0609
 4200TIP3    H112606   4.742   3.419   0.354  0.4408 -2.1365 -0.8878
 4200TIP3    H212607   4.617   3.460   0.279 -0.2100 -1.7416  0.4014
 4201TIP3   OH212608   4.905   5.849   0.053 -0.0648  0.3235 -0.1464
 4201TIP3    H112609   4.974   5.834   0.118 -1.5454 -1.7495  1.0124
 4201TIP3    H212610   4.920   5.782  -0.014 -0.1261  0.7507 -0.5900
 4202TIP3   OH212611   1.347   2.631   4.993  0.0269  0.5347 -0.0769
 4202TIP3    H112612   1.349   2.536   4.992  0.4318  0.5509 -1.7066
 4202TIP3    H212613   1.272   2.653   5.049 -2.0781 -0.7820 -2.3196
 4203TIP3   OH212614   2.144   3.592   4.846  0.1075  0.0571  0.1239
 4203TIP3    H112615   2.190   3.522   4.800 -0.6660 -1.5549  1.7329
 4203TIP3    H212616   2.072   3.616   4.787  0.8605  0.0562 -0.7974
 4204TIP3   OH212617   1.371   1.021   0.874  0.1736 -0.4156  0.0758
 4204TIP3    H112618   1.454   0.998   0.832 -0.9193 -0.8307 -1.9285
 4204TIP3    H212619   1.368   0.968   0.953  1.0421 -1.6778 -0.7281
 4205TIP3   OH212620   1.915   1.417   3.197  0.5259 -0.2180 -0.4699
 4205TIP3    H112621   1.930   1.404   3.290  0.7122  4.0692  0.2255
 4205TIP3    H212622   2.000   1.399   3.156  1.3489  1.0664  0.6225
 4206TIP3   OH212623   2.498   4.794   0.553 -0.4174 -0.0075  0.2968
 4206TIP3    H112624   2.536   4.842   0.626  0.8237 -1.0583  0.3639
 4206TIP3    H212625   2.534   4.836   0.475 -0.5707  0.1744  0.3247
 4207TIP3   OH212626   1.217   2.333   2.735 -0.8583 -0.5496 -0.5865
 4207TIP3    H112627   1.137   2.358   2.781 -0.1582 -1.5480  1.2402
 4207TIP3    H212628   1.213   2.237   2.732 -0.5335 -0.5174 -1.9438
 4208TIP3   OH212629   1.240   5.991   2.231  0.1732 -0.1891 -0.6406
 4208TIP3    H112630   1.182   5.923   2.265  0.5177 -0.8499 -1.3557
 4208TIP3    H212631   1.280   5.952   2.153  1.9083  0.0830  0.0830
 4209TIP3   OH212632   0.165   5.894   1.702 -0.0402 -0.0578  0.4856
 4209TIP3    H112633   0.095   5.916   1.763 -0.7985 -0.7317 -0.1269
 4209TIP3    H212634   0.238   5.868   1.757 -0.9048 -1.2017  1.1001
 4210TIP3   OH212635   0.109   3.756   4.652 -0.1139  0.1613  0.4417
 4210TIP3    H112636   0.200   3.776   4.632  0.4220 -0.3243  2.2826
 4210TIP3    H212637   0.059   3.801   4.584  1.4488  1.1226 -0.1001
 4211TIP3   OH212638   0.317   3.475   5.124  0.1904 -0.2787  0.0453
 4211TIP3    H112639   0.332   3.537   5.052 -0.8370 -0.4734 -0.3426
 4211TIP3    H212640   0.403   3.464   5.164  0.5442  0.7411 -0.4208
 4212TIP3   OH212641   0.994   0.424   4.092  0.7413 -0.0596  0.3124
 4212TIP3    H112642   0.929   0.492   4.071  0.9109 -0.0582 -0.2087
 4212TIP3    H212643   0.942   0.353   4.129  0.2529 -0.6647 -1.4946
 4213TIP3   OH212644   5.326   0.682   0.721  0.0203  0.0688 -0.0183
 4213TIP3    H112645   5.328   0.742   0.796  0.8775  0.4230 -0.3108
 4213TIP3    H212646   5.300   0.597   0.759 -2.6352  0.9241  0.1570
 4214TIP3   OH212647   6.194   1.165   3.316  0.0222  0.4367  0.6255
 4214TIP3    H112648   6.147   1.129   3.240  1.5625  0.3851 -0.3325
 4214TIP3    H212649   6.161   1.255   3.323  0.1786  0.5878 -0.3957
 4215TIP3   OH212650   5.169   5.045   1.791  0.0168 -0.3703  0.0602
 4215TIP3    H112651   5.178   5.120   1.731  0.9825  0.4290  1.1912
 4215TIP3    H212652   5.106   5.074   1.857  0.3012 -0.6067  0.4360
 4216TIP3   OH212653   2.982   5.270   1.447  0.0442  0.3052 -0.2944
 4216TIP3    H112654   2.963   5.194   1.503  0.2783  1.4145  1.3407
 4216TIP3    H212655   3.056   5.242   1.393  0.2971 -0.5599  0.4839
 4217TIP3   OH212656   0.505   3.786   3.781 -0.6027 -0.0712  0.0696
 4217TIP3    H112657   0.496   3.813   3.690 -2.1781  0.3934  0.3300
 4217TIP3    H212658   0.598   3.773   3.794 -0.2049  1.3857 -1.1838
 4218TIP3   OH212659   1.124   0.248   1.768  0.3640  0.1247 -0.5404
 4218TIP3    H112660   1.097   0.234   1.677  2.4275  1.2946 -1.3659
 4218TIP3    H212661   1.064   0.313   1.802 -1.1641 -1.1869 -0.6787
 4219TIP3   OH212662   1.001   2.912   4.160 -0.0633  0.5343 -0.2836
 4219TIP3    H112663   1.007   2.848   4.230 -0.3987  1.1777  0.3422
 4219TIP3    H212664   0.910   2.944   4.164  0.5163  2.1803  0.4451
 4220TIP3   OH212665   5.049   5.265   2.343 -0.4902 -0.1124  0.0007
 4220TIP3    H112666   5.124   5.267   2.402 -0.3939  1.6727 -0.1537
 4220TIP3    H212667   4.997   5.190   2.372  0.3234 -0.1542  1.3817
 4221TIP3   OH212668   0.613   1.437   5.254  0.2562  0.1090 -0.2696
 4221TIP3    H112669   0.550   1.416   5.185  0.9863  0.6639 -1.1163
 4221TIP3    H212670   0.619   1.533   5.252  0.7059  0.0916  0.1878
 4222TIP3   OH212671   6.152   2.373   2.138  0.1352  0.0290 -0.1279
 4222TIP3    H112672   6.243   2.365   2.110 -0.3180 -0.4667 -1.4905
 4222TIP3    H212673   6.103   2.319   2.076 -1.0356 -0.1084  0.8966
 4223TIP3   OH212674   2.574   3.017   4.697  0.2142 -0.5802 -0.3972
 4223TIP3    H112675   2.563   2.943   4.757 -1.5503 -0.0619 -0.0569
 4223TIP3    H212676   2.609   2.977   4.617 -1.6309 -1.9511 -0.5591
 4224TIP3   OH212677   5.660   0.071   1.271 -0.1525  0.0722 -0.2837
 4224TIP3    H112678   5.633   0.065   1.179 -0.7625  1.0352 -0.1837
 4224TIP3    H212679   5.678   0.164   1.284 -3.3062  0.5295  1.4376
 4225TIP3   OH212680   2.585   3.980   2.227  0.4456 -0.1683 -0.1404
 4225TIP3    H112681   2.628   3.964   2.143 -0.8793  0.1411 -0.9002
 4225TIP3    H212682   2.656   4.002   2.287  1.5629 -1.9287 -0.7972
 4226TIP3   OH212683   1.549   4.957   1.610  0.3241 -0.5199  0.0290
 4226TIP3    H112684   1.633   5.003   1.615 -0.7814  1.6706 -0.6342
 4226TIP3    H212685   1.568   4.879   1.559  1.8493  0.2526 -0.6302
 4227TIP3   OH212686   5.383   3.619   0.460 -0.1219  0.7481 -0.2435
 4227TIP3    H112687   5.299   3.574   0.468  0.2532  0.3727  1.9267
 4227TIP3    H212688   5.362   3.711   0.471 -0.5720  0.9058 -2.2702
 4228TIP3   OH212689   5.756   5.578   2.269 -0.0932 -0.3052 -0.0904
 4228TIP3    H112690   5.808   5.498   2.264  0.2174 -0.1883  1.1345
 4228TIP3    H212691   5.689   5.567   2.202  1.3093 -0.6019 -1.4661
 4229TIP3   OH212692   0.619   0.394   1.396 -0.5345  0.0720  0.4413
 4229TIP3    H112693   0.713   0.410   1.409 -0.0981 -1.8770 -0.0399
 4229TIP3    H212694   0.615   0.301   1.374 -2.6307  0.0705  0.8059
 4230TIP3   OH212695   2.697   4.924   1.325  0.2259  0.4617  0.1794
 4230TIP3    H112696   2.614   4.955   1.361  0.1245  1.6530 -1.0383
 4230TIP3    H212697   2.679   4.834   1.296 -0.4154  0.4487  0.6174
 4231TIP3   OH212698   0.467   1.882   0.414 -0.5785  0.5294  0.0818
 4231TIP3    H112699   0.422   1.798   0.420  1.8307 -0.8287 -0.3636
 4231TIP3    H212700   0.486   1.893   0.321  0.3843  0.8778  0.3141
 4232TIP3   OH212701   2.959   3.579   4.433 -0.2635 -0.1086  0.0343
 4232TIP3    H112702   2.992   3.489   4.424  1.2165  0.5166 -0.9163
 4232TIP3    H212703   2.935   3.586   4.525  2.6041 -0.4865  0.8586
 4233TIP3   OH212704   0.467   4.559   1.199  0.5129  0.4626  0.2198
 4233TIP3    H112705   0.453   4.520   1.285  1.5189 -0.1448  0.1173
 4233TIP3    H212706   0.394   4.526   1.146  0.3769  0.1410  0.6079
 4234TIP3   OH212707   2.429   2.060   4.022 -0.5720  0.0429  0.0718
 4234TIP3    H112708   2.342   2.022   4.007 -1.0142  1.3819 -0.9150
 4234TIP3    H212709   2.474   1.997   4.078 -1.8661 -1.1039 -0.1508
 4235TIP3   OH212710   2.372   2.371   3.984 -0.0302  0.4244  0.3437
 4235TIP3    H112711   2.351   2.456   3.946  0.4800  0.4605  0.1306
 4235TIP3    H212712   2.317   2.365   4.062 -1.4840  0.1312 -0.6710
 4236TIP3   OH212713   4.054   0.858   1.300 -0.2969 -0.4610 -0.1984
 4236TIP3    H112714   3.990   0.929   1.292 -0.8299 -0.8297  0.6903
 4236TIP3    H212715   4.115   0.872   1.227  0.1401  1.4419  0.5095
 4237TIP3   OH212716   1.776   1.838   5.230  0.3777 -0.3758 -0.5238
 4237TIP3    H112717   1.749   1.900   5.163 -0.0151 -0.5642 -0.5425
 4237TIP3    H212718   1.806   1.761   5.181 -1.2813 -1.0799 -0.4681
 4238TIP3   OH212719   2.870   1.232   4.026 -0.2000  0.0687  0.0634
 4238TIP3    H112720   2.961   1.256   4.046 -1.1069  1.0584  3.3713
 4238TIP3    H212721   2.820   1.312   4.044 -2.4485 -2.1433  4.6432
 4239TIP3   OH212722   2.131   2.582   5.026  0.1137  0.1596  0.5831
 4239TIP3    H112723   2.129   2.576   5.122 -0.5464 -0.7079  0.5197
 4239TIP3    H212724   2.112   2.674   5.008 -0.7358  0.1229  1.2535
 4240TIP3   OH212725   5.954   1.180   0.665 -0.1735  0.4243 -0.1502
 4240TIP3    H112726   6.039   1.136   0.665  0.6874  2.0467  0.5266
 4240TIP3    H212727   5.902   1.132   0.728  0.9863  0.7956  1.1043
 4241TIP3   OH212728   6.423   4.170   0.139 -0.2148  0.2494 -0.1518
 4241TIP3    H112729   6.459   4.223   0.211 -0.0145 -0.4510  0.2721
 4241TIP3    H212730   6.329   4.184   0.145 -0.2147  0.0635  0.3635
 4242TIP3   OH212731   2.973   1.881   4.231  0.9449  0.0330  0.1984
 4242TIP3    H112732   3.053   1.896   4.281  0.3438  1.1176  0.8450
 4242TIP3    H212733   2.938   1.968   4.214  1.0991 -0.3299 -2.0660
 4243TIP3   OH212734   3.982   3.116   3.846 -0.2637  0.4055 -0.7002
 4243TIP3    H112735   3.985   3.112   3.941  0.8759 -0.0820 -0.7493
 4243TIP3    H212736   3.943   3.033   3.819 -0.7905  0.6344 -0.6603
 4244TIP3   OH212737   1.612   4.340   1.472  0.0268 -0.1496  0.1784
 4244TIP3    H112738   1.523   4.306   1.459  0.0258 -0.5185  1.1050
 4244TIP3    H212739   1.600   4.430   1.501  0.0200  0.5579 -1.9171
 4245TIP3   OH212740   4.978   5.990   1.223 -0.3532  0.3052 -0.0478
 4245TIP3    H112741   4.922   5.967   1.149  0.0690 -1.3308  0.0994
 4245TIP3    H212742   5.018   5.906   1.249  3.0363  1.5958 -0.8714
 4246TIP3   OH212743   5.945   0.175   3.756  0.3945  0.9463  0.3492
 4246TIP3    H112744   5.984   0.121   3.688 -0.1602  0.2376  0.5828
 4246TIP3    H212745   5.965   0.129   3.838 -1.5937  0.1049  0.4176
 4247TIP3   OH212746   2.132   1.100   5.213  0.6154 -0.4661 -0.0515
 4247TIP3    H112747   2.123   1.038   5.141  0.4306 -0.1532 -0.3000
 4247TIP3    H212748   2.085   1.178   5.184 -0.4820 -0.7569  0.8855
 4248TIP3   OH212749   6.326   1.437   4.292 -0.1528  0.4373 -0.0379
 4248TIP3    H112750   6.358   1.349   4.271  0.3076  0.4240  0.7079
 4248TIP3    H212751   6.308   1.477   4.207  0.4103 -0.0906 -0.4083
 4249TIP3   OH212752   2.567   0.641   4.282  0.1488 -0.0420  0.3329
 4249TIP3    H112753   2.529   0.722   4.248  2.6613 -0.1670 -3.0395
 4249TIP3    H212754   2.528   0.572   4.230 -0.1108 -0.8116  1.5226
 4250TIP3   OH212755   3.292   2.349   5.176 -0.4361 -0.6461  0.5490
 4250TIP3    H112756   3.212   2.398   5.196 -0.0764 -0.4192  1.4594
 4250TIP3    H212757   3.309   2.367   5.084 -0.7572  0.3014  0.6707
 4251TIP3   OH212758   4.235   5.632   0.327 -1.0671  0.2453 -0.1008
 4251TIP3    H112759   4.198   5.675   0.404 -0.4137  2.8784 -1.2142
 4251TIP3    H212760   4.161   5.623   0.267 -1.2002 -0.1868  0.1251
 4252TIP3   OH212761   2.308   3.988   1.614  0.4839  0.1223 -0.1114
 4252TIP3    H112762   2.329   4.033   1.696  1.3140 -0.3872 -0.0403
 4252TIP3    H212763   2.348   3.901   1.623 -0.7983 -0.5134 -0.3944
 4253TIP3   OH212764   6.158   1.418   0.407  0.3715 -0.1124  0.0417
 4253TIP3    H112765   6.091   1.350   0.410  2.5799 -2.3391  0.5246
 4253TIP3    H212766   6.237   1.373   0.379  1.5304  2.6128 -1.2799
 4254TIP3   OH212767   4.360   5.318   0.370  0.6922  0.0903 -0.1429
 4254TIP3    H112768   4.372   5.409   0.345  0.6646 -0.0901 -0.8164
 4254TIP3    H212769   4.449   5.285   0.384  0.9432 -0.7181 -3.2715
 4255TIP3   OH212770   0.747   1.277   2.692 -0.3342 -0.0921 -0.5173
 4255TIP3    H112771   0.739   1.259   2.786 -0.7224  0.1641 -0.4999
 4255TIP3    H212772   0.813   1.215   2.661  0.9065  0.8178  0.2255
 4256TIP3   OH212773   1.046   0.296   3.837 -0.1361 -0.4901  0.5853
 4256TIP3    H112774   1.001   0.239   3.774  0.6562 -0.4392 -0.0375
 4256TIP3    H212775   0.975   0.336   3.888 -0.8775  0.6097 -1.2603
 4257TIP3   OH212776   0.578   2.018   0.674  0.0041 -0.5815  0.0659
 4257TIP3    H112777   0.594   2.053   0.586 -0.1176 -0.9093 -0.0862
 4257TIP3    H212778   0.549   1.928   0.659 -1.1903 -0.2606  0.3730
 4258TIP3   OH212779  -0.011   0.969   0.493  0.1230 -0.4259 -0.6888
 4258TIP3    H112780   0.056   0.946   0.428 -0.3507 -2.3520 -0.5261
 4258TIP3    H212781   0.009   1.060   0.518  2.7819 -1.0417 -0.5050
 4259TIP3   OH212782   0.995   2.358   4.426 -0.1407 -0.3559 -0.0902
 4259TIP3    H112783   0.946   2.352   4.345  2.0185 -0.4064 -1.4298
 4259TIP3    H212784   1.022   2.450   4.431 -2.0312  0.1342  1.6534
 4260TIP3   OH212785   1.161   5.457   5.067  0.2023 -0.0679  0.6485
 4260TIP3    H112786   1.140   5.546   5.093 -1.0409  0.0987 -0.8250
 4260TIP3    H212787   1.093   5.434   5.003  1.8760 -1.2035 -0.7845
 4261TIP3   OH212788   4.306   5.887   1.589  0.4075 -0.1124  0.4148
 4261TIP3    H112789   4.264   5.966   1.625 -0.7970  0.1088 -1.4094
 4261TIP3    H212790   4.365   5.921   1.522 -0.2775 -0.7665 -0.5257
 4262TIP3   OH212791   2.844   2.105   4.365 -0.0244 -0.0556 -0.0631
 4262TIP3    H112792   2.811   2.191   4.338 -1.9553 -2.0630 -4.4964
 4262TIP3    H212793   2.804   2.091   4.451 -0.7078  2.8985  0.1807
 4263TIP3   OH212794   0.106   5.103   5.240  0.4914 -0.7208  0.5248
 4263TIP3    H112795   0.189   5.070   5.207  1.4356  2.7043 -0.7283
 4263TIP3    H212796   0.125   5.134   5.328  0.5105 -0.0067  0.2680
 4264TIP3   OH212797   1.972   3.037   5.206  0.5848 -0.5746 -0.3521
 4264TIP3    H112798   1.927   2.956   5.229 -0.7477  0.2606  0.0476
 4264TIP3    H212799   2.044   3.044   5.270  2.0386 -2.4985 -1.7094
 4265TIP3   OH212800   0.541   5.828   4.444  0.0429 -0.2295 -0.4274
 4265TIP3    H112801   0.473   5.836   4.511  0.1005 -1.2115 -0.2395
 4265TIP3    H212802   0.493   5.824   4.362 -0.0591  0.3386 -0.4003
 4266TIP3   OH212803   0.138   1.236   1.105 -0.3422  0.1595  0.3197
 4266TIP3    H112804   0.123   1.283   1.023  1.1440  0.6703  0.3271
 4266TIP3    H212805   0.152   1.145   1.078  0.3279  0.3576 -0.0279
 4267TIP3   OH212806   2.597   3.628   4.444 -0.4166 -0.0762 -0.1492
 4267TIP3    H112807   2.543   3.574   4.386  1.2819  1.3583 -3.1631
 4267TIP3    H212808   2.687   3.603   4.423  0.2982  2.1297  0.1722
 4268TIP3   OH212809   1.698   3.216   5.147 -0.2021 -0.5770  0.2279
 4268TIP3    H112810   1.789   3.216   5.178 -0.3005  0.5964  0.5512
 4268TIP3    H212811   1.649   3.257   5.218 -0.7586  0.1280 -0.5610
 4269TIP3   OH212812   3.602   4.121   1.795  0.1981 -0.5003  0.0431
 4269TIP3    H112813   3.572   4.211   1.811  1.3553  0.4545 -2.7249
 4269TIP3    H212814   3.527   4.066   1.816 -1.6063  1.3966 -1.2170
 4270TIP3   OH212815   2.725   4.348   0.324  0.1478  0.0627  0.2669
 4270TIP3    H112816   2.811   4.360   0.285 -1.3585  1.1914 -2.8450
 4270TIP3    H212817   2.704   4.256   0.306 -0.1344  0.3273 -0.8241
 4271TIP3   OH212818   1.680   1.693   4.409 -0.8138 -0.5429  0.0276
 4271TIP3    H112819   1.754   1.712   4.466 -1.2099  0.2584  0.2797
 4271TIP3    H212820   1.715   1.701   4.320 -0.5939 -0.1992  0.1471
 4272TIP3   OH212821   2.918   0.279   4.345  0.0083 -1.0640 -0.2499
 4272TIP3    H112822   2.855   0.216   4.379  1.3082 -1.2589  1.8179
 4272TIP3    H212823   3.002   0.252   4.381  0.7862  1.0881 -0.3767
 4273TIP3   OH212824   1.175   0.027   1.254 -0.4492  0.1485  0.2054
 4273TIP3    H112825   1.116   0.005   1.182  0.0200  1.6974 -0.6649
 4273TIP3    H212826   1.124   0.084   1.311  0.1560  1.4156 -0.5009
 4274TIP3   OH212827   1.137   1.059   4.229  0.1595  0.0694  0.2529
 4274TIP3    H112828   1.156   1.143   4.270 -0.1629  0.4643 -0.3860
 4274TIP3    H212829   1.041   1.056   4.224  0.2071  0.2862 -0.9756
 4275TIP3   OH212830   3.830   6.130   3.517  0.0141  0.1331  0.2141
 4275TIP3    H112831   3.875   6.046   3.516  0.8310  0.5742 -0.4304
 4275TIP3    H212832   3.737   6.108   3.511  0.2865 -0.6754 -1.1960
 4276TIP3   OH212833   1.748   0.209   4.837 -0.3822 -0.1706  0.3283
 4276TIP3    H112834   1.716   0.140   4.894  0.3258  0.5266  1.6160
 4276TIP3    H212835   1.687   0.211   4.763 -1.5788 -0.8018  1.2842
 4277TIP3   OH212836   2.313   1.421   3.798 -0.1107  0.4081  0.5415
 4277TIP3    H112837   2.357   1.459   3.874 -1.3418 -0.1858  1.5731
 4277TIP3    H212838   2.354   1.336   3.786 -0.4464  0.1763  1.0270
 4278TIP3   OH212839   2.747   3.341   4.400 -0.0447 -0.0799 -0.3051
 4278TIP3    H112840   2.719   3.376   4.316  0.0942  0.4622 -0.1322
 4278TIP3    H212841   2.692   3.264   4.414  0.9977 -1.0751 -1.6016
 4279TIP3   OH212842   2.569   2.274   4.356  0.4186  0.4100  0.0442
 4279TIP3    H112843   2.504   2.205   4.346  0.5016  0.4651 -0.8860
 4279TIP3    H212844   2.536   2.327   4.429 -1.2381  1.1676 -1.2294
 4280TIP3   OH212845   5.773   1.948   4.793  0.0285  0.4473 -0.1255
 4280TIP3    H112846   5.803   1.903   4.715  1.1162 -1.2848  1.2426
 4280TIP3    H212847   5.686   1.912   4.810  0.8231 -1.0677  0.8636
 4281TIP3   OH212848   5.351   0.935   0.894 -0.0525  0.0601 -0.0045
 4281TIP3    H112849   5.278   0.997   0.886  0.2740  0.2829 -1.3476
 4281TIP3    H212850   5.427   0.989   0.913 -0.2050 -0.1648  1.3049
 4282TIP3   OH212851   3.246   3.161   3.980  0.1809 -0.4297  0.2063
 4282TIP3    H112852   3.313   3.141   4.046  0.3108  0.3432  0.3095
 4282TIP3    H212853   3.204   3.077   3.963  0.6856 -0.7847  0.6848
 4283TIP3   OH212854   6.502   4.305   2.830 -0.3821  0.0797  0.2937
 4283TIP3    H112855   6.448   4.339   2.901 -2.1472 -0.6979 -0.6542
 4283TIP3    H212856   6.444   4.246   2.781  1.2291 -0.5396 -0.9231
 4284TIP3   OH212857   4.572   4.738   1.707 -0.0202 -0.3847  0.3306
 4284TIP3    H112858   4.481   4.759   1.727 -0.5269 -0.4016 -1.7993
 4284TIP3    H212859   4.610   4.822   1.679 -0.3469 -1.0259 -2.1411
 4285TIP3   OH212860   4.171   1.759   3.363  0.1299 -0.2427 -0.4549
 4285TIP3    H112861   4.192   1.813   3.286  0.5184 -0.1961 -0.3192
 4285TIP3    H212862   4.083   1.786   3.388  0.6322  0.9086  0.1009
 4286TIP3   OH212863   3.307   3.116   3.116  0.0460  0.1408  0.0877
 4286TIP3    H112864   3.302   3.211   3.131  0.0527  0.0074  0.9492
 4286TIP3    H212865   3.396   3.101   3.086 -0.6094  0.7065 -2.2229
 4287TIP3   OH212866   4.656   1.875   4.904  0.2983 -0.0854 -0.2285
 4287TIP3    H112867   4.600   1.878   4.981 -0.4693  0.0343 -0.7853
 4287TIP3    H212868   4.712   1.799   4.918  0.6685  0.3637  0.7867
 4288TIP3   OH212869   4.382   0.396   0.220 -0.1638  0.2854 -0.5006
 4288TIP3    H112870   4.464   0.376   0.264 -0.3761  0.6361  0.0653
 4288TIP3    H212871   4.389   0.353   0.134 -0.5548 -2.0416  0.6152
 4289TIP3   OH212872   5.476   6.054   1.540 -0.1100  0.1099 -0.2655
 4289TIP3    H112873   5.449   6.022   1.626 -0.0872  1.6210  0.3211
 4289TIP3    H212874   5.463   6.148   1.544  2.7473  0.5845 -0.8739
 4290TIP3   OH212875   2.997   3.266   3.779 -0.7239  0.4691 -0.1065
 4290TIP3    H112876   2.932   3.237   3.843 -0.2362  0.8041  0.5412
 4290TIP3    H212877   3.027   3.185   3.738  0.7407  0.0300  1.8039
 4291TIP3   OH212878   1.347   2.366   4.545 -0.2376 -0.7671  0.4211
 4291TIP3    H112879   1.390   2.342   4.627  1.2022 -2.1454 -0.7128
 4291TIP3    H212880   1.268   2.310   4.542  0.8550 -2.3220 -0.1467
 4292TIP3   OH212881   2.852   3.030   5.013  0.0570  0.5093 -0.3401
 4292TIP3    H112882   2.764   3.034   5.051 -0.8093  1.0692 -2.3172
 4292TIP3    H212883   2.911   3.034   5.088 -1.5958  1.2397  0.9554
 4293TIP3   OH212884   1.868   3.915   2.371 -0.2298 -0.0159 -0.1053
 4293TIP3    H112885   1.868   3.849   2.441 -0.2823  0.3335  0.2266
 4293TIP3    H212886   1.900   3.868   2.294  0.5040 -0.2357  0.3187
 4294TIP3   OH212887   5.875   4.190   0.048  0.0031  0.4266 -0.1647
 4294TIP3    H112888   5.854   4.145  -0.034  0.1193  0.8882 -0.4530
 4294TIP3    H212889   5.855   4.282   0.030 -2.1394  0.2226  1.0707
 4295TIP3   OH212890   3.746   2.651   4.202 -0.0655 -0.3612  0.0656
 4295TIP3    H112891   3.834   2.612   4.201 -0.2831 -0.8550 -0.4422
 4295TIP3    H212892   3.728   2.669   4.110 -0.2044  0.4162  0.2435
 4296TIP3   OH212893   4.560   0.618   4.593  0.1950  0.3899  0.4249
 4296TIP3    H112894   4.507   0.560   4.539  2.6137 -0.4379 -1.1151
 4296TIP3    H212895   4.496   0.672   4.640 -1.9993 -0.7905 -1.1305
 4297TIP3   OH212896   4.868   2.743   4.150  0.4655 -0.3448  0.4513
 4297TIP3    H112897   4.817   2.824   4.157  0.0606 -0.4593 -0.9499
 4297TIP3    H212898   4.959   2.771   4.154  0.3432  0.3122 -1.0475
 4298TIP3   OH212899   2.621   3.561   3.764 -0.4334  0.2843  0.1778
 4298TIP3    H112900   2.526   3.557   3.772 -0.5329 -0.9669 -1.3312
 4298TIP3    H212901   2.654   3.544   3.852 -1.5874 -0.1279  0.5312
 4299TIP3   OH212902   2.400   3.215   3.752 -0.1260 -0.3134 -0.3504
 4299TIP3    H112903   2.466   3.159   3.793 -1.6802 -3.2394 -1.7875
 4299TIP3    H212904   2.442   3.247   3.672  0.4672 -0.0076  0.0729
 4300TIP3   OH212905   3.569   1.174   3.642 -0.5416  0.5258 -0.0615
 4300TIP3    H112906   3.579   1.119   3.720 -0.3505  0.6485  0.0018
 4300TIP3    H212907   3.641   1.236   3.648  0.5654 -0.6006 -1.2819
 4301TIP3   OH212908   3.712   0.997   3.186 -0.2291  0.1172 -0.3254
 4301TIP3    H112909   3.719   0.902   3.191 -1.4163  0.0174 -0.4427
 4301TIP3    H212910   3.677   1.024   3.271  0.3604  0.4732 -0.1946
 4302TIP3   OH212911   2.438   2.684   4.660  0.1943  0.2260 -0.1604
 4302TIP3    H112912   2.492   2.733   4.721  0.7265  0.7763 -1.0643
 4302TIP3    H212913   2.396   2.617   4.713 -1.1453  2.1344  1.2338
 4303TIP3   OH212914   2.880   2.785   4.911  0.1345 -0.2317 -0.0909
 4303TIP3    H112915   2.883   2.868   4.958 -0.6564 -0.4643  0.4016
 4303TIP3    H212916   2.970   2.769   4.883  0.5520  0.1122  1.0122
 4304TIP3   OH212917   5.035   2.294   2.040  0.3372  0.6181 -0.5584
 4304TIP3    H112918   5.035   2.360   1.971 -1.3307  2.8334  1.4825
 4304TIP3    H212919   5.097   2.327   2.105  0.2585 -0.3351  0.0090
 4305TIP3   OH212920   3.017   3.568   3.802 -0.1300 -0.5413 -0.2135
 4305TIP3    H112921   2.988   3.486   3.763  1.0971 -0.4915 -1.2866
 4305TIP3    H212922   2.941   3.625   3.798 -0.8868 -1.5015  0.2167
 4306TIP3   OH212923   2.169   2.772   3.281 -0.0297 -0.4893 -0.2050
 4306TIP3    H112924   2.226   2.736   3.348  0.6130 -0.1351 -0.5578
 4306TIP3    H212925   2.228   2.801   3.211 -0.6557 -0.4359 -0.7241
 4307TIP3   OH212926   1.913   2.053   3.839 -0.1016 -0.0679 -0.2489
 4307TIP3    H112927   1.830   2.090   3.868  0.4146  0.0365  1.1071
 4307TIP3    H212928   1.937   2.106   3.763  0.2043  1.8613  1.1635
 4308TIP3   OH212929   4.324   2.355   3.568 -0.5832  0.0223 -0.2401
 4308TIP3    H112930   4.240   2.364   3.524 -1.4935 -3.1102  0.7424
 4308TIP3    H212931   4.338   2.261   3.576  2.6627  0.4692  0.3266
 4309TIP3   OH212932   6.481   6.017   0.266  0.2339  0.0567 -0.8393
 4309TIP3    H112933   6.532   6.007   0.186  0.5339 -0.4698 -0.5852
 4309TIP3    H212934   6.402   5.966   0.250  1.5437 -2.4151  0.2674
 4310TIP3   OH212935   6.361   0.542   1.404  0.1321  0.2786  0.3658
 4310TIP3    H112936   6.379   0.636   1.411  0.4507  0.3802 -1.5535
 4310TIP3    H212937   6.417   0.512   1.332 -1.8522 -0.8571 -0.7501
 4311TIP3   OH212938   2.377   3.174   4.803 -0.0991 -0.2229 -0.1683
 4311TIP3    H112939   2.464   3.135   4.790 -0.1647 -0.5174  0.2669
 4311TIP3    H212940   2.316   3.104   4.779 -0.2252 -0.8282  1.7921
 4312TIP3   OH212941   4.890   2.090   4.044 -0.0849  0.0513  0.4025
 4312TIP3    H112942   4.953   2.069   4.113  0.0017 -0.6096  0.1265
 4312TIP3    H212943   4.944   2.107   3.967 -0.0658  2.8419  0.9860
 4313TIP3   OH212944   6.129   2.015   2.690 -0.2298 -0.0448  0.1504
 4313TIP3    H112945   6.181   2.090   2.719 -0.3775 -0.0217  0.3577
 4313TIP3    H212946   6.042   2.031   2.726 -0.3818 -0.0830 -0.1978
 4314TIP3   OH212947   2.404   3.864   4.486  0.0411 -0.2728 -0.0558
 4314TIP3    H112948   2.340   3.794   4.475 -0.8712  0.8678 -2.3371
 4314TIP3    H212949   2.489   3.821   4.476 -0.3375 -1.7810  2.9189
 4315TIP3   OH212950   3.428   1.606   3.555 -0.1507  0.3077  1.4472
 4315TIP3    H112951   3.501   1.600   3.493 -1.3410 -0.6040  0.1067
 4315TIP3    H212952   3.453   1.678   3.614  1.1637  0.9587  0.1399
 4316TIP3   OH212953   5.737   4.668   0.166 -0.2866 -0.3704  0.0527
 4316TIP3    H112954   5.718   4.650   0.258  0.5196  0.4341  0.3805
 4316TIP3    H212955   5.660   4.716   0.135  0.7821  2.1261  1.1482
 4317TIP3   OH212956   3.724   3.429   4.447 -0.8185  0.7588 -0.0661
 4317TIP3    H112957   3.648   3.371   4.449 -0.6232  0.5400  0.9282
 4317TIP3    H212958   3.722   3.467   4.359 -0.5235 -1.2957 -0.9972
 4318TIP3   OH212959   4.774   3.728   3.440  0.0445 -0.5820 -0.2153
 4318TIP3    H112960   4.702   3.790   3.429  1.4148  1.3095  1.1535
 4318TIP3    H212961   4.749   3.676   3.516  0.0339 -0.0237  0.1679
 4319TIP3   OH212962   1.411   3.403   3.756  0.3134 -0.1987 -0.2619
 4319TIP3    H112963   1.494   3.443   3.728 -0.4670  2.2985  0.8517
 4319TIP3    H212964   1.438   3.336   3.819  1.4881  1.0428  0.6043
 4320TIP3   OH212965   6.237   0.378   0.580 -0.3499  0.0046 -0.1873
 4320TIP3    H112966   6.228   0.293   0.537  0.8162 -1.5553  2.5362
 4320TIP3    H212967   6.310   0.420   0.535 -0.9062 -0.4364 -1.5196
 4321TIP3   OH212968   1.694   1.423   4.525 -0.9354 -0.0419 -0.3544
 4321TIP3    H112969   1.749   1.354   4.488 -0.8274 -0.1984  0.0960
 4321TIP3    H212970   1.686   1.487   4.455 -0.5842 -0.2529 -0.5905
 4322TIP3   OH212971   3.433   2.173   3.339 -0.1330  0.3751 -0.1393
 4322TIP3    H112972   3.345   2.209   3.339 -0.3668 -0.1841  0.6275
 4322TIP3    H212973   3.489   2.245   3.311 -0.7463  0.9554  0.1342
 4323TIP3   OH212974   2.936   1.750   3.266  0.0268 -0.0957  0.0307
 4323TIP3    H112975   2.867   1.767   3.202 -0.8491 -2.5425  0.2696
 4323TIP3    H212976   2.991   1.828   3.263  0.4242 -0.4247 -4.2162
 4324TIP3   OH212977   2.716   2.982   2.574 -0.1630  0.0048 -0.0714
 4324TIP3    H112978   2.684   3.021   2.655 -1.8901  0.3546 -0.9074
 4324TIP3    H212979   2.735   2.891   2.596 -1.9053 -0.2535  0.4002
 4325TIP3   OH212980   0.798   1.326   3.926  0.2739  0.2400  0.2364
 4325TIP3    H112981   0.893   1.316   3.913  0.0394  0.0776 -1.3765
 4325TIP3    H212982   0.763   1.339   3.839 -1.2243  0.1969  0.8229
 4326TIP3   OH212983   4.065   3.226   4.400  0.3469 -0.3421  0.1744
 4326TIP3    H112984   4.143   3.184   4.362  1.3451  1.4873  0.1683
 4326TIP3    H212985   4.092   3.253   4.487  0.6827  2.9489 -0.8951
 4327TIP3   OH212986   2.885   3.398   4.641  0.1066 -0.0862  0.6133
 4327TIP3    H112987   2.856   3.333   4.705 -0.5726 -1.0409 -0.6475
 4327TIP3    H212988   2.841   3.374   4.560 -1.2716  2.7754  0.4265
 4328TIP3   OH212989   3.941   1.782   3.169 -0.4426 -0.0372  1.1482
 4328TIP3    H112990   3.959   1.689   3.182 -0.1071  0.0372  1.2188
 4328TIP3    H212991   3.870   1.784   3.106  1.8415 -0.2794 -1.5383
 4329TIP3   OH212992   3.134   2.720   4.814  0.2473  0.4647  0.3715
 4329TIP3    H112993   3.130   2.734   4.719 -2.0588 -0.6769  0.2548
 4329TIP3    H212994   3.124   2.625   4.824 -0.7408  0.7023  1.7993
 4330TIP3   OH212995   0.496   1.141   1.030  0.8181  0.4809  0.6373
 4330TIP3    H112996   0.476   1.099   1.114 -2.0326  0.9393  0.2411
 4330TIP3    H212997   0.538   1.072   0.978 -0.2874 -0.7550  1.3475
 4331TIP3   OH212998   1.966   3.284   1.951  0.1165  0.4874  0.6868
 4331TIP3    H112999   2.032   3.222   1.979  0.4294  0.6722  0.3631
 4331TIP3    H213000   1.956   3.269   1.857 -1.2396 -0.4273  0.9626
 4332TIP3   OH213001   0.439   1.051   0.245 -0.2036 -0.5790 -0.4344
 4332TIP3    H113002   0.401   1.116   0.303  1.3702  0.1689 -0.2190
 4332TIP3    H213003   0.519   1.023   0.289  1.4187  0.5479 -2.5535
 4333TIP3   OH213004   2.220   2.909   4.112 -0.0648  0.1113  0.3101
 4333TIP3    H113005   2.129   2.881   4.121 -0.2761  0.5438 -0.4331
 4333TIP3    H213006   2.219   2.968   4.037  0.7269  0.5662  0.6536
 4334TIP3   OH213007   0.341   2.962   3.600  0.4033  0.5259 -0.1056
 4334TIP3    H113008   0.380   3.045   3.571 -0.7875  1.3273  0.5643
 4334TIP3    H213009   0.253   2.963   3.563  1.0209 -1.3631 -1.7725
 4335TIP3   OH213010   4.432   4.631   3.105 -0.3331  0.0853 -0.2114
 4335TIP3    H113011   4.403   4.552   3.060  2.0710 -1.2403  0.5077
 4335TIP3    H213012   4.398   4.622   3.194 -0.2228 -0.0416 -0.1821
 4336TIP3   OH213013   3.191   3.822   5.053  0.2398  0.1038  0.0597
 4336TIP3    H113014   3.102   3.806   5.020 -0.7439  2.7064  1.2843
 4336TIP3    H213015   3.248   3.771   4.995 -1.9205 -0.3442 -1.7442
 4337TIP3   OH213016   1.142   1.267   0.623 -0.1514 -0.1944 -0.6218
 4337TIP3    H113017   1.196   1.238   0.550 -2.7574  1.4982 -3.3431
 4337TIP3    H213018   1.076   1.198   0.633  0.8408 -0.9412  0.8756
 4338TIP3   OH213019   0.549   0.581   2.332  0.2194 -0.6064  0.2598
 4338TIP3    H113020   0.600   0.499   2.334 -0.1853 -0.9240 -1.7335
 4338TIP3    H213021   0.537   0.600   2.239 -1.3173  0.7189  0.7046
 4339TIP3   OH213022   3.699   4.858   0.057 -0.6402  0.7655  0.2329
 4339TIP3    H113023   3.768   4.832  -0.003  0.5307  1.6178  1.1891
 4339TIP3    H213024   3.677   4.947   0.033  0.5354  1.4699  1.6780
 4340TIP3   OH213025   4.767   1.802   2.952 -0.2587  0.3238  0.4554
 4340TIP3    H113026   4.785   1.750   3.030 -1.7278  1.2002  1.4008
 4340TIP3    H213027   4.723   1.741   2.893  0.9181 -0.3608  0.2711
 4341TIP3   OH213028   4.958   1.617   4.247 -0.1404 -0.2309 -0.0716
 4341TIP3    H113029   4.907   1.541   4.221  0.9676 -0.4006 -1.8529
 4341TIP3    H213030   4.915   1.650   4.325 -0.6273 -2.6873  0.7208
 4342TIP3   OH213031   4.396   3.148   3.244 -0.2543  0.0714 -0.1157
 4342TIP3    H113032   4.381   3.054   3.252 -0.2149  0.0862  0.1180
 4342TIP3    H213033   4.336   3.188   3.306 -1.6660  0.3116 -1.5878
 4343TIP3   OH213034   1.661   2.159   2.023  0.5673 -0.4303  0.0751
 4343TIP3    H113035   1.639   2.102   2.097  0.5126 -1.0372 -0.3977
 4343TIP3    H213036   1.652   2.102   1.946  1.6566 -0.0929 -0.3094
 4344TIP3   OH213037   5.333   5.966   4.885 -0.1497  0.2400  0.0835
 4344TIP3    H113038   5.423   5.992   4.901  0.1114 -1.8185  2.1945
 4344TIP3    H213039   5.317   5.989   4.793  1.8435  2.4621  0.2594
 4345TIP3   OH213040   1.387   1.202   1.589  0.3116 -0.4705  0.0105
 4345TIP3    H113041   1.393   1.214   1.684  0.5612 -0.7945  0.0354
 4345TIP3    H213042   1.475   1.174   1.563  0.8792  1.7218 -0.6109
 4346TIP3   OH213043   2.731   4.801   5.140  0.0235  0.7306 -0.8510
 4346TIP3    H113044   2.814   4.843   5.116 -0.3284  1.7066 -0.3967
 4346TIP3    H213045   2.746   4.766   5.228  0.2487  0.0750 -1.1451
 4347TIP3   OH213046   3.210   1.045   0.321 -0.8735  0.2697 -0.1222
 4347TIP3    H113047   3.229   0.963   0.277 -0.7720  0.1473  0.1484
 4347TIP3    H213048   3.135   1.025   0.378  0.5764 -0.2276  1.6551
 4348TIP3   OH213049   2.243   3.253   4.186 -0.1286 -0.3219 -0.3213
 4348TIP3    H113050   2.246   3.294   4.099 -2.1283  0.3546 -0.1013
 4348TIP3    H213051   2.152   3.225   4.195 -0.4366  1.4374  2.3968
 4349TIP3   OH213052   1.155   0.969   3.566  0.0707 -0.5421  0.2669
 4349TIP3    H113053   1.133   1.006   3.651 -0.4684  1.4407 -0.6892
 4349TIP3    H213054   1.209   0.893   3.585 -0.9295 -0.7465  2.4058
 4350TIP3   OH213055   4.403   1.503   4.309  0.0754  0.2868 -0.4387
 4350TIP3    H113056   4.319   1.460   4.300 -0.0769 -0.0943  2.1902
 4350TIP3    H213057   4.387   1.576   4.370  1.1206  1.7820 -1.8901
 4351TIP3   OH213058   0.531   0.547   3.753 -0.2541  0.0747 -0.0498
 4351TIP3    H113059   0.528   0.642   3.742  0.5358 -0.1372 -2.5285
 4351TIP3    H213060   0.449   0.525   3.797 -1.3521  1.7293 -1.2058
 4352TIP3   OH213061   1.004   1.833   3.234 -0.2565  0.9800 -0.0186
 4352TIP3    H113062   0.947   1.757   3.227 -0.5271  1.3635 -2.2721
 4352TIP3    H213063   1.087   1.797   3.266 -0.6238 -0.1258 -0.2775
 4353TIP3   OH213064   3.056   2.486   2.919  0.0049  0.0824 -0.1799
 4353TIP3    H113065   2.964   2.466   2.904  0.4137 -1.4612 -0.8045
 4353TIP3    H213066   3.096   2.400   2.938  1.3580  0.6857 -0.2368
 4354TIP3   OH213067   4.158   1.093   3.415  0.5893 -0.1445 -0.2604
 4354TIP3    H113068   4.237   1.096   3.360  1.2392 -2.1798  0.4900
 4354TIP3    H213069   4.088   1.071   3.354  0.8309  0.3658 -0.7250
 4355TIP3   OH213070   3.048   2.003   3.332 -0.1990 -0.1669  0.0074
 4355TIP3    H113071   2.972   2.052   3.300 -1.1816 -2.3955 -1.1839
 4355TIP3    H213072   3.093   1.973   3.253  1.1805  0.0231  0.7079
 4356TIP3   OH213073   5.218   1.770   4.897 -0.0903 -0.0637  0.0840
 4356TIP3    H113074   5.229   1.675   4.895 -1.9138 -0.3455  2.1297
 4356TIP3    H213075   5.261   1.798   4.978 -0.8447  0.6626  0.2453
 4357TIP3   OH213076   0.583   4.942   0.390  0.7191  0.3566  0.0420
 4357TIP3    H113077   0.580   4.869   0.328  1.4482  0.3564  0.0021
 4357TIP3    H213078   0.657   4.922   0.447 -1.6066 -1.0504  2.6703
 4358TIP3   OH213079   4.578   2.419   3.107 -0.4025 -0.7838  0.7174
 4358TIP3    H113080   4.604   2.509   3.128 -0.3697 -0.6679  0.2078
 4358TIP3    H213081   4.524   2.391   3.181 -2.2667  0.4395 -0.1409
 4359TIP3   OH213082   4.674   3.266   3.438 -0.1528 -0.1444 -0.0169
 4359TIP3    H113083   4.655   3.352   3.399  0.2586 -0.3070 -0.5812
 4359TIP3    H213084   4.594   3.215   3.423 -0.7821  0.4508  1.2198
 4360TIP3   OH213085   5.777   6.073   0.177 -0.0680 -0.3541  0.6576
 4360TIP3    H113086   5.777   6.139   0.246  2.0319  0.1305  0.2335
 4360TIP3    H213087   5.767   6.123   0.096  2.5440 -0.4263  0.2594
 4361TIP3   OH213088   2.042   3.893   3.939  0.7552 -0.3994 -0.3456
 4361TIP3    H113089   2.072   3.934   3.859 -0.2661 -0.2753 -0.6706
 4361TIP3    H213090   1.953   3.926   3.951  1.7807  1.6674  2.2429
 4362TIP3   OH213091   5.084   5.687   1.761  0.4286  0.0008  0.4613
 4362TIP3    H113092   5.161   5.675   1.705 -0.5766  2.0502 -1.4511
 4362TIP3    H213093   5.114   5.746   1.830  1.6445 -2.4492  2.1074
 4363TIP3   OH213094   6.284   3.744   0.070 -0.1168 -0.3367  0.4673
 4363TIP3    H113095   6.270   3.660   0.027 -1.7485  1.4297 -2.6816
 4363TIP3    H213096   6.343   3.791   0.011 -1.2566  1.6275  0.8473
 4364TIP3   OH213097   3.884   3.406   3.976  0.1893  0.4077 -0.3476
 4364TIP3    H113098   3.965   3.445   4.010  0.2842 -0.0678 -0.0209
 4364TIP3    H213099   3.886   3.426   3.882  1.6102 -1.1972 -0.6784
 4365TIP3   OH213100   6.302   0.473   0.986  0.0126 -0.2979 -0.4395
 4365TIP3    H113101   6.297   0.569   0.982  0.0582 -0.1940  1.4941
 4365TIP3    H213102   6.214   0.445   1.011  0.2299 -0.6848 -0.0940
 4366TIP3   OH213103   6.050   2.262   3.564 -0.3033 -0.6465 -0.1789
 4366TIP3    H113104   6.026   2.290   3.652 -0.7324  0.3447 -0.5956
 4366TIP3    H213105   6.145   2.254   3.567 -0.1757  0.7187  0.0161
 4367TIP3   OH213106   2.636   1.083   4.907 -0.2240 -0.1448 -0.3935
 4367TIP3    H113107   2.666   1.164   4.864  1.3640  0.7090  2.2135
 4367TIP3    H213108   2.641   1.102   5.000  0.2767 -3.2951  0.2783
 4368TIP3   OH213109   2.382   1.872   4.631 -0.1161  0.2266 -0.0415
 4368TIP3    H113110   2.325   1.946   4.653 -0.5718 -0.2982  0.5960
 4368TIP3    H213111   2.470   1.908   4.634 -0.4536  1.2034 -1.6933
 4369TIP3   OH213112   1.951   2.895   3.893 -0.2104  0.0711 -0.2156
 4369TIP3    H113113   1.881   2.868   3.834 -0.1628 -1.3414  0.3449
 4369TIP3    H213114   2.030   2.856   3.855  0.0518  0.4676 -0.0757
 4370TIP3   OH213115   3.857   2.916   4.142  0.0397 -0.0059  0.1581
 4370TIP3    H113116   3.882   3.008   4.133 -1.0165  0.4614  1.7526
 4370TIP3    H213117   3.939   2.870   4.159  0.5898  0.6192 -0.7509
 4371TIP3   OH213118   2.885   2.312   4.889 -0.0913 -0.2817  0.0791
 4371TIP3    H113119   2.917   2.231   4.929  0.1444 -0.5813 -0.7185
 4371TIP3    H213120   2.814   2.340   4.948 -0.3214 -1.1776  0.2467
 4372TIP3   OH213121   3.925   5.827   2.022  0.4757 -0.0387 -0.0617
 4372TIP3    H113122   3.870   5.749   2.031  0.8170 -0.4817 -1.6763
 4372TIP3    H213123   4.001   5.809   2.078  0.2245 -0.5499  0.1180
 4373TIP3   OH213124   3.453   5.341   4.448  0.5915  0.3202  0.2761
 4373TIP3    H113125   3.387   5.276   4.426  1.1519  0.2135 -1.1692
 4373TIP3    H213126   3.431   5.369   4.537  0.2663 -1.7357  0.8776
 4374TIP3   OH213127   5.286   2.540   3.893  0.0521 -0.8546  0.0643
 4374TIP3    H113128   5.203   2.570   3.854  1.1258  0.2323 -1.4253
 4374TIP3    H213129   5.315   2.615   3.945  1.6287 -0.0722 -1.8868
 4375TIP3   OH213130   2.860   1.974   3.584 -0.2637  0.0202  0.0510
 4375TIP3    H113131   2.910   2.018   3.515  0.1302  1.3923  1.1999
 4375TIP3    H213132   2.785   1.935   3.538 -1.2629  2.8813 -0.8696
 4376TIP3   OH213133   3.182   5.989   2.675 -0.4171  0.1402  0.1804
 4376TIP3    H113134   3.224   6.051   2.615  0.7856 -0.5969  0.2483
 4376TIP3    H213135   3.254   5.939   2.713 -1.2767 -0.3807  1.1567
 4377TIP3   OH213136   5.252   4.273   4.254  0.2793 -0.2716 -0.5960
 4377TIP3    H113137   5.337   4.239   4.281  0.2410  0.2225  0.1704
 4377TIP3    H213138   5.272   4.353   4.206  0.1180  1.9259  2.7918
 4378TIP3   OH213139   5.477   0.871   5.063 -0.0383  0.1672  0.5653
 4378TIP3    H113140   5.501   0.790   5.107  0.1081  0.4240  0.9650
 4378TIP3    H213141   5.399   0.901   5.110 -1.5970 -1.0295 -1.1653
 4379TIP3   OH213142   1.656   4.563   4.265 -0.1908 -0.0016 -0.2750
 4379TIP3    H113143   1.608   4.486   4.295 -1.0099 -0.1438 -1.9456
 4379TIP3    H213144   1.588   4.624   4.235  0.5273  0.8963 -0.1125
 4380TIP3   OH213145   2.693   2.440   4.599  0.2618 -0.1729  0.3350
 4380TIP3    H113146   2.742   2.498   4.542  1.2430 -1.1717  0.1414
 4380TIP3    H213147   2.601   2.465   4.587  0.5391  0.1812 -1.0357
 4381TIP3   OH213148   2.363   4.805   4.890 -0.3514 -0.1172  0.2160
 4381TIP3    H113149   2.424   4.792   4.962  2.0330  0.3563 -1.6591
 4381TIP3    H213150   2.343   4.717   4.859 -1.4466 -0.3261  1.4724
 4382TIP3   OH213151   2.930   3.757   4.986 -0.0579 -0.0379 -0.0845
 4382TIP3    H113152   2.922   3.685   5.050 -1.1149 -0.9566 -1.2230
 4382TIP3    H213153   2.847   3.803   4.991 -0.6135 -0.8433 -1.6429
 4383TIP3   OH213154   2.775   1.738   4.478 -0.1044  0.1916 -0.2515
 4383TIP3    H113155   2.845   1.675   4.496 -0.8767 -0.5037  0.3433
 4383TIP3    H213156   2.811   1.822   4.505  1.0296  0.0519 -1.2893
 4384TIP3   OH213157   2.597   3.004   2.331  0.3477 -0.3872  0.2483
 4384TIP3    H113158   2.654   2.982   2.257 -2.5246 -0.5137 -2.0478
 4384TIP3    H213159   2.648   2.982   2.409  3.0826 -1.2259 -1.7024
 4385TIP3   OH213160   0.591   2.275   0.481  0.2473 -0.5324  0.0707
 4385TIP3    H113161   0.663   2.268   0.418 -0.0813  0.2710 -0.3947
 4385TIP3    H213162   0.542   2.352   0.454  0.5849  0.3353  1.8217
 4386TIP3   OH213163   2.286   1.410   4.237 -0.2791 -0.0867  0.1572
 4386TIP3    H113164   2.362   1.372   4.282 -0.5388 -0.4036  0.3307
 4386TIP3    H213165   2.320   1.434   4.151  0.2945  0.7894  0.6131
 4387TIP3   OH213166   1.679   2.739   4.632 -0.1206 -0.2615 -0.2430
 4387TIP3    H113167   1.722   2.812   4.587 -0.4254  1.5847  2.3111
 4387TIP3    H213168   1.612   2.781   4.686 -1.0194 -2.5625  0.4805
 4388TIP3   OH213169   2.650   2.268   3.915 -0.0243 -0.0883  0.0588
 4388TIP3    H113170   2.706   2.193   3.896 -1.0336 -0.5482 -1.1782
 4388TIP3    H213171   2.710   2.343   3.917  0.7776 -0.7148 -0.2409
 4389TIP3   OH213172   3.534   0.534   4.268 -0.8272  0.2131  0.0302
 4389TIP3    H113173   3.528   0.551   4.174  0.7157  0.5000 -0.0376
 4389TIP3    H213174   3.624   0.559   4.291 -1.3079  0.5100  1.6585
 4390TIP3   OH213175   5.894   4.118   0.325 -0.2943 -0.0972 -0.3842
 4390TIP3    H113176   5.890   4.154   0.236 -1.6054 -0.5651 -0.5209
 4390TIP3    H213177   5.809   4.140   0.364 -0.1143 -0.7823  0.4103
 4391TIP3   OH213178   0.605   5.010   1.198 -0.0261 -0.0161 -0.1202
 4391TIP3    H113179   0.682   4.976   1.243 -0.4215 -0.9799 -0.1723
 4391TIP3    H213180   0.627   5.004   1.105 -0.4401 -0.9586 -0.1607
 4392TIP3   OH213181   1.643   3.518   3.647 -0.5704 -0.4657 -0.2493
 4392TIP3    H113182   1.640   3.614   3.653  2.8091 -0.3790  1.0873
 4392TIP3    H213183   1.671   3.501   3.557  0.5486 -0.1480  0.0379
 4393TIP3   OH213184   4.628   1.557   2.479  0.9043  0.2590 -0.5484
 4393TIP3    H113185   4.548   1.589   2.520  0.8949 -1.3853  0.7870
 4393TIP3    H213186   4.598   1.501   2.408  0.8212 -0.8031  0.2971
 4394TIP3   OH213187   5.032   1.313   4.081  0.4995 -0.5088 -0.1928
 4394TIP3    H113188   5.087   1.373   4.130 -1.1921 -0.3430  1.5918
 4394TIP3    H213189   5.005   1.248   4.146 -2.2513  0.0300 -0.7424
 4395TIP3   OH213190   1.093   2.616   4.856  0.2852 -0.2476  0.2035
 4395TIP3    H113191   1.180   2.637   4.889 -0.6390  1.6475  1.5280
 4395TIP3    H213192   1.081   2.523   4.878  0.9680  0.1326  2.3713
 4396TIP3   OH213193   2.913   3.515   5.144 -0.7730  0.5975 -0.4999
 4396TIP3    H113194   2.833   3.463   5.147 -0.1963 -0.2787 -0.0028
 4396TIP3    H213195   2.983   3.451   5.137 -0.0963  1.3432 -0.6598
 4397TIP3   OH213196   6.104   5.379   0.430  0.5561 -0.4426 -0.2815
 4397TIP3    H113197   6.028   5.375   0.373  0.0153 -0.3888  0.4326
 4397TIP3    H213198   6.119   5.473   0.443 -0.9907 -0.4675  1.8668
 4398TIP3   OH213199   3.112   2.671   4.509 -0.3478  0.4543  0.4070
 4398TIP3    H113200   3.201   2.639   4.527 -0.4040 -0.1949 -0.4738
 4398TIP3    H213201   3.124   2.737   4.441 -0.2536  2.2279  2.0873
 4399TIP3   OH213202   4.421   2.681   3.446  0.1670 -0.6586 -0.5104
 4399TIP3    H113203   4.355   2.728   3.497 -0.4088 -0.9919 -0.9429
 4399TIP3    H213204   4.490   2.745   3.431 -0.0377 -0.3189 -0.0238
 4400TIP3   OH213205   5.153   6.016   0.244 -0.3115  0.2222 -0.7090
 4400TIP3    H113206   5.233   6.014   0.296  1.9826  3.4130 -3.8817
 4400TIP3    H213207   5.099   6.084   0.284  0.5172  1.1723 -1.1939
 4401TIP3   OH213208   2.648   3.777   5.274  0.2390 -0.0198  0.2214
 4401TIP3    H113209   2.660   3.692   5.317  0.2444  0.2494  0.7454
 4401TIP3    H213210   2.694   3.839   5.329  0.2734  0.3197 -0.1899
 4402TIP3   OH213211   2.756   0.493   4.932  0.2077 -0.4772  0.2343
 4402TIP3    H113212   2.670   0.520   4.902  0.4095  1.7625  1.5990
 4402TIP3    H213213   2.812   0.504   4.855 -0.6930 -1.9596 -0.6613
 4403TIP3   OH213214   2.503   5.873   0.384  0.1956 -0.3860 -0.0661
 4403TIP3    H113215   2.520   5.866   0.478 -0.5433 -0.1459  0.0910
 4403TIP3    H213216   2.467   5.961   0.373 -1.0465 -0.9236 -0.3598
 4404TIP3   OH213217   2.044   3.526   4.337  0.0829 -0.1805 -0.3300
 4404TIP3    H113218   1.958   3.545   4.375  0.3613  0.1282  0.1616
 4404TIP3    H213219   2.043   3.571   4.253 -0.2900 -0.2939 -0.3883
 4405TIP3   OH213220   5.253   4.931   0.408  0.0910  0.0422  0.0839
 4405TIP3    H113221   5.220   5.006   0.359 -1.2623 -0.8987 -0.4895
 4405TIP3    H213222   5.223   4.855   0.358  1.3232 -0.8867  0.7261
 4406TIP3   OH213223   2.813   4.072   4.182 -0.5773 -0.0302 -0.1202
 4406TIP3    H113224   2.728   4.062   4.224 -0.4007  1.7918  0.7289
 4406TIP3    H213225   2.876   4.049   4.250 -0.3641 -0.8390 -0.5801
 4407TIP3   OH213226   4.285   4.901   1.245 -0.2057 -0.0578  0.1910
 4407TIP3    H113227   4.361   4.959   1.250  1.1860 -1.6519 -1.4629
 4407TIP3    H213228   4.286   4.853   1.328 -0.7394  1.5112  1.1161
 4408TIP3   OH213229   2.406   3.846   5.112  0.6552 -0.3012 -0.4303
 4408TIP3    H113230   2.484   3.819   5.160  1.8903  0.2092 -2.0705
 4408TIP3    H213231   2.418   3.940   5.099  0.1562 -0.3590 -1.3539
 4409TIP3   OH213232   0.148   1.123   0.748 -0.2748 -0.1835  0.1017
 4409TIP3    H113233   0.229   1.135   0.697 -0.8517  0.4223 -0.6960
 4409TIP3    H213234   0.172   1.063   0.818  1.2760  1.1906  0.7958
 4410TIP3   OH213235   4.127   4.971   0.389  0.2932 -0.3066 -0.0602
 4410TIP3    H113236   4.143   4.928   0.305  1.0950  0.8528 -0.5133
 4410TIP3    H213237   4.101   5.060   0.366  0.0322 -0.1295  0.9023
 4411TIP3   OH213238   3.365   4.136   0.315 -0.4177  0.4088 -0.1619
 4411TIP3    H113239   3.365   4.155   0.408  1.5038  0.4706 -0.1725
 4411TIP3    H213240   3.455   4.114   0.294 -0.8607  0.2252 -1.9780
 4412TIP3   OH213241   3.650   3.268   4.938  0.5327 -0.0414 -0.3957
 4412TIP3    H113242   3.707   3.287   4.863  0.5889 -0.3480 -0.4318
 4412TIP3    H213243   3.561   3.286   4.905  0.6676  1.2510 -0.0792
 4413TIP3   OH213244   2.011   0.779   2.731  0.3166 -0.1857  0.4877
 4413TIP3    H113245   2.023   0.752   2.822  0.5134 -1.7900 -0.0078
 4413TIP3    H213246   1.916   0.786   2.720  0.2704 -0.5945  0.6333
 4414TIP3   OH213247   2.340   5.885   4.112 -0.0934 -0.3120 -0.0173
 4414TIP3    H113248   2.320   5.877   4.019  0.3429 -0.1957 -0.1231
 4414TIP3    H213249   2.406   5.817   4.128 -1.0842 -1.1786  0.4815
 4415TIP3   OH213250   4.658   2.804   3.393 -0.3929 -0.1813  0.1380
 4415TIP3    H113251   4.722   2.772   3.457  1.2514  0.7995 -0.9660
 4415TIP3    H213252   4.702   2.877   3.351 -2.3540  0.6356 -0.5243
 4416TIP3   OH213253   4.028   5.634   0.815 -0.8369 -0.2221 -0.1330
 4416TIP3    H113254   3.934   5.634   0.834 -1.0203 -0.2533 -1.0068
 4416TIP3    H213255   4.034   5.665   0.724  0.1785  2.0675  0.7025
 4417TIP3   OH213256   4.208   3.214   3.430  0.5414 -0.5607 -0.0890
 4417TIP3    H113257   4.188   3.123   3.452  0.5912 -0.3660  0.7597
 4417TIP3    H213258   4.124   3.251   3.402  0.4617 -0.7874 -0.1466
 4418TIP3   OH213259   3.373   0.672   4.466  0.0966  0.2596 -0.1040
 4418TIP3    H113260   3.431   0.650   4.393  0.8501  0.4254  0.4374
 4418TIP3    H213261   3.347   0.763   4.448  0.8577  0.5465  0.2015
 4419TIP3   OH213262   1.841   1.176   0.417 -0.2214 -0.3384 -0.0226
 4419TIP3    H113263   1.846   1.111   0.487  0.7519  1.2348  1.4156
 4419TIP3    H213264   1.756   1.218   0.429 -0.2090 -0.3131 -0.0239
 4420TIP3   OH213265   1.936   2.206   5.107 -0.0696  0.3339  0.3219
 4420TIP3    H113266   1.865   2.267   5.129 -2.9666 -2.2472 -1.4340
 4420TIP3    H213267   1.982   2.249   5.034 -1.0881  1.1659  0.1496
 4421TIP3   OH213268   5.279   3.890   0.495  0.3157  0.1992 -0.3065
 4421TIP3    H113269   5.292   3.942   0.416  0.6535 -2.1854 -1.8782
 4421TIP3    H213270   5.353   3.914   0.552  0.7980  0.9756 -1.2442
 4422TIP3   OH213271   3.330   4.734   0.327  0.1580 -0.2887  0.2635
 4422TIP3    H113272   3.266   4.677   0.284  0.9912  0.4946 -2.1364
 4422TIP3    H213273   3.355   4.687   0.406 -1.6542 -1.6770  0.0508
 4423TIP3   OH213274   5.488   2.954   0.385  0.0914  0.0365  0.0911
 4423TIP3    H113275   5.433   3.027   0.415 -0.1490  0.0125 -0.2813
 4423TIP3    H213276   5.486   2.891   0.456  0.7184  0.6225  0.6321
 4424TIP3   OH213277   4.559   0.854   3.876 -0.2317  0.4675  0.4647
 4424TIP3    H113278   4.505   0.775   3.883 -0.1718  0.3893  0.0298
 4424TIP3    H213279   4.589   0.855   3.785  1.8901 -0.4074  1.1050
 4425TIP3   OH213280   2.703   3.308   3.739  0.1837  0.2520  0.3228
 4425TIP3    H113281   2.679   3.401   3.731 -0.3672  0.0621 -0.2196
 4425TIP3    H213282   2.762   3.292   3.664 -1.1296 -0.2849 -0.6126
 4426TIP3   OH213283   1.825   3.904   3.475 -0.9151 -0.2423  0.3238
 4426TIP3    H113284   1.744   3.854   3.466 -0.2730 -1.6340  1.9717
 4426TIP3    H213285   1.894   3.840   3.460 -0.1089  0.4622  1.0053
 4427TIP3   OH213286   4.498   3.809   2.226 -0.4727  0.1575 -0.2404
 4427TIP3    H113287   4.487   3.779   2.316 -0.2458  1.6042  0.2712
 4427TIP3    H213288   4.439   3.885   2.218  1.6339  1.7980 -0.4539
 4428TIP3   OH213289   4.213   5.433   0.097  0.2087 -0.4198  0.1826
 4428TIP3    H113290   4.260   5.487   0.032  1.3541  0.6578  1.8519
 4428TIP3    H213291   4.281   5.376   0.133 -0.8614 -2.4916 -1.0533
 4429TIP3   OH213292   1.850   2.492   2.644  0.5213  0.6016 -0.0282
 4429TIP3    H113293   1.780   2.530   2.696  0.5374  0.1018  0.3525
 4429TIP3    H213294   1.918   2.560   2.642  0.0526  1.0579 -0.3464
 4430TIP3   OH213295   2.302   3.637   3.854  0.7633 -0.1234  0.0009
 4430TIP3    H113296   2.241   3.658   3.784  2.1266  0.3657 -1.0678
 4430TIP3    H213297   2.288   3.706   3.919 -0.1495 -0.2851 -0.0160
 4431TIP3   OH213298   3.350   2.376   4.884 -0.3220  0.3124 -0.1907
 4431TIP3    H113299   3.394   2.376   4.799  0.4440 -1.0218  0.1945
 4431TIP3    H213300   3.258   2.395   4.863 -0.6112 -2.3462 -1.6020
 4432TIP3   OH213301   4.804   0.516   5.205  0.8680  0.1931 -0.2542
 4432TIP3    H113302   4.827   0.596   5.254  1.6112 -0.9253  1.2514
 4432TIP3    H213303   4.720   0.490   5.240  0.5140  0.4208 -0.9143
 4433TIP3   OH213304   1.299   5.936   0.480  0.5404 -0.5660  0.0424
 4433TIP3    H113305   1.299   5.845   0.453 -1.7955 -0.4765 -0.3126
 4433TIP3    H213306   1.207   5.958   0.493  1.0671  1.7182  0.1943
 4434TIP3   OH213307   3.612   1.617   4.036  0.1343 -0.2022  0.1044
 4434TIP3    H113308   3.546   1.579   4.095 -0.5014  0.4868 -0.1517
 4434TIP3    H213309   3.588   1.584   3.949  1.8624 -2.3024  0.3822
 4435TIP3   OH213310   4.648   4.029   3.827  0.1991 -0.1414 -0.5346
 4435TIP3    H113311   4.598   4.080   3.891  1.5308 -0.0595  0.4507
 4435TIP3    H213312   4.727   4.081   3.812  0.2693 -0.5557 -1.6493
 4436TIP3   OH213313   4.609   3.112   4.386  0.0197 -0.8757 -0.4401
 4436TIP3    H113314   4.622   3.070   4.471 -2.9558  0.6363  0.8429
 4436TIP3    H213315   4.646   3.199   4.397 -1.1533 -0.3756 -0.3768
 4437TIP3   OH213316   3.662   4.647   4.295  0.5829 -0.1409  0.4520
 4437TIP3    H113317   3.757   4.638   4.304  0.5602 -1.2964 -0.3480
 4437TIP3    H213318   3.648   4.661   4.202  0.0318  1.0976  0.7059
 4438TIP3   OH213319   1.923   2.851   4.153  0.3820 -0.6354  0.3827
 4438TIP3    H113320   1.828   2.845   4.161  0.6249 -2.6341  2.0360
 4438TIP3    H213321   1.938   2.872   4.061 -1.6370 -0.9521 -0.0395
 4439TIP3   OH213322   6.024   1.272   3.090  0.3418 -0.2393  0.0762
 4439TIP3    H113323   6.052   1.345   3.145 -3.0462  2.1841 -1.2713
 4439TIP3    H213324   6.075   1.281   3.010  1.1051 -0.3278  0.5503
 4440TIP3   OH213325   2.733   3.945   5.061  0.1022 -0.1116 -0.3478
 4440TIP3    H113326   2.720   3.890   5.138  1.3055 -1.2009 -0.9149
 4440TIP3    H213327   2.797   4.011   5.089  1.1880 -1.0252 -0.6642
 4441TIP3   OH213328   3.780   5.791   0.032  0.1499 -0.7171  0.3669
 4441TIP3    H113329   3.712   5.855   0.009  0.1090 -1.0266 -0.3791
 4441TIP3    H213330   3.741   5.740   0.103 -0.4644 -1.0049 -0.1748
 4442TIP3   OH213331   6.482   5.069   1.982  0.2758  0.2626  0.6198
 4442TIP3    H113332   6.402   5.121   1.985 -0.6342 -1.0915  0.3828
 4442TIP3    H213333   6.494   5.048   1.889  0.4759 -0.1921  0.7451
 4443TIP3   OH213334   0.891   3.950   0.390  0.1237 -0.0068 -0.2681
 4443TIP3    H113335   0.955   3.990   0.448 -0.8209  1.1407  0.0160
 4443TIP3    H213336   0.884   4.011   0.317 -0.4441 -0.2525 -0.4220
 4444TIP3   OH213337   2.235   5.131   3.305  0.0635  0.0277  0.2572
 4444TIP3    H113338   2.245   5.120   3.400 -0.1028  1.5460  0.4702
 4444TIP3    H213339   2.218   5.225   3.294  1.1346  0.0437 -1.3645
 4445TIP3   OH213340   5.484   3.143   2.819 -1.0853  0.1805 -0.5949
 4445TIP3    H113341   5.420   3.072   2.819  0.3998 -1.1933 -1.4233
 4445TIP3    H213342   5.432   3.222   2.806 -2.8745 -0.6329  1.3333
 4446TIP3   OH213343   5.324   2.194   5.037  0.0165  0.4555  0.5597
 4446TIP3    H113344   5.374   2.179   5.117  0.5294  0.0998  0.1838
 4446TIP3    H213345   5.240   2.151   5.052  0.4211 -0.3381  0.5925
 4447TIP3   OH213346   3.117   0.556   4.860 -0.1456 -0.4714 -0.2629
 4447TIP3    H113347   3.066   0.551   4.779  0.9257  2.2302 -1.1761
 4447TIP3    H213348   3.208   0.555   4.830  0.2602  0.3973  0.9131
 4448TIP3   OH213349   6.091   0.580   0.082 -0.2856 -0.1735 -0.2651
 4448TIP3    H113350   6.050   0.620   0.005  2.1789  2.0858 -0.4846
 4448TIP3    H213351   6.162   0.527   0.047  1.1020  1.1799  0.4278
 4449TIP3   OH213352   0.721   0.110   0.401 -0.0332  0.5400 -0.1172
 4449TIP3    H113353   0.749   0.182   0.345  1.8325  0.7680  1.0682
 4449TIP3    H213354   0.632   0.133   0.428  0.0531  1.7277 -0.8366
 4450TIP3   OH213355   3.711   1.331   3.922 -0.2921 -0.4282  0.0413
 4450TIP3    H113356   3.740   1.365   3.837 -0.7897 -0.2958 -0.0768
 4450TIP3    H213357   3.784   1.278   3.953  0.7119  1.1799  0.4659
 4451TIP3   OH213358   3.444   2.882   1.271 -0.0308 -0.2681  1.2044
 4451TIP3    H113359   3.389   2.810   1.303 -0.6740 -0.2352  0.1878
 4451TIP3    H213360   3.406   2.960   1.310  0.9770 -0.5110  2.7236
 4452TIP3   OH213361   3.067   4.125   4.926 -0.2159  0.0130 -0.3820
 4452TIP3    H113362   3.069   4.220   4.929  3.9919 -0.0243  0.6421
 4452TIP3    H213363   3.012   4.100   5.000 -0.2686  1.6089  0.1315
 4453TIP3   OH213364   4.855   5.657   0.408 -0.0901 -0.1645 -0.0682
 4453TIP3    H113365   4.826   5.591   0.471  0.7721 -0.1906  0.3166
 4453TIP3    H213366   4.799   5.644   0.332  0.3345 -1.6327 -0.1547
 4454TIP3   OH213367   1.842   2.382   1.916  0.0795 -0.2787  0.5346
 4454TIP3    H113368   1.914   2.341   1.963 -0.0875 -0.6941  0.4305
 4454TIP3    H213369   1.764   2.333   1.944 -0.0517 -0.3733  0.0064
 4455TIP3   OH213370   4.281   3.212   3.724 -0.0818  0.6046 -0.3656
 4455TIP3    H113371   4.268   3.216   3.629 -1.0306 -0.5620 -0.2944
 4455TIP3    H213372   4.210   3.157   3.756  0.5177  0.5811  0.9713
 4456TIP3   OH213373   3.234   3.345   2.832 -0.2500  0.5615  0.7856
 4456TIP3    H113374   3.160   3.291   2.860  0.2377 -0.5651 -0.0688
 4456TIP3    H213375   3.273   3.376   2.914  0.6933 -2.0408  1.3633
 4457TIP3   OH213376   4.892   1.537   0.445 -0.2136 -0.0891 -0.1816
 4457TIP3    H113377   4.807   1.581   0.453 -0.0234  0.4385 -0.9805
 4457TIP3    H213378   4.922   1.527   0.535 -1.2835 -0.6001  0.1273
 4458TIP3   OH213379   3.485   3.623   4.670 -0.5217 -0.0179  0.1010
 4458TIP3    H113380   3.530   3.666   4.742  0.8735 -0.4774 -0.4935
 4458TIP3    H213381   3.519   3.664   4.591  0.1038 -1.5021 -0.4300
 4459TIP3   OH213382   4.304   5.876   0.104  0.1375  0.1548  0.6620
 4459TIP3    H113383   4.215   5.841   0.095  0.0533  0.5757 -0.2601
 4459TIP3    H213384   4.291   5.971   0.111  0.4709  0.1549  1.3274
 4460TIP3   OH213385   3.420   3.185   3.759 -0.4308  0.6604 -0.1149
 4460TIP3    H113386   3.353   3.198   3.826  0.7949 -0.6904  1.4092
 4460TIP3    H213387   3.407   3.096   3.728  1.5139 -0.1280  1.2129
 4461TIP3   OH213388   4.051   5.128   3.800  0.2731  0.0790 -0.2419
 4461TIP3    H113389   4.145   5.118   3.816  0.0368 -0.8000  0.6835
 4461TIP3    H213390   4.045   5.157   3.709  1.3603 -1.5005 -0.8385
 4462TIP3   OH213391   0.352   5.115   0.207 -0.6825 -0.6671  0.2740
 4462TIP3    H113392   0.349   5.034   0.156  0.7177 -0.4880 -0.1240
 4462TIP3    H213393   0.387   5.180   0.146 -1.2858  0.1194  0.7492
 4463TIP3   OH213394   3.461   2.604   5.031  0.1720  0.0432 -0.2693
 4463TIP3    H113395   3.416   2.530   4.989  0.9610 -0.0576 -0.9497
 4463TIP3    H213396   3.409   2.680   5.006 -0.9232 -0.3154  0.8282
 4464TIP3   OH213397   6.047   0.550   0.679 -0.1754 -0.2046 -0.0397
 4464TIP3    H113398   6.092   0.634   0.688  0.2508 -0.3998 -0.3584
 4464TIP3    H213399   6.117   0.486   0.674 -0.5022 -0.6539  0.8992
 4465TIP3   OH213400   4.616   4.865   0.592 -0.0616  0.0606 -0.5051
 4465TIP3    H113401   4.540   4.913   0.559 -0.3807 -0.2144 -0.1769
 4465TIP3    H213402   4.583   4.816   0.667  0.3330 -0.4263 -0.6451
 4466TIP3   OH213403   0.516   3.254   3.620 -0.0976  0.1702  0.2024
 4466TIP3    H113404   0.610   3.262   3.608  0.4044 -1.2416  2.7949
 4466TIP3    H213405   0.504   3.169   3.663 -2.4315  0.8276  0.9339
 4467TIP3   OH213406   2.037   3.223   3.491  0.5147 -0.4174  0.1640
 4467TIP3    H113407   2.034   3.254   3.401  0.2077 -0.6903  0.0788
 4467TIP3    H213408   2.123   3.250   3.523  0.1591  0.7367  0.1679
 4468TIP3   OH213409   5.801   0.141   4.348 -0.4010 -0.4179  0.1617
 4468TIP3    H113410   5.752   0.125   4.429  1.6602  0.5606  1.6478
 4468TIP3    H213411   5.775   0.230   4.322  0.8623  0.2726  1.1893
 4469TIP3   OH213412   4.835   5.755   0.698 -0.3615  0.6661 -0.0272
 4469TIP3    H113413   4.850   5.790   0.610  0.2735  0.2638 -0.0811
 4469TIP3    H213414   4.811   5.664   0.684  0.0628  0.5110  0.2316
 4470TIP3   OH213415   2.823   2.363   3.576  0.7109  0.3141  0.4262
 4470TIP3    H113416   2.866   2.402   3.652  0.7752  0.6163  0.2393
 4470TIP3    H213417   2.880   2.388   3.502 -0.4099  1.7239  0.0148
 4471TIP3   OH213418   5.080   5.933   5.025  0.4306  0.3430  0.0359
 4471TIP3    H113419   5.034   6.011   4.995  1.2993  0.8890  0.0907
 4471TIP3    H213420   5.172   5.960   5.031  0.5457 -0.2841  1.3871
 4472TIP3   OH213421   1.989   0.607   1.644 -0.3227  0.1630 -0.5132
 4472TIP3    H113422   2.004   0.597   1.738 -0.6420 -1.6610 -0.6444
 4472TIP3    H213423   1.912   0.663   1.638 -1.4290 -1.2401  0.3534
 4473TIP3   OH213424   1.266   5.724   0.758 -0.1796 -0.4008  0.3198
 4473TIP3    H113425   1.250   5.663   0.829  3.5223 -1.5113  0.2777
 4473TIP3    H213426   1.322   5.792   0.796  1.5624 -0.8308 -1.3913
 4474TIP3   OH213427   4.237   2.541   4.074 -0.0905 -0.2242 -0.3397
 4474TIP3    H113428   4.292   2.530   3.997  0.0337  1.2202 -0.4766
 4474TIP3    H213429   4.201   2.454   4.090 -1.0391 -0.3064 -2.7147
 4475TIP3   OH213430   3.156   2.166   4.705 -0.2351  0.0726 -0.2756
 4475TIP3    H113431   3.109   2.216   4.639 -1.9099 -0.8113  0.1976
 4475TIP3    H213432   3.247   2.168   4.678 -0.4595  2.3719 -0.8832
 4476TIP3   OH213433   3.063   3.906   4.275 -0.2550 -0.7895 -0.1006
 4476TIP3    H113434   3.082   3.901   4.368 -1.1158  0.9855  0.1851
 4476TIP3    H213435   3.145   3.937   4.235 -0.5340  0.5109  0.3284
 4477TIP3   OH213436   5.387   1.151   4.149 -0.2184 -0.1804 -0.1401
 4477TIP3    H113437   5.349   1.120   4.067 -2.2848  0.1650  0.6612
 4477TIP3    H213438   5.390   1.246   4.140 -0.4436 -0.1428  0.1921
 4478TIP3   OH213439   4.851   4.707   0.443  0.2600  0.7570 -0.1636
 4478TIP3    H113440   4.770   4.758   0.445 -0.4403 -0.3113 -0.7469
 4478TIP3    H213441   4.835   4.635   0.505  1.2316  1.2249  0.6382
 4479TIP3   OH213442   6.351   1.022   0.157  0.3780 -0.1855 -0.3481
 4479TIP3    H113443   6.413   0.962   0.114  0.5511 -1.3264  1.4338
 4479TIP3    H213444   6.266   0.979   0.147  0.5999 -1.1275  1.5546
 4480TIP3   OH213445   2.281   2.637   4.150  0.4873  0.0505 -0.0255
 4480TIP3    H113446   2.238   2.627   4.065  1.8557 -1.7463 -0.5341
 4480TIP3    H213447   2.258   2.725   4.178 -1.5020  0.0019 -1.4039
 4481TIP3   OH213448   4.316   5.387   0.633  0.4088 -0.2491 -0.3095
 4481TIP3    H113449   4.314   5.372   0.539  0.4141  0.4282 -0.4193
 4481TIP3    H213450   4.386   5.450   0.646 -0.8243  1.0923 -0.0610
 4482TIP3   OH213451   6.258   5.691   3.436 -0.3477  0.2696  0.5603
 4482TIP3    H113452   6.193   5.762   3.441 -0.0136  0.6801 -0.7239
 4482TIP3    H213453   6.269   5.663   3.527 -1.3984  1.0333  0.9452
 4483TIP3   OH213454   4.563   1.991   3.352  0.4613  0.1214 -0.3473
 4483TIP3    H113455   4.547   1.904   3.315  0.4966 -0.3355  0.6950
 4483TIP3    H213456   4.492   2.045   3.317 -1.2394 -1.0070  1.2635
 4484TIP3   OH213457   3.125   2.394   4.271  0.8329  0.3435  0.3354
 4484TIP3    H113458   3.054   2.455   4.250 -0.0404 -1.3222 -1.7593
 4484TIP3    H213459   3.204   2.437   4.239  0.3865  0.9370  0.0105
 4485TIP3   OH213460   2.575   5.761   2.661  0.3754  0.2967  0.2890
 4485TIP3    H113461   2.658   5.751   2.613  0.1894  0.2357 -0.0230
 4485TIP3    H213462   2.561   5.675   2.701  0.1573  0.1228 -0.1564
 4486TIP3   OH213463   4.832   3.536   2.638 -0.5773 -0.1498 -0.6581
 4486TIP3    H113464   4.884   3.456   2.648  0.5572  0.7126  0.5137
 4486TIP3    H213465   4.887   3.594   2.586  0.0792  1.1349  1.4282
 4487TIP3   OH213466   3.323   5.360   0.236 -0.1796 -0.4008  0.4626
 4487TIP3    H113467   3.229   5.365   0.221 -0.3058 -0.9738  1.0410
 4487TIP3    H213468   3.358   5.440   0.196 -1.0813  0.5852  1.6264
 4488TIP3   OH213469   3.398   1.322   4.419  0.2636  0.2803  0.0947
 4488TIP3    H113470   3.326   1.299   4.478  1.9976 -0.6552  1.8883
 4488TIP3    H213471   3.359   1.382   4.356 -2.0892 -0.2112  1.0458
 4489TIP3   OH213472   4.292   1.313   0.395 -0.6669 -0.0957  0.6869
 4489TIP3    H113473   4.326   1.240   0.447  1.2842  0.3501  0.0788
 4489TIP3    H213474   4.280   1.275   0.308  1.6361  0.6121  0.0273
 4490TIP3   OH213475   2.022   3.303   5.081 -0.0235 -0.5065 -0.4447
 4490TIP3    H113476   2.114   3.320   5.060  0.1518 -1.1124 -0.1891
 4490TIP3    H213477   2.023   3.218   5.126 -0.4786  0.3494  1.2306
 4491TIP3   OH213478   4.911   2.772   3.501 -0.3751 -0.3054 -0.2918
 4491TIP3    H113479   4.910   2.769   3.597 -0.5817 -2.2202 -0.3342
 4491TIP3    H213480   4.983   2.831   3.479 -0.1913 -0.0192  1.0444
 4492TIP3   OH213481   4.610   1.081   4.340  0.7643 -0.5388 -0.2279
 4492TIP3    H113482   4.539   1.026   4.373 -1.0281  1.2005 -1.0573
 4492TIP3    H213483   4.601   1.076   4.244 -0.4022  2.3350 -0.3275
 4493TIP3   OH213484   5.187   3.453   3.240  0.4631 -0.0815 -0.1629
 4493TIP3    H113485   5.100   3.493   3.251  0.6121 -0.1133  1.2240
 4493TIP3    H213486   5.197   3.398   3.317  0.9800 -1.4765 -1.2140
 4494TIP3   OH213487   0.749   5.605   0.149  0.4662  0.3342  0.0068
 4494TIP3    H113488   0.804   5.547   0.096  0.1601 -0.5838  0.6684
 4494TIP3    H213489   0.725   5.551   0.225 -1.5176  0.6457 -0.3840
 4495TIP3   OH213490   6.005   3.460   4.068 -0.5869 -0.6180 -0.4911
 4495TIP3    H113491   5.930   3.444   4.125  0.5714 -1.6919  0.7644
 4495TIP3    H213492   6.069   3.504   4.123 -0.2988  0.3260 -1.5636
 4496TIP3   OH213493   4.936   2.632   2.621 -0.1362 -0.6891  0.2532
 4496TIP3    H113494   4.903   2.550   2.658  1.4283 -1.4861 -0.0579
 4496TIP3    H213495   4.928   2.621   2.526  0.5369 -0.6992  0.1915
 4497TIP3   OH213496   4.582   1.833   3.975 -0.5103 -0.0394 -0.0216
 4497TIP3    H113497   4.586   1.928   3.984  2.1890 -0.1777  0.7370
 4497TIP3    H213498   4.594   1.799   4.064 -1.2326 -1.0939 -0.3125
 4498TIP3   OH213499   5.564   2.153   4.375  0.4317  0.2311 -0.2757
 4498TIP3    H113500   5.541   2.174   4.284  0.9362  2.3222  0.0431
 4498TIP3    H213501   5.660   2.153   4.376  0.4286 -0.1632  0.1795
 4499TIP3   OH213502   4.163   6.003   4.265  0.3638  0.1311 -0.2880
 4499TIP3    H113503   4.191   5.948   4.339  1.0628  2.3240  1.1220
 4499TIP3    H213504   4.084   5.960   4.232  1.9882 -2.8076 -0.5028
 4500TIP3   OH213505   1.987   2.432   3.062 -0.0196 -0.5326 -0.0421
 4500TIP3    H113506   2.004   2.464   3.151 -2.8542  2.1799 -0.3890
 4500TIP3    H213507   1.892   2.420   3.059  0.0325 -0.4015 -2.7620
 4501TIP3   OH213508   3.030   4.896   2.029  0.2339  0.2578 -0.2165
 4501TIP3    H113509   2.977   4.902   1.949  1.4318  1.0816 -0.9638
 4501TIP3    H213510   2.980   4.944   2.095 -1.0860 -1.0020 -0.2939
 4502TIP3   OH213511   5.736   1.614   4.314 -0.6187 -0.0571  0.6885
 4502TIP3    H113512   5.822   1.580   4.342 -0.2731  1.2868  1.3296
 4502TIP3    H213513   5.677   1.540   4.324  0.3226 -0.7854  1.0095
 4503TIP3   OH213514   6.158   1.735   4.585  0.2537  0.1024  0.1121
 4503TIP3    H113515   6.120   1.701   4.666 -0.9782 -0.4692 -0.6909
 4503TIP3    H213516   6.240   1.776   4.612 -0.0380 -0.2866  1.6129
 4504TIP3   OH213517   5.518   4.906   3.556 -0.3339 -0.1238 -0.4162
 4504TIP3    H113518   5.532   5.001   3.548 -0.3167 -0.1213 -0.3488
 4504TIP3    H213519   5.446   4.888   3.495 -0.8879  0.0615  0.1742
 4505TIP3   OH213520   5.919   2.193   4.055 -0.2152  0.4597 -0.2000
 4505TIP3    H113521   5.960   2.261   4.108 -0.8820  0.3986  0.3971
 4505TIP3    H213522   5.934   2.112   4.104 -0.0395  0.2720 -0.5604
 4506TIP3   OH213523   5.674   3.770   4.256  0.4468 -0.4866  0.3826
 4506TIP3    H113524   5.662   3.678   4.280  0.4987 -0.7762 -0.6729
 4506TIP3    H213525   5.706   3.767   4.166 -0.0725  0.5824  0.1577
 4507TIP3   OH213526   5.681   4.700   2.667  0.5130 -0.0620  0.0337
 4507TIP3    H113527   5.615   4.767   2.683 -1.6680 -2.0043 -0.6055
 4507TIP3    H213528   5.677   4.685   2.572  0.4447 -1.6342  0.2759
 4508TIP3   OH213529   3.807   2.018   3.819  0.0034  0.0208  0.6843
 4508TIP3    H113530   3.740   2.062   3.767  1.8422  2.3311  0.1872
 4508TIP3    H213531   3.810   1.929   3.783  0.5612  1.2745 -2.5689
 4509TIP3   OH213532   5.098   0.105   0.396  0.5429  0.9497 -0.0304
 4509TIP3    H113533   5.170   0.067   0.447  0.4206  0.7413 -0.0139
 4509TIP3    H213534   5.082   0.042   0.326 -0.6597  0.2419  0.8639
 4510TIP3   OH213535   4.655   1.344   4.495 -0.2014 -0.2777  0.0388
 4510TIP3    H113536   4.579   1.380   4.540 -0.4583  1.3725 -1.6628
 4510TIP3    H213537   4.619   1.296   4.421  0.3569 -0.4323 -0.1358
 4511TIP3   OH213538   1.153   3.832   4.161  0.2997 -0.5452  0.0094
 4511TIP3    H113539   1.105   3.913   4.149  1.2164  0.0429  0.2763
 4511TIP3    H213540   1.120   3.774   4.092  0.9356  0.6645 -1.3302
 4512TIP3   OH213541   2.753   5.465  -0.023 -0.6081 -0.0708  0.0966
 4512TIP3    H113542   2.701   5.544  -0.010 -2.3575 -1.3656  1.2780
 4512TIP3    H213543   2.729   5.408   0.051  1.7715 -1.0963  0.1291
 4513TIP3   OH213544   1.413   3.528   2.910  0.1010  0.3064  0.0858
 4513TIP3    H113545   1.368   3.494   2.832 -0.5760  0.7138  0.2994
 4513TIP3    H213546   1.436   3.618   2.888 -0.3203  0.5063  0.4482
 4514TIP3   OH213547   6.086   3.124   2.839 -0.3919 -0.0382  0.3193
 4514TIP3    H113548   6.162   3.080   2.878  1.0276  0.8127 -1.3940
 4514TIP3    H213549   6.047   3.173   2.911  0.5063 -0.7405  1.3029
 4515TIP3   OH213550   4.979   2.202   3.108 -0.0312  0.2086 -0.3645
 4515TIP3    H113551   5.059   2.231   3.151  0.5457 -0.1073 -1.2184
 4515TIP3    H213552   4.915   2.196   3.179  0.5638  0.9341  0.2462
 4516TIP3   OH213553   1.078   3.988   2.397 -0.1462 -0.8715 -0.2044
 4516TIP3    H113554   1.047   4.066   2.443 -0.0433 -2.4179  2.5828
 4516TIP3    H213555   1.004   3.928   2.397  0.1636 -1.2628 -1.2056
 4517TIP3   OH213556   4.891   2.911   2.686 -0.5376 -0.3078  0.8445
 4517TIP3    H113557   4.893   2.818   2.666 -3.0392 -0.5316  1.5301
 4517TIP3    H213558   4.815   2.922   2.743  0.3209  1.9932  1.5995
 4518TIP3   OH213559   5.329   4.040   3.270 -0.2204 -0.1642 -0.0984
 4518TIP3    H113560   5.241   4.004   3.284 -0.7110  1.8047  2.1576
 4518TIP3    H213561   5.351   4.081   3.354  2.0100  1.1749 -1.3213
 4519TIP3   OH213562   4.846   3.812   3.102 -0.3482  0.0989  0.4304
 4519TIP3    H113563   4.803   3.779   3.023  0.0624 -3.1645  1.4966
 4519TIP3    H213564   4.793   3.887   3.128 -0.1838  1.5883 -3.1976
 4520TIP3   OH213565   1.789   3.771   0.051  0.3238 -0.0110  0.1873
 4520TIP3    H113566   1.755   3.816  -0.027 -0.0223 -1.2986 -0.4137
 4520TIP3    H213567   1.824   3.842   0.105 -2.3565  1.2928  0.3433
 4521TIP3   OH213568   5.572   5.421   0.328 -0.1250 -0.0130  0.4538
 4521TIP3    H113569   5.477   5.425   0.319 -0.1803  0.5849  1.2640
 4521TIP3    H213570   5.600   5.356   0.263 -0.8892  1.2917 -1.2050
 4522TIP3   OH213571   5.892   3.443   3.326  0.2452  0.3527 -0.0823
 4522TIP3    H113572   5.801   3.447   3.296  0.0127 -0.5588  0.5027
 4522TIP3    H213573   5.887   3.452   3.421  0.7752  0.3541 -0.0494
 4523TIP3   OH213574   2.707   2.200   0.835 -0.1501  0.5927 -0.0372
 4523TIP3    H113575   2.753   2.270   0.788 -1.6494  0.4380 -1.8110
 4523TIP3    H213576   2.646   2.246   0.892 -0.2117  0.7591 -0.2353
 4524TIP3   OH213577   4.852   2.448   3.714 -0.2342  0.7271 -0.0074
 4524TIP3    H113578   4.810   2.408   3.790 -0.5990  1.5621  0.2428
 4524TIP3    H213579   4.793   2.429   3.641 -0.6459  1.2096  0.1969
 4525TIP3   OH213580   6.237   2.818   4.900  0.3083 -0.1042  0.6778
 4525TIP3    H113581   6.305   2.886   4.903 -0.0662  0.2478  1.2342
 4525TIP3    H213582   6.187   2.839   4.821 -0.3514  0.8016  1.3225
 4526TIP3   OH213583   5.306   5.035   4.577 -0.0547  0.2391 -0.2411
 4526TIP3    H113584   5.265   4.954   4.547  0.9145 -0.2757 -0.1784
 4526TIP3    H213585   5.324   5.083   4.496  2.0919 -0.9279 -0.4932
 4527TIP3   OH213586   2.973   0.645   0.338 -0.2536 -0.0200 -0.5984
 4527TIP3    H113587   2.885   0.681   0.341  0.1260  0.8746 -0.1915
 4527TIP3    H213588   2.991   0.636   0.244 -0.3555  0.8327 -0.7033
 4528TIP3   OH213589   0.938   1.575   3.245  0.4696 -0.0181  0.1907
 4528TIP3    H113590   0.914   1.558   3.154  0.0688  0.4102  0.2095
 4528TIP3    H213591   0.876   1.523   3.296  0.2933  0.2229  0.2247
 4529TIP3   OH213592   2.562   3.452   2.166 -0.7251  0.2754  0.4688
 4529TIP3    H113593   2.651   3.420   2.148 -1.0485 -0.7026  0.6018
 4529TIP3    H213594   2.576   3.537   2.208  0.1450  0.2862  0.1729
 4530TIP3   OH213595   0.641  -0.011   2.127 -0.2333 -0.3013 -0.0997
 4530TIP3    H113596   0.681  -0.011   2.214 -0.4044 -1.3341 -0.0207
 4530TIP3    H213597   0.638   0.082   2.102  0.4885 -0.0678  0.6800
 4531TIP3   OH213598   6.064   3.730   5.232  0.2242  0.0590  0.1754
 4531TIP3    H113599   6.048   3.812   5.280  1.2667  0.6596 -0.4634
 4531TIP3    H213600   6.141   3.693   5.275  1.3679  0.7697 -1.2248
 4532TIP3   OH213601   3.527   0.651   0.691  0.0702 -0.4029  0.4586
 4532TIP3    H113602   3.492   0.725   0.741  0.8387  0.5253 -0.3450
 4532TIP3    H213603   3.566   0.593   0.756 -0.5755 -0.1204  1.1014
 4533TIP3   OH213604   6.375   4.501   3.669  0.3049  0.1770 -0.4406
 4533TIP3    H113605   6.363   4.559   3.744 -1.2455 -1.1559  0.3866
 4533TIP3    H213606   6.352   4.554   3.593 -0.6386  0.7897  0.2650
 4534TIP3   OH213607   5.078   4.389   3.160  0.3308 -0.1859  0.3946
 4534TIP3    H113608   5.155   4.360   3.207  1.0831  0.6229 -0.3257
 4534TIP3    H213609   5.027   4.438   3.224  0.0951 -1.2583  1.0375
 4535TIP3   OH213610   0.450   6.082   0.233 -0.0710  0.1573  0.1998
 4535TIP3    H113611   0.391   6.117   0.300  0.6068  0.3664  0.6862
 4535TIP3    H213612   0.419   5.992   0.219  0.0772 -0.0442  1.1338
 4536TIP3   OH213613   0.519   5.326   0.116  0.0993  0.3032  0.1416
 4536TIP3    H113614   0.471   5.387   0.061 -0.0726  0.3438  0.3355
 4536TIP3    H213615   0.527   5.370   0.201  2.2160  1.1399 -0.4501
 4537TIP3   OH213616   5.404   3.306   2.243  0.3037 -0.0070 -0.3923
 4537TIP3    H113617   5.448   3.330   2.325 -0.9521 -1.1307  0.6127
 4537TIP3    H213618   5.389   3.390   2.199 -0.5481  0.7443  1.3084
 4538TIP3   OH213619   4.511   4.140   2.301  0.3368 -0.0204  0.3416
 4538TIP3    H113620   4.443   4.190   2.347 -1.1096 -0.6656 -1.0406
 4538TIP3    H213621   4.553   4.087   2.369 -2.2064 -1.4482  0.8550
 4539TIP3   OH213622   3.017   3.339   4.342 -0.4989 -0.0648  0.4106
 4539TIP3    H113623   2.924   3.331   4.363 -0.7108  0.5791 -0.2677
 4539TIP3    H213624   3.041   3.254   4.304 -1.4152  0.5817 -1.6994
 4540TIP3   OH213625   5.507   1.247   5.165  0.1016 -0.0974 -0.9404
 4540TIP3    H113626   5.445   1.287   5.225  1.1905  1.9190 -1.0866
 4540TIP3    H213627   5.476   1.273   5.078  1.5721  1.6547 -0.9799
 4541TIP3   OH213628   5.440   2.362   4.047  0.0520  0.1131  0.4353
 4541TIP3    H113629   5.501   2.408   4.106 -2.4754  1.0952  2.3893
 4541TIP3    H213630   5.432   2.420   3.971  1.0484  0.2703  0.4341
 4542TIP3   OH213631   5.893   1.834   4.525  0.2581 -0.2506  0.2925
 4542TIP3    H113632   5.972   1.801   4.569 -0.2040 -1.5136  0.1817
 4542TIP3    H213633   5.868   1.764   4.465 -2.1172 -0.7110  1.7681
 4543TIP3   OH213634   0.321   1.828   3.403  0.1580  0.2116 -0.3457
 4543TIP3    H113635   0.314   1.752   3.460 -1.7914 -1.2796 -2.4666
 4543TIP3    H213636   0.350   1.792   3.319  1.3705  2.1326 -0.7902
 4544TIP3   OH213637   0.931   0.330   5.254 -0.5346 -0.1774 -0.1601
 4544TIP3    H113638   0.917   0.364   5.342 -0.7530 -0.7395  0.0214
 4544TIP3    H213639   0.977   0.401   5.208 -2.0778  0.8595 -0.1530
 4545TIP3   OH213640   5.647   4.095   3.559  0.0394 -0.4669 -0.0696
 4545TIP3    H113641   5.691   4.177   3.537 -0.8987  0.0466 -0.0466
 4545TIP3    H213642   5.714   4.044   3.604  1.5148 -0.9048 -2.6600
 4546TIP3   OH213643   5.753   2.102   5.150  0.4804  0.1889 -0.4630
 4546TIP3    H113644   5.833   2.096   5.202  0.2810  1.7774  0.0603
 4546TIP3    H213645   5.710   2.018   5.161  1.0199  0.0966  0.9866
 4547TIP3   OH213646   1.097   2.092   3.239 -0.0270 -0.2053  0.2998
 4547TIP3    H113647   1.042   2.015   3.222  0.3039 -0.5030  0.5571
 4547TIP3    H213648   1.044   2.166   3.212 -0.2457 -0.5459 -0.2091
 4548TIP3   OH213649   0.237   5.082   0.811  0.4332  0.4983 -0.3194
 4548TIP3    H113650   0.254   5.009   0.870  1.1679  0.0135 -1.1156
 4548TIP3    H213651   0.194   5.148   0.865 -1.1638 -0.9142  0.2019
 4549TIP3   OH213652   5.278   3.194   4.720 -0.1296 -0.0479  0.3270
 4549TIP3    H113653   5.342   3.204   4.790 -1.1730  0.1344  1.2650
 4549TIP3    H213654   5.322   3.229   4.642  0.0050  2.4213  1.4688
 4550TIP3   OH213655   5.867   4.779   4.170  0.2065 -0.0131 -0.2875
 4550TIP3    H113656   5.839   4.710   4.230 -2.9331 -0.2773 -1.9804
 4550TIP3    H213657   5.873   4.857   4.225 -0.0411 -0.8007  0.8718
 4551TIP3   OH213658   5.676   2.063   3.141  0.1817 -0.2597  0.3288
 4551TIP3    H113659   5.590   2.106   3.137  0.6642  0.7412  0.4866
 4551TIP3    H213660   5.727   2.118   3.202  1.3378 -0.1184 -0.7519
 4552TIP3   OH213661   5.507   4.387   5.007  0.3875  0.0855  0.2288
 4552TIP3    H113662   5.578   4.400   5.070  0.4085  1.1016 -0.0126
 4552TIP3    H213663   5.495   4.292   5.005  0.7992  0.0048  1.3130
 4553TIP3   OH213664   2.701   0.757   0.338  0.1322 -0.3498  0.2497
 4553TIP3    H113665   2.694   0.750   0.433  0.5539  2.0196  0.4972
 4553TIP3    H213666   2.629   0.704   0.303 -0.0044 -1.2446  1.8861
 4554TIP3   OH213667   4.514   2.550   2.276 -0.1584 -0.0975 -0.6018
 4554TIP3    H113668   4.575   2.477   2.273 -1.8631 -1.5169 -1.1304
 4554TIP3    H213669   4.475   2.546   2.364 -0.2903  0.1467 -0.6479
 4555TIP3   OH213670   2.289   3.155   4.433  0.2872 -0.2559  0.2203
 4555TIP3    H113671   2.209   3.200   4.460 -0.2727 -1.4848  0.6400
 4555TIP3    H213672   2.275   3.136   4.340 -0.4587 -1.5784  0.5870
 4556TIP3   OH213673   4.360   2.681   4.281 -0.7180  0.0346 -0.3140
 4556TIP3    H113674   4.323   2.627   4.212  0.0660 -0.4675 -0.3466
 4556TIP3    H213675   4.375   2.620   4.353  2.3184 -0.2701 -1.1524
 4557TIP3   OH213676   0.463   1.444   3.657  0.0103 -0.2040 -0.4332
 4557TIP3    H113677   0.557   1.432   3.674  0.7216  1.0218 -3.1875
 4557TIP3    H213678   0.434   1.361   3.620 -0.2326 -0.9295  1.3731
 4558TIP3   OH213679   6.341   3.023   2.964 -0.2811  0.4539  0.2847
 4558TIP3    H113680   6.343   2.940   2.917  0.4875  0.2649  0.6377
 4558TIP3    H213681   6.429   3.033   2.999 -0.3835  1.3938  0.2944
 4559TIP3   OH213682   5.876   2.618   1.452  0.2061 -0.0550  0.2518
 4559TIP3    H113683   5.859   2.527   1.429  0.0112 -0.3496  1.5778
 4559TIP3    H213684   5.872   2.621   1.547 -1.2552  1.6158  0.1637
 4560TIP3   OH213685   3.584   3.816   3.467  0.1280  0.4403 -0.0392
 4560TIP3    H113686   3.653   3.781   3.412 -0.5212 -0.7835 -0.0793
 4560TIP3    H213687   3.619   3.899   3.499  1.4504  0.0136 -0.3662
 4561TIP3   OH213688   3.367   3.269   4.849  0.3695  0.6131 -0.8891
 4561TIP3    H113689   3.352   3.340   4.787  0.8267  0.4810 -1.1575
 4561TIP3    H213690   3.353   3.189   4.799 -1.1207  0.5184 -0.3289
 4562TIP3   OH213691   6.030   2.659   5.316 -0.2403  0.8423  0.7486
 4562TIP3    H113692   6.120   2.649   5.347 -0.4837 -0.2525  1.1147
 4562TIP3    H213693   6.038   2.696   5.228  0.6344 -1.2555 -0.0810
 4563TIP3   OH213694   5.409   2.172   3.159  0.6498  0.0156 -0.0350
 4563TIP3    H113695   5.375   2.086   3.134 -0.7098  0.5944 -0.2457
 4563TIP3    H213696   5.355   2.198   3.234  1.5618  0.3563  0.5062
 4564TIP3   OH213697   3.497   5.758   0.489 -0.2345  0.1760  0.4414
 4564TIP3    H113698   3.510   5.811   0.567 -2.4995  0.5954  0.5641
 4564TIP3    H213699   3.490   5.668   0.522  0.9785  0.0952  0.4921
 4565TIP3   OH213700   2.881   1.105   0.124 -0.2656  0.1834 -0.8668
 4565TIP3    H113701   2.877   1.014   0.092  2.2254 -0.6042  0.9242
 4565TIP3    H213702   2.965   1.137   0.092 -0.8533  1.6793 -0.9251
 4566TIP3   OH213703   0.182   2.893   4.364  0.7409  0.1737  0.6302
 4566TIP3    H113704   0.097   2.921   4.398  0.6045  0.6652 -0.1096
 4566TIP3    H213705   0.195   2.806   4.402 -0.6664 -0.4381 -0.2357
 4567TIP3   OH213706   5.384   2.732   4.051 -0.1557 -0.1514  0.0642
 4567TIP3    H113707   5.458   2.678   4.077 -0.4851  0.2580  1.8972
 4567TIP3    H213708   5.424   2.811   4.015  0.2908 -0.3151  0.1962
 4568TIP3   OH213709   6.411   2.068   5.098  0.1102 -0.2401  0.0559
 4568TIP3    H113710   6.505   2.056   5.090 -0.0727 -2.8638  1.2504
 4568TIP3    H213711   6.390   2.139   5.038  2.6515 -0.5194 -1.2012
 4569TIP3   OH213712   5.445   2.523   1.322  0.1136 -0.2543 -0.1519
 4569TIP3    H113713   5.501   2.601   1.319  0.6061 -0.6588 -1.3601
 4569TIP3    H213714   5.453   2.493   1.413  0.3471  0.7911  0.1864
 4570TIP3   OH213715   1.540   5.450   5.025  0.0395  0.1030  0.3649
 4570TIP3    H113716   1.635   5.435   5.023 -0.0756 -0.5563 -0.2313
 4570TIP3    H213717   1.502   5.364   5.040 -0.5606 -0.0582 -1.8823
 4571TIP3   OH213718   5.095   2.797   3.190  0.4536 -0.5867  0.1169
 4571TIP3    H113719   5.176   2.847   3.197  0.4771 -0.6909  0.5867
 4571TIP3    H213720   5.036   2.837   3.254 -0.7528  1.1686 -2.0323
 4572TIP3   OH213721   3.734   4.055   4.443  0.3442  0.0458  0.2311
 4572TIP3    H113722   3.764   4.058   4.352 -0.6767 -0.7794 -0.1457
 4572TIP3    H213723   3.706   4.145   4.461 -0.8180 -0.1024 -0.7617
 4573TIP3   OH213724   4.797   3.374   4.090  0.2305  0.0815  0.1727
 4573TIP3    H113725   4.725   3.383   4.153 -0.5129 -2.4585 -0.2526
 4573TIP3    H213726   4.846   3.456   4.098 -2.2444  1.5439  1.0409
 4574TIP3   OH213727   5.657   3.939   0.208 -0.3167  0.2028 -0.0856
 4574TIP3    H113728   5.613   4.021   0.231 -0.7508 -0.5740  1.9315
 4574TIP3    H213729   5.602   3.902   0.139 -1.4892  0.4366  0.6963
 4575TIP3   OH213730   0.846   3.172   3.438  0.1208 -0.3190 -0.6164
 4575TIP3    H113731   0.809   3.253   3.402 -2.5350 -0.7073  1.1254
 4575TIP3    H213732   0.772   3.112   3.445  1.1441 -1.3320  2.4604
 4576TIP3   OH213733   2.378   5.087   0.422  0.3162  0.4160 -0.0782
 4576TIP3    H113734   2.401   5.174   0.389 -0.2220  0.6811  0.2436
 4576TIP3    H213735   2.438   5.027   0.376  0.5137  0.9268 -0.4892
 4577TIP3   OH213736   4.134   4.751   3.353  0.1659 -0.7384 -0.4367
 4577TIP3    H113737   4.073   4.683   3.384 -0.6627  0.3213  0.3116
 4577TIP3    H213738   4.203   4.753   3.419  1.2291 -2.1780 -1.4607
 4578TIP3   OH213739   4.614   1.696   4.652 -0.0615 -0.1191 -0.3354
 4578TIP3    H113740   4.584   1.748   4.726 -1.4432 -1.4869  0.0851
 4578TIP3    H213741   4.705   1.723   4.640 -0.0555  0.6998  1.3415
 4579TIP3   OH213742   0.268   2.007   3.609  0.5299  0.2063  0.2901
 4579TIP3    H113743   0.210   2.058   3.553 -0.5655 -1.7753 -0.4615
 4579TIP3    H213744   0.309   1.944   3.550 -0.1383 -1.4734  1.5640
 4580TIP3   OH213745   6.397   3.310   2.237 -0.0815 -0.3912  0.2569
 4580TIP3    H113746   6.448   3.243   2.283 -0.3644 -0.1046  0.9923
 4580TIP3    H213747   6.325   3.331   2.297 -0.2672  0.2158 -0.1770
 4581TIP3   OH213748   3.944   4.498   4.471  0.2185 -0.2915  0.0482
 4581TIP3    H113749   3.936   4.577   4.418  0.5576  0.4699  1.1247
 4581TIP3    H213750   3.945   4.529   4.562  0.2494 -1.5328  0.4890
 4582TIP3   OH213751   6.263   3.770   3.454  0.0203  0.3609 -0.1803
 4582TIP3    H113752   6.270   3.676   3.470 -1.7002  0.2814  0.1442
 4582TIP3    H213753   6.284   3.780   3.362  0.7922 -0.2683 -0.0807
 4583TIP3   OH213754   6.206   2.991   4.358  0.1077  0.1114  0.4493
 4583TIP3    H113755   6.117   2.977   4.326 -0.0875  1.6708  0.2752
 4583TIP3    H213756   6.254   3.024   4.283  0.8946 -0.8661  0.5027
 4584TIP3   OH213757   5.222   4.252   1.707 -0.2925  0.2519 -0.1697
 4584TIP3    H113758   5.275   4.239   1.785 -0.0818 -0.8028 -0.4761
 4584TIP3    H213759   5.201   4.345   1.707  2.5614  0.9200 -0.6941
 4585TIP3   OH213760   0.535   3.386   3.315 -0.5377 -0.2817  0.0624
 4585TIP3    H113761   0.521   3.470   3.360  0.4938 -0.5275  0.8663
 4585TIP3    H213762   0.630   3.379   3.306 -0.6951 -0.6055 -1.4910
 4586TIP3   OH213763   0.480   5.911   2.497  0.1144  0.1406 -0.1527
 4586TIP3    H113764   0.422   5.863   2.557  1.0728 -2.5973 -1.3386
 4586TIP3    H213765   0.432   5.913   2.414  1.3182 -1.4313 -0.9208
 4587TIP3   OH213766   5.763   3.895   4.470 -0.8547 -0.6590 -0.1178
 4587TIP3    H113767   5.806   3.814   4.500  0.4572  0.8196  2.2119
 4587TIP3    H213768   5.720   3.871   4.388  0.4801 -3.4197 -0.0668
 4588TIP3   OH213769   6.469   1.559   1.685  0.0935 -0.3473  0.5675
 4588TIP3    H113770   6.532   1.520   1.745  1.1953  1.5167  0.6725
 4588TIP3    H213771   6.499   1.534   1.598  1.9321  1.8199  0.5362
 4589TIP3   OH213772   0.613   0.865   0.620  0.4736 -0.1953  0.0051
 4589TIP3    H113773   0.611   0.770   0.609  1.4780 -0.2853  0.4434
 4589TIP3    H213774   0.634   0.899   0.533 -0.1609 -0.3621 -0.2102
 4590TIP3   OH213775   5.535   1.764   3.035  0.2977  0.1435 -0.4973
 4590TIP3    H113776   5.547   1.854   3.063 -1.2108 -0.3689  1.9608
 4590TIP3    H213777   5.611   1.718   3.070 -2.0393 -0.6721  3.8198
 4591TIP3   OH213778   5.434   3.119   3.513 -0.8913  0.0467 -0.4479
 4591TIP3    H113779   5.446   3.214   3.509  1.2362 -0.2831 -3.0155
 4591TIP3    H213780   5.516   3.086   3.548 -1.3474 -0.9342 -0.2894
 4592TIP3   OH213781   5.223   2.685   1.740 -0.2727  0.0689  0.2539
 4592TIP3    H113782   5.308   2.709   1.704 -0.2632  0.1071  0.3012
 4592TIP3    H213783   5.213   2.741   1.817  0.0046 -0.5031  0.7043
 4593TIP3   OH213784   5.187   1.598   2.830  0.7586 -0.3100  0.3127
 4593TIP3    H113785   5.248   1.546   2.883  3.3023  0.6819 -1.5469
 4593TIP3    H213786   5.198   1.687   2.862  0.2782 -0.1241 -0.0439
 4594TIP3   OH213787   5.019   4.584   2.474  0.8160  0.5903  0.4936
 4594TIP3    H113788   5.018   4.624   2.386 -2.0944 -1.1702 -0.3241
 4594TIP3    H213789   4.972   4.647   2.529  1.1469  0.8874  0.4442
 4595TIP3   OH213790   3.820   0.547   5.263 -0.2326  0.2441  0.3409
 4595TIP3    H113791   3.785   0.613   5.323 -0.4181  0.1455  0.3427
 4595TIP3    H213792   3.747   0.486   5.250 -0.2235  0.3197 -0.0650
 4596TIP3   OH213793   5.206   2.653   4.718 -0.4845  0.4811 -0.0942
 4596TIP3    H113794   5.157   2.573   4.700 -2.4411  0.9985  2.6619
 4596TIP3    H213795   5.177   2.714   4.650 -1.5609 -0.0745 -0.1420
 4597TIP3   OH213796   5.040   2.619   3.806  0.3096 -0.4028  0.0229
 4597TIP3    H113797   4.974   2.560   3.771  0.5274 -0.4106 -0.3837
 4597TIP3    H213798   4.991   2.683   3.858 -0.0223 -0.3725 -0.3248
 4598TIP3   OH213799   0.630   3.011   3.494  0.2396  0.1106 -0.1123
 4598TIP3    H113800   0.669   2.926   3.472 -0.6832 -0.5166  0.6966
 4598TIP3    H213801   0.627   3.013   3.589  0.4253  1.1352 -0.1182
 4599TIP3   OH213802   4.320   2.892   3.268  0.1032  0.2076 -0.0418
 4599TIP3    H113803   4.305   2.813   3.217  0.5223 -0.3981  0.7574
 4599TIP3    H213804   4.291   2.869   3.357 -0.0550  1.0440  0.1237
 4600TIP3   OH213805   3.128   2.840   4.247  0.1401 -0.5262 -0.5331
 4600TIP3    H113806   3.211   2.821   4.203 -0.0461 -1.6005 -0.4523
 4600TIP3    H213807   3.062   2.823   4.180  0.0766  2.7373 -1.3695
 4601TIP3   OH213808   5.842   1.956   3.869  0.0028 -0.1332  0.1428
 4601TIP3    H113809   5.849   1.963   3.964 -0.8212  0.5837  0.1684
 4601TIP3    H213810   5.837   1.862   3.851 -0.5947 -0.2470  0.8765
 4602TIP3   OH213811   3.199   1.462   3.930  0.0550 -0.2738 -0.6591
 4602TIP3    H113812   3.287   1.424   3.930  0.1735 -0.2508  3.0357
 4602TIP3    H213813   3.159   1.427   4.010 -2.4053  1.6669 -1.0023
 4603TIP3   OH213814   4.554   5.021   3.274  0.8644 -0.2345 -0.0737
 4603TIP3    H113815   4.625   5.073   3.237  2.3099 -2.1658 -0.0447
 4603TIP3    H213816   4.520   4.970   3.201  1.4442 -1.4869  0.5276
 4604TIP3   OH213817   3.041   0.247   0.908  0.5726  0.7921 -0.1365
 4604TIP3    H113818   2.950   0.262   0.935 -0.2970 -1.8698 -1.3496
 4604TIP3    H213819   3.050   0.294   0.825 -0.0872  0.1302 -0.5957
 4605TIP3   OH213820   5.697   1.825   5.159 -0.0876 -0.3657  0.3851
 4605TIP3    H113821   5.680   1.801   5.250  0.2780 -0.6548  0.3766
 4605TIP3    H213822   5.614   1.807   5.114 -1.3352  2.8181  1.2497
 4606TIP3   OH213823   6.280   1.928   3.588  0.1898  0.0875 -0.2841
 4606TIP3    H113824   6.279   1.979   3.669 -0.3265  0.2504 -0.3865
 4606TIP3    H213825   6.341   1.857   3.604  0.0837  0.1190  0.2486
 4607TIP3   OH213826   3.558   5.150   1.499  0.3453  0.0721 -0.0031
 4607TIP3    H113827   3.494   5.216   1.526 -0.2784 -1.0538  1.2959
 4607TIP3    H213828   3.506   5.071   1.488  1.2743 -0.4661 -0.5122
 4608TIP3   OH213829   4.170   4.012   4.038 -0.3752 -0.2450  0.0637
 4608TIP3    H113830   4.262   4.015   4.011 -0.5928 -1.8959 -0.9076
 4608TIP3    H213831   4.154   4.098   4.077  1.2028  0.5614 -1.0045
 4609TIP3   OH213832   4.326   3.166   4.315  0.4110  0.2339  0.3403
 4609TIP3    H113833   4.416   3.157   4.348  0.1404  1.6138  1.4827
 4609TIP3    H213834   4.313   3.089   4.260  1.5613 -1.0830  1.8803
 4610TIP3   OH213835   4.548   5.073   4.266  0.0399 -0.2616  0.4483
 4610TIP3    H113836   4.537   5.039   4.355  0.1270 -1.0711  0.1524
 4610TIP3    H213837   4.630   5.123   4.270 -1.0057  1.4150  1.3310
 4611TIP3   OH213838   6.431   3.557   4.083 -0.0487  0.0739  0.5715
 4611TIP3    H113839   6.354   3.550   4.140 -0.2448 -1.8226  0.1017
 4611TIP3    H213840   6.500   3.590   4.141 -0.8292  0.3349  1.3703
 4612TIP3   OH213841   6.111   1.936   3.095  0.0230 -0.0160 -0.0635
 4612TIP3    H113842   6.172   1.881   3.047  0.9938  2.1864 -1.4030
 4612TIP3    H213843   6.152   2.023   3.098 -1.6331  0.7709  1.6564
 4613TIP3   OH213844   6.458   4.406   4.355  0.4072 -0.2044  0.1520
 4613TIP3    H113845   6.409   4.331   4.387 -0.0826  0.6299  1.4103
 4613TIP3    H213846   6.534   4.413   4.414  0.6409  0.0768 -0.1756
 4614TIP3   OH213847   4.525   3.321   5.143 -0.4206 -0.5900 -0.1660
 4614TIP3    H113848   4.612   3.346   5.112 -1.1166  2.6609  0.3386
 4614TIP3    H213849   4.532   3.227   5.162  2.7070 -0.5639 -0.9743
 4615TIP3   OH213850   5.492   4.672   4.227  0.0206  0.1962 -0.4305
 4615TIP3    H113851   5.460   4.760   4.206 -0.1165  0.5186  1.0869
 4615TIP3    H213852   5.459   4.617   4.155  1.8112  1.6964 -2.4663
 4616TIP3   OH213853   1.477   5.074   0.465  0.1560 -0.7087 -0.2204
 4616TIP3    H113854   1.421   4.998   0.446  0.5992 -0.6660 -1.7602
 4616TIP3    H213855   1.556   5.037   0.504 -0.9344 -0.7671  2.0232
 4617TIP3   OH213856   5.418   4.945   2.988 -0.1912  0.2050  0.3542
 4617TIP3    H113857   5.426   5.009   3.059  1.6964 -0.2649  0.5967
 4617TIP3    H213858   5.478   4.874   3.013 -0.8393 -0.7769 -0.8396
 4618TIP3   OH213859   5.763   2.392   4.325  0.1454 -0.3526  0.1247
 4618TIP3    H113860   5.790   2.444   4.400  0.5649 -3.1676  1.9896
 4618TIP3    H213861   5.801   2.306   4.340  0.5970 -0.8988 -3.5502
 4619TIP3   OH213862   5.084   1.454   5.086 -0.1205  0.6462  0.0766
 4619TIP3    H113863   5.025   1.413   5.023  0.5618  1.0507 -0.8308
 4619TIP3    H213864   5.164   1.472   5.036  0.7868  0.0666  1.3064
 4620TIP3   OH213865   0.745   0.824   3.866  0.4803 -0.0477  0.3893
 4620TIP3    H113866   0.817   0.879   3.898  1.4239 -1.1364  0.2005
 4620TIP3    H213867   0.695   0.801   3.945 -0.3003  1.5925  0.3844
 4621TIP3   OH213868   0.426   5.012   1.614 -0.3177 -0.1400  0.0984
 4621TIP3    H113869   0.480   4.953   1.667 -1.1532 -1.4539 -0.4991
 4621TIP3    H213870   0.336   4.982   1.630 -0.6729  0.3737 -0.9497
 4622TIP3   OH213871   4.722   3.087   4.822  0.1308  0.0482  0.9922
 4622TIP3    H113872   4.682   3.011   4.780 -0.4309  1.5303 -1.2043
 4622TIP3    H213873   4.813   3.087   4.791  0.1142  0.3149  0.9447
 4623TIP3   OH213874   0.538   3.931   3.534 -0.0076  0.1716 -0.4512
 4623TIP3    H113875   0.450   3.957   3.506 -0.2526  0.7083  0.7781
 4623TIP3    H213876   0.582   4.014   3.553  0.0275 -0.1936  1.1031
 4624TIP3   OH213877   4.201   0.559   0.569 -0.3109  0.0434  0.3463
 4624TIP3    H113878   4.269   0.593   0.627  1.1211  0.3066 -1.4521
 4624TIP3    H213879   4.202   0.464   0.584  0.3071  0.0706  0.5043
 4625TIP3   OH213880   4.280   0.841   0.129 -0.1878  0.0925  0.3811
 4625TIP3    H113881   4.339   0.847   0.054  0.0445 -0.3152  0.5321
 4625TIP3    H213882   4.297   0.755   0.167 -0.0547  0.4312  1.1054
 4626TIP3   OH213883   5.499   4.119   5.036 -0.3305 -0.3495 -0.0800
 4626TIP3    H113884   5.491   4.092   4.944  0.0015 -0.0271 -0.2033
 4626TIP3    H213885   5.537   4.043   5.080 -1.0129 -0.7087 -0.1022
 4627TIP3   OH213886   0.729   4.626   1.257 -0.4296 -0.7530  0.0067
 4627TIP3    H113887   0.712   4.622   1.351  1.6042  0.3944  0.4580
 4627TIP3    H213888   0.644   4.610   1.216 -1.3548 -1.1744  2.0376
 4628TIP3   OH213889   6.255   2.349   3.761  0.0344  0.2132  0.0607
 4628TIP3    H113890   6.203   2.352   3.841 -0.1547  0.9923 -0.0882
 4628TIP3    H213891   6.267   2.441   3.736 -1.1986 -0.0503 -1.6276
 4629TIP3   OH213892   5.430   1.882   3.827  0.6181 -0.0608  0.1485
 4629TIP3    H113893   5.463   1.794   3.808 -0.4431 -0.1308 -1.4387
 4629TIP3    H213894   5.346   1.886   3.782 -0.0767  1.2265  1.5267
 4630TIP3   OH213895   5.167   2.361   4.353 -0.4701 -0.0278  0.1017
 4630TIP3    H113896   5.251   2.407   4.350  0.5708 -1.9190 -0.3466
 4630TIP3    H213897   5.128   2.375   4.267  1.1711 -2.3585 -1.0799
 4631TIP3   OH213898   3.958   5.929   4.539  0.0038  0.2131 -0.2326
 4631TIP3    H113899   3.928   5.877   4.614  1.0212  0.2301  0.1941
 4631TIP3    H213900   3.935   5.875   4.463 -0.4750 -0.0862  0.1172
 4632TIP3   OH213901   6.038   4.201   2.680 -0.4918 -0.0870  0.4651
 4632TIP3    H113902   5.971   4.147   2.722 -0.2228 -1.2057 -0.5261
 4632TIP3    H213903   5.993   4.240   2.605  0.3616 -2.1160 -1.1490
 4633TIP3   OH213904   4.475   3.754   2.794  0.7735 -0.0302  0.3195
 4633TIP3    H113905   4.477   3.769   2.889  0.0128  0.8137  0.2090
 4633TIP3    H213906   4.461   3.841   2.756 -0.7244 -0.6102 -0.4789
 4634TIP3   OH213907   0.566   2.397   4.506  0.2103 -0.4087  0.6114
 4634TIP3    H113908   0.607   2.392   4.420 -0.3375 -2.3648  0.4501
 4634TIP3    H213909   0.478   2.430   4.489  0.0953 -0.8166  0.4083
 4635TIP3   OH213910   5.753   2.859   4.635 -0.0626 -0.3791 -0.2823
 4635TIP3    H113911   5.783   2.936   4.683 -1.7656  0.8493 -1.1293
 4635TIP3    H213912   5.679   2.826   4.687 -0.3382 -0.5089 -0.7580
 4636TIP3   OH213913   6.465   2.321   3.094  0.2417 -0.4093 -0.5253
 4636TIP3    H113914   6.480   2.297   3.003  0.4812  0.2983 -0.6722
 4636TIP3    H213915   6.432   2.411   3.090  0.7223 -0.2034  0.1169
 4637TIP3   OH213916   6.030   3.803   4.050  0.0471  0.2534  0.3140
 4637TIP3    H113917   6.066   3.775   4.134 -0.5220  0.5662  0.6655
 4637TIP3    H213918   6.092   3.770   3.985 -0.5562 -1.7379  0.7154
 4638TIP3   OH213919   4.805   2.051   4.475 -0.1338 -0.6324  0.0746
 4638TIP3    H113920   4.785   2.067   4.567  0.4581 -1.0843  0.2827
 4638TIP3    H213921   4.761   2.123   4.429  0.9651  0.5730  0.8563
 4639TIP3   OH213922   6.398   2.102   3.787  0.1813  0.4590 -0.7881
 4639TIP3    H113923   6.335   2.173   3.797 -0.4621 -0.2113 -0.0515
 4639TIP3    H213924   6.466   2.139   3.731 -0.2111  1.6106 -0.5244
 4640TIP3   OH213925   5.125   2.841   4.136 -0.2126 -0.3124 -0.0898
 4640TIP3    H113926   5.199   2.793   4.099  0.1208 -0.3856  0.6466
 4640TIP3    H213927   5.123   2.923   4.088  0.7619 -0.0324  0.3311
 4641TIP3   OH213928   4.353   3.609   1.711 -0.2873  0.0085 -0.6374
 4641TIP3    H113929   4.413   3.580   1.780 -0.0735 -0.0521 -0.8454
 4641TIP3    H213930   4.399   3.587   1.629  0.3873  1.8959 -0.8121
 4642TIP3   OH213931   5.436   3.487   2.777  0.6598  0.5746 -0.0839
 4642TIP3    H113932   5.377   3.558   2.753 -3.1926 -3.1812 -2.5130
 4642TIP3    H213933   5.391   3.441   2.848  2.2102 -0.5031  0.2372
 4643TIP3   OH213934   5.710   4.761   3.301  0.0470 -0.1955  0.0873
 4643TIP3    H113935   5.660   4.781   3.380  0.9210 -0.6938  0.7769
 4643TIP3    H213936   5.718   4.846   3.256 -1.0159 -0.0285  0.1887
 4644TIP3   OH213937   4.737   5.353   3.574 -0.5827  0.6184  0.2960
 4644TIP3    H113938   4.719   5.390   3.487  0.7754 -1.4092 -0.8830
 4644TIP3    H213939   4.663   5.294   3.590 -1.0979  1.3775  0.7689
 4645TIP3   OH213940   5.504   2.914   4.849  0.1429  0.7011  0.2126
 4645TIP3    H113941   5.483   3.006   4.866 -1.5462  0.2046  0.8763
 4645TIP3    H213942   5.450   2.865   4.910  0.1141 -0.7937 -0.9864
 4646TIP3   OH213943   5.659   2.882   4.314  0.0281  0.9800 -0.1970
 4646TIP3    H113944   5.745   2.882   4.355 -0.5521 -0.8778  1.1132
 4646TIP3    H213945   5.598   2.897   4.387 -1.0168 -2.1754 -0.3666
 4647TIP3   OH213946   5.329   3.746   2.920 -0.1868  0.2907  0.2270
 4647TIP3    H113947   5.359   3.837   2.921 -0.0576  0.2401  1.1510
 4647TIP3    H213948   5.249   3.748   2.867  1.4594  0.4115 -2.3765
 4648TIP3   OH213949   5.986   4.112   5.161  0.0760  0.1037 -0.4461
 4648TIP3    H113950   6.056   4.064   5.206 -0.5318  0.3591  0.7775
 4648TIP3    H213951   5.930   4.144   5.231 -0.8366  0.5839 -1.3887
 4649TIP3   OH213952   3.874   0.810   5.177 -0.1612  0.1345 -0.5665
 4649TIP3    H113953   3.896   0.725   5.214  0.2548  0.3366 -0.3436
 4649TIP3    H213954   3.879   0.871   5.252 -1.4482  0.1891 -0.5169
 4650TIP3   OH213955   1.123   0.492   4.779  0.2708 -0.4176  0.3669
 4650TIP3    H113956   1.073   0.536   4.848  0.1210  0.1368 -0.0918
 4650TIP3    H213957   1.057   0.444   4.730 -0.2352  2.3761 -1.8274
 4651TIP3   OH213958   4.034   3.244   2.331 -0.5403 -0.4436  0.4502
 4651TIP3    H113959   4.103   3.240   2.265 -1.3557 -0.4905 -0.4114
 4651TIP3    H213960   3.955   3.218   2.285 -1.2496  0.2081  1.2765
 4652TIP3   OH213961   6.491   4.901   0.974  0.6550 -0.4442  0.4653
 4652TIP3    H113962   6.570   4.920   1.025  0.5456 -2.1850  1.3451
 4652TIP3    H213963   6.421   4.899   1.039  0.3490 -1.6554  0.1153
 4653TIP3   OH213964   3.664   1.544   3.391 -0.1600  0.0606 -0.4390
 4653TIP3    H113965   3.733   1.491   3.351  0.3541  0.5909 -0.2544
 4653TIP3    H213966   3.644   1.611   3.325  2.0296  2.1161  0.9210
 4654TIP3   OH213967   1.704   4.805  -0.001  0.3327 -0.4965 -0.1816
 4654TIP3    H113968   1.791   4.781  -0.035  0.3608 -0.5146 -0.0960
 4654TIP3    H213969   1.711   4.793   0.094 -0.4128 -2.5937 -0.3518
 4655TIP3   OH213970   5.977   1.980   4.245 -0.0561  0.4085 -0.1306
 4655TIP3    H113971   5.976   1.927   4.325  1.8896 -0.0881 -0.4162
 4655TIP3    H213972   6.015   2.064   4.272 -0.0813  0.4979 -0.3770
 4656TIP3   OH213973   4.891   1.339   3.682  0.2772 -1.3341  0.1644
 4656TIP3    H113974   4.932   1.410   3.731  1.3582 -1.2084 -0.8982
 4656TIP3    H213975   4.857   1.279   3.749 -1.0340  0.3843  1.0824
 4657TIP3   OH213976   3.431   4.180   4.657 -0.0877  0.0749  0.0688
 4657TIP3    H113977   3.451   4.207   4.567  0.2030  2.0324  0.7008
 4657TIP3    H213978   3.340   4.150   4.654  0.2747 -0.9454 -1.0968
 4658TIP3   OH213979   2.199   0.409   4.874 -0.0827 -0.3524 -0.0031
 4658TIP3    H113980   2.215   0.486   4.929  0.7586  0.5011 -1.3862
 4658TIP3    H213981   2.112   0.379   4.899 -0.7296  1.4852  0.0756
 4659TIP3   OH213982   3.485   3.289   4.422 -0.0819  0.2441  0.5079
 4659TIP3    H113983   3.427   3.365   4.423  1.2069  1.2953  3.7909
 4659TIP3    H213984   3.452   3.233   4.492 -0.3164 -1.7330 -1.1300
 4660TIP3   OH213985   2.150   5.625   5.285  0.2313  0.2006  0.4244
 4660TIP3    H113986   2.216   5.660   5.226  0.2708 -1.6700 -0.6852
 4660TIP3    H213987   2.189   5.544   5.320 -2.1408 -1.9528 -1.6779
 4661TIP3   OH213988   2.310   0.376   0.121  0.7201  0.0574 -0.2378
 4661TIP3    H113989   2.331   0.356   0.030 -0.2707 -0.4249 -0.3579
 4661TIP3    H213990   2.335   0.296   0.169  1.3946  0.3708 -0.0603
 4662TIP3   OH213991   1.318   4.517   0.365 -0.5081  0.0884 -0.1123
 4662TIP3    H113992   1.381   4.457   0.325  1.3728  1.9963 -0.0589
 4662TIP3    H213993   1.359   4.545   0.447 -2.6759 -0.8282  1.3516
 4663TIP3   OH213994   5.673   0.008   5.173  0.3110 -0.4853  0.4098
 4663TIP3    H113995   5.595  -0.019   5.124 -0.6240  2.3395  0.2717
 4663TIP3    H213996   5.733   0.042   5.107  0.8914 -0.8475  0.7421
 4664TIP3   OH213997   2.591   3.072   5.138 -0.9460  0.3784  0.2833
 4664TIP3    H113998   2.587   3.101   5.229 -1.0240  0.5697  0.2190
 4664TIP3    H213999   2.508   3.026   5.123 -0.3735 -0.8160  0.7018
 4665TIP3   OH214000   4.615   4.036   3.201 -0.0977 -0.3122 -0.4487
 4665TIP3    H114001   4.629   3.988   3.283 -1.2292 -1.1012 -0.7042
 4665TIP3    H214002   4.586   4.123   3.230 -0.0342 -0.4352 -0.0075
 4666TIP3   OH214003   4.792   4.454   3.351  0.6544  0.3440 -0.3782
 4666TIP3    H114004   4.747   4.418   3.428  2.2103 -0.6687  0.1153
 4666TIP3    H214005   4.761   4.401   3.278  2.7086 -1.9581  0.3045
 4667TIP3   OH214006   5.405   1.974   4.535  0.2625  0.3842  0.0478
 4667TIP3    H114007   5.337   1.917   4.498  0.3546 -0.9941  1.9181
 4667TIP3    H214008   5.460   1.997   4.460 -0.6131 -0.8167 -0.9956
 4668TIP3   OH214009   4.108   5.656   3.120 -0.0690  0.8880 -0.3218
 4668TIP3    H114010   4.127   5.566   3.146 -4.2704  0.2126  0.6638
 4668TIP3    H214011   4.085   5.650   3.027 -2.6223  0.5382  0.3043
 4669TIP3   OH214012   4.343   5.139   3.816  0.6635  0.2265 -0.0849
 4669TIP3    H114013   4.367   5.209   3.755 -2.0975  1.5626  0.2964
 4669TIP3    H214014   4.402   5.153   3.891  0.9129  1.4484 -0.4869
 4670TIP3   OH214015   0.834   4.615   0.530 -0.4130  0.0990 -0.0416
 4670TIP3    H114016   0.923   4.625   0.495 -1.0840  0.3192 -1.7507
 4670TIP3    H214017   0.847   4.583   0.619  1.3883  0.4947 -0.1360
 4671TIP3   OH214018   3.489   4.884   3.957  0.1045 -0.1221  0.2865
 4671TIP3    H114019   3.494   4.978   3.972  0.6200 -0.0368 -0.4307
 4671TIP3    H214020   3.479   4.875   3.862 -0.3421 -0.7760  0.3906
 4672TIP3   OH214021   6.120   4.392   0.579 -0.4855 -0.2995  0.7458
 4672TIP3    H114022   6.112   4.468   0.637  0.1753  0.9242 -0.7336
 4672TIP3    H214023   6.097   4.317   0.634  0.6591  0.7751  2.7357
 4673TIP3   OH214024   1.598   1.680   1.735  0.1759 -0.0223  0.1988
 4673TIP3    H114025   1.621   1.668   1.827  0.6997 -0.9736 -0.0448
 4673TIP3    H214026   1.545   1.604   1.713 -0.8280  0.7277 -0.0219
 4674TIP3   OH214027   6.463   2.458   2.700 -0.6878 -0.0202 -0.1728
 4674TIP3    H114028   6.509   2.391   2.649  2.3630  0.1666  2.1705
 4674TIP3    H214029   6.482   2.540   2.655  1.9923  0.1433  1.1333
 4675TIP3   OH214030   4.738   1.771   3.492  0.1049 -0.4173  0.2504
 4675TIP3    H114031   4.666   1.834   3.488 -0.7028 -1.3701 -0.7684
 4675TIP3    H214032   4.739   1.741   3.583 -0.6776 -0.2640  0.3110
 4676TIP3   OH214033  -0.015   5.732   4.027  0.2365 -0.1888 -0.0212
 4676TIP3    H114034   0.067   5.737   3.978 -0.2787  1.2746 -0.7840
 4676TIP3    H214035  -0.035   5.639   4.033  0.3470 -0.4027 -2.5404
 4677TIP3   OH214036   2.292   1.408   5.201 -0.3190 -0.3002 -0.6735
 4677TIP3    H114037   2.370   1.355   5.211 -0.1835 -0.1284 -0.8191
 4677TIP3    H214038   2.241   1.365   5.132  0.0007  0.0097 -1.1049
 4678TIP3   OH214039   6.034   2.987   4.117  0.8477 -0.3003  0.0557
 4678TIP3    H114040   6.015   2.908   4.067  0.4999  0.7410 -1.4968
 4678TIP3    H214041   6.119   3.017   4.085  0.5754  0.4363 -0.0049
 4679TIP3   OH214042   2.905   2.925   0.392  0.3152  0.1986  0.0848
 4679TIP3    H114043   2.875   2.836   0.412 -1.1231  0.3818 -1.2333
 4679TIP3    H214044   2.945   2.918   0.305  0.4755  0.7765  0.1094
 4680TIP3   OH214045   4.719   3.777   3.894  0.5155  0.1520 -0.3578
 4680TIP3    H114046   4.691   3.716   3.825 -1.6276  0.0074  0.6139
 4680TIP3    H214047   4.687   3.862   3.865 -0.8394  0.0097  0.6975
 4681TIP3   OH214048   4.146   2.250   4.061  0.2799  0.1319  0.1822
 4681TIP3    H114049   4.149   2.187   4.133  0.6561 -0.0308  0.0267
 4681TIP3    H214050   4.215   2.220   4.001 -0.2477  0.0679 -0.4004
 4682TIP3   OH214051   0.163   5.310   0.961 -0.2508  0.1909  0.3210
 4682TIP3    H114052   0.169   5.383   0.900  1.7666 -0.1465  0.0869
 4682TIP3    H214053   0.179   5.349   1.047  0.3203  0.1144  0.2512
 4683TIP3   OH214054   6.304   1.468   3.473 -0.1322  0.3939  0.1864
 4683TIP3    H114055   6.349   1.387   3.499 -1.4837 -0.2267  0.6254
 4683TIP3    H214056   6.257   1.495   3.552 -0.0076  1.3920 -0.0821
 4684TIP3   OH214057   5.015   3.239   2.935 -0.1614  0.0394 -0.1724
 4684TIP3    H114058   4.974   3.293   3.001  0.0078  1.2341 -1.0214
 4684TIP3    H214059   5.106   3.268   2.933 -0.0564 -0.3015 -0.6071
 4685TIP3   OH214060   4.457   0.434   4.406  0.4730  0.2445 -0.0749
 4685TIP3    H114061   4.382   0.387   4.444 -1.8720 -0.4871 -5.1317
 4685TIP3    H214062   4.525   0.367   4.396  0.1354 -0.1671  0.3867
 4686TIP3   OH214063   0.431   5.296   1.311 -0.2171  0.2594 -0.1240
 4686TIP3    H114064   0.434   5.205   1.281  1.0848  0.7619 -1.6009
 4686TIP3    H214065   0.504   5.302   1.372 -2.4357 -0.5767  2.7056
 4687TIP3   OH214066   4.881   5.435   4.317  0.4908  0.3126 -0.3209
 4687TIP3    H114067   4.815   5.373   4.348  1.6494 -0.5832  0.4067
 4687TIP3    H214068   4.920   5.469   4.398 -0.5950  2.5063 -0.7043
 4688TIP3   OH214069   1.365   5.135   4.556 -0.1023 -0.4669 -0.1319
 4688TIP3    H114070   1.340   5.062   4.614 -0.7607 -0.6865 -0.6872
 4688TIP3    H214071   1.312   5.209   4.586  1.5051  0.1548  1.2770
 4689TIP3   OH214072   1.901   3.543   4.695 -0.4315  0.5907 -0.5358
 4689TIP3    H114073   1.840   3.471   4.681 -0.3959  0.5680 -0.5743
 4689TIP3    H214074   1.845   3.619   4.710 -0.4747  0.4431  0.0891
 4690TIP3   OH214075   0.556   4.709   2.734  0.3288 -0.0451 -0.0107
 4690TIP3    H114076   0.515   4.771   2.794  2.0718  0.1688  0.9771
 4690TIP3    H214077   0.648   4.734   2.732  0.8809 -1.9968 -0.3666
 4691TIP3   OH214078   0.157   3.275   2.534  0.9050 -0.4282 -0.4600
 4691TIP3    H114079   0.236   3.223   2.551  1.5476  0.4177 -0.8371
 4691TIP3    H214080   0.152   3.337   2.606  1.3516  0.4332 -1.1596
 4692TIP3   OH214081   5.953   2.894   3.407  0.3851 -0.2194 -0.1268
 4692TIP3    H114082   5.913   2.980   3.417  2.0363  0.4038  1.3981
 4692TIP3    H214083   6.015   2.905   3.335 -2.5021 -1.3577 -2.9380
 4693TIP3   OH214084   5.929   2.769   4.443  0.4616 -0.8844 -0.1187
 4693TIP3    H114085   5.871   2.788   4.517  1.1900 -1.5595  0.6359
 4693TIP3    H214086   5.930   2.674   4.437 -0.0474 -0.8133 -1.3721
 4694TIP3   OH214087   0.624   3.066   5.205  0.1406 -0.0853  0.3421
 4694TIP3    H114088   0.687   3.058   5.276  1.0278 -0.4653 -0.4708
 4694TIP3    H214089   0.673   3.041   5.127 -1.0274 -0.4167 -0.2995
 4695TIP3   OH214090   2.631   6.080   4.046 -0.0551  0.0853  0.3124
 4695TIP3    H114091   2.701   6.140   4.020  0.9964 -1.2566 -0.0225
 4695TIP3    H214092   2.619   6.024   3.969 -0.4838 -0.6344  0.9048
 4696TIP3   OH214093   5.474   4.079   4.758 -0.6615 -0.7626  0.0009
 4696TIP3    H114094   5.408   4.061   4.691  2.5814 -2.4206 -2.9399
 4696TIP3    H214095   5.516   4.160   4.727 -1.2070  0.2294  1.7955
 4697TIP3   OH214096   5.952   4.981   3.770 -0.2833  0.0623  0.2317
 4697TIP3    H114097   5.941   5.070   3.739  3.3313  0.4225 -0.1869
 4697TIP3    H214098   5.871   4.936   3.743 -1.1927  2.6292 -1.4782
 4698TIP3   OH214099   4.555   0.500   5.002 -0.0865 -0.4750 -0.0360
 4698TIP3    H114100   4.518   0.425   5.048 -1.6258  0.5481  0.4181
 4698TIP3    H214101   4.527   0.576   5.053  1.4685  0.4274 -0.4831
 4699TIP3   OH214102   0.349   2.657   3.587  0.2215 -0.4825  0.7057
 4699TIP3    H114103   0.336   2.751   3.571  2.0535 -0.4079 -0.6355
 4699TIP3    H214104   0.261   2.621   3.598 -0.6272  1.0435 -0.9102
 4700TIP3   OH214105   4.263   4.382   2.997 -0.1655 -0.4005 -0.2066
 4700TIP3    H114106   4.311   4.303   3.019 -0.1858  0.0757  1.6042
 4700TIP3    H214107   4.181   4.375   3.046  1.2405  2.2893  2.6738
 4701TIP3   OH214108   4.809   0.260   5.067  0.2278 -0.0160  0.2068
 4701TIP3    H114109   4.897   0.283   5.037  0.8438 -1.0837  1.1623
 4701TIP3    H214110   4.772   0.342   5.099  1.3477  0.1931  0.9747
 4702TIP3   OH214111   6.088   4.261   1.887 -0.3258  0.1058 -0.3045
 4702TIP3    H114112   6.161   4.240   1.829 -0.7355 -0.9428 -0.4589
 4702TIP3    H214113   6.074   4.355   1.876  1.6278  0.5168  0.4451
 4703TIP3   OH214114   5.233   4.888   2.805 -0.1895 -0.2102 -1.0583
 4703TIP3    H114115   5.154   4.842   2.836  0.4740 -0.0707  0.9195
 4703TIP3    H214116   5.282   4.907   2.885  2.1470 -0.8005 -2.3093
 4704TIP3   OH214117   5.987   1.693   4.805  0.2539 -0.1662 -0.4706
 4704TIP3    H114118   5.930   1.617   4.803  0.4081 -0.2944 -0.0716
 4704TIP3    H214119   5.972   1.733   4.891  1.3583 -0.6619 -0.0440
 4705TIP3   OH214120   4.602   4.622   2.421  0.2657  0.7518 -0.2311
 4705TIP3    H114121   4.641   4.602   2.335 -1.7997  0.4811 -1.1251
 4705TIP3    H214122   4.628   4.549   2.476  0.8102  0.4425 -0.8866
 4706TIP3   OH214123   0.885   3.627   3.583  0.0890  0.4827 -0.0325
 4706TIP3    H114124   0.858   3.670   3.664  0.2317 -1.9803  1.3698
 4706TIP3    H214125   0.913   3.698   3.526 -0.8332  2.3295  1.7585
 4707TIP3   OH214126   0.690   1.517   4.544 -0.1467 -0.0154 -0.6656
 4707TIP3    H114127   0.773   1.524   4.592 -1.1576  0.0751  1.1059
 4707TIP3    H214128   0.667   1.607   4.522 -0.9380  0.1791  0.8970
 4708TIP3   OH214129   6.487   4.224   1.273  0.4465 -0.4182  0.5133
 4708TIP3    H114130   6.445   4.138   1.273 -2.0089  0.7201 -0.6724
 4708TIP3    H214131   6.533   4.228   1.189  1.7324 -1.1030  1.1774
 4709TIP3   OH214132   0.252   3.215   4.651 -0.1702  0.0669  0.0239
 4709TIP3    H114133   0.157   3.225   4.662  0.0239  0.2966  1.6506
 4709TIP3    H214134   0.267   3.121   4.647 -0.3344 -0.0150  1.1810
 4710TIP3   OH214135   0.595   2.338   4.028 -0.4802  0.3014  0.6078
 4710TIP3    H114136   0.630   2.410   3.976 -0.1232  0.7007  1.3955
 4710TIP3    H214137   0.598   2.262   3.969 -2.1766  1.2089 -0.6908
 4711TIP3   OH214138   0.508   2.902   2.744  0.2817  0.4702 -0.1916
 4711TIP3    H114139   0.597   2.886   2.774  0.2466  0.6287 -0.0038
 4711TIP3    H214140   0.455   2.901   2.823  0.1607  0.6803 -0.2691
 4712TIP3   OH214141   3.784   0.532   1.125 -0.6235  0.4389 -0.2862
 4712TIP3    H114142   3.788   0.504   1.217 -1.1993  1.2695 -0.0055
 4712TIP3    H214143   3.875   0.548   1.101 -0.2198 -2.1547 -0.6083
 4713TIP3   OH214144   4.766   1.996   1.975  0.1117  0.3376  0.9195
 4713TIP3    H114145   4.672   2.004   1.991  0.2173  0.4296  1.4862
 4713TIP3    H214146   4.807   2.051   2.042  0.5825  0.0564  0.8630
 4714TIP3   OH214147   4.305   1.793   5.029  0.1840  0.0574 -0.2714
 4714TIP3    H114148   4.335   1.730   4.963  1.6171  2.0509 -1.5807
 4714TIP3    H214149   4.210   1.789   5.025  0.2671 -0.9071 -1.4413
 4715TIP3   OH214150   0.638   0.958   4.303 -0.1765 -0.4431  0.3125
 4715TIP3    H114151   0.675   0.891   4.360 -1.5471  0.0073  1.7981
 4715TIP3    H214152   0.632   0.917   4.217  3.0066 -0.7586  0.1891
 4716TIP3   OH214153   5.490   3.174   3.135  0.0702 -0.1688  0.7858
 4716TIP3    H114154   5.579   3.142   3.149  0.6629  0.3321 -1.6190
 4716TIP3    H214155   5.440   3.095   3.113  0.5135 -0.1005 -0.5025
 4717TIP3   OH214156   4.334   3.411   4.176 -0.5200 -0.1178 -0.1031
 4717TIP3    H114157   4.402   3.467   4.212 -0.2397 -0.2031 -0.5026
 4717TIP3    H214158   4.333   3.335   4.234 -1.7700  0.8550  1.1941
 4718TIP3   OH214159   2.556   4.727   2.878 -0.1327  0.2293  0.0338
 4718TIP3    H114160   2.474   4.682   2.860  0.4323 -1.4697  1.5508
 4718TIP3    H214161   2.538   4.779   2.956 -0.8710  2.9838 -1.8764
 4719TIP3   OH214162   4.936   3.817   1.140 -0.4229 -0.6381  0.0483
 4719TIP3    H114163   4.861   3.821   1.200 -0.1626 -0.8187  0.3889
 4719TIP3    H214164   4.979   3.902   1.149  1.1498 -1.6125  2.1245
 4720TIP3   OH214165   1.413   2.327   3.815  0.2332  0.2399 -0.3465
 4720TIP3    H114166   1.416   2.235   3.788  0.8208  0.4352 -0.9547
 4720TIP3    H214167   1.322   2.353   3.800  0.3344  0.0826 -1.2531
 4721TIP3   OH214168   0.008   2.069   2.929 -0.3146 -0.3410 -0.1740
 4721TIP3    H114169   0.010   1.980   2.964  1.5102 -0.6874 -1.1027
 4721TIP3    H214170   0.100   2.094   2.923 -0.8352  2.1232  1.3178
 4722TIP3   OH214171   5.947   1.810   5.066  0.4825  0.3183 -0.4390
 4722TIP3    H114172   5.978   1.776   5.150  1.9738  0.9865 -0.7204
 4722TIP3    H214173   5.857   1.837   5.084  0.2550 -1.0072  0.5373
 4723TIP3   OH214174   4.162   0.552  -0.003  0.1801  0.0181  0.4762
 4723TIP3    H114175   4.200   0.464   0.004  2.7084  1.1059  0.9205
 4723TIP3    H214176   4.177   0.592   0.082 -0.9819  0.9100  0.2891
 4724TIP3   OH214177   6.105   2.325   4.847 -0.4980  0.1341  0.0457
 4724TIP3    H114178   6.103   2.383   4.923  1.9538  0.2952  0.0458
 4724TIP3    H214179   6.047   2.253   4.870 -1.7947  1.4524  0.9951
 4725TIP3   OH214180   5.475   1.743   4.382  0.5314  1.0057  0.5391
 4725TIP3    H114181   5.570   1.744   4.389  0.6172 -1.2114 -0.0295
 4725TIP3    H214182   5.457   1.748   4.288  0.0707  1.7559  0.6609
 4726TIP3   OH214183   2.084   4.132   0.108  0.1338 -0.0512  0.0951
 4726TIP3    H114184   2.046   4.195   0.047 -1.5281 -0.3297  0.7915
 4726TIP3    H214185   2.157   4.092   0.061  0.9680  2.1112 -0.4968
 4727TIP3   OH214186   6.125   2.316   4.579  0.4146 -0.1530  0.3253
 4727TIP3    H114187   6.122   2.229   4.539 -3.7541  0.4330 -0.8975
 4727TIP3    H214188   6.119   2.299   4.673  1.9696 -1.2344  0.2505
 4728TIP3   OH214189   1.659   1.403   1.122  0.7394  0.8734 -0.3812
 4728TIP3    H114190   1.628   1.359   1.201  1.2180  0.8185 -0.2212
 4728TIP3    H214191   1.604   1.481   1.114  0.8148  0.9725  0.1020
 4729TIP3   OH214192   0.305   2.717   4.130 -0.0563  0.2481 -0.2899
 4729TIP3    H114193   0.335   2.628   4.110 -0.2179  0.5032 -1.7029
 4729TIP3    H214194   0.257   2.745   4.052 -1.6888  0.8592  0.9145
 4730TIP3   OH214195   0.640   1.794   4.521  0.2456  0.3779 -0.0531
 4730TIP3    H114196   0.589   1.861   4.475  2.1841  0.0336 -2.8088
 4730TIP3    H214197   0.719   1.839   4.549 -0.0169  0.0693  1.2279
 4731TIP3   OH214198   3.685   0.042   0.418  0.0561  0.6307 -0.2352
 4731TIP3    H114199   3.598   0.021   0.386  0.1083  0.3286 -0.1874
 4731TIP3    H214200   3.698  -0.018   0.492  0.1769  0.8950 -0.0395
 4732TIP3   OH214201   2.845   5.998   0.849  0.2819 -0.0391  0.1619
 4732TIP3    H114202   2.780   6.018   0.781 -0.1202  2.7646  1.3059
 4732TIP3    H214203   2.848   5.903   0.851 -2.1511 -0.2087 -1.4842
 4733TIP3   OH214204   6.345   3.327   5.270  0.2725  0.6197 -0.7811
 4733TIP3    H114205   6.310   3.290   5.351  0.1167  1.3485 -0.5087
 4733TIP3    H214206   6.290   3.291   5.201  0.9924 -0.7549 -0.6639
 4734TIP3   OH214207   5.343   2.441   4.855 -0.1551 -0.0289 -0.1149
 4734TIP3    H114208   5.372   2.524   4.819 -0.3700 -0.2253 -0.7476
 4734TIP3    H214209   5.265   2.463   4.906 -0.7593  0.0174 -1.0555
 4735TIP3   OH214210   0.793   3.811   3.787  0.0030 -0.1900 -0.6148
 4735TIP3    H114211   0.768   3.824   3.878 -1.2503  0.2228 -1.0076
 4735TIP3    H214212   0.833   3.895   3.761 -0.5444  0.0442 -0.7218
 4736TIP3   OH214213   6.074   3.761   4.922  0.0939 -0.3058 -0.0579
 4736TIP3    H114214   6.090   3.791   5.011 -0.6473  0.0084 -0.0230
 4736TIP3    H214215   6.018   3.828   4.884  1.1872  0.0444 -1.0789
 4737TIP3   OH214216   1.103   3.338   3.290 -0.0954 -0.2142 -0.6743
 4737TIP3    H114217   1.114   3.398   3.217  0.5229 -2.4822 -2.5247
 4737TIP3    H214218   1.189   3.336   3.333 -0.3470  0.8141 -0.1047
 4738TIP3   OH214219   1.681   6.081   0.213 -0.4939 -0.0288  0.6171
 4738TIP3    H114220   1.677   5.986   0.215  0.6989 -0.1150 -0.6946
 4738TIP3    H214221   1.621   6.109   0.282 -2.0134 -1.6980  0.0101
 4739TIP3   OH214222   1.680   2.706   2.773 -0.3762 -0.0183 -0.3667
 4739TIP3    H114223   1.698   2.750   2.690  1.8934 -0.2433 -0.0264
 4739TIP3    H214224   1.687   2.775   2.839  1.7490 -0.5631  0.0150
 4740TIP3   OH214225   3.740   1.269   0.073 -0.3668 -0.7124  0.7777
 4740TIP3    H114226   3.734   1.290   0.166  0.2093  1.0532  0.4262
 4740TIP3    H214227   3.832   1.283   0.051 -0.4434 -1.4110 -0.0006
 4741TIP3   OH214228   1.594   3.326   3.385 -0.0745 -0.1000 -0.1194
 4741TIP3    H114229   1.636   3.412   3.384 -2.2565  1.0782  2.7879
 4741TIP3    H214230   1.662   3.266   3.416  0.1408  1.3992  2.4096
 4742TIP3   OH214231   4.600   4.701   3.650 -0.0404 -0.9691  0.2319
 4742TIP3    H114232   4.652   4.781   3.639  1.2572 -1.8406 -0.0204
 4742TIP3    H214233   4.548   4.716   3.729 -0.7645  0.6431 -0.5226
 4743TIP3   OH214234   0.652   4.425   3.460  0.1072 -0.1971  0.0341
 4743TIP3    H114235   0.648   4.520   3.467  0.1209 -0.2292  0.4647
 4743TIP3    H214236   0.705   4.409   3.382  1.6636  0.1411  1.0114
 4744TIP3   OH214237   0.712   2.589   3.932 -0.1198  0.3040 -0.1817
 4744TIP3    H114238   0.694   2.603   3.839 -2.0492 -1.8254 -0.1538
 4744TIP3    H214239   0.674   2.666   3.975  0.1333  0.9361 -1.0702
 4745TIP3   OH214240   6.418   2.970   5.187 -0.0014  0.2555  0.6677
 4745TIP3    H114241   6.377   2.883   5.187  0.9489 -0.1999 -0.8363
 4745TIP3    H214242   6.512   2.953   5.188  0.1942  1.2891  1.6594
 4746TIP3   OH214243   5.560   4.113   0.803  0.0199  0.3407  0.4447
 4746TIP3    H114244   5.562   4.205   0.830 -0.9030  0.5517 -0.2193
 4746TIP3    H214245   5.651   4.094   0.778 -0.2086  1.6847 -1.5105
 4747TIP3   OH214246   0.582   3.915   0.328 -0.2631  0.5975  0.2102
 4747TIP3    H114247   0.649   3.851   0.303 -1.3903 -0.0689 -1.1188
 4747TIP3    H214248   0.531   3.871   0.396 -0.9361  0.1506 -0.5871
 4748TIP3   OH214249   5.844   2.139   4.477  0.0307 -0.0615  0.2176
 4748TIP3    H114250   5.844   2.043   4.477 -0.1165 -0.0745 -0.9997
 4748TIP3    H214251   5.907   2.163   4.544  0.1338 -1.0134  0.4733
 4749TIP3   OH214252   5.836   3.555   1.766  0.2236  0.1469 -0.4477
 4749TIP3    H114253   5.925   3.521   1.765  0.9962  1.9610  2.1123
 4749TIP3    H214254   5.845   3.648   1.787 -2.3518 -0.1357  2.2448
 4750TIP3   OH214255   5.933   2.357   3.022  0.1674  0.6334 -0.4382
 4750TIP3    H114256   5.940   2.272   2.979 -0.6634  1.2634 -1.8606
 4750TIP3    H214257   5.945   2.338   3.115 -1.6943 -1.2883 -0.5519
 4751TIP3   OH214258   5.280   3.929   1.096  0.5410 -0.3822 -0.3329
 4751TIP3    H114259   5.258   3.837   1.079  0.2797 -0.7571  1.9567
 4751TIP3    H214260   5.369   3.927   1.129  0.4935  0.1955 -0.1698
 4752TIP3   OH214261   0.027   4.824   2.112  0.0361  0.1783  0.2102
 4752TIP3    H114262  -0.024   4.841   2.191 -0.6417  0.1013 -0.2106
 4752TIP3    H214263   0.026   4.907   2.064  0.2206  0.1450  0.1467
 4753TIP3   OH214264   4.879   5.527   2.636 -0.3088 -0.2602  0.4023
 4753TIP3    H114265   4.789   5.531   2.603  0.1792  0.4660 -0.8612
 4753TIP3    H214266   4.870   5.486   2.722 -1.8305 -0.3545  0.2275
 4754TIP3   OH214267   0.753   2.943   4.992 -0.2675  0.0912 -0.2116
 4754TIP3    H114268   0.735   2.872   4.930  1.3208 -0.4213 -0.0975
 4754TIP3    H214269   0.824   2.992   4.952 -0.8026  1.1401  0.1137
 4755TIP3   OH214270   4.922   2.875   1.412  0.0467  1.0049 -0.4414
 4755TIP3    H114271   4.854   2.823   1.369 -0.0687  1.5354 -0.9053
 4755TIP3    H214272   4.978   2.810   1.455 -2.0177  0.6669  1.8279
 4756TIP3   OH214273   6.077   2.561   3.163  0.4369 -0.0350  0.0199
 4756TIP3    H114274   6.108   2.620   3.094  2.2980 -0.2132  0.6718
 4756TIP3    H214275   6.065   2.477   3.119  1.2553 -0.0551 -0.1808
 4757TIP3   OH214276   6.368   1.127   4.285  0.3573 -0.2726 -0.0235
 4757TIP3    H114277   6.355   1.092   4.373  1.2906 -0.0460  0.2077
 4757TIP3    H214278   6.369   1.050   4.228  0.0479 -0.4401  0.1962
 4758TIP3   OH214279   6.384   2.944   3.764  0.8468  0.1986  0.0916
 4758TIP3    H114280   6.465   2.940   3.714 -0.1736 -2.1866 -1.4873
 4758TIP3    H214281   6.322   2.987   3.705  0.0115 -1.3545 -0.2030
 4759TIP3   OH214282   5.291   2.810   4.388  0.2314  0.6868  0.2803
 4759TIP3    H114283   5.258   2.851   4.308 -0.4233 -0.5687 -0.0977
 4759TIP3    H214284   5.345   2.878   4.428  0.0273  1.5619 -0.8822
 4760TIP3   OH214285   5.035   4.815   5.222  0.1012  0.3285  0.0279
 4760TIP3    H114286   5.036   4.903   5.184  0.1281  0.4485  0.3009
 4760TIP3    H214287   5.119   4.808   5.268  0.0376  0.2147  0.1294
 4761TIP3   OH214288   6.029   3.042   4.929  0.2946  0.2285  0.0372
 4761TIP3    H114289   5.984   3.031   5.012  0.0799  1.7886  0.1488
 4761TIP3    H214290   5.959   3.042   4.863  0.3042  0.6995  0.0250
 4762TIP3   OH214291   3.459   1.437   1.049 -0.1566 -0.0796  0.4400
 4762TIP3    H114292   3.518   1.451   0.975 -0.9315 -1.0684 -0.3695
 4762TIP3    H214293   3.376   1.475   1.023 -0.0795  0.7130  1.3194
 4763TIP3   OH214294   0.134   0.239   5.072 -0.6466  0.1022  0.1893
 4763TIP3    H114295   0.061   0.178   5.058  0.5427 -1.2550 -0.3695
 4763TIP3    H214296   0.208   0.195   5.029  0.3738  1.6797  0.3326
 4764TIP3   OH214297   0.837   2.770   2.563 -0.1178  0.1857  0.0885
 4764TIP3    H114298   0.765   2.742   2.505  0.3055 -3.1700  1.0396
 4764TIP3    H214299   0.802   2.759   2.651  1.4072 -1.1892  0.5559
 4765TIP3   OH214300   1.430   1.142   3.791 -0.5945 -0.6786  0.2728
 4765TIP3    H114301   1.516   1.183   3.799 -1.1937  0.5005  0.7796
 4765TIP3    H214302   1.447   1.058   3.748  0.8474 -0.6137  0.7002
 4766TIP3   OH214303   4.414   4.354   2.521 -0.1701 -0.0818 -0.5251
 4766TIP3    H114304   4.396   4.435   2.474  2.0027  1.6314  1.4695
 4766TIP3    H214305   4.388   4.373   2.612  1.1829 -1.2914  0.1407
 4767TIP3   OH214306   0.611   6.032   4.146 -0.0099 -0.4985  0.1119
 4767TIP3    H114307   0.557   6.033   4.067 -0.5798  0.3317  0.5049
 4767TIP3    H214308   0.697   6.003   4.116 -0.6529 -1.7899 -0.5346
 4768TIP3   OH214309   4.947   4.494   1.464 -0.4515 -0.0189 -0.0832
 4768TIP3    H114310   4.868   4.547   1.477 -0.3447  0.0423  0.3091
 4768TIP3    H214311   5.010   4.529   1.526 -1.1936 -2.3063  2.0344
 4769TIP3   OH214312   1.235   1.543   2.342  0.5055 -0.5946  0.1753
 4769TIP3    H114313   1.155   1.514   2.299 -1.6252  1.3221  2.6540
 4769TIP3    H214314   1.253   1.476   2.407  0.1205 -0.3661  0.5228
 4770TIP3   OH214315   2.356   5.470   0.437 -0.0089 -0.3128  0.2372
 4770TIP3    H114316   2.402   5.439   0.515 -0.8193 -0.2378  0.7418
 4770TIP3    H214317   2.293   5.533   0.470 -0.8127 -0.7774 -0.4019
 4771TIP3   OH214318   0.666   3.960   4.297 -0.1209  0.1466  0.0367
 4771TIP3    H114319   0.578   3.971   4.333 -0.0707  1.3529 -0.2108
 4771TIP3    H214320   0.722   3.953   4.375 -0.2384  0.9613  0.2021
 4772TIP3   OH214321   1.095   1.678   3.637 -0.3857 -0.1990 -0.5745
 4772TIP3    H114322   1.156   1.669   3.710 -1.0585  1.4668  0.2251
 4772TIP3    H214323   1.095   1.593   3.595  0.5577 -0.9705  0.9434
 4773TIP3   OH214324   0.897   2.087   3.699 -0.3107 -0.1451 -0.0819
 4773TIP3    H114325   0.923   2.048   3.782 -2.9697 -1.2533  0.2577
 4773TIP3    H214326   0.907   2.016   3.635 -0.3283  0.0863 -0.3445
 4774TIP3   OH214327   4.765   0.771   4.545  0.6198 -0.4747  0.0796
 4774TIP3    H114328   4.738   0.805   4.459  0.2454  0.4719  0.5638
 4774TIP3    H214329   4.695   0.710   4.570 -0.2569  0.7222  0.5854
 4775TIP3   OH214330   3.182   4.006   1.127  0.6707 -0.9649 -0.1402
 4775TIP3    H114331   3.250   4.000   1.194  1.1957 -0.1331 -0.5912
 4775TIP3    H214332   3.162   4.099   1.121 -0.0379 -1.1329 -0.4924
 4776TIP3   OH214333   5.514   3.407   4.696  0.5789 -0.2445 -0.1781
 4776TIP3    H114334   5.546   3.351   4.766 -0.0425 -1.5196 -0.8846
 4776TIP3    H214335   5.484   3.346   4.629 -0.6443  0.9337 -0.7265
 4777TIP3   OH214336   2.056   4.327   1.501  0.0441 -0.0800  0.5751
 4777TIP3    H114337   2.081   4.310   1.410 -3.6906 -1.8366 -0.2428
 4777TIP3    H214338   1.997   4.402   1.497 -3.5896 -2.7651  0.8524
 4778TIP3   OH214339   0.769   2.607   4.592 -0.5322  0.1600 -0.0181
 4778TIP3    H114340   0.675   2.599   4.578 -1.1545  1.6249  2.8782
 4778TIP3    H214341   0.783   2.577   4.681  2.0373 -1.6618 -0.9793
 4779TIP3   OH214342   4.408   5.569   3.888 -0.4850  0.5628  0.3708
 4779TIP3    H114343   4.382   5.646   3.939 -0.1414  1.2521 -0.4867
 4779TIP3    H214344   4.334   5.553   3.830 -0.5798  0.2020  0.5866
 4780TIP3   OH214345   5.333   4.639   3.179 -0.8629 -0.1900 -0.4465
 4780TIP3    H114346   5.413   4.672   3.138  0.0013 -2.2273 -0.5037
 4780TIP3    H214347   5.302   4.711   3.234  0.1253  1.1902 -1.6608
 4781TIP3   OH214348   0.541   3.959   3.044  0.5627  0.5096 -0.5161
 4781TIP3    H114349   0.488   3.952   3.123 -0.6358  0.1231 -1.3362
 4781TIP3    H214350   0.514   4.043   3.005  0.8267  0.4932 -0.7337
 4782TIP3   OH214351   5.847   2.181   4.878 -0.0001 -0.3506  0.0804
 4782TIP3    H114352   5.833   2.158   4.970 -0.1553 -0.9945 -0.0966
 4782TIP3    H214353   5.854   2.096   4.834 -0.7177 -0.0521 -0.6178
 4783TIP3   OH214354   0.395   4.650   0.685  0.3014  0.2987  0.0977
 4783TIP3    H114355   0.310   4.693   0.679 -0.0115  0.1070  2.5455
 4783TIP3    H214356   0.409   4.611   0.599 -1.7596  0.9358 -0.5474
 4784TIP3   OH214357   5.326   2.189   4.697  0.4786 -0.1979 -0.5824
 4784TIP3    H114358   5.310   2.258   4.634  1.1364  0.1258 -0.3977
 4784TIP3    H214359   5.353   2.114   4.644  1.0806  0.0873 -0.6885
 4785TIP3   OH214360   5.336   3.601   3.643  0.3733  0.1894  0.0005
 4785TIP3    H114361   5.401   3.649   3.695 -1.4006 -0.4675  2.9786
 4785TIP3    H214362   5.272   3.668   3.618  0.4083  0.2258  0.0079
 4786TIP3   OH214363   0.379   0.866   4.657 -0.0518  0.0075 -0.1260
 4786TIP3    H114364   0.348   0.952   4.628  1.6597  0.4027 -0.8509
 4786TIP3    H214365   0.394   0.817   4.576  3.2605  0.5684  0.0884
 4787TIP3   OH214366   0.609   4.363   1.039  0.2160 -0.4906 -0.0832
 4787TIP3    H114367   0.565   4.293   1.088  2.0296 -1.1267  0.6668
 4787TIP3    H214368   0.551   4.439   1.050 -2.1734 -2.0157 -1.5571
 4788TIP3   OH214369   1.220   5.356   0.583  0.6726 -0.0282 -0.3950
 4788TIP3    H114370   1.240   5.344   0.676  2.2985 -1.3968 -0.8990
 4788TIP3    H214371   1.124   5.365   0.580  0.6893  1.0492  1.4995
 4789TIP3   OH214372   6.371   4.587   3.302 -0.4066  0.9157 -0.6263
 4789TIP3    H114373   6.316   4.651   3.257 -0.9160  0.8251 -0.1402
 4789TIP3    H214374   6.315   4.509   3.310  0.0852  0.5291 -0.8993
 4790TIP3   OH214375   1.096   2.946   5.137  0.2003 -0.3884 -0.3786
 4790TIP3    H114376   1.128   2.872   5.189  2.4583  0.7018 -0.1871
 4790TIP3    H214377   1.031   2.988   5.193  0.1817 -1.1805  0.2067
 4791TIP3   OH214378   0.458   4.628   3.179  0.0202  0.8035  0.0406
 4791TIP3    H114379   0.377   4.581   3.162 -0.4525  0.5882  2.6260
 4791TIP3    H214380   0.522   4.589   3.120 -1.3816 -0.1259 -0.8749
 4792TIP3   OH214381   1.457   4.071   2.526  0.1225  0.0691 -0.1170
 4792TIP3    H114382   1.411   4.006   2.473  0.3383 -0.7915  0.7378
 4792TIP3    H214383   1.394   4.097   2.593  0.7144 -0.8340  0.8253
 4793TIP3   OH214384   2.174   2.071   3.898  0.1399  0.5920 -0.0505
 4793TIP3    H114385   2.082   2.074   3.871  0.0591  0.5020  0.2155
 4793TIP3    H214386   2.222   2.100   3.820  0.1288 -2.8961 -1.4490
 4794TIP3   OH214387   0.099   5.072   2.589 -0.2809 -0.1515  0.3918
 4794TIP3    H114388   0.169   5.123   2.548 -0.2954  0.6097  1.3087
 4794TIP3    H214389   0.145   5.001   2.634 -0.3792 -2.1736 -2.5463
 4795TIP3   OH214390   5.069   4.035   2.451  0.1707 -0.2027  0.9313
 4795TIP3    H114391   5.058   4.112   2.506  1.6276 -0.0770  1.0553
 4795TIP3    H214392   5.140   4.059   2.390 -1.4433 -0.3005 -1.0585
 4796TIP3   OH214393   1.490   3.904   2.873  0.0089 -0.2655 -0.2272
 4796TIP3    H114394   1.517   3.996   2.878 -0.8326  0.0291 -1.0108
 4796TIP3    H214395   1.449   3.887   2.958  0.8128 -0.1301  0.1934
 4797TIP3   OH214396   4.746   4.076   1.259  0.0709 -0.3446 -0.1992
 4797TIP3    H114397   4.751   3.993   1.306 -1.5478 -1.6058 -2.1715
 4797TIP3    H214398   4.801   4.136   1.310 -0.5130 -2.0128  2.4860
 4798TIP3   OH214399   2.984   6.089   5.330  0.4015  0.3176  0.6339
 4798TIP3    H114400   2.933   6.107   5.251 -0.2878 -1.5540  0.6163
 4798TIP3    H214401   3.040   6.016   5.305 -0.3675 -0.7952  2.0740
 4799TIP3   OH214402   1.038   6.033   0.522  0.3176  0.0743 -0.1424
 4799TIP3    H114403   1.022   5.960   0.582  1.9789 -1.7419 -1.8195
 4799TIP3    H214404   1.056   6.107   0.579 -0.1589 -1.1114  1.6128
 4800TIP3   OH214405   4.433   5.629   1.239  0.5535 -0.3040 -0.5256
 4800TIP3    H114406   4.511   5.583   1.269  0.5957  0.3119  0.3204
 4800TIP3    H214407   4.451   5.650   1.148  0.2768 -2.5278 -1.1287
 4801TIP3   OH214408   0.617   3.678   3.097 -0.2424  0.3011  0.0497
 4801TIP3    H114409   0.574   3.665   3.181  2.1590  0.3947  1.3456
 4801TIP3    H214410   0.576   3.757   3.061 -1.8431 -0.1988  0.7480
 4802TIP3   OH214411   0.180   2.277   4.746  0.2278  0.1299 -0.0244
 4802TIP3    H114412   0.169   2.213   4.816  0.5043 -0.4046 -0.4654
 4802TIP3    H214413   0.157   2.230   4.666  2.4530 -0.0667 -0.5972
 4803TIP3   OH214414   1.129   1.159   2.444 -0.2280 -0.1314 -0.4000
 4803TIP3    H114415   1.066   1.183   2.376 -1.7552 -0.8422  0.7484
 4803TIP3    H214416   1.133   1.064   2.441 -1.0426 -0.2199  1.1566
 4804TIP3   OH214417   6.425   4.730   4.406 -0.0531 -0.2359 -0.2244
 4804TIP3    H114418   6.487   4.752   4.475 -1.2755 -0.0217  0.8212
 4804TIP3    H214419   6.402   4.638   4.421  1.7105 -1.0096 -1.9742
 4805TIP3   OH214420   1.723   4.738   0.293 -0.1792 -0.0447  0.0121
 4805TIP3    H114421   1.747   4.768   0.380 -0.6312  1.0072 -0.2134
 4805TIP3    H214422   1.702   4.646   0.304 -0.3973  0.1254  1.0450
 4806TIP3   OH214423   0.565   1.889   4.915 -0.4398 -0.0477  0.2770
 4806TIP3    H114424   0.514   1.809   4.902 -1.6769  0.3744  2.2767
 4806TIP3    H214425   0.529   1.951   4.853 -0.0623 -0.7643 -0.6768
 4807TIP3   OH214426   6.334   3.224   1.764  0.3560 -0.1388  0.3967
 4807TIP3    H114427   6.362   3.244   1.674 -0.2255 -0.3561  0.1609
 4807TIP3    H214428   6.343   3.307   1.811 -0.0759  0.1776 -0.0646
 4808TIP3   OH214429   0.766   2.796   3.465  0.6933  0.0563  0.0889
 4808TIP3    H114430   0.773   2.703   3.446  1.2800 -0.0236  0.6946
 4808TIP3    H214431   0.826   2.838   3.404  0.9783 -0.0262  0.3106
 4809TIP3   OH214432   0.750   4.336   3.718 -0.1366  0.0153  0.7534
 4809TIP3    H114433   0.737   4.367   3.628 -0.6949 -1.4829  0.2943
 4809TIP3    H214434   0.839   4.363   3.740  0.5856 -0.9899 -0.8416
 4810TIP3   OH214435   2.584   3.073   2.820 -0.7414  0.3831  0.1303
 4810TIP3    H114436   2.535   3.146   2.857  0.9587  1.0763  1.0989
 4810TIP3    H214437   2.641   3.043   2.892 -0.8618 -1.3982 -0.4751
 4811TIP3   OH214438   0.403   4.694   4.232  0.2852 -0.2493 -0.2118
 4811TIP3    H114439   0.324   4.669   4.185  0.1058  1.2350 -0.7467
 4811TIP3    H214440   0.379   4.689   4.325 -0.8416  1.4002 -0.3946
 4812TIP3   OH214441   0.716   4.979   2.625  0.0642  0.6643  0.0767
 4812TIP3    H114442   0.760   5.057   2.592 -0.7221  0.6720 -1.0049
 4812TIP3    H214443   0.624   5.005   2.632 -0.3775 -0.4464 -1.2805
 4813TIP3   OH214444   1.418   3.848   3.138 -0.2438  0.4096  0.1439
 4813TIP3    H114445   1.396   3.785   3.206  0.5008 -0.9132 -0.8352
 4813TIP3    H214446   1.357   3.921   3.152 -0.5970 -0.1763  1.7435
 4814TIP3   OH214447   3.764   2.658   4.641  0.4288  0.5879  0.4333
 4814TIP3    H114448   3.772   2.727   4.574  0.5945  0.6317  0.4973
 4814TIP3    H214449   3.697   2.690   4.701 -0.4957  0.0537 -0.3093
 4815TIP3   OH214450   3.698   5.684   1.433 -0.4044  0.2335 -0.2049
 4815TIP3    H114451   3.747   5.759   1.399 -0.9595  0.3294 -0.7985
 4815TIP3    H214452   3.764   5.617   1.448 -0.1964  0.0728 -1.7917
 4816TIP3   OH214453   5.828   1.500   0.902  0.0225  0.1817  0.0053
 4816TIP3    H114454   5.881   1.500   0.822  1.7715 -1.1691  1.1439
 4816TIP3    H214455   5.738   1.493   0.870  0.6905 -0.3772 -1.8568
 4817TIP3   OH214456   1.662   4.186   4.132  0.2521 -0.2054 -0.8090
 4817TIP3    H114457   1.689   4.256   4.074  0.2638  0.6240  0.1798
 4817TIP3    H214458   1.708   4.204   4.214 -2.8759  0.9294  0.7581
 4818TIP3   OH214459   0.551   4.382   4.424  0.6337  0.0780 -0.4376
 4818TIP3    H114460   0.473   4.360   4.374  1.3179 -0.2880 -1.3661
 4818TIP3    H214461   0.526   4.369   4.516 -0.8142  1.3150 -0.6389
 4819TIP3   OH214462   0.285   2.865   3.322 -0.7859 -0.1398 -0.0051
 4819TIP3    H114463   0.374   2.899   3.321 -0.4211 -1.0240  1.6356
 4819TIP3    H214464   0.293   2.777   3.284 -0.7395 -0.7259  1.3519
 4820TIP3   OH214465   2.593   0.283   4.393  0.1641 -0.3963 -0.2860
 4820TIP3    H114466   2.630   0.329   4.318  0.7195 -1.8109 -0.8786
 4820TIP3    H214467   2.618   0.192   4.381 -2.0363 -1.1018  0.1941
 4821TIP3   OH214468   6.215   2.421   0.227  0.1950 -0.0614  0.2885
 4821TIP3    H114469   6.265   2.408   0.308 -1.4183  3.0710  1.8895
 4821TIP3    H214470   6.124   2.413   0.253 -0.3081 -0.5242 -1.5451
 4822TIP3   OH214471   6.407   4.405   5.092 -0.5018 -0.6424  0.1565
 4822TIP3    H114472   6.372   4.426   5.006  1.5649  2.7774  0.0559
 4822TIP3    H214473   6.362   4.465   5.152  0.5590 -0.5915  0.9303
 4823TIP3   OH214474   6.071   3.152   3.811  0.4973 -0.3309 -0.1043
 4823TIP3    H114475   6.031   3.203   3.740  1.2261  0.0062 -0.2754
 4823TIP3    H214476   6.028   3.066   3.805  0.1757 -0.1378 -0.6171
 4824TIP3   OH214477   0.262   0.654   1.860  0.3533 -0.0062 -0.5129
 4824TIP3    H114478   0.265   0.742   1.898  1.2793 -1.0494  1.9095
 4824TIP3    H214479   0.171   0.644   1.832  0.2206  1.7028 -0.7526
 4825TIP3   OH214480   4.981   5.248   3.331  0.0508  0.3120 -0.2258
 4825TIP3    H114481   4.888   5.263   3.345 -0.1618 -1.5245  0.5698
 4825TIP3    H214482   5.019   5.246   3.419  0.5602 -0.4734 -0.4504
 4826TIP3   OH214483   5.423   1.550   1.767 -0.3533  0.2902  0.1510
 4826TIP3    H114484   5.346   1.503   1.736 -0.0827 -0.4609  0.5994
 4826TIP3    H214485   5.470   1.574   1.687 -0.3346 -0.4885 -0.0812
 4827TIP3   OH214486   6.028   4.892   2.964  0.4268 -0.0246  0.2713
 4827TIP3    H114487   6.063   4.956   3.026  1.7023 -0.0242 -0.4122
 4827TIP3    H214488   5.959   4.939   2.917  0.8086  0.5972  0.3210
 4828TIP3   OH214489   1.151   4.966   1.313  0.1525 -0.0831  0.0498
 4828TIP3    H114490   1.237   4.925   1.324 -0.3502 -0.5723  2.6933
 4828TIP3    H214491   1.089   4.896   1.335 -0.8267  1.0608  0.9964
 4829TIP3   OH214492   0.170   3.707   4.071 -0.0083  0.0554 -0.0281
 4829TIP3    H114493   0.183   3.802   4.077  0.3884  0.0150 -0.1939
 4829TIP3    H214494   0.126   3.695   3.987  0.3885  0.0532 -0.2396
 4830TIP3   OH214495   1.659   0.049   3.152  0.2366  0.2261 -0.3426
 4830TIP3    H114496   1.750   0.037   3.125  0.0396 -0.5970 -0.6524
 4830TIP3    H214497   1.615   0.085   3.075  0.1843  0.1322 -0.3564
 4831TIP3   OH214498   0.259   2.944   4.810 -0.5355  0.2359 -0.7694
 4831TIP3    H114499   0.331   3.004   4.826 -0.3999  0.3598 -1.7933
 4831TIP3    H214500   0.284   2.864   4.856  0.2349  0.2921 -1.0806
 4832TIP3   OH214501   0.759   5.240   4.832  0.4527 -0.5788  0.5570
 4832TIP3    H114502   0.739   5.155   4.870  1.1259 -0.6831  0.6822
 4832TIP3    H214503   0.680   5.292   4.847 -0.6441 -1.7165 -1.0894
 4833TIP3   OH214504   0.566   5.560   1.993  0.2669  0.0636  0.5391
 4833TIP3    H114505   0.545   5.472   1.964 -0.4292  0.2876  0.3436
 4833TIP3    H214506   0.630   5.592   1.930 -0.3285  0.1079 -0.0450
 4834TIP3   OH214507   1.460   4.497   3.232  0.1070  0.2059 -0.0252
 4834TIP3    H114508   1.438   4.571   3.174  0.7247  0.6697  0.3222
 4834TIP3    H214509   1.376   4.460   3.257 -0.1744  0.1242 -1.0741
 4835TIP3   OH214510   5.749   2.900   4.984  0.1470 -0.3554  0.2310
 4835TIP3    H114511   5.721   2.843   5.056  0.2356  1.3013  1.5941
 4835TIP3    H214512   5.668   2.929   4.943  0.0879 -1.0617 -0.1606
 4836TIP3   OH214513   5.580   4.703   3.052  0.6457  0.3099 -0.3430
 4836TIP3    H114514   5.619   4.705   3.139  0.4595 -0.2750 -0.2452
 4836TIP3    H214515   5.622   4.629   3.008 -0.1455 -0.1541 -0.3274
 4837TIP3   OH214516   3.832   0.961   2.221  0.0082  0.5060 -0.0601
 4837TIP3    H114517   3.757   0.929   2.272 -0.6477  1.6369 -0.2935
 4837TIP3    H214518   3.826   0.912   2.138  1.7608 -2.1990  1.3318
 4838TIP3   OH214519   3.800   0.646   4.755 -0.2974  0.2393 -0.4974
 4838TIP3    H114520   3.747   0.568   4.742 -0.7222  0.6219 -1.0826
 4838TIP3    H214521   3.804   0.687   4.668  0.8192  0.2960 -0.4294
 4839TIP3   OH214522   1.054   3.818   3.451  0.2233 -0.1978 -0.0237
 4839TIP3    H114523   1.088   3.802   3.362  1.0030 -1.6735  0.5212
 4839TIP3    H214524   1.039   3.912   3.454  1.2273  0.0265 -1.3799
 4840TIP3   OH214525   5.458   4.575   3.983  0.4331  0.6000  0.2095
 4840TIP3    H114526   5.545   4.605   3.959  0.0385 -0.6935 -3.0342
 4840TIP3    H214527   5.447   4.492   3.937 -3.1174  1.5597 -0.8327
 4841TIP3   OH214528   1.000   2.904   3.332 -0.0505 -0.2968 -0.6812
 4841TIP3    H114529   1.030   2.906   3.423 -1.9642 -1.9534  0.0150
 4841TIP3    H214530   1.063   2.960   3.285  0.8167  0.7689  1.6702
 4842TIP3   OH214531   1.637   3.203   3.837  0.2267 -0.0862  0.9303
 4842TIP3    H114532   1.730   3.181   3.839  0.0727 -1.1049 -1.1894
 4842TIP3    H214533   1.593   3.121   3.858 -0.2202 -0.0288  0.2139
 4843TIP3   OH214534   3.984   3.193   0.092  0.3740  0.1148  0.4481
 4843TIP3    H114535   3.903   3.216   0.047 -0.5326 -1.8027  1.0443
 4843TIP3    H214536   3.982   3.097   0.098  2.7723  0.0173  0.3218
 4844TIP3   OH214537   0.909   4.039   3.693 -0.2675 -0.3488  0.1934
 4844TIP3    H114538   0.874   4.124   3.721 -1.2400 -0.8177  0.4000
 4844TIP3    H214539   0.925   4.050   3.599 -1.7145 -0.3774 -0.0668
 4845TIP3   OH214540   3.190   3.420   0.718  0.0256 -0.2001 -0.0291
 4845TIP3    H114541   3.238   3.464   0.648  0.2146 -1.2187 -0.5445
 4845TIP3    H214542   3.100   3.453   0.710 -0.6679 -2.5700 -2.7030
 4846TIP3   OH214543   1.838   3.962   5.280 -0.5816 -0.2313 -0.0299
 4846TIP3    H114544   1.864   4.028   5.217 -1.0797  0.4752  0.4966
 4846TIP3    H214545   1.920   3.927   5.314 -0.2960  1.5660  1.1937
 4847TIP3   OH214546   1.297   5.937   3.049 -0.2979  0.0757  0.4281
 4847TIP3    H114547   1.203   5.956   3.048  0.0526  1.9990  0.9598
 4847TIP3    H214548   1.337   6.018   3.083  1.4467 -1.1190  1.2836
 4848TIP3   OH214549   6.237   3.700   4.701 -0.3557 -0.2453  0.3761
 4848TIP3    H114550   6.184   3.724   4.776  1.3191  0.0227  1.4993
 4848TIP3    H214551   6.312   3.652   4.738  1.5405  1.6451 -0.8832
 4849TIP3   OH214552   6.463   0.383   0.768 -0.2386  0.3318  0.3811
 4849TIP3    H114553   6.407   0.319   0.724 -0.2237  0.1453  0.6301
 4849TIP3    H214554   6.411   0.415   0.842 -0.3803  0.8739  0.0515
 4850TIP3   OH214555   4.571   0.712   0.369  0.4090 -0.1653  0.0468
 4850TIP3    H114556   4.571   0.622   0.400  0.2866 -0.5043 -0.9223
 4850TIP3    H214557   4.518   0.710   0.289 -2.7992  1.4679  2.0472
 4851TIP3   OH214558   5.491   1.482   1.279  0.2300 -0.6654 -0.2322
 4851TIP3    H114559   5.548   1.437   1.341  0.2736 -0.7383 -0.3250
 4851TIP3    H214560   5.434   1.413   1.244  0.9918 -0.8375 -1.1469
 4852TIP3   OH214561   0.517   4.231   3.069 -0.2226 -0.4014 -0.3597
 4852TIP3    H114562   0.446   4.291   3.091  0.6636 -0.1945  2.1254
 4852TIP3    H214563   0.569   4.226   3.149  1.6942 -1.7459 -1.6584
 4853TIP3   OH214564   1.423   2.903   5.255 -0.0794 -0.1397  0.2186
 4853TIP3    H114565   1.396   2.994   5.271  0.9877 -0.1083  1.8685
 4853TIP3    H214566   1.343   2.852   5.270 -0.7082  0.5192 -0.8033
 4854TIP3   OH214567   3.767   0.321   0.071  0.4690 -0.4729 -0.0712
 4854TIP3    H114568   3.816   0.387   0.022  0.4798  0.6947  1.5058
 4854TIP3    H214569   3.682   0.317   0.027  1.1381 -0.8547 -1.3846
 4855TIP3   OH214570   1.191   3.086   3.332 -0.2645 -0.4215  0.2861
 4855TIP3    H114571   1.163   3.176   3.318 -0.5057 -0.4448  0.6136
 4855TIP3    H214572   1.276   3.080   3.288  0.6106  0.4797  1.7982
 4856TIP3   OH214573   5.275   4.620   2.552  0.4091 -0.0736  0.0884
 4856TIP3    H114574   5.276   4.606   2.646 -0.0182 -1.7576 -0.1505
 4856TIP3    H214575   5.182   4.620   2.528  0.5382 -0.2837 -0.4272
 4857TIP3   OH214576   4.724   1.914   0.646 -0.0109  0.3970 -0.1664
 4857TIP3    H114577   4.683   1.855   0.709  0.2509  1.1552  0.7169
 4857TIP3    H214578   4.689   2.000   0.667  1.4932  0.9441  0.1386
 4858TIP3   OH214579   2.422   4.873   3.648 -0.4880 -0.2981  0.5391
 4858TIP3    H114580   2.421   4.784   3.615  0.9881 -0.2762  0.4123
 4858TIP3    H214581   2.493   4.875   3.712  1.1212  1.3878 -1.2146
 4859TIP3   OH214582   1.843   1.781   3.942  0.0494 -0.0956 -0.0636
 4859TIP3    H114583   1.842   1.856   3.883  0.8714  0.7411  0.9657
 4859TIP3    H214584   1.789   1.807   4.016 -1.1464 -1.2207 -0.5153
 4860TIP3   OH214585   2.698   3.120   3.982 -0.1204 -0.4025 -0.1023
 4860TIP3    H114586   2.663   3.050   3.928 -0.5331  0.1816 -0.5978
 4860TIP3    H214587   2.706   3.195   3.923 -1.8309  0.6412  0.9162
 4861TIP3   OH214588   5.035   1.833   0.760 -0.4348 -0.0126 -0.1905
 4861TIP3    H114589   4.950   1.808   0.795 -0.6226 -0.7807 -1.1613
 4861TIP3    H214590   5.079   1.877   0.832 -1.2170 -0.6180  0.6679
 4862TIP3   OH214591   6.107   4.357   4.076 -0.1507 -0.1797 -0.3223
 4862TIP3    H114592   6.119   4.263   4.088  1.0418 -0.3644 -2.6827
 4862TIP3    H214593   6.194   4.391   4.056 -0.5945  1.4141  0.3538
 4863TIP3   OH214594   5.037   1.991   0.265 -0.0161  0.3508 -0.1581
 4863TIP3    H114595   5.067   2.082   0.270 -0.0156  0.3844 -0.7581
 4863TIP3    H214596   5.114   1.941   0.236  0.7141 -0.2314  2.6313
 4864TIP3   OH214597   1.645   2.862   4.163  0.2000 -0.0153 -0.1028
 4864TIP3    H114598   1.595   2.782   4.150  0.5940 -0.0094 -1.8875
 4864TIP3    H214599   1.600   2.908   4.234 -0.4118 -1.4971  0.4891
 4865TIP3   OH214600   0.891   3.722   5.174  0.4807  0.3407  0.1166
 4865TIP3    H114601   0.899   3.681   5.088  0.6233  0.0619  0.2639
 4865TIP3    H214602   0.797   3.735   5.185  0.4784  0.5854 -0.1790
 4866TIP3   OH214603   0.617   3.744   5.062  0.1209 -0.1298  0.2173
 4866TIP3    H114604   0.524   3.766   5.066 -0.0126 -0.5040 -0.6056
 4866TIP3    H214605   0.619   3.648   5.071  0.2699 -0.3263 -1.7328
 4867TIP3   OH214606   1.462   1.495   3.248  0.4009 -0.2018  0.2303
 4867TIP3    H114607   1.463   1.589   3.265 -0.8958 -0.0198 -0.6646
 4867TIP3    H214608   1.404   1.459   3.316  0.1544 -0.2456 -0.0045
 4868TIP3   OH214609   2.103   4.822   2.983  0.3247  0.2192  0.0758
 4868TIP3    H114610   2.056   4.905   2.994  1.6775  0.8640  1.1525
 4868TIP3    H214611   2.107   4.785   3.071 -0.4469 -1.1148 -0.4238
 4869TIP3   OH214612   5.996   5.299   3.628  0.0070  0.0405  0.0901
 4869TIP3    H114613   6.054   5.238   3.583  0.3844  1.4700 -1.4057
 4869TIP3    H214614   5.973   5.364   3.562 -3.0614 -0.3119  0.7279
 4870TIP3   OH214615   0.523   2.173   3.527  0.1034 -0.5224 -0.1286
 4870TIP3    H114616   0.487   2.106   3.584 -0.9446  0.0526 -0.0848
 4870TIP3    H214617   0.464   2.248   3.538  3.1383  1.5973  2.3664
 4871TIP3   OH214618   3.891   4.873   3.861 -0.2951  0.1476  0.0416
 4871TIP3    H114619   3.924   4.961   3.844 -1.9143  0.7683 -0.0643
 4871TIP3    H214620   3.869   4.839   3.774 -0.0131 -0.2085  0.1133
 4872TIP3   OH214621   0.000   2.692   5.227  0.3211  0.9434 -0.0883
 4872TIP3    H114622   0.016   2.693   5.132  1.6825  0.7875  0.1198
 4872TIP3    H214623   0.081   2.727   5.265 -0.3753  1.4064  1.0034
 4873TIP3   OH214624   5.074   1.112   0.017 -0.0653  0.1482  0.1751
 4873TIP3    H114625   5.107   1.192   0.059  1.9733 -2.0678  2.9644
 4873TIP3    H214626   5.137   1.093  -0.052  0.0121  0.3515  0.1886
 4874TIP3   OH214627   6.164   5.491   4.252 -0.7358 -0.7075  0.3728
 4874TIP3    H114628   6.247   5.446   4.267 -0.1591  0.6934  1.4865
 4874TIP3    H214629   6.162   5.509   4.158  0.6998  0.2100  0.5192
 4875TIP3   OH214630   0.120   2.553   4.738  0.3227  0.2931  0.1795
 4875TIP3    H114631   0.073   2.516   4.663 -1.0580 -0.8495  1.5658
 4875TIP3    H214632   0.157   2.478   4.783  1.7977  1.0394  0.2212
 4876TIP3   OH214633   3.592   2.324   0.215 -0.4856  0.0741  0.8369
 4876TIP3    H114634   3.681   2.336   0.182 -1.1178  1.2377 -0.4874
 4876TIP3    H214635   3.539   2.307   0.137 -1.5698  0.2581  1.5235
 4877TIP3   OH214636   6.377   1.980   0.180 -0.3545  0.6324  0.7942
 4877TIP3    H114637   6.441   1.997   0.249  0.1472 -1.7786  0.9404
 4877TIP3    H214638   6.378   2.060   0.127  2.4245  0.8363  1.0734
 4878TIP3   OH214639   6.356   3.585   5.018 -0.1134  0.1249 -0.1088
 4878TIP3    H114640   6.282   3.524   5.019  1.1153 -1.4194 -0.8403
 4878TIP3    H214641   6.363   3.615   5.109 -1.5432  0.1824 -0.0080
 4879TIP3   OH214642   1.821   4.254   4.352 -0.3747 -0.8309 -0.0280
 4879TIP3    H114643   1.855   4.205   4.426  0.5460 -0.1476  0.0176
 4879TIP3    H214644   1.875   4.334   4.349 -1.6370  0.0368 -0.2748
 4880TIP3   OH214645   3.094   5.072   2.739  0.2450 -0.0693 -0.3375
 4880TIP3    H114646   3.092   4.987   2.783  0.0896 -0.3837 -0.9444
 4880TIP3    H214647   3.181   5.107   2.759  0.4761 -0.5736 -0.4498
 4881TIP3   OH214648   5.964   5.567   4.676  0.0481 -0.1201  0.0830
 4881TIP3    H114649   5.879   5.594   4.640  0.8456 -0.9535 -2.5776
 4881TIP3    H214650   5.952   5.475   4.698  0.2459 -0.2369 -0.2912
 4882TIP3   OH214651   3.756   2.920   0.553 -0.4488  0.0190 -0.6885
 4882TIP3    H114652   3.764   2.887   0.463 -0.4253 -2.0740  0.0521
 4882TIP3    H214653   3.767   3.014   0.545 -0.3845 -0.1517 -2.8858
 4883TIP3   OH214654   3.559   1.760   0.307 -0.0853  0.1377 -0.4086
 4883TIP3    H114655   3.477   1.710   0.308  0.7987 -1.3181  0.8105
 4883TIP3    H214656   3.538   1.839   0.256 -1.6118 -1.2610 -2.0230
 4884TIP3   OH214657   5.639   3.242   4.222  0.4483 -0.0126  0.3170
 4884TIP3    H114658   5.710   3.211   4.166  1.0586 -0.8924  1.5667
 4884TIP3    H214659   5.562   3.243   4.164  1.6868  2.1213 -1.3594
 4885TIP3   OH214660   5.744   3.685   4.902  0.1482  0.3818 -0.1795
 4885TIP3    H114661   5.736   3.769   4.857  1.4717  0.6013 -0.0408
 4885TIP3    H214662   5.693   3.696   4.982  0.9394  1.3389  0.2073
 4886TIP3   OH214663   1.227   4.529   3.947  0.1662  0.3045  0.4643
 4886TIP3    H114664   1.142   4.486   3.952  1.9776 -3.7094 -1.4744
 4886TIP3    H214665   1.234   4.558   3.856  1.4528 -0.6685  0.2396
 4887TIP3   OH214666   4.664   1.390   0.623  0.7203  0.1333 -0.6492
 4887TIP3    H114667   4.679   1.454   0.553 -1.5300  0.6568 -0.6790
 4887TIP3    H214668   4.612   1.438   0.688  1.1794 -0.9278  0.5145
 4888TIP3   OH214669   0.788   3.456   3.326  0.3744 -0.4899 -0.2104
 4888TIP3    H114670   0.846   3.479   3.253  0.9375 -1.8895 -0.2256
 4888TIP3    H214671   0.828   3.496   3.402 -0.6181  1.6181 -0.7584
 4889TIP3   OH214672   3.514   4.329   4.164  0.3246 -0.1764  0.3444
 4889TIP3    H114673   3.600   4.368   4.175 -0.4173  1.1384  1.6915
 4889TIP3    H214674   3.495   4.289   4.249  0.4330 -2.2016 -0.5528
 4890TIP3   OH214675   1.532   3.998   4.987  0.3334 -0.0235 -0.6423
 4890TIP3    H114676   1.484   4.061   5.041 -0.6227  0.6379 -2.2305
 4890TIP3    H214677   1.488   3.914   5.004  0.5790  0.0171  0.2416
 4891TIP3   OH214678   0.114   0.183   1.054  0.2759  0.0224  0.1479
 4891TIP3    H114679   0.150   0.094   1.060 -1.0297 -0.4045  2.2312
 4891TIP3    H214680   0.020   0.171   1.062 -0.2022  1.3415 -2.8043
 4892TIP3   OH214681   5.395   3.038   5.125 -0.4836 -0.0405  0.1989
 4892TIP3    H114682   5.360   3.082   5.202 -0.3282  0.3225  0.0640
 4892TIP3    H214683   5.359   2.949   5.129 -1.9401  0.5171 -0.2787
 4893TIP3   OH214684   2.476   3.854   2.851 -0.3641  0.0513 -0.3619
 4893TIP3    H114685   2.423   3.783   2.888 -0.1976  0.0959 -0.0364
 4893TIP3    H214686   2.458   3.929   2.907  0.3208 -0.0275 -0.0267
 4894TIP3   OH214687   3.623   4.703   3.711  0.3228 -0.0379 -0.5453
 4894TIP3    H114688   3.595   4.795   3.714 -1.4944 -0.5992  0.9916
 4894TIP3    H214689   3.541   4.654   3.709  1.2867 -1.6528 -1.2059
 4895TIP3   OH214690   5.772   1.850   0.853  0.5608  0.0764  0.1483
 4895TIP3    H114691   5.752   1.805   0.770 -0.1930  0.4973  0.0948
 4895TIP3    H214692   5.734   1.794   0.920 -0.5470  0.7281  0.0678
 4896TIP3   OH214693   4.821   0.844   0.236 -0.2419 -0.0126  0.2894
 4896TIP3    H114694   4.746   0.807   0.282 -0.7961  0.6339 -0.0781
 4896TIP3    H214695   4.885   0.863   0.305 -0.3656 -0.6832  0.5887
 4897TIP3   OH214696   0.448   3.127   4.951 -0.2122 -0.3974 -0.3741
 4897TIP3    H114697   0.540   3.150   4.937 -0.1809  1.5111  2.5392
 4897TIP3    H214698   0.450   3.060   5.019 -0.9315 -1.6032 -1.4974
 4898TIP3   OH214699   2.568   2.108   0.118  0.0767  0.2007 -0.3949
 4898TIP3    H114700   2.659   2.087   0.095 -0.5198 -1.1269 -1.5874
 4898TIP3    H214701   2.523   2.024   0.118 -1.6937  1.1182 -2.2479
 4899TIP3   OH214702   5.630   3.373   1.102 -0.5200  0.0760 -0.1060
 4899TIP3    H114703   5.568   3.439   1.132  0.0576  0.1496  0.9668
 4899TIP3    H214704   5.708   3.422   1.077 -0.0867 -0.1865  0.7013
 4900TIP3   OH214705   6.060   2.288   5.176 -0.7988 -0.0212  0.0331
 4900TIP3    H114706   6.032   2.207   5.219  0.0056  0.4019  1.3902
 4900TIP3    H214707   6.148   2.304   5.209 -1.0711  1.5923  0.0412
 4901TIP3   OH214708   1.815   4.379   4.035 -0.0806  0.2718  0.5368
 4901TIP3    H114709   1.780   4.451   4.087  0.7559  0.3672  0.9758
 4901TIP3    H214710   1.896   4.413   3.998  0.4341 -0.5290  0.9365
 4902TIP3   OH214711   5.297   1.741   0.664 -0.2158  0.0366  0.2105
 4902TIP3    H114712   5.206   1.714   0.674  0.2647 -1.4323  0.6546
 4902TIP3    H214713   5.342   1.664   0.627  1.3947 -0.1986  2.5530
 4903TIP3   OH214714   0.763   4.758   3.652  0.2995 -0.1643  0.2744
 4903TIP3    H114715   0.756   4.715   3.567  1.5796 -0.9664  0.5611
 4903TIP3    H214716   0.673   4.765   3.683 -0.0426 -1.2713 -0.4586
 4904TIP3   OH214717   0.547   2.169   4.652 -0.2485 -0.2490 -0.0928
 4904TIP3    H114718   0.474   2.115   4.620  0.4402 -0.8126 -0.7369
 4904TIP3    H214719   0.543   2.248   4.598 -1.0036  0.1768  0.5692
 4905TIP3   OH214720   1.179   3.470   3.066  0.0412  0.1096  0.3649
 4905TIP3    H114721   1.151   3.561   3.064  1.3878  0.5753  1.7000
 4905TIP3    H214722   1.243   3.463   2.995 -0.8667 -0.0812 -0.4424
 4906TIP3   OH214723   4.819   2.704   0.333  0.3326 -0.0896 -0.4069
 4906TIP3    H114724   4.865   2.769   0.279 -0.5295  1.0241  0.1904
 4906TIP3    H214725   4.730   2.703   0.299 -0.0558  0.1713  0.5805
 4907TIP3   OH214726   5.551   2.605   2.802  0.4875  0.1309 -0.6296
 4907TIP3    H114727   5.514   2.538   2.744  0.6246  0.7073 -1.3917
 4907TIP3    H214728   5.644   2.585   2.804  0.4755  0.0821 -0.5731
 4908TIP3   OH214729   1.354   4.078   3.766  0.2299  0.2939  0.0086
 4908TIP3    H114730   1.407   4.153   3.741 -1.1755  1.5770  0.8057
 4908TIP3    H214731   1.331   4.036   3.682  0.6943  0.9834 -0.4676
 4909TIP3   OH214732   0.531   3.617   2.753  0.6953 -0.4240 -0.5079
 4909TIP3    H114733   0.448   3.589   2.792  2.0443 -3.2385  0.4965
 4909TIP3    H214734   0.560   3.691   2.806  0.2041 -1.2318  0.8843
 4910TIP3   OH214735   1.818   4.770   4.529 -0.4251  0.1040  0.2477
 4910TIP3    H114736   1.855   4.773   4.617 -0.4372  1.1071  0.2263
 4910TIP3    H214737   1.726   4.747   4.542 -0.9652  2.4063  0.6698
 4911TIP3   OH214738   3.363   4.348   4.898 -0.0814  0.6507  0.2042
 4911TIP3    H114739   3.378   4.290   4.824 -0.9580 -0.4470  0.8706
 4911TIP3    H214740   3.269   4.346   4.912  0.2911 -1.2315  2.9659
 4912TIP3   OH214741   5.181   5.520   1.503 -0.1579 -0.1991  0.1901
 4912TIP3    H114742   5.234   5.597   1.522  0.6995 -0.4253 -1.1737
 4912TIP3    H214743   5.188   5.510   1.408  1.4329 -3.1305  0.5576
 4913TIP3   OH214744   6.175   1.344   1.360 -0.0826 -0.2838 -0.1783
 4913TIP3    H114745   6.228   1.399   1.303  1.5751 -0.5760  1.0297
 4913TIP3    H214746   6.091   1.334   1.314  1.1895 -0.4797 -2.5279
 4914TIP3   OH214747   0.188   4.155   4.932  0.0313  0.1547  0.1931
 4914TIP3    H114748   0.260   4.111   4.978 -0.7261 -1.5583 -0.2047
 4914TIP3    H214749   0.189   4.244   4.965  0.8793 -0.4719  1.9077
 4915TIP3   OH214750   1.705   4.834   3.978 -0.7488  0.1301 -0.4524
 4915TIP3    H114751   1.743   4.833   4.066 -2.9922  1.7744  0.5895
 4915TIP3    H214752   1.637   4.766   3.980  0.5175 -1.2229 -1.5916
 4916TIP3   OH214753   4.571   0.960   1.499 -0.2694  0.2852  0.2460
 4916TIP3    H114754   4.480   0.975   1.527 -0.5194  3.1682 -1.8695
 4916TIP3    H214755   4.605   1.048   1.481  2.5789 -0.8433 -0.1927
 4917TIP3   OH214756   0.196   3.226   5.016 -0.5798 -0.4475  0.0894
 4917TIP3    H114757   0.260   3.219   4.945 -0.5453  2.7564 -0.2612
 4917TIP3    H214758   0.222   3.304   5.065 -3.4584  0.2192  0.6747
 4918TIP3   OH214759   3.063   0.522   0.783  0.2323 -0.6549  0.2300
 4918TIP3    H114760   3.145   0.559   0.814  0.2446 -0.1472 -0.4079
 4918TIP3    H214761   3.064   0.535   0.688 -0.3373 -1.1329  0.1516
 4919TIP3   OH214762   0.348   3.767   5.006 -0.0870  0.7899  0.0410
 4919TIP3    H114763   0.396   3.807   4.933  1.2702 -1.8174 -0.5631
 4919TIP3    H214764   0.260   3.751   4.971  0.6069 -0.5993 -1.1220
 4920TIP3   OH214765   4.529   2.047   1.170  0.0328 -0.1756 -0.3495
 4920TIP3    H114766   4.568   2.113   1.113 -0.9797  1.4147  0.7570
 4920TIP3    H214767   4.447   2.023   1.127  0.0364 -0.1419 -0.3750
 4921TIP3   OH214768   0.341   0.597   3.042  0.2882  0.6937 -0.2101
 4921TIP3    H114769   0.338   0.607   3.137  0.4217  0.1830 -0.1499
 4921TIP3    H214770   0.396   0.669   3.012  1.1205  0.2384  0.1991
 4922TIP3   OH214771   3.622   5.599   0.137  0.0503 -0.1644 -0.1524
 4922TIP3    H114772   3.533   5.625   0.160 -0.3737 -0.4900 -1.3664
 4922TIP3    H214773   3.617   5.576   0.044  1.0783 -1.6273  0.1402
 4923TIP3   OH214774   0.353   0.894   0.823  0.3001  0.5392  0.4164
 4923TIP3    H114775   0.442   0.859   0.833  0.2892  0.7502  1.3376
 4923TIP3    H214776   0.314   0.841   0.753  1.4093  0.9750 -0.5402
 4924TIP3   OH214777   1.109   5.686   5.220 -0.0940 -0.8510  0.0584
 4924TIP3    H114778   1.045   5.755   5.240  0.0650 -1.7151  3.9207
 4924TIP3    H214779   1.193   5.732   5.216 -0.1499 -0.6063  1.3717
 4925TIP3   OH214780   3.284   4.011   2.936  0.2873  0.1881 -0.0133
 4925TIP3    H114781   3.247   4.095   2.963 -0.6962  0.3022 -1.5999
 4925TIP3    H214782   3.273   3.953   3.011 -1.8065  0.6486  0.0550
 4926TIP3   OH214783   4.547   0.117   4.941  0.0061  0.3085 -0.2662
 4926TIP3    H114784   4.642   0.105   4.930 -0.0955 -1.5721  0.6401
 4926TIP3    H214785   4.538   0.172   5.019  0.3177 -1.5021  1.0717
 4927TIP3   OH214786   0.561   1.627   0.077 -0.0455 -0.2191 -0.2622
 4927TIP3    H114787   0.501   1.553   0.068  1.5082 -1.3551 -1.8649
 4927TIP3    H214788   0.636   1.590   0.124  0.3884  0.5445 -0.3558
 4928TIP3   OH214789   3.200   1.389   0.573  0.0299 -0.3169  0.6817
 4928TIP3    H114790   3.178   1.363   0.663 -0.6656  2.1695  1.2776
 4928TIP3    H214791   3.115   1.405   0.532  0.4116  0.7992  0.3034
 4929TIP3   OH214792   4.210   0.057   0.764 -0.0948  0.3743  0.1036
 4929TIP3    H114793   4.156  -0.013   0.801 -1.1428  0.7001 -0.8047
 4929TIP3    H214794   4.168   0.079   0.681  1.2602  0.8479 -0.4687
 4930TIP3   OH214795   3.791   1.763   0.123  0.4602 -0.0637 -0.2253
 4930TIP3    H114796   3.781   1.759   0.218  0.2729 -0.8542 -0.2743
 4930TIP3    H214797   3.827   1.850   0.106  0.2343  0.1829  0.5455
 4931TIP3   OH214798   0.318   5.187   2.430 -0.9268 -0.0109  0.1009
 4931TIP3    H114799   0.390   5.134   2.395 -2.8144 -2.1158 -0.7588
 4931TIP3    H214800   0.252   5.185   2.362 -1.8914  1.7719  0.9438
 4932TIP3   OH214801   1.720   5.339   5.298  0.5277  0.2258 -0.0479
 4932TIP3    H114802   1.798   5.346   5.352 -0.0689  1.1275  0.7030
 4932TIP3    H214803   1.743   5.385   5.217  1.3101 -0.8621 -0.4616
 4933TIP3   OH214804   2.321   4.550   4.783 -0.1147 -0.1078  0.1267
 4933TIP3    H114805   2.316   4.455   4.773  0.8179 -0.0607 -0.7814
 4933TIP3    H214806   2.380   4.579   4.714 -0.0771  1.0949  0.6496
 4934TIP3   OH214807   2.704   0.284   5.101 -0.0863  0.0185 -0.5672
 4934TIP3    H114808   2.747   0.324   5.025 -1.1689 -1.8322 -2.2007
 4934TIP3    H214809   2.666   0.203   5.067 -0.8367 -0.7027  1.9041
 4935TIP3   OH214810   4.641   1.615   0.441 -0.1901  0.7667  0.0981
 4935TIP3    H114811   4.609   1.705   0.432 -0.9300  0.6141  1.1923
 4935TIP3    H214812   4.605   1.570   0.365 -2.0621  0.7485  0.9879
 4936TIP3   OH214813   2.585   1.672   4.725 -0.5333 -0.0912 -0.2747
 4936TIP3    H114814   2.612   1.616   4.652  1.2582  0.9737 -0.4788
 4936TIP3    H214815   2.505   1.714   4.695 -0.1335 -0.1078 -1.4157
 4937TIP3   OH214816   4.199   5.294   1.435 -0.0102 -0.2915 -0.6986
 4937TIP3    H114817   4.187   5.311   1.342  0.3440 -0.4766 -0.7817
 4937TIP3    H214818   4.292   5.312   1.450 -0.5628  2.0737  0.1265
 4938TIP3   OH214819   1.284   4.085   4.793 -0.6517  0.0069 -0.0255
 4938TIP3    H114820   1.334   4.050   4.718 -0.5880 -0.7057  0.3400
 4938TIP3    H214821   1.332   4.163   4.820 -0.4388  0.0301 -0.4710
 4939TIP3   OH214822   1.635   5.481   3.820  0.3033  0.1004 -0.3775
 4939TIP3    H114823   1.699   5.410   3.828  0.7616  0.4856 -0.5689
 4939TIP3    H214824   1.566   5.458   3.882 -0.7931 -1.8071 -2.2429
 4940TIP3   OH214825   4.984   5.046   2.504 -0.2447  0.4124  0.2028
 4940TIP3    H114826   5.064   4.993   2.500  1.6276  3.2068 -1.2917
 4940TIP3    H214827   4.952   5.035   2.593  2.0480 -0.4849  0.9573
 4941TIP3   OH214828   0.204   4.411   5.009 -0.4566 -0.1503  0.2346
 4941TIP3    H114829   0.260   4.419   5.086 -0.8742  0.5272  0.4827
 4941TIP3    H214830   0.136   4.477   5.023 -1.5255 -1.2117  0.1183
 4942TIP3   OH214831   0.730   2.245   0.799  0.6497  0.2320  0.0535
 4942TIP3    H114832   0.679   2.189   0.741  1.9783 -0.9205 -0.0598
 4942TIP3    H214833   0.793   2.185   0.839 -0.6071  0.8937  3.1388
 4943TIP3   OH214834   3.393   4.171   4.360 -0.0324  0.4180  0.0495
 4943TIP3    H114835   3.373   4.102   4.297 -1.2448  0.1256  0.7363
 4943TIP3    H214836   3.321   4.233   4.351  1.7976  2.3770 -1.6074
 4944TIP3   OH214837   3.266   2.763   0.385 -0.2401 -0.0359 -0.3300
 4944TIP3    H114838   3.182   2.788   0.345  0.0286 -0.8359 -1.4054
 4944TIP3    H214839   3.331   2.783   0.317  0.5952  1.7736  0.9610
 4945TIP3   OH214840   4.743   2.050   0.214 -0.2792 -0.0378 -0.2243
 4945TIP3    H114841   4.728   2.114   0.144  0.9267  2.1551  1.4612
 4945TIP3    H214842   4.838   2.049   0.225 -0.1006 -3.5370 -1.4590
 4946TIP3   OH214843   2.404   6.013   4.646 -0.0524  0.1809 -0.2914
 4946TIP3    H114844   2.340   5.993   4.577 -0.4656 -0.0939  0.1658
 4946TIP3    H214845   2.430   6.103   4.629  1.2303 -0.4606 -1.8969
 4947TIP3   OH214846   1.412   3.673   4.081  0.1845 -0.8426 -0.3627
 4947TIP3    H114847   1.358   3.602   4.044 -0.0208 -2.0204  2.1166
 4947TIP3    H214848   1.349   3.738   4.111  0.2964 -0.5646 -0.7241
 4948TIP3   OH214849   5.598   0.912   0.075  0.5999 -0.4938  0.4478
 4948TIP3    H114850   5.598   0.850   0.148 -0.5579  1.0281  1.7811
 4948TIP3    H214851   5.532   0.877   0.014  1.6770 -1.8455  0.0428
 4949TIP3   OH214852   3.280   0.146   3.026  0.7582 -0.5104  0.3995
 4949TIP3    H114853   3.274   0.201   2.948  0.0058 -0.5505  0.4228
 4949TIP3    H214854   3.195   0.102   3.031  1.0196 -0.9630  0.9040
 4950TIP3   OH214855   0.359   5.281   3.246 -0.0960  0.1447 -0.1923
 4950TIP3    H114856   0.340   5.339   3.319 -0.6206 -1.1709  0.7399
 4950TIP3    H214857   0.330   5.195   3.276  2.2206 -0.9111 -0.9043
 4951TIP3   OH214858   1.979   4.236   4.819 -0.3538 -0.0460  0.8049
 4951TIP3    H114859   1.918   4.307   4.839  0.5354  1.2759 -1.0019
 4951TIP3    H214860   1.931   4.181   4.757 -0.2209  0.2440  0.4402
 4952TIP3   OH214861   3.785   5.220   0.449  0.2746  0.2399 -0.2544
 4952TIP3    H114862   3.769   5.213   0.543  1.0264  0.0644 -0.1329
 4952TIP3    H214863   3.763   5.134   0.414  0.3508  0.1891 -0.1793
 4953TIP3   OH214864   5.814   0.024   4.622  0.0257  0.3191  0.2001
 4953TIP3    H114865   5.903   0.048   4.599  0.2548 -1.2940 -0.7028
 4953TIP3    H214866   5.820  -0.067   4.649 -1.6303 -0.4190 -1.7891
 4954TIP3   OH214867   0.939   3.002   0.911  0.4128 -0.2749 -0.1289
 4954TIP3    H114868   1.000   3.036   0.977 -1.2876 -0.1298  1.4063
 4954TIP3    H214869   0.893   3.080   0.878 -0.5443 -0.6206  0.3725
 4955TIP3   OH214870   5.869   2.602   0.611  0.2155  0.3859 -0.0002
 4955TIP3    H114871   5.943   2.559   0.655  0.2124 -0.0118 -0.3792
 4955TIP3    H214872   5.794   2.546   0.631  0.1523  0.3921 -0.2226
 4956TIP3   OH214873   2.015   2.543   4.264  0.1687  0.3546 -0.3759
 4956TIP3    H114874   1.985   2.628   4.232 -1.2574  0.1472  0.3770
 4956TIP3    H214875   1.946   2.482   4.240  0.7400 -0.4307 -0.0658
 4957TIP3   OH214876   3.307   3.627   4.861 -0.2377 -0.1187 -0.0861
 4957TIP3    H114877   3.368   3.609   4.789  0.5090 -0.6090  0.6632
 4957TIP3    H214878   3.235   3.566   4.847  0.3265 -0.8238  0.0830
 4958TIP3   OH214879   3.435   4.979   0.294 -0.3474 -0.4160 -0.4135
 4958TIP3    H114880   3.400   4.892   0.308 -0.9019  0.0432  1.2004
 4958TIP3    H214881   3.366   5.026   0.247 -0.3811 -0.5993 -0.5477
 4959TIP3   OH214882   1.455   3.334   4.152 -0.2437  0.7670 -0.1518
 4959TIP3    H114883   1.487   3.421   4.177 -0.6239  1.4660 -2.0534
 4959TIP3    H214884   1.533   3.280   4.148 -0.0082  0.9997  1.0760
 4960TIP3   OH214885   5.840   5.019   4.295 -0.0335  0.3720  0.1338
 4960TIP3    H114886   5.829   5.114   4.292 -3.0762  0.0547  0.0034
 4960TIP3    H214887   5.799   4.992   4.377 -1.7157 -1.0963 -1.1327
 4961TIP3   OH214888   1.666   4.397   2.447  0.4821  0.1773 -0.2458
 4961TIP3    H114889   1.711   4.314   2.461 -0.1964 -0.5855 -2.4933
 4961TIP3    H214890   1.605   4.403   2.520  1.6535 -0.5112  0.8153
 4962TIP3   OH214891   1.309   5.786   2.078  0.2093 -0.2019  0.7956
 4962TIP3    H114892   1.346   5.797   1.990  0.9393  0.1741  1.1497
 4962TIP3    H214893   1.283   5.694   2.081 -0.9619  0.0666 -0.2470
 4963TIP3   OH214894   1.725   2.497   4.507 -0.5468 -0.1266  0.1928
 4963TIP3    H114895   1.774   2.505   4.426  0.2856 -1.3838  0.5481
 4963TIP3    H214896   1.697   2.586   4.528 -1.2722  0.1263 -1.7666
 4964TIP3   OH214897   1.064   5.764   1.281 -0.5880  0.3736  0.9220
 4964TIP3    H114898   1.023   5.699   1.224 -0.4150  1.3677 -0.3748
 4964TIP3    H214899   0.992   5.808   1.324 -0.8516  1.2716 -0.4037
 4965TIP3   OH214900   5.759   2.646   0.936  0.0246 -0.2279 -0.3439
 4965TIP3    H114901   5.711   2.602   0.866 -0.0932 -1.2678  0.3759
 4965TIP3    H214902   5.736   2.738   0.927 -0.1446 -0.3811 -1.5482
 4966TIP3   OH214903   4.109   3.538   0.952 -0.0793 -0.0094 -0.4970
 4966TIP3    H114904   4.125   3.609   0.890  0.3970  1.2912  1.0762
 4966TIP3    H214905   4.165   3.558   1.028 -1.1082 -1.2077  0.6172
 4967TIP3   OH214906   2.544   4.344   4.732 -0.0396 -0.2724 -0.1371
 4967TIP3    H114907   2.522   4.251   4.744 -1.9850  0.2713  0.7311
 4967TIP3    H214908   2.545   4.356   4.637 -0.0441 -1.1308 -0.2499
 4968TIP3   OH214909   1.271   3.761   3.627  0.2342 -1.3096 -0.4511
 4968TIP3    H114910   1.240   3.685   3.677  0.5166 -0.1482  1.5252
 4968TIP3    H214911   1.192   3.794   3.584 -0.6100 -0.5054  1.6863
 4969TIP3   OH214912   0.492   1.559   0.405 -0.0000 -0.1837  0.0462
 4969TIP3    H114913   0.398   1.553   0.390 -0.0527  0.8347 -0.0543
 4969TIP3    H214914   0.509   1.496   0.476 -0.7776 -0.2529  0.1745
 4970TIP3   OH214915   5.684   2.705   0.186  0.1084 -0.1663  0.2970
 4970TIP3    H114916   5.621   2.644   0.225 -2.4329  0.8284 -2.0841
 4970TIP3    H214917   5.687   2.680   0.093  2.9457  0.0902  0.2598
 4971TIP3   OH214918   5.905   0.804   0.091 -0.0410 -0.1332  0.0589
 4971TIP3    H114919   5.881   0.894   0.113  0.1420 -0.6523  2.5812
 4971TIP3    H214920   5.994   0.810   0.057 -1.1408  0.9768 -2.7650
 4972TIP3   OH214921   3.059   6.022   3.910  0.1269 -0.0433 -0.4481
 4972TIP3    H114922   3.145   5.998   3.875 -0.1087 -0.3927 -0.7853
 4972TIP3    H214923   3.023   5.941   3.945  0.6169  0.4152  1.1875
 4973TIP3   OH214924   2.105   4.025   2.935  0.0010 -0.3200 -0.0797
 4973TIP3    H114925   2.197   4.051   2.932  0.6555 -2.6298 -1.6647
 4973TIP3    H214926   2.069   4.070   3.011  2.3209  1.0175  0.2513
 4974TIP3   OH214927   0.891   4.897   4.177  0.0903 -0.7020  0.4995
 4974TIP3    H114928   0.882   4.841   4.254  1.9381 -0.7449  0.7118
 4974TIP3    H214929   0.985   4.914   4.171 -0.1435  0.0677 -1.2055
 4975TIP3   OH214930   2.557   3.130   4.434  0.1245 -0.0724  0.6568
 4975TIP3    H114931   2.464   3.152   4.435  0.2555  0.7229 -1.2345
 4975TIP3    H214932   2.559   3.036   4.418 -0.3670 -0.1148  0.8367
 4976TIP3   OH214933   0.706   0.598   0.319  0.5138 -0.2150  0.0599
 4976TIP3    H114934   0.645   0.579   0.248  1.2646  0.3561 -0.7549
 4976TIP3    H214935   0.761   0.519   0.325 -1.1223 -1.2656  1.6791
 4977TIP3   OH214936   0.036   2.221   3.603 -0.8294 -0.8088  0.2878
 4977TIP3    H114937   0.115   2.275   3.606 -1.6162  0.3248  1.3875
 4977TIP3    H214938   0.018   2.210   3.510 -0.2569  0.2538  0.0391
 4978TIP3   OH214939   5.341   2.129   0.884  0.0858 -0.1492 -0.1134
 4978TIP3    H114940   5.307   2.123   0.795 -0.3235  2.1257 -0.1439
 4978TIP3    H214941   5.431   2.158   0.873  0.7042 -1.8698  0.1636
 4979TIP3   OH214942   2.949   4.215   4.464 -0.2378 -0.2132  0.1218
 4979TIP3    H114943   2.989   4.218   4.551  2.6740 -0.4774 -1.1420
 4979TIP3    H214944   2.864   4.257   4.475  0.2743  0.1770  2.9902
 4980TIP3   OH214945   1.985   4.532   3.875  0.1093  0.2680 -0.3505
 4980TIP3    H114946   1.971   4.484   3.793  2.1786 -0.6705 -0.2000
 4980TIP3    H214947   2.025   4.615   3.849  0.3365  0.1628 -0.3446
 4981TIP3   OH214948   4.326   4.388   4.057  0.4461 -0.3195  0.2415
 4981TIP3    H114949   4.239   4.392   4.098  0.3631 -0.3505  0.0671
 4981TIP3    H214950   4.309   4.368   3.966  0.6282 -0.1453  0.1684
 4982TIP3   OH214951   1.875   2.764   5.335 -0.1234 -0.3487 -0.2061
 4982TIP3    H114952   1.792   2.716   5.336  0.8038 -1.9533  0.4392
 4982TIP3    H214953   1.890   2.783   5.242 -0.8350 -0.6831 -0.3976
 4983TIP3   OH214954   3.702   4.718   4.028  0.6639  0.4414  0.2194
 4983TIP3    H114955   3.770   4.761   3.977 -1.2349 -0.4571 -3.1936
 4983TIP3    H214956   3.620   4.759   3.999 -0.6806 -1.6908  0.8946
 4984TIP3   OH214957   0.634   2.727   1.083  0.7881  0.0890 -0.1800
 4984TIP3    H114958   0.712   2.783   1.081  1.1987 -0.4397  0.6088
 4984TIP3    H214959   0.669   2.638   1.088  0.1370 -0.2030 -0.8553
 4985TIP3   OH214960   2.099   5.337   5.089  0.1804 -0.3141  0.3597
 4985TIP3    H114961   2.084   5.316   5.181  2.3278 -0.1751  0.7764
 4985TIP3    H214962   2.084   5.431   5.082  1.4182 -0.0746  0.8819
 4986TIP3   OH214963   2.799   4.459   4.439 -0.1529  0.4026 -0.5863
 4986TIP3    H114964   2.793   4.506   4.356 -0.3664 -0.1698 -0.8978
 4986TIP3    H214965   2.721   4.403   4.440  0.6344 -0.6987 -0.6842
 4987TIP3   OH214966   0.934   4.732   4.704 -0.5391 -0.3362 -0.3577
 4987TIP3    H114967   1.015   4.779   4.684  0.2030 -1.7597 -0.6837
 4987TIP3    H214968   0.961   4.654   4.752 -1.8345 -0.1101  0.7903
 4988TIP3   OH214969   0.909   4.733   3.346  0.0865  0.1925 -0.4834
 4988TIP3    H114970   0.902   4.683   3.265  0.0071  0.0440 -0.3869
 4988TIP3    H214971   0.995   4.710   3.381 -0.7093 -1.3887  0.5371
 4989TIP3   OH214972   2.788   5.652   4.243  0.1738  0.1658  0.3434
 4989TIP3    H114973   2.756   5.580   4.297 -3.1666  1.3999  0.1249
 4989TIP3    H214974   2.797   5.725   4.304  0.2963  0.4589 -0.0234
 4990TIP3   OH214975   1.317   2.860   4.498 -0.3633 -0.5127 -0.7583
 4990TIP3    H114976   1.232   2.856   4.541  0.2190  0.4355  0.4974
 4990TIP3    H214977   1.356   2.773   4.513 -0.7551 -0.6625 -0.6086
 4991TIP3   OH214978   3.552   4.658   0.165  0.4076 -0.3921 -0.1657
 4991TIP3    H114979   3.533   4.671   0.258 -1.7165 -0.2232 -0.6042
 4991TIP3    H214980   3.596   4.739   0.138  0.6737 -0.2811  0.5947
 4992TIP3   OH214981   6.348   5.580   5.256 -0.3359  0.2031  0.6612
 4992TIP3    H114982   6.426   5.621   5.292 -1.6352  3.1677  0.3213
 4992TIP3    H214983   6.374   5.491   5.234  2.0252  0.1287  3.5423
 4993TIP3   OH214984   0.501   3.689   3.382 -0.0082  0.0145  0.0449
 4993TIP3    H114985   0.405   3.697   3.380  0.0957  1.3524 -0.6616
 4993TIP3    H214986   0.529   3.759   3.441  0.5430 -0.2858  0.1372
 4994TIP3   OH214987   2.556   4.277   4.199 -0.3346 -0.0653 -0.4224
 4994TIP3    H114988   2.648   4.294   4.178 -0.2477 -0.0246 -0.0039
 4994TIP3    H214989   2.559   4.218   4.274 -0.6338 -1.8384 -1.7686
 4995TIP3   OH214990   2.544   2.542   4.185 -0.0578  0.3029  0.2083
 4995TIP3    H114991   2.450   2.558   4.178 -0.0555 -0.2825 -1.2625
 4995TIP3    H214992   2.551   2.462   4.237 -0.4530 -0.5195 -0.9678
 4996TIP3   OH214993   3.440   5.896   1.835  0.2277  0.3303 -0.1163
 4996TIP3    H114994   3.511   5.931   1.782 -0.7865 -0.2823 -1.9467
 4996TIP3    H214995   3.417   5.967   1.895  1.2647  1.1230 -0.6411
 4997TIP3   OH214996   5.774   1.598   3.416  0.3959 -0.5531 -0.6225
 4997TIP3    H114997   5.854   1.633   3.454 -0.5910 -1.8522  2.8405
 4997TIP3    H214998   5.767   1.509   3.451 -0.9916 -1.5532 -3.3042
 4998TIP3   OH214999   4.221   4.722   2.870  0.3506  0.4082  0.3248
 4998TIP3    H115000   4.196   4.666   2.944  1.1503  0.5733  0.7272
 4998TIP3    H215001   4.154   4.790   2.868 -0.4995 -0.4238 -0.0216
 4999TIP3   OH215002   4.020   3.929   3.234 -0.3748  0.0862 -0.0609
 4999TIP3    H115003   4.052   4.005   3.185  4.0316 -0.8502  1.0775
 4999TIP3    H215004   3.941   3.960   3.279 -1.4264  2.5030 -3.4074
 5000TIP3   OH215005   0.539   4.675   4.737 -0.6308 -0.2714  0.0583
 5000TIP3    H115006   0.609   4.619   4.771 -0.5527 -0.2142 -0.0059
 5000TIP3    H215007   0.516   4.731   4.811 -0.2405  0.0676 -0.0768
 5001TIP3   OH215008   2.250   4.250   4.768  0.4273 -0.1439  0.0690
 5001TIP3    H115009   2.268   4.212   4.854 -0.4092 -0.9947 -0.1173
 5001TIP3    H215010   2.154   4.258   4.766  0.5156  0.7156 -0.4251
 5002TIP3   OH215011   2.091   4.929   3.860  0.0511 -0.3923  0.1956
 5002TIP3    H115012   2.016   4.913   3.803 -0.7965  2.0587  0.5689
 5002TIP3    H215013   2.068   4.888   3.943  0.1635 -1.6978 -0.4060
 5003TIP3   OH215014   2.518   5.328   4.187  0.1493 -0.3308 -0.0347
 5003TIP3    H115015   2.602   5.334   4.233  0.0381  0.4123  0.0838
 5003TIP3    H215016   2.454   5.363   4.249 -0.1477 -0.2785 -0.3666
 5004TIP3   OH215017   2.272   4.069   3.516 -0.4646 -0.0567 -0.0088
 5004TIP3    H115018   2.273   4.060   3.421  0.2357 -0.2393  0.0137
 5004TIP3    H215019   2.229   4.153   3.532  1.8024  1.2428 -0.5900
 5005TIP3   OH215020   6.289   0.504   3.201 -0.1716 -0.3798  0.1455
 5005TIP3    H115021   6.281   0.433   3.265 -0.3352 -0.2505  0.2699
 5005TIP3    H215022   6.257   0.465   3.119 -0.4150 -0.4010  0.2496
 5006TIP3   OH215023   0.479   4.893   4.033  0.2165 -0.0140 -0.3652
 5006TIP3    H115024   0.565   4.866   4.002 -0.6836 -1.0835 -1.9847
 5006TIP3    H215025   0.459   4.833   4.104  0.4431 -0.2983 -0.5411
 5007TIP3   OH215026   3.746   0.043   4.206  0.2507  0.4244 -0.3580
 5007TIP3    H115027   3.793   0.052   4.123  2.9645 -1.2677  0.9460
 5007TIP3    H215028   3.688  -0.033   4.192 -0.3684  1.0302 -1.1566
 5008TIP3   OH215029   0.119   3.063   3.067  0.0512  0.0837  0.3594
 5008TIP3    H115030   0.143   3.098   3.153 -0.5833 -1.8837  1.3607
 5008TIP3    H215031   0.190   3.093   3.010  1.5910 -0.3258  1.9806
 5009TIP3   OH215032   2.948   6.056   4.637 -0.0402 -0.5240 -0.2631
 5009TIP3    H115033   2.958   6.151   4.634 -0.6337 -0.4826 -0.8682
 5009TIP3    H215034   2.876   6.037   4.578  1.6920 -1.5952 -2.0931
 5010TIP3   OH215035   2.472   2.959   4.171 -0.0992  0.0764 -0.3497
 5010TIP3    H115036   2.467   3.021   4.099 -1.4293  1.1992  0.6775
 5010TIP3    H215037   2.383   2.926   4.182  0.1256 -0.2377  0.6381
 5011TIP3   OH215038   4.009   4.601   2.060  0.3426 -0.0632 -0.2401
 5011TIP3    H115039   3.938   4.540   2.044  0.4845  0.2176 -2.0800
 5011TIP3    H215040   3.972   4.667   2.118 -1.0217  0.2869 -1.4747
 5012TIP3   OH215041   2.207   5.964   4.851  0.0664 -0.0978  0.5970
 5012TIP3    H115042   2.291   5.982   4.809  0.2487  0.4443  1.1990
 5012TIP3    H215043   2.164   6.049   4.858 -0.3398 -0.3092  0.7205
 5013TIP3   OH215044   3.878   2.348   0.150  0.3328 -0.3015 -0.2759
 5013TIP3    H115045   3.910   2.345   0.059  0.3987 -0.5454 -0.2470
 5013TIP3    H215046   3.955   2.323   0.202  0.6760  1.1598 -0.0550
 5014TIP3   OH215047   2.348   4.241   4.516 -0.3701  0.1457 -0.3364
 5014TIP3    H115048   2.288   4.191   4.462  0.7947 -1.8543  0.1639
 5014TIP3    H215049   2.306   4.246   4.602 -0.6661  0.3864 -0.4939
 5015TIP3   OH215050   3.378   5.969   4.739  0.1247  0.4497  0.3964
 5015TIP3    H115051   3.471   5.955   4.719 -0.0062  1.5285 -1.0796
 5015TIP3    H215052   3.360   6.057   4.705 -1.3037  0.4571  1.1634
 5016TIP3   OH215053   0.191   0.833   0.370 -0.5060  0.5452 -0.1355
 5016TIP3    H115054   0.146   0.831   0.285  0.1455  0.1883 -0.4806
 5016TIP3    H215055   0.283   0.844   0.347 -0.3837  0.9373  0.5520
 5017TIP3   OH215056   4.056   5.213   3.521  0.5351 -0.1325  0.2700
 5017TIP3    H115057   3.969   5.247   3.499  0.1463 -0.8542  0.6572
 5017TIP3    H215058   4.084   5.166   3.443  1.2419  1.4061 -0.4043
 5018TIP3   OH215059   2.821   5.069   4.067  0.6312  0.1626  0.3005
 5018TIP3    H115060   2.768   5.003   4.112 -0.1558  1.5242  1.4062
 5018TIP3    H215061   2.859   5.122   4.137  0.9672  1.1120 -0.5843
 5019TIP3   OH215062   3.299   5.635   3.889  0.0010  0.1921  0.0557
 5019TIP3    H115063   3.219   5.678   3.859 -0.3371  0.8851  1.8653
 5019TIP3    H215064   3.274   5.544   3.901  0.8364 -0.7053 -4.2408
 5020TIP3   OH215065   4.746   3.326   3.681  0.0535  0.4430  0.1154
 5020TIP3    H115066   4.735   3.289   3.594  0.9007  0.2598  0.0815
 5020TIP3    H215067   4.671   3.294   3.731  1.0314 -1.6948  0.2279
 5021TIP3   OH215068   2.929   5.304   3.022 -0.0527 -0.6832 -0.3196
 5021TIP3    H115069   3.006   5.247   3.033  0.8890  0.7058  0.4633
 5021TIP3    H215070   2.874   5.283   3.098  0.8303  0.2532  0.5989
 5022TIP3   OH215071   3.916   5.887   5.259  0.4556  0.7518 -0.3274
 5022TIP3    H115072   3.835   5.918   5.299  1.6090  2.6552  0.6082
 5022TIP3    H215073   3.911   5.792   5.265 -0.3184  0.9398  2.5541
 5023TIP3   OH215074   2.169   2.311   4.212 -0.2486 -0.5384  0.0071
 5023TIP3    H115075   2.183   2.269   4.297 -2.3791 -0.7296  0.2908
 5023TIP3    H215076   2.160   2.404   4.232 -1.6849 -0.6911  0.1205
 5024TIP3   OH215077   3.875   5.791   4.789 -0.7122  0.2911  0.1280
 5024TIP3    H115078   3.828   5.714   4.819 -0.4876 -0.4322 -1.3207
 5024TIP3    H215079   3.934   5.814   4.861  0.3276 -1.8205 -0.0275
 5025TIP3   OH215080   2.234   3.635   4.516  0.1846 -0.0971  0.0644
 5025TIP3    H115081   2.229   3.568   4.584  1.2400 -0.5912 -0.3217
 5025TIP3    H215082   2.175   3.604   4.447 -1.5546  0.8414  1.1014
 5026TIP3   OH215083   3.492   4.803   3.186 -0.3343  0.8453 -0.2930
 5026TIP3    H115084   3.466   4.727   3.238 -1.2344  0.8722 -0.6990
 5026TIP3    H215085   3.585   4.789   3.166 -0.5045 -0.1390 -0.3735
 5027TIP3   OH215086   0.613   3.044   3.021  0.2219  0.2024 -0.3290
 5027TIP3    H115087   0.679   2.983   3.053  0.7337  0.5564 -0.6994
 5027TIP3    H215088   0.655   3.130   3.028 -1.0596  0.7057  1.7128
 5028TIP3   OH215089   5.651   0.324   0.701  0.0443  0.1729 -0.7280
 5028TIP3    H115090   5.597   0.365   0.634 -0.6697 -0.8253 -0.7728
 5028TIP3    H215091   5.594   0.318   0.778 -0.4977 -2.4223 -1.2782
 5029TIP3   OH215092   1.605   5.252   4.601 -0.0329  0.6828  0.0683
 5029TIP3    H115093   1.566   5.337   4.623 -1.7632  0.1797 -1.0045
 5029TIP3    H215094   1.534   5.203   4.559  0.4291 -1.9512  2.2201
 5030TIP3   OH215095   2.220   0.414   3.860 -0.1488 -0.1650 -0.0446
 5030TIP3    H115096   2.243   0.426   3.768  0.0021  0.8540  0.1287
 5030TIP3    H215097   2.193   0.500   3.890 -1.5301 -0.7631  0.5105
 5031TIP3   OH215098   3.549   5.018   5.012 -0.3182 -0.2504  0.0703
 5031TIP3    H115099   3.610   4.960   5.059  1.8130  0.6859 -1.4283
 5031TIP3    H215100   3.546   4.982   4.923 -2.0534 -0.3295  0.1564
 5032TIP3   OH215101   0.086   0.802   1.214  0.1161 -0.0282 -0.6395
 5032TIP3    H115102   0.030   0.826   1.288  1.4289  0.0966  0.3471
 5032TIP3    H215103   0.087   0.706   1.215  0.0182 -0.0289 -0.5716
 5033TIP3   OH215104   2.532   4.314   3.528  0.1024  0.2188  0.1554
 5033TIP3    H115105   2.495   4.226   3.531  0.7448 -0.1261 -1.6458
 5033TIP3    H215106   2.584   4.320   3.609 -2.5396  0.1598  1.9236
 5034TIP3   OH215107   1.519   5.161   4.065  0.6790 -0.4249 -0.4971
 5034TIP3    H115108   1.557   5.095   4.007 -1.7496 -1.1503 -1.3275
 5034TIP3    H215109   1.465   5.216   4.008 -1.3300 -0.8222  0.9322
 5035TIP3   OH215110   6.181   1.630   0.032  0.3808 -0.0847  0.4170
 5035TIP3    H115111   6.225   1.545   0.033  1.5073  0.5018  0.5564
 5035TIP3    H215112   6.215   1.676   0.109 -0.1454  0.5374  0.2819
 5036TIP3   OH215113   2.687   4.593   4.963  0.1619 -0.3519  0.2349
 5036TIP3    H115114   2.689   4.661   5.030 -0.7293 -1.1820  1.1031
 5036TIP3    H215115   2.652   4.638   4.886 -0.4961  0.1523  0.8201
 5037TIP3   OH215116   0.174   1.513   0.825  0.5446 -0.0976  0.6457
 5037TIP3    H115117   0.185   1.489   0.733  0.4921 -1.6169  1.0180
 5037TIP3    H215118   0.112   1.449   0.859 -0.7534  1.4990  1.3333
 5038TIP3   OH215119   1.814   2.436   4.779 -1.1707 -0.7440 -0.0025
 5038TIP3    H115120   1.853   2.349   4.772  2.8844  1.0954 -1.6604
 5038TIP3    H215121   1.808   2.467   4.688  0.0968  1.8085  0.7606
 5039TIP3   OH215122   3.040   3.818   3.502 -0.7310  0.4339 -0.3656
 5039TIP3    H115123   3.036   3.777   3.415  0.0723 -0.8398  0.1887
 5039TIP3    H215124   2.957   3.866   3.510 -0.7723  0.6392 -1.8672
 5040TIP3   OH215125   5.285   1.843   0.065 -0.8056 -0.0896  0.4841
 5040TIP3    H115126   5.278   1.922   0.011 -2.3151 -0.4465  0.1610
 5040TIP3    H215127   5.341   1.784   0.015  1.3171  1.1874  1.2455
 5041TIP3   OH215128   1.175   5.606   3.989  0.5073 -0.0032 -0.6520
 5041TIP3    H115129   1.207   5.626   3.901  1.2708 -0.9110 -0.5856
 5041TIP3    H215130   1.120   5.529   3.978  0.2050  0.1753 -0.4043
 5042TIP3   OH215131   1.486   1.628   1.131  0.5299  0.2910 -0.1341
 5042TIP3    H115132   1.542   1.700   1.102 -0.3062  0.0796 -2.3404
 5042TIP3    H215133   1.407   1.672   1.164 -0.2120  0.3996 -1.9909
 5043TIP3   OH215134   0.963   5.655   4.121 -0.7491  0.1318 -0.1637
 5043TIP3    H115135   1.049   5.662   4.079 -0.4432  2.9215  0.8348
 5043TIP3    H215136   0.939   5.746   4.142 -2.9349 -0.8048  1.5692
 5044TIP3   OH215137   5.518   4.977   0.447  0.1997  0.2471 -0.0662
 5044TIP3    H115138   5.543   4.991   0.355 -2.2155  3.3065 -0.3271
 5044TIP3    H215139   5.429   4.943   0.443  0.4974 -0.7335  1.1612
 5045TIP3   OH215140   6.286   4.961   5.251  0.3509 -0.1927 -0.2502
 5045TIP3    H115141   6.365   4.997   5.292  1.3726  0.3838 -2.6322
 5045TIP3    H215142   6.309   4.871   5.228 -0.4789 -0.7638  1.1063
 5046TIP3   OH215143   2.113   2.804   4.729 -0.4711  0.6250 -0.2722
 5046TIP3    H115144   2.158   2.813   4.645 -0.6325  0.0552 -0.4188
 5046TIP3    H215145   2.071   2.718   4.725 -0.3555  0.5332  0.4544
 5047TIP3   OH215146   2.970   0.086   3.737 -0.1786 -0.1787  0.3870
 5047TIP3    H115147   2.990   0.058   3.648 -1.4200  0.5143 -0.1108
 5047TIP3    H215148   3.033   0.038   3.791 -0.2825 -1.6080 -0.7297
 5048TIP3   OH215149   2.138   3.893   3.675  0.3958  0.4454  0.6630
 5048TIP3    H115150   2.121   3.818   3.618 -3.1015  1.8391 -0.2520
 5048TIP3    H215151   2.180   3.957   3.618 -0.3133  0.6759  0.3860
 5049TIP3   OH215152   0.465   2.700   0.842 -0.1053  0.3043  0.0434
 5049TIP3    H115153   0.475   2.618   0.795 -1.5804 -1.5438  2.7832
 5049TIP3    H215154   0.536   2.700   0.906  0.4077  1.5939 -0.5060
 5050TIP3   OH215155   4.248   4.033   3.533  0.4517 -0.4280  0.1316
 5050TIP3    H115156   4.250   3.988   3.448  1.2765 -0.4340  0.1474
 5050TIP3    H215157   4.192   3.978   3.587 -0.2895 -0.2833 -0.4897
 5051TIP3   OH215158   3.034   5.021   4.748  0.3884 -0.0100 -0.5390
 5051TIP3    H115159   2.968   5.078   4.787  0.7613  0.1091 -0.0761
 5051TIP3    H215160   2.990   4.937   4.738  0.5444 -0.2919  0.9696
 5052TIP3   OH215161   2.357   4.000   3.868  0.2804  0.4987 -0.2641
 5052TIP3    H115162   2.332   3.924   3.920 -0.0698  0.8952  0.1528
 5052TIP3    H215163   2.295   4.001   3.795  0.2967  0.3772 -0.2799
 5053TIP3   OH215164   2.570   4.662   4.302 -0.0389  0.8726  0.2841
 5053TIP3    H115165   2.542   4.656   4.394  0.6404  1.3587  0.5265
 5053TIP3    H215166   2.495   4.627   4.252  0.9911 -2.9789  1.2183
 5054TIP3   OH215167   6.074   4.690   4.946 -0.1306 -0.1390  0.2374
 5054TIP3    H115168   6.016   4.719   5.017  0.4924  1.1847  0.2176
 5054TIP3    H215169   6.152   4.658   4.991 -0.2647 -0.5218  0.1998
 5055TIP3   OH215170   5.470   2.776   3.674  0.1491 -0.1555  0.6016
 5055TIP3    H115171   5.527   2.852   3.668 -2.6261  1.9335 -0.2134
 5055TIP3    H215172   5.383   2.812   3.693 -1.4889 -2.9905 -1.0947
 5056TIP3   OH215173   3.033   5.557   4.117  0.1183 -0.2586 -0.4483
 5056TIP3    H115174   3.054   5.643   4.154 -1.5725 -1.0241  2.3939
 5056TIP3    H215175   2.939   5.547   4.131  0.5138 -3.1457  0.5483
 5057TIP3   OH215176   1.632   4.749   4.845  0.2847  0.2697  0.3586
 5057TIP3    H115177   1.607   4.834   4.883 -0.3764 -0.5490  1.7768
 5057TIP3    H215178   1.597   4.752   4.756  1.5263  2.0672 -0.0942
 5058TIP3   OH215179   3.453   5.632   4.839 -0.4117  0.1234  0.5728
 5058TIP3    H115180   3.443   5.637   4.744 -0.7892 -0.6570  0.5686
 5058TIP3    H215181   3.377   5.678   4.874 -0.4257  0.1584  0.4971
 5059TIP3   OH215182   4.658   2.154   0.949  0.2293  0.3666  0.0210
 5059TIP3    H115183   4.644   2.242   0.985 -0.4477  0.8936 -1.4933
 5059TIP3    H215184   4.636   2.162   0.857  1.8826 -0.9738 -0.5194
 5060TIP3   OH215185   1.923   3.418   3.171  0.5355  0.5268  0.4274
 5060TIP3    H115186   1.986   3.359   3.212  0.4931  0.2205  0.0538
 5060TIP3    H215187   1.974   3.466   3.106  0.0362 -0.9540 -1.0933
 5061TIP3   OH215188   1.156   3.460   4.323  0.2033 -0.3876 -0.1993
 5061TIP3    H115189   1.215   3.429   4.391  0.3153  0.9421  0.3218
 5061TIP3    H215190   1.093   3.389   4.311  2.3937 -2.1605 -1.3600
 5062TIP3   OH215191   2.187   4.023   4.400  0.6694 -0.6198  0.3229
 5062TIP3    H115192   2.118   3.959   4.387 -1.0269  1.3235 -0.5166
 5062TIP3    H215193   2.266   3.971   4.414 -0.8400 -2.8680  0.7076
 5063TIP3   OH215194   3.222   3.433   4.009  0.1866 -0.0353 -0.0251
 5063TIP3    H115195   3.141   3.467   3.972 -0.6174 -0.8273  0.9643
 5063TIP3    H215196   3.218   3.339   3.991  2.6494  0.3937 -3.2516
 5064TIP3   OH215197   0.242   3.034   0.060  0.4931  0.0123 -0.6035
 5064TIP3    H115198   0.224   2.998  -0.027  1.3508 -2.4547  0.2029
 5064TIP3    H215199   0.304   2.972   0.099  0.5826  1.4182  1.5416
 5065TIP3   OH215200   2.288   2.439   3.637 -0.0954 -0.0791  0.2837
 5065TIP3    H115201   2.271   2.474   3.725 -2.4064 -0.9443  0.1974
 5065TIP3    H215202   2.301   2.345   3.651 -2.0493 -0.4733 -0.4858
 5066TIP3   OH215203   1.037   0.206   0.778  0.3837 -0.1972 -0.0775
 5066TIP3    H115204   1.093   0.250   0.842  1.7295 -0.2007 -1.2336
 5066TIP3    H215205   1.057   0.113   0.789 -0.2902 -0.2937  0.3390
 5067TIP3   OH215206   0.053   4.954   3.698 -0.1248  0.0537 -0.1565
 5067TIP3    H115207  -0.040   4.933   3.695 -0.1406  0.2436 -1.3259
 5067TIP3    H215208   0.056   5.041   3.738 -0.3887 -0.3184  0.6664
 5068TIP3   OH215209   0.494   0.489   0.141  0.5059 -0.1675  0.3263
 5068TIP3    H115210   0.400   0.484   0.153  0.5498  0.6792  1.0952
 5068TIP3    H215211   0.518   0.407   0.098 -0.4138 -0.9235  1.2271
 5069TIP3   OH215212   1.158   3.369   4.734 -0.2983  0.7461  0.3482
 5069TIP3    H115213   1.179   3.453   4.773  0.1517 -0.0599  1.8915
 5069TIP3    H215214   1.243   3.329   4.714 -0.4949  0.4008  0.1921
 5070TIP3   OH215215   1.205   4.979   4.296  0.3661  0.4132 -0.3456
 5070TIP3    H115216   1.288   5.010   4.330 -0.1092  0.9453  0.3522
 5070TIP3    H215217   1.228   4.922   4.223  1.3074  1.1730 -0.6499
 5071TIP3   OH215218   4.312   0.889   1.836  0.5434  0.4433  0.3832
 5071TIP3    H115219   4.318   0.899   1.931 -2.6645 -1.5839  0.8677
 5071TIP3    H215220   4.337   0.797   1.821 -0.3546  0.3504 -0.5489
 5072TIP3   OH215221   1.177   3.544   3.752  1.0026  0.0620 -0.1306
 5072TIP3    H115222   1.231   3.474   3.789 -0.8365 -0.6656  1.2306
 5072TIP3    H215223   1.147   3.509   3.668  1.3495 -0.1773 -0.1555
 5073TIP3   OH215224   1.567   3.783   3.598  0.6127  0.0782 -0.0999
 5073TIP3    H115225   1.568   3.824   3.684 -1.6459  1.3904 -0.6405
 5073TIP3    H215226   1.476   3.756   3.586  1.1086 -0.9528 -1.6851
 5074TIP3   OH215227   2.600   3.841   3.925  0.0711  0.4799 -0.1144
 5074TIP3    H115228   2.542   3.907   3.887 -0.6434  0.5781  1.1252
 5074TIP3    H215229   2.588   3.849   4.020  2.4607  0.8082  0.1993
 5075TIP3   OH215230   5.635   3.545   3.325 -0.3016 -0.1767 -0.6852
 5075TIP3    H115231   5.557   3.561   3.272  0.5579 -0.0815 -1.9543
 5075TIP3    H215232   5.672   3.632   3.339  0.2158 -0.3265 -1.1008
 5076TIP3   OH215233   1.887   5.074   3.302 -0.1276  0.5889  0.2293
 5076TIP3    H115234   1.896   5.085   3.396  0.9756 -0.5411  0.2694
 5076TIP3    H215235   1.872   5.162   3.268  1.5159  1.2682  1.2411
 5077TIP3   OH215236   3.165   3.912   3.791  0.5766  0.1267 -0.2651
 5077TIP3    H115237   3.099   3.957   3.843  0.7471 -0.5496  0.5430
 5077TIP3    H215238   3.249   3.947   3.822  0.6674 -0.0760 -0.2805
 5078TIP3   OH215239   1.575   0.179   4.389 -0.5569  0.4213  0.1166
 5078TIP3    H115240   1.635   0.116   4.348  0.5585  0.7665  1.1755
 5078TIP3    H215241   1.536   0.227   4.316 -1.8453 -1.8582 -0.7413
 5079TIP3   OH215242   1.192   3.620   4.819 -0.6717 -0.1705 -0.4769
 5079TIP3    H115243   1.258   3.676   4.778 -0.8810 -0.6646 -1.5015
 5079TIP3    H215244   1.148   3.677   4.882 -0.2401  0.5522 -0.8177
 5080TIP3   OH215245   2.352   4.438   4.256 -0.1001 -0.2177 -0.7207
 5080TIP3    H115246   2.438   4.402   4.235 -1.1959 -2.6929 -1.0810
 5080TIP3    H215247   2.290   4.388   4.203 -1.8460  1.0616  0.0334
 5081TIP3   OH215248   4.157   5.159   2.490 -0.3498 -0.4295 -0.7528
 5081TIP3    H115249   4.083   5.115   2.532 -0.1654  0.1100  0.1488
 5081TIP3    H215250   4.117   5.225   2.435 -0.6376 -1.7869 -2.2069
 5082TIP3   OH215251   3.422   3.108   4.192  0.0141 -0.6208  0.5252
 5082TIP3    H115252   3.456   3.172   4.254 -0.1420  0.9126 -0.9369
 5082TIP3    H215253   3.495   3.093   4.131 -0.1291 -1.4189  0.5441
 5083TIP3   OH215254   6.447   0.676   3.542  0.3538 -1.1377  0.0942
 5083TIP3    H115255   6.415   0.586   3.529 -0.2706 -0.9183  0.0898
 5083TIP3    H215256   6.467   0.707   3.454 -0.4639 -0.8967 -0.0085
 5084TIP3   OH215257   3.331   3.900   3.517 -0.4315  0.3559  0.2083
 5084TIP3    H115258   3.347   3.994   3.517 -0.6893  0.4025  0.5935
 5084TIP3    H215259   3.417   3.861   3.507 -0.7229  0.6686 -4.1962
 5085TIP3   OH215260   1.986   2.548   3.849 -0.1520 -0.1214  0.0722
 5085TIP3    H115261   2.079   2.571   3.859  0.1131  0.0800 -2.5095
 5085TIP3    H215262   1.972   2.479   3.913  2.4946 -1.9785 -1.2459
 5086TIP3   OH215263   6.233   2.137   0.442  0.2906  0.4950 -0.1163
 5086TIP3    H115264   6.235   2.124   0.537  0.0258  0.1413 -0.1571
 5086TIP3    H215265   6.270   2.224   0.429 -1.4821  1.3685  0.4791
 5087TIP3   OH215266   1.416   4.384   4.059  0.2845  0.1933  0.0711
 5087TIP3    H115267   1.383   4.295   4.075  0.1880  0.2573  0.2284
 5087TIP3    H215268   1.344   4.428   4.013  0.4320  0.1116 -0.2403
 5088TIP3   OH215269   5.615   1.301   1.432 -0.1026 -0.4324 -0.1553
 5088TIP3    H115270   5.534   1.256   1.456 -0.0353 -0.9818 -0.9464
 5088TIP3    H215271   5.649   1.251   1.358  0.3278  0.5156 -0.6030
 5089TIP3   OH215272   5.686   3.067   0.221 -0.0217 -0.2478 -0.1837
 5089TIP3    H115273   5.634   3.005   0.271 -0.4823 -0.9907 -1.5577
 5089TIP3    H215274   5.777   3.049   0.246 -0.3631  0.6975  1.8222
 5090TIP3   OH215275   1.489   4.016   0.243  0.2591  0.6389  0.1968
 5090TIP3    H115276   1.432   3.950   0.282  1.6130  0.0944  1.2641
 5090TIP3    H215277   1.485   3.998   0.149 -1.0052  0.3573  0.2914
 5091TIP3   OH215278   2.384   5.243   2.791 -0.0948 -0.1829  0.8737
 5091TIP3    H115279   2.380   5.163   2.739  1.3312 -1.0353  2.0400
 5091TIP3    H215280   2.433   5.305   2.737 -2.8485  0.6082 -0.8663
 5092TIP3   OH215281   3.521   4.297   1.005  0.4066 -0.2368  0.5558
 5092TIP3    H115282   3.560   4.216   0.973  0.5507 -0.4316  1.2129
 5092TIP3    H215283   3.544   4.363   0.939  1.0259 -0.5456  0.4636
 5093TIP3   OH215284   6.072   6.055   4.888  0.3674 -0.2458 -0.3795
 5093TIP3    H115285   6.131   6.088   4.820  0.3398 -0.8662 -0.7148
 5093TIP3    H215286   6.066   5.961   4.870 -0.3756 -0.2552 -0.0787
 5094TIP3   OH215287   5.834   0.573   3.888  0.7578 -0.2784 -0.4078
 5094TIP3    H115288   5.808   0.488   3.924  1.5346 -0.6740 -0.7610
 5094TIP3    H215289   5.866   0.622   3.963 -1.3402  0.3560  0.0973
 5095TIP3   OH215290   3.290   6.099   1.469 -0.0836  0.2769  0.1663
 5095TIP3    H115291   3.288   6.006   1.448 -1.2376  0.1396  0.8453
 5095TIP3    H215292   3.367   6.132   1.422 -0.7566 -0.6393 -1.6629
 5096TIP3   OH215293   1.745   2.677   1.272 -0.0918  0.0412 -0.3483
 5096TIP3    H115294   1.839   2.692   1.265  0.0143  0.0849  1.0050
 5096TIP3    H215295   1.724   2.620   1.199  0.9060  0.4031 -0.9295
 5097TIP3   OH215296   2.000   4.963   4.381 -0.1836  0.3242 -0.1426
 5097TIP3    H115297   1.953   4.910   4.445 -0.7421  0.3964 -0.4895
 5097TIP3    H215298   2.036   5.036   4.432  0.1703 -0.1174  0.2480
 5098TIP3   OH215299   2.221   4.503   3.348  0.1068  0.4444  0.3457
 5098TIP3    H115300   2.209   4.569   3.416  0.6963 -0.8856  1.7561
 5098TIP3    H215301   2.132   4.481   3.321 -0.1228  1.0255  0.6110
 5099TIP3   OH215302   5.910   5.902   4.136  0.4875 -0.0114 -0.3035
 5099TIP3    H115303   5.837   5.896   4.197  0.1527  1.3869 -0.5578
 5099TIP3    H215304   5.979   5.947   4.184  0.8266 -0.4299 -0.3943
 5100TIP3   OH215305   2.889   3.706   4.205 -0.0605  0.5992  0.3150
 5100TIP3    H115306   2.920   3.669   4.288  0.0353 -1.5205 -0.6312
 5100TIP3    H215307   2.927   3.794   4.202  3.1580 -0.7294  0.6868
 5101TIP3   OH215308   0.176   1.707   1.342 -0.1832  0.2449 -0.4755
 5101TIP3    H115309   0.221   1.694   1.258  0.9062 -1.3254  0.3246
 5101TIP3    H215310   0.119   1.630   1.350 -0.1673  0.3164  0.3114
 5102TIP3   OH215311   5.912   1.322   2.386  0.2128  1.1546  0.2334
 5102TIP3    H115312   5.881   1.372   2.311 -0.1698  1.1382  0.3766
 5102TIP3    H215313   5.909   1.385   2.459 -2.1765  0.4159  0.8346
 5103TIP3   OH215314   0.114   0.358   1.443  0.4289 -0.1646 -0.5147
 5103TIP3    H115315   0.171   0.382   1.515 -0.4652 -4.4528  1.7656
 5103TIP3    H215316   0.163   0.292   1.394 -0.9010 -0.8431 -0.9572
 5104TIP3   OH215317   3.837   0.097   4.657  0.4299  0.9967 -0.0840
 5104TIP3    H115318   3.916   0.043   4.665 -0.7646 -1.0185 -1.5799
 5104TIP3    H215319   3.767   0.035   4.639 -1.9791  2.4981  3.4852
 5105TIP3   OH215320   3.767   5.705   4.115 -0.0711 -0.0775  0.0687
 5105TIP3    H115321   3.690   5.726   4.169 -0.6070  1.1664 -1.1594
 5105TIP3    H215322   3.734   5.641   4.052 -0.4133  1.3566 -1.2248
 5106TIP3   OH215323   1.501   1.951   0.100  0.0371 -0.3774 -0.2510
 5106TIP3    H115324   1.518   1.908   0.184  1.2623 -0.8281 -0.7219
 5106TIP3    H215325   1.498   2.044   0.120  0.3354 -0.4868  0.2985
 5107TIP3   OH215326   1.138   4.875   4.932  0.1295  0.0057  0.3216
 5107TIP3    H115327   1.076   4.803   4.934 -1.4962  1.4068  1.8409
 5107TIP3    H215328   1.139   4.908   5.022  1.3512  1.4512 -0.2014
 5108TIP3   OH215329   4.100   0.318   4.992  0.4084 -0.6969  0.0786
 5108TIP3    H115330   4.042   0.349   4.922 -0.9090 -1.7119  0.7078
 5108TIP3    H215331   4.048   0.325   5.072  0.2159 -4.0072  0.3087
 5109TIP3   OH215332   2.598   5.920   4.275 -0.5660 -0.2975  0.4506
 5109TIP3    H115333   2.597   5.989   4.209 -0.3277 -0.0669  0.6885
 5109TIP3    H215334   2.564   5.843   4.229 -1.9732  0.2772  0.5100
 5110TIP3   OH215335   2.211   4.338   3.558  0.1701 -1.3085 -0.3099
 5110TIP3    H115336   2.270   4.371   3.625 -1.4205  0.5798  0.2299
 5110TIP3    H215337   2.228   4.394   3.482 -0.8149 -0.8110 -0.1814
 5111TIP3   OH215338   2.057   3.837   4.643  0.0043 -0.2814 -0.4001
 5111TIP3    H115339   2.093   3.853   4.731 -0.4439 -2.6305  0.2409
 5111TIP3    H215340   2.129   3.796   4.595 -0.5912 -1.4628 -0.2928
 5112TIP3   OH215341   2.113   0.814   1.104  0.6999 -0.1731 -0.5671
 5112TIP3    H115342   2.104   0.725   1.138  0.2899 -0.4912 -1.4724
 5112TIP3    H215343   2.119   0.870   1.182 -0.3891 -0.8588  0.0234
 5113TIP3   OH215344   1.822   4.245   5.262 -0.7084 -0.4686 -0.2173
 5113TIP3    H115345   1.862   4.332   5.265 -1.3081 -0.2216  0.8056
 5113TIP3    H215346   1.800   4.232   5.170 -1.7375  0.9799 -0.1920
 5114TIP3   OH215347   1.018   1.721   0.922  0.3305 -0.3535 -0.2864
 5114TIP3    H115348   0.997   1.695   1.012 -0.6481  0.6290 -0.2117
 5114TIP3    H215349   0.994   1.646   0.869  2.6363 -1.6412  0.4440
 5115TIP3   OH215350   0.715   0.302   1.746  0.4175  0.1833  0.2848
 5115TIP3    H115351   0.747   0.386   1.714 -2.3400  1.4154  0.6173
 5115TIP3    H215352   0.718   0.310   1.841 -1.1008  0.4093  0.3176
 5116TIP3   OH215353   1.142   5.353   4.090  0.2292 -0.0930  0.2045
 5116TIP3    H115354   1.152   5.373   4.183 -0.3852  1.3945 -0.0435
 5116TIP3    H215355   1.051   5.325   4.081  0.3156 -0.3311  0.0733
 5117TIP3   OH215356   0.994   4.170   4.602 -0.3037 -0.4829  0.6478
 5117TIP3    H115357   1.047   4.113   4.657  0.9620 -1.5299 -1.5702
 5117TIP3    H215358   0.938   4.111   4.553 -0.3891  0.3090 -0.2284
 5118TIP3   OH215359   1.654   3.624   3.082  0.1349  0.2084  0.5134
 5118TIP3    H115360   1.560   3.607   3.076 -0.0753  1.8441 -1.4804
 5118TIP3    H215361   1.671   3.691   3.016  2.9513 -1.0474 -0.1566
 5119TIP3   OH215362   0.125   5.209   3.809  0.2581  0.6509 -0.0019
 5119TIP3    H115363   0.167   5.194   3.893  1.4738  1.9773 -0.3558
 5119TIP3    H215364   0.035   5.234   3.831 -0.3413 -1.9633  0.7609
 5120TIP3   OH215365   5.309   0.894   4.643 -0.5251  0.7130 -0.1351
 5120TIP3    H115366   5.404   0.910   4.651 -0.3528  0.1829 -1.0806
 5120TIP3    H215367   5.296   0.871   4.551 -1.4238 -0.2311  0.2241
 5121TIP3   OH215368   2.981   4.924   4.417 -0.0373  1.2200 -0.0982
 5121TIP3    H115369   3.035   4.909   4.494  0.4563  1.4654 -0.3928
 5121TIP3    H215370   2.920   4.993   4.443 -1.1807 -0.0866  0.7060
 5122TIP3   OH215371   0.320   3.706   0.212 -0.0698 -0.1947 -0.1731
 5122TIP3    H115372   0.400   3.719   0.263  0.1885 -1.1954 -0.3122
 5122TIP3    H215373   0.249   3.728   0.273  0.2230 -1.6877  0.7378
 5123TIP3   OH215374   3.506   4.412   2.850  0.5521 -0.3166  0.2268
 5123TIP3    H115375   3.571   4.399   2.781 -0.5254  0.8465 -1.0265
 5123TIP3    H215376   3.422   4.411   2.804 -0.2508 -0.6840  1.6789
 5124TIP3   OH215377   2.794   3.352   2.930 -0.0529  0.1115 -0.1849
 5124TIP3    H115378   2.732   3.419   2.903 -0.8883 -0.9644 -0.9793
 5124TIP3    H215379   2.746   3.298   2.993  0.4718 -0.0123  0.1210
 5125TIP3   OH215380   1.906   2.808   5.048  0.5963 -0.1804 -0.2697
 5125TIP3    H115381   1.850   2.879   5.016  2.1942  2.0647  1.7561
 5125TIP3    H215382   1.852   2.730   5.041 -2.0004  1.5651 -0.4471
 5126TIP3   OH215383   4.269   4.911   4.573 -0.3405  0.0552 -0.0238
 5126TIP3    H115384   4.354   4.930   4.531  0.0789 -0.5403  0.5627
 5126TIP3    H215385   4.274   4.956   4.657 -0.3214 -0.5920  0.3202
 5127TIP3   OH215386   5.651   1.463   0.064  0.7303 -0.4846 -0.3050
 5127TIP3    H115387   5.730   1.445   0.115 -0.1953 -0.9093  1.0295
 5127TIP3    H215388   5.647   1.559   0.058  0.7176 -0.4188  0.6629
 5128TIP3   OH215389   4.165   4.194   2.328 -0.4326 -0.4518 -0.1409
 5128TIP3    H115390   4.157   4.282   2.292 -1.3360 -0.8320 -0.9184
 5128TIP3    H215391   4.078   4.174   2.363 -0.0486 -0.7756  0.6476
 5129TIP3   OH215392   2.405   3.038   2.122 -0.1908 -0.0676  0.2975
 5129TIP3    H115393   2.445   3.027   2.209  0.7953 -1.2043 -0.2856
 5129TIP3    H215394   2.469   3.090   2.073 -0.5999  0.3005  0.1590
 5130TIP3   OH215395   6.267   4.586   5.271 -0.3664 -0.4288  0.4320
 5130TIP3    H115396   6.197   4.524   5.293  1.2632 -1.4783  2.9560
 5130TIP3    H215397   6.277   4.639   5.351  1.2266  0.1574 -0.1361
 5131TIP3   OH215398   0.621   3.025   0.756 -0.0220  0.5257 -0.3660
 5131TIP3    H115399   0.710   3.013   0.723 -0.1072 -0.6927 -0.1833
 5131TIP3    H215400   0.599   2.941   0.798 -0.7950  1.2326  0.6845
 5132TIP3   OH215401   4.264   2.022   4.697 -0.8986  0.5040 -0.0658
 5132TIP3    H115402   4.182   2.063   4.668  0.3519  1.4705 -2.3556
 5132TIP3    H215403   4.251   1.929   4.680 -0.7410  0.8954 -2.5169
 5133TIP3   OH215404   3.135   3.092   4.307 -0.0080  0.0152  0.0210
 5133TIP3    H115405   3.110   3.005   4.276  0.5229 -0.2140  0.2245
 5133TIP3    H215406   3.223   3.106   4.272  0.0936  0.2753  0.3767
 5134TIP3   OH215407   3.164   4.229   1.695 -0.9280  0.1688 -0.3104
 5134TIP3    H115408   3.180   4.324   1.696  3.3330 -0.4500  1.1003
 5134TIP3    H215409   3.179   4.203   1.604 -2.1586  0.8367 -0.7126
 5135TIP3   OH215410   0.868   2.794   1.189  0.3273  0.1530 -0.2311
 5135TIP3    H115411   0.846   2.852   1.261 -1.6618 -1.2862  0.3795
 5135TIP3    H215412   0.946   2.747   1.218  1.1111  1.5017 -0.1504
 5136TIP3   OH215413   1.230   2.562   0.100 -0.4533 -0.2343 -0.2593
 5136TIP3    H115414   1.237   2.636   0.038  0.0844  0.0688  0.1564
 5136TIP3    H215415   1.233   2.603   0.186  0.1018 -0.7687 -0.0231
 5137TIP3   OH215416   2.226   2.564   5.280  0.3237  0.1621  0.5066
 5137TIP3    H115417   2.315   2.578   5.247  0.7598 -0.3208  1.4567
 5137TIP3    H215418   2.207   2.640   5.333  0.5236 -0.1676  1.0528
 5138TIP3   OH215419   2.736   1.684   0.849 -0.3687 -0.0202  0.0454
 5138TIP3    H115420   2.641   1.674   0.841 -0.2807 -0.5420 -0.3988
 5138TIP3    H215421   2.771   1.630   0.778  0.3120 -1.2089  1.2586
 5139TIP3   OH215422   4.014   3.917   3.680 -0.2472  0.1335  0.5430
 5139TIP3    H115423   4.005   3.834   3.634  3.1678  0.1609 -0.2833
 5139TIP3    H215424   4.007   3.894   3.773  1.4438 -1.2319  0.3624
 5140TIP3   OH215425   6.077   0.690   0.358  0.1355 -0.3671 -0.3355
 5140TIP3    H115426   6.165   0.688   0.394  0.0593  0.7904 -0.0714
 5140TIP3    H215427   6.090   0.696   0.263  0.3514  0.6530 -0.2474
 5141TIP3   OH215428   2.197   4.522   4.451 -0.4182 -0.0703 -0.2753
 5141TIP3    H115429   2.104   4.524   4.426 -0.2774 -1.2636 -0.9253
 5141TIP3    H215430   2.243   4.507   4.368  0.4487  1.6313 -0.1305
 5142TIP3   OH215431   3.641   5.977   3.003 -0.1077  0.3224  0.1180
 5142TIP3    H115432   3.605   5.933   3.081  4.2960 -1.9846  0.9698
 5142TIP3    H215433   3.724   6.014   3.033  1.7683 -0.7643 -3.5265
 5143TIP3   OH215434   3.790   5.401   4.179  0.3634  0.0869  0.1792
 5143TIP3    H115435   3.797   5.336   4.109  0.8018 -0.9966  1.2132
 5143TIP3    H215436   3.880   5.430   4.193  0.6154 -1.4593  1.9142
 5144TIP3   OH215437   4.374   4.931   2.623  0.6330  0.2237 -0.2949
 5144TIP3    H115438   4.304   4.867   2.631  1.1083 -0.4518 -1.5924
 5144TIP3    H215439   4.331   5.009   2.586  0.1740  0.4913  0.7710
 5145TIP3   OH215440   5.145   3.484   0.539  0.1480  0.2656 -0.5379
 5145TIP3    H115441   5.128   3.479   0.445  1.9286 -2.3460 -0.7704
 5145TIP3    H215442   5.103   3.405   0.575 -1.6055  1.8689  1.0891
 5146TIP3   OH215443   0.338   3.422   0.730  0.4162  0.1629  0.0757
 5146TIP3    H115444   0.363   3.438   0.821 -0.5549 -0.4715  0.4479
 5146TIP3    H215445   0.417   3.444   0.680  0.4716  2.0289  0.9335
 5147TIP3   OH215446   5.410   3.882   0.068  0.4112  0.0059 -0.1150
 5147TIP3    H115447   5.343   3.819   0.042 -1.2771  1.7339 -0.0299
 5147TIP3    H215448   5.366   3.941   0.129  2.3387  0.4743  0.8803
 5148TIP3   OH215449   2.136   5.495   1.221 -0.6769  0.4541 -0.4496
 5148TIP3    H115450   2.077   5.443   1.166  0.4022  0.2773 -1.4551
 5148TIP3    H215451   2.220   5.451   1.215 -0.0558  1.5960 -0.2933
 5149TIP3   OH215452   3.798   0.831   0.372 -0.2579  0.2325 -0.3369
 5149TIP3    H115453   3.808   0.748   0.419 -0.4267  0.9992  1.0964
 5149TIP3    H215454   3.703   0.844   0.368 -0.3003 -0.5381 -2.1984
 5150TIP3   OH215455   6.373   5.908   2.339 -0.3180  0.0327 -0.0308
 5150TIP3    H115456   6.355   5.938   2.428 -0.7101  1.0041 -0.4312
 5150TIP3    H215457   6.326   5.825   2.332  1.6905 -1.2664  1.4599
 5151TIP3   OH215458   3.080   5.627   2.144  0.0115 -0.0482  0.2866
 5151TIP3    H115459   3.099   5.720   2.129  1.8576 -0.3150  0.8442
 5151TIP3    H215460   3.049   5.624   2.235 -2.3763  0.3365 -0.4996
 5152TIP3   OH215461   2.728   6.036   4.925  0.4126 -0.0306  0.3937
 5152TIP3    H115462   2.685   5.976   4.987 -0.4364 -0.2057 -0.3455
 5152TIP3    H215463   2.711   5.997   4.839  0.6705  0.7676 -0.0203
 5153TIP3   OH215464   0.886   3.440   4.043  0.5586 -0.4760 -0.3797
 5153TIP3    H115465   0.929   3.401   4.119  0.6798 -1.2708 -0.8532
 5153TIP3    H215466   0.817   3.378   4.021  0.3263 -0.0912 -0.7293
 5154TIP3   OH215467   0.141   2.324   0.080 -0.0549 -0.4373  0.1417
 5154TIP3    H115468   0.220   2.300   0.032  0.8935  2.0401  0.4091
 5154TIP3    H215469   0.159   2.299   0.171  0.5459  0.3900  0.2535
 5155TIP3   OH215470   5.038   0.328   5.275 -0.4667 -0.3568 -0.0177
 5155TIP3    H115471   5.008   0.416   5.249 -0.6125 -0.1155  0.9651
 5155TIP3    H215472   5.037   0.278   5.193 -1.4082  0.2664 -0.3998
 5156TIP3   OH215473   0.513   3.821   4.725  0.0913  0.3256  0.3374
 5156TIP3    H115474   0.440   3.803   4.667 -0.4621 -1.0091  1.3969
 5156TIP3    H215475   0.532   3.914   4.714  0.1504  0.0407 -2.1099
 5157TIP3   OH215476   3.118   1.291   4.157 -0.2554 -0.3503 -0.0382
 5157TIP3    H115477   3.091   1.219   4.214  0.0356 -1.3348 -1.1169
 5157TIP3    H215478   3.166   1.248   4.086  1.4971  1.0770  0.2497
 5158TIP3   OH215479   5.310   0.601   0.129  0.7642  0.5081 -0.2665
 5158TIP3    H115480   5.254   0.661   0.180 -0.7328 -1.5622  0.5705
 5158TIP3    H215481   5.300   0.630   0.039  1.4541  2.6346  0.3061
 5159TIP3   OH215482   2.659   5.081   3.523 -0.7615 -0.1087 -0.1332
 5159TIP3    H115483   2.646   5.086   3.618 -1.3977 -0.6855 -0.1856
 5159TIP3    H215484   2.677   5.171   3.497 -0.2251  0.0004  0.5835
 5160TIP3   OH215485   3.849   2.206   4.029  0.0830  0.0922  0.0053
 5160TIP3    H115486   3.925   2.264   4.017  0.1624 -0.1387 -0.6270
 5160TIP3    H215487   3.845   2.156   3.948  0.3182 -1.1605  0.7554
 5161TIP3   OH215488   2.188   4.727   3.514  0.0379 -0.9854  0.1787
 5161TIP3    H115489   2.175   4.819   3.538  0.5730 -0.5371 -1.1892
 5161TIP3    H215490   2.110   4.682   3.548 -0.2463 -0.0252  0.8265
 5162TIP3   OH215491   3.278   6.036   5.014 -0.1354 -0.0824  0.4830
 5162TIP3    H115492   3.204   5.979   4.993 -0.1388  0.0931  0.0014
 5162TIP3    H215493   3.353   5.993   4.973 -0.1138  0.1783  0.2470
 5163TIP3   OH215494   0.436   2.396   0.155 -0.1745  0.1904 -0.7024
 5163TIP3    H115495   0.453   2.468   0.095  1.3002 -0.5543 -1.2090
 5163TIP3    H215496   0.495   2.326   0.126  1.4136  0.2110  2.2946
 5164TIP3   OH215497   3.080   5.581   4.730  0.0692  0.7272 -0.6119
 5164TIP3    H115498   3.080   5.527   4.809  0.5362  0.6111 -0.6895
 5164TIP3    H215499   3.155   5.639   4.740  1.4289 -0.7353 -1.9346
 5165TIP3   OH215500   1.723   2.452   4.197 -0.0935  0.7971 -0.3311
 5165TIP3    H115501   1.662   2.381   4.180 -0.0064 -0.6058  4.5387
 5165TIP3    H215502   1.674   2.531   4.175 -1.8735 -0.5065 -1.2315
 5166TIP3   OH215503   3.957   3.871   3.950 -0.1553  0.2808  0.1352
 5166TIP3    H115504   4.024   3.926   3.991  0.1826  0.5890 -0.8373
 5166TIP3    H215505   3.906   3.838   4.024  0.1890  1.1805  0.7869
 5167TIP3   OH215506   4.349   0.860   2.116  0.1229  0.3963 -0.5556
 5167TIP3    H115507   4.417   0.892   2.176  1.1220 -1.4469 -0.6666
 5167TIP3    H215508   4.292   0.806   2.171 -0.5805  0.9758 -0.7066
 5168TIP3   OH215509   5.361   0.464   4.137 -0.4568  0.5021  0.2133
 5168TIP3    H115510   5.339   0.521   4.062  0.9370  0.3980 -0.2851
 5168TIP3    H215511   5.276   0.445   4.178 -1.4160 -0.6523 -2.2004
 5169TIP3   OH215512   4.638   5.449   1.322  0.8998  0.2460  0.3904
 5169TIP3    H115513   4.691   5.396   1.262  1.1826 -0.1265  0.9640
 5169TIP3    H215514   4.702   5.488   1.382  0.6856  1.2052 -0.0090
 5170TIP3   OH215515   1.343   4.115   5.167 -0.2288 -0.2545 -0.3406
 5170TIP3    H115516   1.319   4.062   5.243  1.3761 -1.6762 -0.8219
 5170TIP3    H215517   1.409   4.176   5.199  0.0960 -0.5330 -0.4765
 5171TIP3   OH215518   5.034   2.760   1.075 -0.6258  0.0911  0.1567
 5171TIP3    H115519   4.994   2.683   1.114  1.2857 -0.7092  0.5988
 5171TIP3    H215520   5.128   2.748   1.089 -0.1154  1.2366 -2.0988
 5172TIP3   OH215521   2.442   4.699   5.127  0.1498  0.3587 -0.4783
 5172TIP3    H115522   2.386   4.683   5.203 -0.1302  1.0416 -0.5395
 5172TIP3    H215523   2.511   4.757   5.160 -0.1944  0.9780 -0.8352
 5173TIP3   OH215524   5.185   3.324   1.770 -0.0837 -0.0571  0.6006
 5173TIP3    H115525   5.181   3.242   1.721 -0.5691 -1.1082  2.3716
 5173TIP3    H215526   5.274   3.356   1.756  0.5606 -1.6127  1.0558
 5174TIP3   OH215527   1.586   3.261   2.565 -0.6436  0.0386  0.5390
 5174TIP3    H115528   1.509   3.246   2.620 -0.5280  0.7150  0.8935
 5174TIP3    H215529   1.628   3.337   2.604 -0.4248  0.3688 -0.3366
 5175TIP3   OH215530   2.646   4.820   3.383 -0.7963 -0.0751  0.2939
 5175TIP3    H115531   2.603   4.738   3.406 -1.6334  0.7714  1.8657
 5175TIP3    H215532   2.635   4.875   3.461 -1.1409  1.8897 -1.1079
 5176TIP3   OH215533   2.054   3.512   3.763 -0.3466 -0.5639  0.2736
 5176TIP3    H115534   2.022   3.540   3.677  0.1752  1.1956  0.6224
 5176TIP3    H215535   1.976   3.512   3.819 -0.2678  0.7786  0.3985
 5177TIP3   OH215536   5.419   3.255   4.475 -0.2835  0.7720 -0.3707
 5177TIP3    H115537   5.375   3.306   4.407 -0.0492 -0.4800 -1.4730
 5177TIP3    H215538   5.486   3.205   4.429  0.8916  1.0474  1.0034
 5178TIP3   OH215539   2.929   1.483   0.145  0.0379  0.3363  0.2066
 5178TIP3    H115540   2.972   1.555   0.191  1.6403  0.6035 -1.6286
 5178TIP3    H215541   2.977   1.405   0.172 -0.6878  0.1427  0.9692
 5179TIP3   OH215542   3.964   3.170   4.116  0.0342  0.0185 -0.3069
 5179TIP3    H115543   3.945   3.254   4.073 -2.4300  0.6154  1.7983
 5179TIP3    H215544   4.010   3.194   4.196 -2.5897 -0.4235  1.3801
 5180TIP3   OH215545   1.697   2.432   1.181  0.2368  0.0205 -0.3406
 5180TIP3    H115546   1.613   2.408   1.219  1.3161 -0.9216  1.5077
 5180TIP3    H215547   1.696   2.390   1.094 -1.1602 -0.0311 -0.3098
 5181TIP3   OH215548   1.168   2.425   3.770 -0.0775 -0.0951 -0.1765
 5181TIP3    H115549   1.164   2.520   3.774 -0.9656  0.0215 -2.5058
 5181TIP3    H215550   1.086   2.400   3.727 -0.0745 -1.9479  0.8509
 5182TIP3   OH215551   1.596   2.680   0.155  0.2196  1.4596  0.3736
 5182TIP3    H115552   1.586   2.700   0.248 -3.3056 -0.8622  0.5917
 5182TIP3    H215553   1.573   2.762   0.111 -3.4063  1.1413  1.4878
 5183TIP3   OH215554   2.514   0.785   3.539 -0.2186  0.4684 -0.0363
 5183TIP3    H115555   2.585   0.722   3.552  0.2247  0.4999 -2.1485
 5183TIP3    H215556   2.558   0.868   3.520 -0.8164  1.2260  1.7673
 5184TIP3   OH215557   0.225   1.811   2.785 -0.3517  0.2321 -0.6474
 5184TIP3    H115558   0.179   1.833   2.866 -2.6708 -0.2845 -1.7965
 5184TIP3    H215559   0.294   1.877   2.778 -1.3774  1.4902  0.7153
 5185TIP3   OH215560   4.066   5.656   2.845  0.4632  0.5562 -0.9718
 5185TIP3    H115561   4.144   5.612   2.810  1.1678  2.2142 -1.5280
 5185TIP3    H215562   4.067   5.743   2.804 -1.3120  0.8386 -0.4633
 5186TIP3   OH215563   3.541   5.190   2.908  0.2351  0.0788 -0.1139
 5186TIP3    H115564   3.585   5.125   2.963 -2.0950 -0.3090  1.3085
 5186TIP3    H215565   3.482   5.138   2.853 -1.0621  0.9114  0.4803
 5187TIP3   OH215566   3.026   3.703   3.250  0.5942 -0.1796 -0.7486
 5187TIP3    H115567   3.045   3.618   3.288 -1.8503 -0.3218  0.2854
 5187TIP3    H215568   2.990   3.683   3.163  1.2404 -0.1213 -1.0335
 5188TIP3   OH215569   4.542   5.739   2.088 -0.3099  0.2712 -0.3653
 5188TIP3    H115570   4.534   5.730   2.183 -2.9790 -4.0839 -0.8381
 5188TIP3    H215571   4.459   5.776   2.060  0.4418  1.4770 -1.0276
 5189TIP3   OH215572   6.486   5.953   2.972  0.1388 -0.5144 -0.3785
 5189TIP3    H115573   6.442   5.911   3.046 -1.2974  0.0979 -0.8578
 5189TIP3    H215574   6.570   5.981   3.006 -0.4244 -0.4424  0.9740
 5190TIP3   OH215575   4.531   4.252   3.360  0.1742  0.1201  0.1400
 5190TIP3    H115576   4.457   4.304   3.392 -2.2610 -2.7155 -0.7104
 5190TIP3    H215577   4.549   4.190   3.430 -0.5842 -1.5191 -1.1037
 5191TIP3   OH215578   5.434   4.446   2.843  0.2963 -0.3007  0.5775
 5191TIP3    H115579   5.443   4.367   2.789  1.4082  0.3173 -0.1415
 5191TIP3    H215580   5.523   4.467   2.871  0.2561  1.8254 -0.8441
 5192TIP3   OH215581   3.958   4.681   4.261  0.6632  0.2282 -0.0882
 5192TIP3    H115582   4.046   4.712   4.281  0.4934  1.6291 -1.4081
 5192TIP3    H215583   3.957   4.668   4.166  0.1786 -2.1638  0.2315
 5193TIP3   OH215584   3.394   2.998   3.537  0.1566  0.0947 -0.6113
 5193TIP3    H115585   3.445   3.031   3.463  1.2301 -0.5757 -0.1953
 5193TIP3    H215586   3.415   2.905   3.541  0.0262  0.1031  0.4648
 5194TIP3   OH215587   2.988   3.142   1.267 -0.4366 -0.1914 -0.4765
 5194TIP3    H115588   2.950   3.105   1.187 -0.6085  1.0255 -0.9688
 5194TIP3    H215589   2.970   3.236   1.260 -0.2940 -0.0612  0.9137
 5195TIP3   OH215590   2.302   4.389   2.411 -0.2954 -0.2296 -0.4968
 5195TIP3    H115591   2.285   4.298   2.435  1.4730 -0.7043 -0.9763
 5195TIP3    H215592   2.391   4.388   2.377 -0.1134  1.7743 -0.1047
 5196TIP3   OH215593   4.781   5.963   4.420 -0.0805  0.0121  0.2363
 5196TIP3    H115594   4.706   5.950   4.362  0.3722  1.3999 -0.6776
 5196TIP3    H215595   4.845   5.898   4.391  0.0285  0.5051 -0.6186
 5197TIP3   OH215596   6.248   3.249   3.138  0.2332  0.3063 -0.5117
 5197TIP3    H115597   6.298   3.171   3.113  0.1834  0.0221  0.2931
 5197TIP3    H215598   6.223   3.288   3.054  0.1120 -0.6313 -0.9233
 5198TIP3   OH215599   5.159   3.117   4.044 -0.4094  0.1674 -0.3941
 5198TIP3    H115600   5.184   3.138   3.954 -1.1953 -1.1080 -0.9409
 5198TIP3    H215601   5.077   3.164   4.058  0.1080  0.9812 -0.0696
 5199TIP3   OH215602   4.219   4.373   4.418 -0.1716 -0.1697 -0.5941
 5199TIP3    H115603   4.253   4.285   4.405 -0.3769 -0.3707  0.1988
 5199TIP3    H215604   4.125   4.360   4.431  0.2543 -0.1679  2.8062
 5200TIP3   OH215605   3.000   4.302   4.175  0.4911  0.2085 -0.6981
 5200TIP3    H115606   2.976   4.247   4.250 -1.2249 -1.0696 -2.1273
 5200TIP3    H215607   2.939   4.376   4.180  3.2380  2.4387  1.6098
 5201TIP3   OH215608   6.441   0.099   3.521  0.2291 -0.1783 -0.7049
 5201TIP3    H115609   6.481   0.013   3.510 -0.5395 -0.7916  1.1875
 5201TIP3    H215610   6.379   0.088   3.593  1.1811  2.3043  0.5690
 5202TIP3   OH215611   3.750   4.440   3.826 -0.1672 -0.1152  0.2518
 5202TIP3    H115612   3.788   4.496   3.758  1.4414 -1.0423  0.3638
 5202TIP3    H215613   3.747   4.496   3.904  2.5585 -0.5082  0.6780
 5203TIP3   OH215614   0.860   0.787   3.550  0.1663 -0.1117 -0.1646
 5203TIP3    H115615   0.801   0.783   3.475 -0.4858  1.2800  0.2469
 5203TIP3    H215616   0.804   0.817   3.622  1.0712 -0.1566  0.5722
 5204TIP3   OH215617   5.463   4.355   3.460  0.1146 -1.0871  0.2696
 5204TIP3    H115618   5.407   4.322   3.389  0.7973 -0.8954 -0.3648
 5204TIP3    H215619   5.551   4.356   3.422  0.4647 -0.8818  1.0909
 5205TIP3   OH215620   5.007   5.009   3.205 -0.8954 -0.2487  0.0771
 5205TIP3    H115621   4.991   5.103   3.213 -0.0876  0.0332 -1.4534
 5205TIP3    H215622   5.003   4.976   3.295 -0.6275  1.3376  0.6816
 5206TIP3   OH215623   3.351   5.024   2.454  0.0396 -0.0510 -0.0239
 5206TIP3    H115624   3.403   5.096   2.418 -1.9254  0.5464 -1.7531
 5206TIP3    H215625   3.318   4.977   2.378 -1.7148 -0.5850  1.0214
 5207TIP3   OH215626   3.595   3.798   3.753 -0.5397 -0.1622 -0.5480
 5207TIP3    H115627   3.576   3.796   3.659  0.7039 -0.9652 -0.7962
 5207TIP3    H215628   3.641   3.716   3.770  1.4026  1.0662  0.2721
 5208TIP3   OH215629   2.618   0.427   0.641  0.4902 -0.4171  0.1154
 5208TIP3    H115630   2.615   0.522   0.641  0.8852 -0.3965 -1.7791
 5208TIP3    H215631   2.710   0.405   0.660  0.8595 -0.3813 -1.5592
 5209TIP3   OH215632   0.811   0.648   2.719  0.1368  0.0042 -1.0262
 5209TIP3    H115633   0.885   0.589   2.703 -0.4110 -1.3983  1.3591
 5209TIP3    H215634   0.850   0.735   2.721  1.3845 -0.5196 -1.9969
 5210TIP3   OH215635   5.220   1.079   4.845 -0.0926  0.3614  0.5545
 5210TIP3    H115636   5.131   1.056   4.873  0.3006 -0.0987  1.4411
 5210TIP3    H215637   5.242   1.015   4.778 -0.1825  0.0685  0.8045
 5211TIP3   OH215638   3.076   5.231   4.282 -0.7137 -0.2329  0.5730
 5211TIP3    H115639   3.032   5.253   4.363  1.1519 -0.3967  1.6542
 5211TIP3    H215640   3.094   5.315   4.240  1.7661  0.0835  2.2016
 5212TIP3   OH215641   5.385   3.804   3.957 -0.0413  0.3907  0.1419
 5212TIP3    H115642   5.384   3.882   4.013  0.4949  1.1078 -0.8243
 5212TIP3    H215643   5.441   3.828   3.884 -0.3482 -0.7069 -0.4684
 5213TIP3   OH215644   1.949   5.881   4.710  0.1892 -0.0309 -0.0853
 5213TIP3    H115645   1.906   5.795   4.708  1.2960 -0.6069  0.3296
 5213TIP3    H215646   2.034   5.864   4.750  0.9425  1.0334 -1.2045
 5214TIP3   OH215647   0.839   1.232   0.367 -0.0248  0.0589  0.6600
 5214TIP3    H115648   0.919   1.202   0.322  1.1798  0.3087  2.5438
 5214TIP3    H215649   0.864   1.315   0.408 -2.2098  1.7487 -1.2978
 5215TIP3   OH215650   0.213   1.766   5.127 -0.2630 -1.0960 -0.4882
 5215TIP3    H115651   0.206   1.849   5.174 -1.6959 -0.3331 -1.9746
 5215TIP3    H215652   0.289   1.723   5.166 -0.5261  0.1317  1.5048
 5216TIP3   OH215653   6.011   0.703   3.697 -0.2154  0.2564 -0.3608
 5216TIP3    H115654   5.965   0.650   3.762 -0.7134  0.6204 -0.4171
 5216TIP3    H215655   5.947   0.767   3.668 -0.1537 -0.2189 -1.5858
 5217TIP3   OH215656   0.240   0.235   2.010  0.1406 -0.7953  0.4393
 5217TIP3    H115657   0.161   0.231   2.063 -0.4334  4.3762  0.2012
 5217TIP3    H215658   0.308   0.267   2.070  1.0727 -1.3154 -0.3236
 5218TIP3   OH215659   3.786   3.384   4.727  0.1836  0.1325 -0.1471
 5218TIP3    H115660   3.748   3.397   4.640 -0.5976 -1.0419 -0.0023
 5218TIP3    H215661   3.798   3.472   4.762 -0.5100  0.5794 -1.0114
 5219TIP3   OH215662   4.924   4.789   4.797  0.6875  0.0492 -0.0010
 5219TIP3    H115663   4.880   4.873   4.807  1.0410  0.0828  1.3753
 5219TIP3    H215664   4.930   4.776   4.703 -2.1168  0.1042 -0.2078
 5220TIP3   OH215665   0.423   0.664   5.182 -0.3357 -0.6272 -0.0296
 5220TIP3    H115666   0.461   0.576   5.187 -1.5175 -1.2473 -1.5157
 5220TIP3    H215667   0.447   0.695   5.095 -1.0480 -0.0057 -0.0055
 5221TIP3   OH215668   3.986   4.545   3.706  0.0102 -0.4505  0.0086
 5221TIP3    H115669   3.965   4.620   3.650 -0.3857 -1.0823 -0.6980
 5221TIP3    H215670   4.072   4.516   3.675 -0.2409 -0.8448 -0.3223
 5222TIP3   OH215671   4.013   5.554   3.465 -0.0421  0.5279 -0.0567
 5222TIP3    H115672   3.974   5.477   3.507 -2.2295  2.3411  1.3651
 5222TIP3    H215673   4.085   5.519   3.413 -0.2476 -2.3492  1.4786
 5223TIP3   OH215674   4.113   5.305   1.989  0.0765  0.5002  0.0135
 5223TIP3    H115675   4.136   5.306   1.896 -0.0425  1.6094 -0.0053
 5223TIP3    H215676   4.188   5.264   2.032  0.8975  1.5960 -0.3650
 5224TIP3   OH215677   0.151   0.841   3.273 -0.2635  0.4809 -0.2484
 5224TIP3    H115678   0.102   0.767   3.239 -0.7397  0.7854 -0.2343
 5224TIP3    H215679   0.225   0.802   3.318  1.1562  0.1072 -2.8108
 5225TIP3   OH215680   4.527   4.017   2.678 -0.5321  0.3091 -0.1513
 5225TIP3    H115681   4.594   3.988   2.616  1.3055  0.5245  1.6970
 5225TIP3    H215682   4.447   4.025   2.625  0.7647 -0.4750 -2.2699
 5226TIP3   OH215683   1.955   4.388   3.608  0.2734  0.9297 -0.2724
 5226TIP3    H115684   2.042   4.347   3.613  0.4298  1.4190  1.1624
 5226TIP3    H215685   1.903   4.326   3.556  1.3400  0.3822 -0.7039
 5227TIP3   OH215686   6.210   3.375   0.618  0.0040 -0.1589  0.3749
 5227TIP3    H115687   6.131   3.422   0.645  0.1069  0.5553 -0.5518
 5227TIP3    H215688   6.186   3.283   0.625 -1.4242  0.0484 -1.3056
 5228TIP3   OH215689   1.514   0.861   2.443 -0.1564  0.1108  0.1050
 5228TIP3    H115690   1.539   0.946   2.409  0.0877  0.2846  0.7167
 5228TIP3    H215691   1.495   0.876   2.536  0.3501 -0.5894  0.3288
 5229TIP3   OH215692   3.735   3.787   1.486 -0.4108  0.5230  0.2993
 5229TIP3    H115693   3.784   3.862   1.519 -0.3713  0.8359 -0.4682
 5229TIP3    H215694   3.645   3.819   1.477  0.0643  1.2067 -2.3399
 5230TIP3   OH215695   3.883   4.079   3.478 -0.6414  0.5693 -1.0096
 5230TIP3    H115696   3.938   4.153   3.452 -0.3110  1.0665  0.9548
 5230TIP3    H215697   3.934   4.035   3.546 -2.1163  0.3018 -0.0423
 5231TIP3   OH215698   0.177   3.186   3.391  0.1670 -0.0097 -0.6531
 5231TIP3    H115699   0.201   3.269   3.433 -0.2148 -0.3938  0.3224
 5231TIP3    H215700   0.261   3.151   3.360  0.0097  2.1173 -3.6539
 5232TIP3   OH215701   5.864   2.756   2.518 -0.0441  0.1278 -0.6978
 5232TIP3    H115702   5.918   2.678   2.530  2.0998  1.5614 -0.8859
 5232TIP3    H215703   5.807   2.758   2.595 -0.4433 -1.8425 -0.9057
 5233TIP3   OH215704   2.915   4.786   4.661 -0.0858 -0.1753 -0.7504
 5233TIP3    H115705   2.820   4.789   4.678  0.3880 -0.1329  2.1519
 5233TIP3    H215706   2.939   4.695   4.679  0.8289  0.4048  1.0416
 5234TIP3   OH215707   3.378   4.138   3.701 -0.1293 -0.6993  0.2580
 5234TIP3    H115708   3.401   4.186   3.780  0.8613 -0.5487 -0.1100
 5234TIP3    H215709   3.462   4.122   3.658 -0.5982 -1.3813 -0.4137
 5235TIP3   OH215710   2.978   4.029   3.959 -0.0957 -0.4100  0.6227
 5235TIP3    H115711   2.965   4.104   3.901 -1.6259  0.9423  2.6678
 5235TIP3    H215712   2.909   4.037   4.025  1.4400 -2.0583  2.4971
 5236TIP3   OH215713   3.497   3.470   3.996  0.0775 -0.3529 -0.2652
 5236TIP3    H115714   3.403   3.466   3.980 -0.1266  0.4756  0.7293
 5236TIP3    H215715   3.533   3.513   3.918 -0.6880  1.8053  0.5258
 5237TIP3   OH215716   4.095   1.900   4.433 -0.4532 -0.6106  0.3671
 5237TIP3    H115717   4.028   1.903   4.501 -0.7944 -0.0549  0.0099
 5237TIP3    H215718   4.107   1.992   4.407  1.2081 -0.5775  1.1765
 5238TIP3   OH215719   6.451   5.767   3.692  0.1867  0.0064  0.1135
 5238TIP3    H115720   6.366   5.808   3.676 -0.3695 -1.6315 -1.3281
 5238TIP3    H215721   6.467   5.781   3.786 -0.3475  2.7234 -0.1526
 5239TIP3   OH215722   3.877   3.258   2.565  0.0128 -0.1953 -0.3352
 5239TIP3    H115723   3.948   3.240   2.503  0.3681  1.1459 -0.3317
 5239TIP3    H215724   3.814   3.309   2.515 -1.3066 -1.9537 -0.5349
 5240TIP3   OH215725   4.160   5.407   3.221  0.4127 -0.3095 -0.4849
 5240TIP3    H115726   4.101   5.351   3.271  1.3371 -0.3753  0.5554
 5240TIP3    H215727   4.227   5.347   3.187 -0.0249 -0.2170 -1.5465
 5241TIP3   OH215728   2.651   2.576   3.526  0.2395  0.3522  0.7839
 5241TIP3    H115729   2.716   2.619   3.471  0.3503  0.9442  1.3805
 5241TIP3    H215730   2.688   2.489   3.543 -0.8156 -0.7101 -1.9499
 5242TIP3   OH215731   4.231   4.422   3.550  0.0482 -0.1598  0.4322
 5242TIP3    H115732   4.314   4.448   3.511  0.0181 -0.0502  0.4409
 5242TIP3    H215733   4.192   4.362   3.486 -1.4195  2.3802 -1.1370
 5243TIP3   OH215734   4.361   4.918   3.065 -0.3234 -0.1012 -0.2698
 5243TIP3    H115735   4.340   4.946   2.976 -1.5046  1.2270  0.4173
 5243TIP3    H215736   4.396   4.829   3.055  2.0582  1.0255 -2.3223
 5244TIP3   OH215737   5.488   2.938   4.543  0.4708  0.2544 -0.2855
 5244TIP3    H115738   5.424   2.947   4.613 -0.4986 -1.6291 -0.8979
 5244TIP3    H215739   5.570   2.915   4.587  0.0182 -0.2785  0.2800
 5245TIP3   OH215740   4.005   3.516   3.364 -0.1284 -0.0947  0.2443
 5245TIP3    H115741   4.097   3.538   3.346 -0.3875  0.6143 -0.2382
 5245TIP3    H215742   3.990   3.435   3.315  0.2016 -0.1347  0.2104
 5246TIP3   OH215743   4.948   3.912   3.579 -0.0029  0.3747 -0.6062
 5246TIP3    H115744   4.898   3.848   3.530 -0.9655  1.5820 -1.2331
 5246TIP3    H215745   5.039   3.882   3.572 -0.5455 -1.4272 -0.0730
 5247TIP3   OH215746   3.816   2.373   4.798  0.1638 -0.9069 -0.4065
 5247TIP3    H115747   3.803   2.463   4.767  1.9218 -1.2751 -2.3541
 5247TIP3    H215748   3.847   2.383   4.888 -1.6262  0.3443  0.0924
 5248TIP3   OH215749   1.433   1.485   4.392 -0.0282  0.0387 -0.4463
 5248TIP3    H115750   1.459   1.573   4.420  0.2802  0.1238 -0.9973
 5248TIP3    H215751   1.502   1.458   4.331 -0.8829 -0.0026 -1.4155
 5249TIP3   OH215752   1.285   4.897   4.680  0.2045  0.1818 -0.1963
 5249TIP3    H115753   1.236   4.889   4.762 -0.8102 -0.4928 -0.8700
 5249TIP3    H215754   1.223   4.872   4.612  1.1328  0.4665 -1.1570
 5250TIP3   OH215755   5.330   4.883   3.350 -0.1203 -0.0051 -0.2635
 5250TIP3    H115756   5.315   4.966   3.304 -1.3080 -0.7815 -1.2846
 5250TIP3    H215757   5.245   4.860   3.387  0.7204  0.3822  1.9801
 5251TIP3   OH215758   5.342   4.361   3.208  0.0861 -0.7141  0.1144
 5251TIP3    H115759   5.409   4.311   3.161  0.3133 -0.4964  0.2090
 5251TIP3    H215760   5.354   4.451   3.178  0.4632 -0.5179  0.8638
 5252TIP3   OH215761   4.249   4.377   4.832 -0.2242  0.3803 -0.7810
 5252TIP3    H115762   4.287   4.299   4.871  0.1037  0.5121 -0.8382
 5252TIP3    H215763   4.155   4.368   4.848 -0.3345 -0.6707 -1.9230
 5253TIP3   OH215764   3.090   4.495   2.273 -0.2689 -0.6876  0.1677
 5253TIP3    H115765   3.107   4.467   2.363 -1.3639  1.4524  1.0793
 5253TIP3    H215766   3.000   4.529   2.275 -0.0712 -0.0131 -1.5657
 5254TIP3   OH215767   3.401   4.675   3.416 -0.0818  0.5749 -0.0163
 5254TIP3    H115768   3.356   4.605   3.367 -2.4130  1.3269  1.0147
 5254TIP3    H215769   3.424   4.634   3.499 -1.0909  0.9094  0.4308
 5255TIP3   OH215770   4.553   3.799   3.055  0.1154  0.2174 -0.1276
 5255TIP3    H115771   4.520   3.729   3.113 -0.7133  0.0460 -0.7824
 5255TIP3    H215772   4.574   3.871   3.114  0.4949 -0.4104  0.5138
 5256TIP3   OH215773   3.201   4.879   3.426 -0.0736  0.2779  0.0778
 5256TIP3    H115774   3.261   4.806   3.407  0.5998  1.1156 -1.0914
 5256TIP3    H215775   3.127   4.838   3.471  0.2598 -1.1526 -0.6308
 5257TIP3   OH215776   3.718   4.481   5.146  0.3535  0.6766 -0.2602
 5257TIP3    H115777   3.801   4.514   5.111  0.0422  0.2453 -1.4336
 5257TIP3    H215778   3.669   4.452   5.068 -0.8573  0.8506  0.4259
 5258TIP3   OH215779   0.139   5.406   4.381 -0.3692 -0.2003  0.0031
 5258TIP3    H115780   0.209   5.369   4.326 -1.1997 -0.9881 -0.5344
 5258TIP3    H215781   0.176   5.488   4.414  0.3171  0.0483 -1.3471
 5259TIP3   OH215782   4.379   5.929   3.833  0.2979 -0.0572  0.2504
 5259TIP3    H115783   4.470   5.940   3.862  0.3779  0.2059 -0.0998
 5259TIP3    H215784   4.385   5.912   3.739  0.0917 -1.8091  0.5496
 5260TIP3   OH215785   5.946   4.355   4.286 -0.1819 -0.4346  0.4370
 5260TIP3    H115786   5.902   4.434   4.317 -0.4311 -0.2064 -0.5059
 5260TIP3    H215787   5.998   4.384   4.211 -0.0795 -1.1206  0.2414
 5261TIP3   OH215788   4.143   5.687   3.792  0.0586  0.2543  0.3178
 5261TIP3    H115789   4.130   5.767   3.841 -0.7120 -1.0441  2.2804
 5261TIP3    H215790   4.162   5.716   3.703 -1.0512  2.5787  0.8103
 5262TIP3   OH215791   4.962   4.610   4.139  0.3874 -0.7162 -0.1518
 5262TIP3    H115792   4.954   4.530   4.086  1.1121 -0.2017 -1.0398
 5262TIP3    H215793   5.042   4.652   4.108  0.5428 -0.1347  0.9971
 5263TIP3   OH215794   3.795   3.127   4.417  0.1356 -0.0351  0.2349
 5263TIP3    H115795   3.874   3.179   4.432 -0.9271  0.7144  3.5140
 5263TIP3    H215796   3.739   3.184   4.364  0.9183  0.2656 -0.2800
 5264TIP3   OH215797   5.664   5.910   4.336 -0.1018 -0.4381 -0.0772
 5264TIP3    H115798   5.671   5.996   4.377  2.6668 -0.8823  0.4991
 5264TIP3    H215799   5.604   5.924   4.263 -0.5286  1.7292  0.6354
 5265TIP3   OH215800   6.067   4.322   4.539 -0.0785 -0.5263  0.1998
 5265TIP3    H115801   6.030   4.296   4.455 -1.5793  0.7768  0.4202
 5265TIP3    H215802   5.992   4.358   4.588  0.9571 -0.3774  1.7180
 5266TIP3   OH215803   4.369   3.297   4.743 -0.0203  0.0130  0.1846
 5266TIP3    H115804   4.333   3.208   4.748  0.6750 -0.3020 -0.2726
 5266TIP3    H215805   4.293   3.353   4.734 -0.3978 -0.6553 -0.8907
 5267TIP3   OH215806   3.514   5.426   5.247  0.1839 -0.4354  0.1499
 5267TIP3    H115807   3.456   5.411   5.173  1.3127 -1.0750 -0.6303
 5267TIP3    H215808   3.475   5.499   5.295 -1.3674 -0.9980 -0.2321
 5268TIP3   OH215809   2.036   2.131   0.061 -0.2136 -0.0847 -0.1589
 5268TIP3    H115810   2.032   2.223   0.089 -0.0293  0.8989 -3.1475
 5268TIP3    H215811   1.963   2.121  -0.000 -1.2400 -2.4292  1.3672
 5269TIP3   OH215812   2.606   3.173   1.994  0.1383  0.1895  0.9588
 5269TIP3    H115813   2.533   3.229   1.968  0.8483  0.3470 -0.7409
 5269TIP3    H215814   2.681   3.233   2.000  0.4006 -0.1813  1.4758
 5270TIP3   OH215815   1.645   2.740   0.918 -0.0656 -0.8695 -0.1957
 5270TIP3    H115816   1.679   2.813   0.970 -0.3580  0.4063 -1.7762
 5270TIP3    H215817   1.720   2.709   0.868 -0.7617  0.7878 -2.3309
 5271TIP3   OH215818   5.819   0.879   3.030 -0.4018  0.1543  0.6316
 5271TIP3    H115819   5.863   0.874   2.945  0.1302  1.9333  0.7803
 5271TIP3    H215820   5.802   0.788   3.054  2.1154 -0.5029  0.0050
 5272TIP3   OH215821   4.946   5.679   2.197  0.1139 -0.3953 -0.1194
 5272TIP3    H115822   4.912   5.594   2.225 -1.0802 -0.2242 -1.0062
 5272TIP3    H215823   4.885   5.707   2.129 -0.3622  1.8844  1.2144
 5273TIP3   OH215824   4.142   5.410   4.427  0.4582 -0.6685  0.2969
 5273TIP3    H115825   4.091   5.474   4.477  0.5709 -0.6392  0.3728
 5273TIP3    H215826   4.128   5.327   4.473  1.3277 -0.4667  0.9229
 5274TIP3   OH215827   2.541   1.548   0.464  0.1334  0.2592  0.0476
 5274TIP3    H115828   2.482   1.594   0.404 -0.2050 -1.0638 -0.6423
 5274TIP3    H215829   2.490   1.473   0.496  1.3676 -0.7948 -0.4151
 5275TIP3   OH215830   5.895   4.083   2.311  0.2200 -0.2963 -0.3285
 5275TIP3    H115831   5.880   3.990   2.294  0.4815 -0.5776  0.9016
 5275TIP3    H215832   5.982   4.100   2.277  1.0820 -1.0459  1.4436
 5276TIP3   OH215833   6.108   2.472   0.678 -0.5780 -0.6334  0.0576
 5276TIP3    H115834   6.201   2.492   0.683 -1.0156  1.8023 -0.6144
 5276TIP3    H215835   6.103   2.377   0.677  1.8219 -0.7901  1.2955
 5277TIP3   OH215836   4.188   3.711   2.933  0.5593  0.5316 -0.3889
 5277TIP3    H115837   4.190   3.806   2.919 -2.0684  0.5581 -0.9004
 5277TIP3    H215838   4.099   3.685   2.908  1.0109 -1.9709  0.4404
 5278TIP3   OH215839   6.188   1.465   3.762 -0.0704  0.8280  0.5754
 5278TIP3    H115840   6.268   1.474   3.813  2.3678 -1.3059 -2.6465
 5278TIP3    H215841   6.166   1.372   3.767 -1.2160  1.0394 -0.1703
 5279TIP3   OH215842   3.129   3.946   3.173 -0.2912  0.4460 -0.8708
 5279TIP3    H115843   3.182   3.990   3.240 -3.0443  2.8787 -0.1844
 5279TIP3    H215844   3.096   3.867   3.216  0.5224  0.3454 -0.4243
 5280TIP3   OH215845   3.960   4.614   4.741  0.1437 -0.1884 -0.1657
 5280TIP3    H115846   3.886   4.570   4.783 -0.5744  0.2549 -0.9549
 5280TIP3    H215847   3.939   4.707   4.748 -0.7904 -0.1511 -2.9409
 5281TIP3   OH215848   3.799   3.695   3.355  0.0741  0.4545  0.1429
 5281TIP3    H115849   3.860   3.768   3.342 -0.6878  0.9686 -0.6490
 5281TIP3    H215850   3.854   3.617   3.356  0.5528  0.7140 -2.6198
 5282TIP3   OH215851   0.343   0.561   3.313  0.3059  0.4107  0.2193
 5282TIP3    H115852   0.352   0.624   3.384  0.4716  0.2492  0.3395
 5282TIP3    H215853   0.268   0.507   3.338  1.9497 -1.3014  1.5220
 5283TIP3   OH215854   4.710   5.149   2.451 -0.2947  0.1162 -0.2721
 5283TIP3    H115855   4.669   5.066   2.428  0.1090 -0.6163  1.4805
 5283TIP3    H215856   4.804   5.129   2.452 -0.1852  0.6323 -0.0552
 5284TIP3   OH215857   3.797   0.021   2.205  0.4536 -0.0931  0.1332
 5284TIP3    H115858   3.743  -0.009   2.132  0.2331  0.0147  0.2514
 5284TIP3    H215859   3.738   0.075   2.258  0.4830 -0.5658  0.6504
 5285TIP3   OH215860   5.633   6.080   4.672 -0.2559  0.8965  0.0561
 5285TIP3    H115861   5.607   6.128   4.594 -1.3772  1.9670  1.0750
 5285TIP3    H215862   5.641   6.146   4.740 -0.0994 -0.1304  1.0540
 5286TIP3   OH215863   0.422   0.345   2.220 -0.0550  0.2699 -0.0568
 5286TIP3    H115864   0.397   0.434   2.243 -0.3156  0.3804 -0.7574
 5286TIP3    H215865   0.479   0.316   2.292  0.6634  1.2709 -0.2158
 5287TIP3   OH215866   4.394   2.980   3.858 -0.2742  0.3139 -0.6473
 5287TIP3    H115867   4.418   3.068   3.828  1.7691  0.1806  0.5042
 5287TIP3    H215868   4.334   2.995   3.930 -1.0558  0.7316 -1.3772
 5288TIP3   OH215869   4.112   6.120   4.823 -0.6000 -0.1093  0.2176
 5288TIP3    H115870   4.074   6.032   4.816  1.7601 -1.0544 -1.5853
 5288TIP3    H215871   4.054   6.175   4.770 -1.9547 -0.6316  1.1388
 5289TIP3   OH215872   4.333   2.943   4.149 -0.6759  0.1666 -0.4682
 5289TIP3    H115873   4.362   2.863   4.193  0.0484  1.1818  0.9221
 5289TIP3    H215874   4.247   2.920   4.114  0.1884 -1.7024 -1.4387
 5290TIP3   OH215875   5.054   0.444   2.659  0.2240 -0.0011  0.2356
 5290TIP3    H115876   5.084   0.360   2.624  0.4945  0.8604 -1.6815
 5290TIP3    H215877   4.960   0.445   2.642  0.1358 -0.1419  0.7226
 5291TIP3   OH215878   6.153   4.184   2.155 -0.0771  0.0465  0.5720
 5291TIP3    H115879   6.191   4.272   2.158 -1.1301  0.5275  0.0260
 5291TIP3    H215880   6.105   4.182   2.073 -1.5233 -0.4455  1.4230
 5292TIP3   OH215881   0.550   0.304   4.093 -0.3781 -0.3996  0.0093
 5292TIP3    H115882   0.492   0.272   4.162 -1.7932 -0.2033 -1.0706
 5292TIP3    H215883   0.630   0.251   4.101 -0.2956  0.0234  2.1622
 5293TIP3   OH215884   0.024   5.154   0.186  0.7846  0.7213 -0.1115
 5293TIP3    H115885   0.017   5.240   0.229  1.1083  0.1459  1.1094
 5293TIP3    H215886   0.039   5.175   0.094 -1.8472  1.9856 -0.3135
 5294TIP3   OH215887   0.533   0.438   4.476 -0.1828  0.3680 -0.1061
 5294TIP3    H115888   0.599   0.383   4.518  1.3826  2.9825  1.0166
 5294TIP3    H215889   0.452   0.418   4.523  1.1616  1.8517  3.0062
 5295TIP3   OH215890   3.099   2.791   0.149 -0.4706  0.3202 -0.6313
 5295TIP3    H115891   3.025   2.763   0.095 -1.1467  0.9672 -0.0561
 5295TIP3    H215892   3.126   2.875   0.110  0.0014  0.0527 -0.8797
 5296TIP3   OH215893   3.824   5.715   3.131 -0.0505 -0.5908 -0.1373
 5296TIP3    H115894   3.907   5.683   3.165 -0.4179 -1.5684 -0.1429
 5296TIP3    H215895   3.837   5.810   3.120  0.6865 -0.5600  0.9205
 5297TIP3   OH215896   2.845   4.396   4.857 -0.0313  0.1026  0.2085
 5297TIP3    H115897   2.782   4.457   4.895  0.5106 -0.5609  2.2678
 5297TIP3    H215898   2.792   4.327   4.818 -0.6229  1.2824 -1.0708
 5298TIP3   OH215899   6.259   1.843   2.862 -0.0800 -0.3868  0.4201
 5298TIP3    H115900   6.184   1.882   2.815 -0.6773  0.7608  2.2509
 5298TIP3    H215901   6.329   1.839   2.796 -1.5530 -0.9084 -1.1643
 5299TIP3   OH215902   4.268   5.287   2.725 -0.3624 -0.0174  0.2944
 5299TIP3    H115903   4.214   5.257   2.652  0.0693 -3.0145  1.1459
 5299TIP3    H215904   4.357   5.286   2.691 -0.2378 -0.7341  0.6306
 5300TIP3   OH215905   0.904   5.598   0.410 -0.3091  0.4771  0.5368
 5300TIP3    H115906   0.943   5.581   0.496 -0.7781 -1.7467  0.3363
 5300TIP3    H215907   0.840   5.528   0.399  0.3668  0.2279 -2.0131
 5301TIP3   OH215908   1.373   0.600   4.744 -0.0847 -0.1467  0.2272
 5301TIP3    H115909   1.375   0.611   4.649 -1.6038 -0.3109  0.1601
 5301TIP3    H215910   1.294   0.548   4.760  0.3872 -0.4742  1.5436
 5302TIP3   OH215911   6.172   4.451   3.454 -0.2006  0.2658 -0.3898
 5302TIP3    H115912   6.150   4.544   3.461  1.8054  0.7478 -0.0606
 5302TIP3    H215913   6.139   4.413   3.535 -1.7986  0.5259 -0.9131
 5303TIP3   OH215914   2.776   3.758   2.042 -0.1406  0.5370 -0.6021
 5303TIP3    H115915   2.746   3.839   2.002  1.1733  1.1709 -0.3299
 5303TIP3    H215916   2.767   3.692   1.973 -1.5549  0.8340 -0.7046
 5304TIP3   OH215917   3.618   1.537   0.843  0.1891  0.2553 -0.5582
 5304TIP3    H115918   3.669   1.618   0.832  0.4635 -0.0326 -1.5315
 5304TIP3    H215919   3.580   1.522   0.756 -0.4106 -0.2937 -0.2003
 5305TIP3   OH215920   2.915   0.654   1.115  0.3195  0.4918  0.1831
 5305TIP3    H115921   2.852   0.710   1.161 -0.5806  0.0646 -0.5312
 5305TIP3    H215922   2.869   0.624   1.037  2.0614  1.7465 -1.3658
 5306TIP3   OH215923   3.090   4.251   3.653 -0.3564  0.0603  0.0154
 5306TIP3    H115924   3.071   4.301   3.732  0.1059  0.5505 -0.1774
 5306TIP3    H215925   3.167   4.199   3.675 -0.4514 -0.0814  0.0108
 5307TIP3   OH215926   2.402   0.944   1.561  0.2719  0.3155 -0.0546
 5307TIP3    H115927   2.382   0.903   1.477 -1.1558  0.4321  0.2068
 5307TIP3    H215928   2.370   0.882   1.627 -0.7385  1.2509  0.3581
 5308TIP3   OH215929   3.737   4.517   3.525  0.0456 -0.6501  0.5075
 5308TIP3    H115930   3.646   4.486   3.529  0.1531 -1.0012  0.2618
 5308TIP3    H215931   3.738   4.597   3.578 -0.1323 -1.3282  1.5331
 5309TIP3   OH215932   3.615   1.453   1.620  0.1314  0.9040 -0.0809
 5309TIP3    H115933   3.589   1.440   1.711  0.5855 -2.6901 -0.3933
 5309TIP3    H215934   3.664   1.374   1.598  0.0871  1.7479 -3.4346
 5310TIP3   OH215935   4.614   6.035   2.380 -0.3020  0.4888 -0.3495
 5310TIP3    H115936   4.571   5.950   2.391 -0.2080  0.4363 -0.3860
 5310TIP3    H215937   4.647   6.033   2.290  0.4272  0.2289 -0.0837
 5311TIP3   OH215938   5.733   3.208   5.013 -0.2068  0.4327  0.3284
 5311TIP3    H115939   5.762   3.125   5.051 -2.4990  0.4001  2.1471
 5311TIP3    H215940   5.760   3.274   5.077 -2.8370  0.5244  1.4145
 5312TIP3   OH215941   1.970   0.421   1.064  0.2120 -0.3193 -0.5727
 5312TIP3    H115942   2.000   0.342   1.017  0.4449  0.3644 -1.5867
 5312TIP3    H215943   1.942   0.480   0.994  0.6041  0.7264  0.1582
 5313TIP3   OH215944   2.599   1.011   0.332 -0.0594 -0.0328  0.2018
 5313TIP3    H115945   2.596   0.917   0.346 -0.0577 -0.1177 -0.3690
 5313TIP3    H215946   2.526   1.029   0.273  1.7568 -0.1141 -2.1590
 5314TIP3   OH215947   2.636   0.714   1.495 -0.0078  0.2135  0.6249
 5314TIP3    H115948   2.703   0.767   1.540  0.7629 -0.0259 -0.2231
 5314TIP3    H215949   2.683   0.672   1.423 -1.2987  0.8999 -0.6626
 5315TIP3   OH215950   4.004   3.306   0.879  0.1718  0.5452 -0.0123
 5315TIP3    H115951   4.054   3.380   0.914 -0.1420 -0.2107  2.0879
 5315TIP3    H215952   3.921   3.308   0.926  0.1873 -1.1767  0.1077
 5316TIP3   OH215953   3.949   4.249   3.838  0.0087 -0.4370 -0.5752
 5316TIP3    H115954   3.905   4.334   3.844 -0.6772 -0.9076  1.8531
 5316TIP3    H215955   3.883   4.190   3.800  0.6085  0.1584 -2.6118
 5317TIP3   OH215956   0.956   5.830   0.237  0.0991 -0.0506  0.7422
 5317TIP3    H115957   1.021   5.802   0.173 -0.5451  0.3605 -0.1025
 5317TIP3    H215958   0.922   5.749   0.274  1.5001 -0.2569  1.6095
 5318TIP3   OH215959   3.381   5.616   3.365 -0.1093  0.4926  0.1019
 5318TIP3    H115960   3.474   5.629   3.347 -0.1434 -1.0656 -1.3472
 5318TIP3    H215961   3.379   5.577   3.453  0.6652 -0.2201 -0.1946
 5319TIP3   OH215962   0.410   5.727   0.368 -0.2752 -0.7002 -0.1141
 5319TIP3    H115963   0.348   5.726   0.441  1.0505 -1.2337  1.0552
 5319TIP3    H215964   0.447   5.639   0.367  0.8533 -0.2334 -0.4289
 5320TIP3   OH215965   6.480   4.154   5.183 -0.3725  0.5040  0.5866
 5320TIP3    H115966   6.457   4.238   5.143  0.6308  1.0936  1.2245
 5320TIP3    H215967   6.492   4.095   5.109  0.0154  1.2133  0.0824
 5321TIP3   OH215968   3.787   4.997   3.470  0.3938  0.4955 -0.1410
 5321TIP3    H115969   3.803   4.987   3.376  1.1649  1.3749 -0.1101
 5321TIP3    H215970   3.702   5.042   3.475  0.0412 -0.1426 -0.4053
 5322TIP3   OH215971   0.130   0.468   5.186 -0.8547  0.4142  0.2193
 5322TIP3    H115972   0.164   0.388   5.146  0.7715  0.3381  1.6711
 5322TIP3    H215973   0.204   0.529   5.182 -0.7989  0.5488  2.6474
 5323TIP3   OH215974   3.623   5.801   3.525 -0.3484  0.0876 -0.3498
 5323TIP3    H115975   3.669   5.720   3.501  0.2705  1.1241 -2.8498
 5323TIP3    H215976   3.593   5.786   3.614  1.8511 -1.9613  0.0933
 5324TIP3   OH215977   3.463   5.737   2.414  0.2959  0.4010  0.0842
 5324TIP3    H115978   3.451   5.646   2.441  0.8306  0.0719 -0.7401
 5324TIP3    H215979   3.491   5.783   2.493 -0.7675  0.0221  0.6948
 5325TIP3   OH215980   3.033   3.523   1.890 -0.1059  0.2638  0.0730
 5325TIP3    H115981   3.103   3.579   1.858  0.6538 -0.0597  1.1668
 5325TIP3    H215982   2.954   3.556   1.846  0.4289  1.7817  0.2373
 5326TIP3   OH215983   1.439   2.226   0.165  0.0372 -0.5277  0.4395
 5326TIP3    H115984   1.463   2.303   0.216  1.6906  0.0438 -1.1384
 5326TIP3    H215985   1.407   2.261   0.081 -1.7124 -1.4788  0.6734
 5327TIP3   OH215986   4.182   1.948   3.154  0.4204  0.4850  0.3626
 5327TIP3    H115987   4.218   1.950   3.066 -0.5207  0.9525 -0.0139
 5327TIP3    H215988   4.090   1.923   3.143  0.6460 -0.8108  1.3207
 5328TIP3   OH215989   0.622   0.114   0.903 -0.1220  0.1060  0.2082
 5328TIP3    H115990   0.554   0.143   0.842 -0.1817 -0.4524  0.0142
 5328TIP3    H215991   0.682   0.189   0.908 -1.2819  0.9727  1.1606
 5329TIP3   OH215992   4.847   6.094   4.655  0.0426 -0.4153 -0.4232
 5329TIP3    H115993   4.783   6.114   4.723 -0.9512  0.5962 -1.6309
 5329TIP3    H215994   4.794   6.069   4.579  0.9869  1.9265 -1.9173
 5330TIP3   OH215995   5.857   4.320   2.492  0.2142 -0.4867  0.5968
 5330TIP3    H115996   5.844   4.254   2.424 -0.5714  1.2572 -1.0214
 5330TIP3    H215997   5.772   4.327   2.535  0.3854 -0.7687  0.9758
 5331TIP3   OH215998   5.946   4.050   4.285 -0.0475 -0.0381  0.1748
 5331TIP3    H115999   5.904   4.042   4.370  1.1317 -2.0964  0.5849
 5331TIP3    H216000   5.996   4.131   4.291  0.7985 -0.6653  1.7801
 5332TIP3   OH216001   1.231   6.017   3.407  0.5594  0.6785  0.1212
 5332TIP3    H116002   1.300   5.961   3.440  0.8000  0.9131  0.0151
 5332TIP3    H216003   1.212   5.984   3.319  2.3909  2.2815 -0.9002
 5333TIP3   OH216004   3.948   5.462   3.898  0.2653  0.7000  0.9172
 5333TIP3    H116005   4.013   5.505   3.841  0.4220 -1.3597 -0.4766
 5333TIP3    H216006   3.994   5.452   3.981  0.9494  1.3283  0.6299
 5334TIP3   OH216007   4.122   2.570   4.838 -0.0612 -0.2322 -0.3592
 5334TIP3    H116008   4.147   2.482   4.867 -0.0484  0.0371  0.4791
 5334TIP3    H216009   4.112   2.562   4.744  0.8330 -0.9207 -0.4080
 5335TIP3   OH216010   6.256   4.014   5.240 -0.0424  0.6456  0.4021
 5335TIP3    H116011   6.277   3.934   5.287  0.2656 -1.3891 -3.0675
 5335TIP3    H216012   6.341   4.054   5.221 -0.0711  0.4688 -0.0978
 5336TIP3   OH216013   3.000   5.357   0.575  0.1666  0.4355 -0.2537
 5336TIP3    H116014   3.017   5.334   0.666  1.2881 -1.6021 -0.9336
 5336TIP3    H216015   3.055   5.434   0.559 -1.0458  1.6345  1.1196
 5337TIP3   OH216016   5.205   0.932   5.190 -0.2514 -0.2613  0.2199
 5337TIP3    H116017   5.157   1.002   5.147 -0.9740  0.8307  2.6906
 5337TIP3    H216018   5.150   0.855   5.180 -0.7267  0.1341 -0.2263
 5338TIP3   OH216019   5.159   3.550   5.117  0.2541 -0.0429  0.3201
 5338TIP3    H116020   5.205   3.528   5.036 -0.9718 -0.0198 -0.3883
 5338TIP3    H216021   5.078   3.592   5.088 -0.4107 -0.4640  1.5500
 5339TIP3   OH216022   3.603   2.759   0.700  0.0919 -0.1294  0.1762
 5339TIP3    H116023   3.515   2.788   0.674 -0.3510 -1.0580  0.6170
 5339TIP3    H216024   3.659   2.834   0.680 -0.8354  0.5697  0.1131
 5340TIP3   OH216025   5.113   3.171   3.753  0.0032 -0.0173  0.6556
 5340TIP3    H116026   5.033   3.194   3.800  0.3779  2.0044  0.3261
 5340TIP3    H216027   5.093   3.187   3.661 -0.4779 -3.2700  0.1257
 5341TIP3   OH216028   1.044   5.991   1.081  0.6308  0.3455 -0.3729
 5341TIP3    H116029   1.127   5.943   1.075  1.1614  1.1127  0.8004
 5341TIP3    H216030   1.009   5.990   0.991  1.9027  0.0272 -0.8694
 5342TIP3   OH216031   2.836   0.836   0.078 -0.8221 -0.2229  0.1794
 5342TIP3    H116032   2.787   0.771   0.028 -1.6139  0.6272 -0.1594
 5342TIP3    H216033   2.792   0.840   0.163 -1.3088  0.4870 -0.0996
 5343TIP3   OH216034   3.650   3.864   5.212 -0.0282 -0.0278 -0.1373
 5343TIP3    H116035   3.664   3.852   5.306 -3.2159 -2.0602  0.1349
 5343TIP3    H216036   3.565   3.908   5.205  0.2640  0.2832 -2.0785
 5344TIP3   OH216037   0.789   0.167   4.065  0.3406  0.1516 -0.1137
 5344TIP3    H116038   0.828   0.093   4.113  2.4989  1.0113 -0.4747
 5344TIP3    H216039   0.806   0.147   3.973  1.5773  1.4168 -0.1808
 5345TIP3   OH216040   4.471   3.930   5.240  0.2810  0.3378  0.2680
 5345TIP3    H116041   4.455   3.861   5.305 -0.7135  1.4631  1.2362
 5345TIP3    H216042   4.567   3.936   5.235  0.3631 -0.4695  0.8731
 5346TIP3   OH216043   1.481   3.081   4.523  0.9746  0.0833  0.0975
 5346TIP3    H116044   1.436   3.004   4.489  0.4652  0.9817 -1.3272
 5346TIP3    H216045   1.451   3.089   4.613  0.0216 -0.6423 -0.1547
 5347TIP3   OH216046   2.579   4.158   2.588 -0.2105 -0.1693 -0.1539
 5347TIP3    H116047   2.670   4.162   2.556 -0.2425 -2.3752 -0.5870
 5347TIP3    H216048   2.579   4.213   2.666  1.3586  0.3312 -0.4828
 5348TIP3   OH216049   5.679   3.913   4.757  0.4127  0.5447  0.0076
 5348TIP3    H116050   5.595   3.959   4.753 -0.9301 -1.8998 -1.6087
 5348TIP3    H216051   5.716   3.921   4.670  0.4340 -0.9007 -0.1287
 5349TIP3   OH216052   4.922   4.610   3.002  0.1345 -0.0985  0.6722
 5349TIP3    H116053   4.891   4.543   2.941 -0.6766 -0.3601  1.3455
 5349TIP3    H216054   5.016   4.597   3.007  0.6277  1.7460 -2.6679
 5350TIP3   OH216055   2.976   4.634   3.556 -0.1786  0.1644 -0.7448
 5350TIP3    H116056   2.936   4.560   3.511 -2.0175  0.1281  0.8458
 5350TIP3    H216057   2.904   4.672   3.607  1.4445  1.1819  0.8476
 5351TIP3   OH216058   6.502   0.263   2.465  0.5135 -0.1244  0.4186
 5351TIP3    H116059   6.438   0.255   2.394 -0.0856  2.0373  0.6552
 5351TIP3    H216060   6.450   0.263   2.545  0.7110  2.0339  0.5962
 5352TIP3   OH216061   3.588   3.117   3.381  0.4144 -0.4336 -0.6331
 5352TIP3    H116062   3.591   3.205   3.344  0.9734 -0.4341 -0.5959
 5352TIP3    H216063   3.648   3.120   3.456  1.5812 -1.2348 -1.5006
 5353TIP3   OH216064   4.971   0.042   5.136  0.4722 -0.0622 -0.3123
 5353TIP3    H116065   4.909   0.113   5.153  2.7891  2.3000 -1.3739
 5353TIP3    H216066   4.936  -0.004   5.060 -1.0954 -0.1260  0.4382
 5354TIP3   OH216067   6.376   3.611   0.997  0.4102 -0.2521 -0.3712
 5354TIP3    H116068   6.415   3.585   0.914  1.0750 -0.6274  0.0588
 5354TIP3    H216069   6.450   3.641   1.050 -0.0407  0.2028  0.0051
 5355TIP3   OH216070   0.565   0.060   4.279  0.7942 -0.2244  0.2590
 5355TIP3    H116071   0.534   0.003   4.348  1.0181  2.0730  2.3382
 5355TIP3    H216072   0.655   0.031   4.262  0.3607 -1.5040  0.1211
 5356TIP3   OH216073   2.785   3.778   0.595 -0.0089  0.1901 -0.1778
 5356TIP3    H116074   2.851   3.723   0.552  0.8543  0.9219  0.1951
 5356TIP3    H216075   2.832   3.859   0.618 -0.7689  0.3048  1.0242
 5357TIP3   OH216076   6.231   5.239   4.561 -0.1254 -0.3595 -0.0526
 5357TIP3    H116077   6.186   5.247   4.645 -2.4703 -0.2365 -1.2647
 5357TIP3    H216078   6.322   5.220   4.584 -0.6816 -0.1351  2.4985
 5358TIP3   OH216079   0.474   1.890   0.131 -0.2127  0.4858 -0.1153
 5358TIP3    H116080   0.497   1.798   0.117 -2.3610 -1.3158  6.4308
 5358TIP3    H216081   0.389   1.901   0.088 -1.0758 -1.3302  1.0922
 5359TIP3   OH216082   4.703   2.963   4.182  0.1537  0.1260 -0.4915
 5359TIP3    H116083   4.658   3.017   4.248  2.2451  0.4790  0.7089
 5359TIP3    H216084   4.683   3.005   4.099 -3.0310 -0.6639 -0.1652
 5360TIP3   OH216085   5.979   1.988   0.058  0.2116 -0.3380 -0.1013
 5360TIP3    H116086   5.972   2.069   0.007 -0.2266 -0.6391 -0.5310
 5360TIP3    H216087   5.972   2.016   0.149  1.9414  0.3158 -0.1511
 5361TIP3   OH216088   4.940   6.094   2.816  0.0225 -0.0541  0.0472
 5361TIP3    H116089   4.899   6.140   2.743  1.1263  1.6334  0.4577
 5361TIP3    H216090   4.879   6.023   2.838 -0.8770  0.1669 -1.7154
 5362TIP3   OH216091   5.776   5.306   4.269 -0.0029 -0.5831  0.4167
 5362TIP3    H116092   5.744   5.365   4.337  0.3243 -0.6589  0.6378
 5362TIP3    H216093   5.870   5.297   4.287  0.9042  2.3747 -2.2010
 5363TIP3   OH216094   5.697   0.673   4.765  0.0929 -0.7309 -0.5470
 5363TIP3    H116095   5.720   0.657   4.856  1.0663 -0.2101 -0.6988
 5363TIP3    H216096   5.673   0.765   4.761 -0.0484 -0.7752 -0.7986
 5364TIP3   OH216097   2.574   4.015   4.321  0.0028  0.4056 -0.1051
 5364TIP3    H116098   2.545   4.015   4.412  0.4722  0.2581  0.0490
 5364TIP3    H216099   2.550   3.929   4.288  0.9401  0.0058  0.2447
 5365TIP3   OH216100   4.612   4.226   4.970  0.8926  0.0988 -0.3725
 5365TIP3    H116101   4.615   4.267   5.057  0.2739  1.8907 -1.1710
 5365TIP3    H216102   4.660   4.286   4.913  3.1091 -2.0981 -0.8991
 5366TIP3   OH216103   4.089   5.047   4.173  0.2110  0.1761 -0.3999
 5366TIP3    H116104   4.167   5.102   4.167  0.8906 -0.8768 -1.4066
 5366TIP3    H216105   4.108   4.972   4.116 -1.4017 -0.2510 -0.3922
 5367TIP3   OH216106   5.148   2.049   2.039  0.3165 -0.1068 -0.9546
 5367TIP3    H116107   5.114   2.138   2.046  0.7778 -0.0206  0.4351
 5367TIP3    H216108   5.087   1.996   2.091  0.5193 -0.4585 -1.0775
 5368TIP3   OH216109   4.993   3.240   5.006  0.0071 -0.4905 -0.0849
 5368TIP3    H116110   5.016   3.173   5.070  0.0858  0.0007  0.4087
 5368TIP3    H216111   5.023   3.205   4.922 -0.4295 -1.3034  0.0895
 5369TIP3   OH216112   5.317   3.605   4.139 -0.3826  0.0438  0.8424
 5369TIP3    H116113   5.254   3.572   4.075  0.7977  0.9055 -0.8306
 5369TIP3    H216114   5.351   3.685   4.098  2.8919 -1.2132  0.9928
 5370TIP3   OH216115   6.353   4.882   3.356 -0.2931  0.5534 -0.5907
 5370TIP3    H116116   6.445   4.901   3.375  0.0335 -1.0873 -0.4627
 5370TIP3    H216117   6.340   4.916   3.267  1.0119 -1.0629 -1.4243
 5371TIP3   OH216118   6.375   4.394   4.085 -0.1210 -0.2037 -0.5369
 5371TIP3    H116119   6.407   4.412   4.173 -0.5644  0.2356 -0.4713
 5371TIP3    H216120   6.444   4.340   4.046 -2.0310 -4.5664  1.7001
 5372TIP3   OH216121   3.975   3.645   3.623 -0.0000  0.5078  0.4913
 5372TIP3    H116122   3.985   3.636   3.528 -2.6316 -1.6765  0.3562
 5372TIP3    H216123   4.041   3.586   3.660 -0.0424  0.1453 -0.0084
 5373TIP3   OH216124   3.956   2.460   4.304 -0.4708  0.0189 -0.1024
 5373TIP3    H116125   3.898   2.385   4.292 -1.3413  0.7865 -0.7915
 5373TIP3    H216126   4.043   2.426   4.284 -0.7777 -0.9631  0.2000
 5374TIP3   OH216127   4.111   3.713   4.963  0.1978 -0.1669  0.2197
 5374TIP3    H116128   4.177   3.782   4.978  1.0052 -0.9692  0.3733
 5374TIP3    H216129   4.162   3.632   4.959 -0.7949 -0.7983  0.3751
 5375TIP3   OH216130   5.527   0.746   2.446  0.2771 -0.6281  0.3196
 5375TIP3    H116131   5.601   0.716   2.394  0.9321  0.1557  0.7833
 5375TIP3    H216132   5.505   0.671   2.502  0.8583 -0.7926  0.3277
 5376TIP3   OH216133   1.012   1.226   2.203  0.0100  0.1993 -0.1569
 5376TIP3    H116134   0.997   1.270   2.119 -0.9228  2.9625  1.4115
 5376TIP3    H216135   1.032   1.135   2.179 -0.9384  0.7705 -3.3156
 5377TIP3   OH216136   3.869   1.731   4.097 -0.0901  0.2820  0.3611
 5377TIP3    H116137   3.792   1.675   4.084  0.6632 -1.0325  1.4548
 5377TIP3    H216138   3.836   1.807   4.144 -1.0258  0.5091 -0.6419
 5378TIP3   OH216139   4.190   1.603   0.215  0.0066 -0.3651 -0.5299
 5378TIP3    H116140   4.239   1.534   0.259 -0.6147 -0.5047 -0.0431
 5378TIP3    H216141   4.200   1.680   0.272 -0.7124 -0.5191 -0.1792
 5379TIP3   OH216142   4.420   3.478   3.577 -0.1407 -0.1330  0.2732
 5379TIP3    H116143   4.347   3.471   3.638 -0.7649 -1.2426 -0.5805
 5379TIP3    H216144   4.379   3.500   3.493  0.5833  0.0844 -0.0296
 5380TIP3   OH216145   5.530   4.349   3.727  0.3757 -0.3077  0.2578
 5380TIP3    H116146   5.504   4.313   3.642 -1.0605  1.9236 -0.2936
 5380TIP3    H216147   5.602   4.408   3.708  0.8197 -0.6766  0.7630
 5381TIP3   OH216148   4.631   5.945   4.962  0.1384 -0.1946 -0.3842
 5381TIP3    H116149   4.708   5.906   5.002 -0.4706 -0.3897  0.6267
 5381TIP3    H216150   4.568   5.872   4.956 -1.6650  0.9197  3.1838
 5382TIP3   OH216151   6.147   4.146   1.456  0.3486 -0.0962 -0.0415
 5382TIP3    H116152   6.177   4.168   1.544  1.0265 -0.7629 -0.0996
 5382TIP3    H216153   6.204   4.195   1.397  0.1182  0.0842 -0.1165
 5383TIP3   OH216154   6.068   5.392   3.335  0.2894 -0.0545 -0.3441
 5383TIP3    H116155   6.038   5.473   3.378 -0.5675  0.3119 -1.5947
 5383TIP3    H216156   6.161   5.407   3.319  0.4312  0.1386  0.6493
 5384TIP3   OH216157   6.496   3.887   3.562 -0.0784 -0.1671  0.0551
 5384TIP3    H116158   6.559   3.844   3.505  1.1228  1.0153  0.4654
 5384TIP3    H216159   6.410   3.861   3.527  0.6288 -0.2353 -1.6767
 5385TIP3   OH216160   0.284   5.360   3.513 -1.1131  0.1516 -0.6142
 5385TIP3    H116161   0.281   5.283   3.569 -1.1512  0.4066 -0.2685
 5385TIP3    H216162   0.207   5.411   3.537 -0.1339  1.1739  0.4128
 5386TIP3   OH216163   1.581   1.526   2.844 -0.4338 -0.0717 -0.3510
 5386TIP3    H116164   1.602   1.446   2.893  0.0533  0.4877  0.3633
 5386TIP3    H216165   1.661   1.578   2.848 -0.3714 -0.0534 -1.8157
 5387TIP3   OH216166   4.889   4.722   2.703 -0.2074 -0.4479 -0.2742
 5387TIP3    H116167   4.892   4.647   2.763  0.2978  0.6767  1.1260
 5387TIP3    H216168   4.804   4.763   2.719  0.1578  0.1760  0.0652
 5388TIP3   OH216169   4.983   1.010   3.378 -0.2888 -0.5932  0.0356
 5388TIP3    H116170   4.981   0.946   3.450  1.0135 -0.3479  0.2868
 5388TIP3    H216171   5.010   1.092   3.419  1.0470 -0.5867 -0.8368
 5389TIP3   OH216172   1.954   4.462   3.327  0.3223 -0.5841 -0.3680
 5389TIP3    H116173   1.892   4.400   3.365  1.0483 -0.1264  1.5835
 5389TIP3    H216174   1.901   4.518   3.270 -0.7395 -1.3503 -0.1268
 5390TIP3   OH216175   1.554   4.627   3.939 -0.1178 -0.0074  0.1959
 5390TIP3    H116176   1.516   4.554   3.987  0.8594 -0.9429 -0.4127
 5390TIP3    H216177   1.592   4.587   3.860  2.4382  0.8120  0.9421
 5391TIP3   OH216178   4.693   4.406   4.231  0.3847  0.3400 -0.5321
 5391TIP3    H116179   4.639   4.484   4.220 -0.7011 -0.5441 -1.6486
 5391TIP3    H216180   4.748   4.404   4.152  0.1198 -0.2334 -0.7069
 5392TIP3   OH216181   5.907   5.308   0.934 -0.1050 -0.2224  0.3219
 5392TIP3    H116182   5.891   5.295   1.027  1.1339 -2.8243  0.2286
 5392TIP3    H216183   5.820   5.315   0.895 -0.6519 -0.0736  1.5581
 5393TIP3   OH216184   3.835   3.320   2.068  0.0846  0.1361  0.6188
 5393TIP3    H116185   3.857   3.280   1.984 -1.6678  1.9296 -0.7559
 5393TIP3    H216186   3.896   3.393   2.077 -0.4816  0.6549  0.3192
 5394TIP3   OH216187   1.556   4.970   2.966 -0.4854  0.0294 -0.4552
 5394TIP3    H116188   1.600   4.956   2.882  2.9583 -0.1445  1.3093
 5394TIP3    H216189   1.507   5.051   2.954 -0.3311 -0.1866 -2.7351
 5395TIP3   OH216190   6.046   3.947   3.247  0.4613 -0.0000  0.0575
 5395TIP3    H116191   6.112   3.975   3.184 -0.9659 -2.6121 -2.6961
 5395TIP3    H216192   6.042   3.852   3.238 -2.5049 -0.0625  1.3382
 5396TIP3   OH216193   0.312   5.661   1.873  0.4625 -0.0062 -0.8717
 5396TIP3    H116194   0.361   5.615   1.941  0.6525 -0.0258 -1.0189
 5396TIP3    H216195   0.376   5.723   1.836 -0.0890  1.1476  0.0675
 5397TIP3   OH216196   0.907   0.375   2.545 -0.3876  0.0843  0.3097
 5397TIP3    H116197   0.980   0.419   2.588  0.6055  0.6573 -1.8846
 5397TIP3    H216198   0.897   0.292   2.592  1.7853 -0.0711  0.5145
 5398TIP3   OH216199   1.672   5.954   3.991  0.2822  0.0505  0.2623
 5398TIP3    H116200   1.692   5.893   3.920  0.7616 -0.1019  0.5291
 5398TIP3    H216201   1.656   5.897   4.067  0.9554  0.2639  0.5689
 5399TIP3   OH216202   5.570   5.631   4.914 -0.0903  0.2247  0.1605
 5399TIP3    H116203   5.601   5.709   4.866 -2.6684  0.8855 -0.4951
 5399TIP3    H216204   5.477   5.646   4.927 -0.3999 -2.2538  1.0756
 5400TIP3   OH216205   1.082   0.954   2.130  0.2239 -0.7742  0.3400
 5400TIP3    H116206   1.142   0.913   2.068  1.0493  0.5845  0.2285
 5400TIP3    H216207   1.108   0.918   2.215 -0.2839 -1.8999  0.0392
 5401TIP3   OH216208   6.380   1.758   4.945  0.4229 -0.1002  0.2423
 5401TIP3    H116209   6.330   1.739   5.024 -1.3445 -3.1932 -1.4679
 5401TIP3    H216210   6.468   1.778   4.976 -0.3478 -0.7557  3.0090
 5402TIP3   OH216211   5.228   4.933   2.136  0.2359  0.5250 -0.0859
 5402TIP3    H116212   5.292   4.906   2.071 -0.4978  0.8848 -0.9693
 5402TIP3    H216213   5.269   5.007   2.181  0.8771  0.0671  0.0847
 5403TIP3   OH216214   5.061   5.710   2.597 -0.5385 -0.5699 -0.6590
 5403TIP3    H116215   5.135   5.695   2.655 -0.9217  1.7144  0.4618
 5403TIP3    H216216   5.005   5.633   2.609 -0.9217  0.1382  2.4804
 5404TIP3   OH216217   5.411   4.506   2.057  0.4371  0.6951 -0.4201
 5404TIP3    H116218   5.486   4.454   2.082  0.2841  0.7481  0.1604
 5404TIP3    H216219   5.335   4.458   2.091  0.1872  0.4977 -1.2436
 5405TIP3   OH216220   6.190   0.282   1.783 -0.0019  0.1346 -0.6345
 5405TIP3    H116221   6.225   0.208   1.832  1.6774  1.1984 -0.1984
 5405TIP3    H216222   6.259   0.306   1.721 -1.4039 -0.0696 -2.3387
 5406TIP3   OH216223   4.179   5.878   3.279 -1.4781  0.0420 -0.1889
 5406TIP3    H116224   4.138   5.798   3.246  0.0228 -0.7147 -0.2736
 5406TIP3    H216225   4.204   5.926   3.200 -0.9975 -0.1319 -0.1434
 5407TIP3   OH216226   4.654   5.632   4.742  0.4667 -0.2238  0.2901
 5407TIP3    H116227   4.616   5.639   4.830 -0.7194 -1.7312 -0.0723
 5407TIP3    H216228   4.748   5.637   4.756  0.2539  0.5989  1.5418
 5408TIP3   OH216229   6.026   3.763   2.957 -0.1200 -0.7339  0.0293
 5408TIP3    H116230   6.031   3.730   3.047 -0.7923 -0.8971  0.0124
 5408TIP3    H216231   5.963   3.706   2.914  3.7697 -3.7478 -1.9368
 5409TIP3   OH216232   0.100   5.577   3.528  0.3697  0.0453  0.0852
 5409TIP3    H116233   0.042   5.611   3.597  0.4785 -2.0551  1.2541
 5409TIP3    H216234   0.084   5.634   3.453  0.7346  2.8120  2.0276
 5410TIP3   OH216235   0.266   5.651   2.266  0.0638 -0.5847  0.3443
 5410TIP3    H116236   0.219   5.707   2.328 -1.2491  0.1413 -1.2443
 5410TIP3    H216237   0.316   5.712   2.212 -0.7855 -0.9632 -0.9124
 5411TIP3   OH216238   1.236   0.756   2.651 -0.1270  0.0569  0.1876
 5411TIP3    H116239   1.317   0.808   2.647 -1.1894  1.6398 -1.0547
 5411TIP3    H216240   1.181   0.802   2.714 -0.2087 -0.8505  0.7961
 5412TIP3   OH216241   5.619   6.122   2.403  0.3612  0.0181  0.1285
 5412TIP3    H116242   5.667   6.082   2.475  0.1423 -0.9821 -0.2717
 5412TIP3    H216243   5.529   6.089   2.413  0.1638  0.4624 -0.1581
 5413TIP3   OH216244   5.425   2.907   1.257  0.5348  0.7004 -0.3211
 5413TIP3    H116245   5.484   2.954   1.198  0.8727  1.3766  0.5428
 5413TIP3    H216246   5.483   2.872   1.324  0.3413 -1.3392 -1.1952
 5414TIP3   OH216247   6.455   0.542   4.154  0.1178  0.1294 -0.6066
 5414TIP3    H116248   6.378   0.581   4.112  0.5222  1.1345 -0.4098
 5414TIP3    H216249   6.420   0.498   4.231 -0.4346 -0.5237 -1.2133
 5415TIP3   OH216250   4.225   4.662   4.729 -0.6239  0.2156 -0.8676
 5415TIP3    H116251   4.216   4.755   4.710 -0.8887 -0.2965 -3.3388
 5415TIP3    H216252   4.136   4.627   4.724 -0.3901 -0.3758 -0.9988
 5416TIP3   OH216253   3.959   2.978   4.662 -0.6259 -0.0974  0.0093
 5416TIP3    H116254   3.904   2.922   4.718 -0.7230  1.1074  1.1472
 5416TIP3    H216255   3.903   2.999   4.587 -1.3175  0.1565  0.5878
 5417TIP3   OH216256   6.013   4.718   3.719  0.0060 -0.4207  0.2292
 5417TIP3    H116257   5.930   4.764   3.705  0.7576  0.8113 -0.3491
 5417TIP3    H216258   6.038   4.741   3.808 -1.0739 -2.1271  0.9798
 5418TIP3   OH216259   1.193   4.785   3.149 -0.0528  0.5877  0.1296
 5418TIP3    H116260   1.141   4.773   3.070  1.2199  1.0425 -0.7823
 5418TIP3    H216261   1.281   4.757   3.125  0.7243  2.3257  0.8947
 5419TIP3   OH216262   5.825   4.636   2.088 -0.2428 -0.1398  0.2701
 5419TIP3    H116263   5.758   4.570   2.105 -1.5501  1.2628  0.6657
 5419TIP3    H216264   5.884   4.632   2.163 -0.6150 -0.4797  0.5410
 5420TIP3   OH216265   0.521   5.318   4.382  0.0696  0.0752  0.0347
 5420TIP3    H116266   0.449   5.284   4.328 -0.7568 -1.5282  2.0836
 5420TIP3    H216267   0.598   5.268   4.352 -0.0263  0.4487 -0.8593
 5421TIP3   OH216268   6.350   4.766   1.425 -0.5844  0.2581 -0.1084
 5421TIP3    H116269   6.390   4.820   1.356  0.6429 -0.4353  0.0406
 5421TIP3    H216270   6.337   4.681   1.384  1.1320 -0.4739  0.7995
 5422TIP3   OH216271   6.256   5.247   1.989 -0.2133 -0.1659  0.0766
 5422TIP3    H116272   6.165   5.243   2.017  0.0095  0.8667  0.9872
 5422TIP3    H216273   6.294   5.317   2.041  2.2192 -3.4740  2.9326
 5423TIP3   OH216274   6.272   5.016   3.800 -0.3885 -0.2331 -0.1446
 5423TIP3    H116275   6.267   5.110   3.820  0.5751 -0.3807  0.8742
 5423TIP3    H216276   6.202   5.001   3.737 -0.0517  1.3280 -0.9217
 5424TIP3   OH216277   0.867   5.087   1.617 -0.2023 -0.5487 -0.1365
 5424TIP3    H116278   0.772   5.094   1.605 -0.1323  1.1279  0.2183
 5424TIP3    H216279   0.892   5.170   1.657  1.3482 -1.1930  0.2583
 5425TIP3   OH216280   2.512   0.014   0.488  0.8425  0.3464 -0.1682
 5425TIP3    H116281   2.417   0.021   0.480  0.9233  1.9940 -0.0025
 5425TIP3    H216282   2.527   0.009   0.582  0.8439 -1.4180 -0.2564
 5426TIP3   OH216283   4.761   3.464   2.290  0.1530  0.0283 -0.1755
 5426TIP3    H116284   4.825   3.446   2.359  0.7527 -0.0933 -0.7582
 5426TIP3    H216285   4.734   3.378   2.259 -2.3462 -0.0165  1.9012
 5427TIP3   OH216286   5.164   4.369   2.084 -0.2687  0.2892 -0.1067
 5427TIP3    H116287   5.170   4.281   2.048  2.3323  1.2962 -2.3400
 5427TIP3    H216288   5.142   4.356   2.176 -0.2164 -2.6566 -0.4588
 5428TIP3   OH216289   6.109   3.222   1.404 -0.3021  0.2257  0.4861
 5428TIP3    H116290   6.148   3.159   1.465 -0.3329  0.6119  0.9133
 5428TIP3    H216291   6.024   3.244   1.444 -0.4180  0.3184  0.1919
 5429TIP3   OH216292   4.506   4.626   4.155 -0.2458  0.0286  0.1751
 5429TIP3    H116293   4.447   4.564   4.111 -0.8174 -0.1744  1.2116
 5429TIP3    H216294   4.517   4.697   4.092  0.4001 -1.0991 -1.0387
 5430TIP3   OH216295   6.433   0.602   1.848 -0.1885 -0.0134 -0.6745
 5430TIP3    H116296   6.420   0.530   1.786 -3.3501 -0.7332  0.7158
 5430TIP3    H216297   6.426   0.561   1.934  2.4597  1.2633  0.1767
 5431TIP3   OH216298   6.403   5.337   4.267 -0.0075 -0.2513 -0.1874
 5431TIP3    H116299   6.416   5.243   4.282  0.4057 -0.0731  0.6210
 5431TIP3    H216300   6.472   5.379   4.318 -0.0593  0.4856 -0.7239
 5432TIP3   OH216301   5.818   2.590   2.853 -0.1406  0.0804 -0.5378
 5432TIP3    H116302   5.858   2.523   2.909 -2.9880  0.6512  2.3868
 5432TIP3    H216303   5.882   2.661   2.850  1.8778 -1.7486 -1.6367
 5433TIP3   OH216304   5.042   5.992   1.834 -0.2982  0.2197 -0.0741
 5433TIP3    H116305   4.975   5.953   1.890  0.9255 -1.1436  0.4860
 5433TIP3    H216306   5.085   6.057   1.889 -2.6141  2.7484 -1.1368
 5434TIP3   OH216307   5.537   4.462   0.857 -0.0198  0.4116 -0.1789
 5434TIP3    H116308   5.445   4.445   0.878  0.6432 -1.2963  1.4082
 5434TIP3    H216309   5.577   4.484   0.941  1.3583 -0.4071 -0.6145
 5435TIP3   OH216310   2.215   5.032   3.561 -0.0696 -0.0470  0.0765
 5435TIP3    H116311   2.296   4.985   3.581 -0.1159 -0.5651 -0.9501
 5435TIP3    H216312   2.231   5.121   3.593 -0.1055 -0.8183  2.3213
 5436TIP3   OH216313   5.512   5.812   1.265 -0.3472 -0.3126 -0.3576
 5436TIP3    H116314   5.575   5.777   1.328 -0.0934  0.2723 -0.2762
 5436TIP3    H216315   5.427   5.797   1.305 -0.2116 -0.3741 -0.0931
 5437TIP3   OH216316   0.930   0.052   2.446  0.2587 -0.0918  0.4437
 5437TIP3    H116317   0.956   0.128   2.394 -2.2884  1.3177  1.1469
 5437TIP3    H216318   0.946   0.079   2.537  0.1247 -0.6969  0.6467
 5438TIP3   OH216319   3.211   1.127   2.892  0.5880  0.0978 -0.0563
 5438TIP3    H116320   3.183   1.176   2.969 -1.4112  0.7787 -1.1872
 5438TIP3    H216321   3.163   1.044   2.898  1.7843 -0.5747  0.3492
 5439TIP3   OH216322   1.303   5.016   3.337  0.0911  0.4522  0.4669
 5439TIP3    H116323   1.382   4.977   3.301 -0.1329 -0.0548  0.5078
 5439TIP3    H216324   1.296   5.102   3.295  0.1178  0.0895 -0.2894
 5440TIP3   OH216325   4.621   5.446   2.860 -0.6152  0.2513 -0.2530
 5440TIP3    H116326   4.609   5.375   2.923  0.2336  0.4595  0.1330
 5440TIP3    H216327   4.584   5.411   2.778  0.2089 -0.8060 -0.1808
 5441TIP3   OH216328   6.127   5.869   1.324 -0.0117 -0.5132 -0.2811
 5441TIP3    H116329   6.043   5.837   1.292 -0.1460 -0.5792  0.1309
 5441TIP3    H216330   6.110   5.960   1.348  0.5213  0.0472 -2.0226
 5442TIP3   OH216331   4.356   2.626   1.625  0.0318 -0.2385 -0.2552
 5442TIP3    H116332   4.429   2.686   1.638  0.3532 -0.6861  0.0216
 5442TIP3    H216333   4.356   2.571   1.703 -1.9808  1.1985  0.7872
 5443TIP3   OH216334   5.895   5.549   3.477 -0.1098  0.0963  0.4006
 5443TIP3    H116335   5.926   5.567   3.566 -0.2358 -0.8627  0.6420
 5443TIP3    H216336   5.871   5.634   3.442  1.0526  0.6318  0.8761
 5444TIP3   OH216337   4.318   5.026   4.800 -0.0363 -0.1943  0.0538
 5444TIP3    H116338   4.407   5.009   4.830 -0.7013 -0.5463  1.8474
 5444TIP3    H216339   4.306   5.120   4.813 -1.3833 -0.8411  3.8623
 5445TIP3   OH216340   1.491   0.961   1.952 -0.2982 -0.1182 -0.2646
 5445TIP3    H116341   1.422   1.025   1.935  0.9613  1.4322  0.3384
 5445TIP3    H216342   1.498   0.911   1.870 -0.1115  1.6691 -1.3587
 5446TIP3   OH216343   5.937   4.606   3.290 -0.1595  0.1348 -0.5855
 5446TIP3    H116344   5.996   4.670   3.330 -1.9826  1.3303  0.1952
 5446TIP3    H216345   5.853   4.650   3.283 -2.1523 -2.9641  2.2882
 5447TIP3   OH216346   1.417   0.024   1.896 -0.3486  0.0063 -0.2522
 5447TIP3    H116347   1.359   0.015   1.972  1.2356 -0.8875  0.8859
 5447TIP3    H216348   1.428   0.119   1.886 -2.1893  0.1921 -0.6383
 5448TIP3   OH216349   1.792   0.438   3.304 -0.1293  0.2704 -0.1295
 5448TIP3    H116350   1.871   0.384   3.313  0.8252  1.6540 -0.0952
 5448TIP3    H216351   1.726   0.393   3.358  0.5536 -1.0237 -0.3596
 5449TIP3   OH216352   0.353   4.196   2.562  0.2207 -0.2433  0.0531
 5449TIP3    H116353   0.281   4.222   2.504 -0.6913 -1.1701  0.7462
 5449TIP3    H216354   0.390   4.118   2.520  1.4449  0.7919 -0.8037
 5450TIP3   OH216355   0.669   5.590   2.833 -0.2539  0.2114  0.2561
 5450TIP3    H116356   0.639   5.602   2.743  1.3892 -0.3526 -0.3933
 5450TIP3    H216357   0.659   5.496   2.850  0.6931  0.0819  0.1681
 5451TIP3   OH216358   0.389   5.837   3.625 -0.0739  0.0561  0.5415
 5451TIP3    H116359   0.386   5.793   3.540  0.4996 -1.3835  1.2628
 5451TIP3    H216360   0.450   5.785   3.677 -0.1485  1.1386  1.7318
 5452TIP3   OH216361   4.244   4.822   2.282  0.3161  0.4160 -0.0905
 5452TIP3    H116362   4.218   4.914   2.269 -0.2073  0.1502 -0.9558
 5452TIP3    H216363   4.279   4.795   2.197 -1.9554 -0.9617 -0.6271
 5453TIP3   OH216364   1.310   4.117   4.048 -0.0904  0.0957  0.1463
 5453TIP3    H116365   1.313   4.097   3.954 -1.1088 -1.3179  0.4015
 5453TIP3    H216366   1.216   4.128   4.067 -0.1729 -2.6501  1.5907
 5454TIP3   OH216367   3.097   1.132   2.512  0.3569 -0.4711  0.5806
 5454TIP3    H116368   3.101   1.219   2.553  2.6665  0.2684 -1.1114
 5454TIP3    H216369   3.135   1.073   2.578 -0.0555  0.0061  1.2511
 5455TIP3   OH216370   6.005   4.317   3.680 -0.0047  0.5423 -0.9572
 5455TIP3    H116371   5.932   4.255   3.675  0.2122  0.2032  0.0357
 5455TIP3    H216372   5.967   4.395   3.720  0.3808  0.0288  0.4569
 5456TIP3   OH216373   5.811   5.811   2.854  0.5362 -0.1611 -0.0397
 5456TIP3    H116374   5.741   5.777   2.799  1.7667  0.5182 -2.0838
 5456TIP3    H216375   5.767   5.843   2.933 -1.6747  1.7524 -1.9765
 5457TIP3   OH216376   4.342   6.066   2.281  0.3778  0.7253  0.9837
 5457TIP3    H116377   4.426   6.058   2.326  0.2554 -1.7851  0.8437
 5457TIP3    H216378   4.279   6.025   2.340  0.0461 -1.5986 -0.8870
 5458TIP3   OH216379   4.535   3.027   2.170  0.0319  0.2210  0.0509
 5458TIP3    H116380   4.440   3.013   2.162 -0.0759  0.2289  1.3100
 5458TIP3    H216381   4.572   2.939   2.163 -0.0784  0.1899 -0.1712
 5459TIP3   OH216382   3.874   5.161   4.018 -0.1027  0.3101 -0.2657
 5459TIP3    H116383   3.903   5.161   4.109  0.9614  2.6366 -0.5632
 5459TIP3    H216384   3.945   5.118   3.970  0.2961  0.9674 -0.2661
 5460TIP3   OH216385   6.061   0.064   4.545 -0.0342 -0.1619  0.2435
 5460TIP3    H116386   6.138   0.086   4.493 -1.8409  0.3234 -2.3161
 5460TIP3    H216387   6.073  -0.028   4.568  0.1876 -0.7927 -2.2460
 5461TIP3   OH216388   0.600   3.339   1.590 -0.0478 -0.1736 -0.1981
 5461TIP3    H116389   0.650   3.274   1.640 -0.9228 -1.1249 -0.5443
 5461TIP3    H216390   0.615   3.315   1.499 -1.7658 -0.9656 -0.2940
 5462TIP3   OH216391   5.094   3.645   4.433 -0.0490  0.1051 -0.3562
 5462TIP3    H116392   5.081   3.697   4.354  0.8440 -2.5852 -2.3582
 5462TIP3    H216393   5.187   3.658   4.454  0.2616 -0.8629 -1.0559
 5463TIP3   OH216394   6.246   4.043   3.045  0.4015 -0.2193  0.4544
 5463TIP3    H116395   6.256   4.129   3.086  1.8214 -1.0124  1.7907
 5463TIP3    H216396   6.247   4.061   2.951 -1.3317  1.4333  0.7159
 5464TIP3   OH216397   5.859   5.799   1.233 -0.0319 -0.6627 -0.5402
 5464TIP3    H116398   5.821   5.733   1.175  1.3082 -0.6052 -1.5104
 5464TIP3    H216399   5.784   5.835   1.281 -1.2120 -0.5168 -2.4328
 5465TIP3   OH216400   0.341   4.608   3.549  0.2033  0.2596 -0.1407
 5465TIP3    H116401   0.293   4.547   3.606 -0.3660 -0.3222 -1.2327
 5465TIP3    H216402   0.292   4.608   3.467  0.6925  1.5465 -0.4393
 5466TIP3   OH216403   0.292   1.654   3.633 -0.0734  0.0422 -0.0986
 5466TIP3    H116404   0.346   1.576   3.646  0.0034 -0.2771 -2.1273
 5466TIP3    H216405   0.203   1.621   3.621  0.0765  0.1630 -1.7602
 5467TIP3   OH216406   3.855   5.061   2.412 -0.5956 -0.4411  0.3289
 5467TIP3    H116407   3.768   5.031   2.387  0.1570 -1.7858 -0.7287
 5467TIP3    H216408   3.900   5.077   2.329  0.3572 -0.3020  0.8637
 5468TIP3   OH216409   0.756   2.471   4.259  0.0416  0.2601  0.1059
 5468TIP3    H116410   0.823   2.534   4.233  0.0486  0.5000  0.7014
 5468TIP3    H216411   0.715   2.444   4.177 -0.6511  1.8026 -0.0722
 5469TIP3   OH216412   3.738   4.469   2.334  0.1374 -0.0201  0.4638
 5469TIP3    H116413   3.802   4.447   2.402  0.9345  0.4982 -0.1115
 5469TIP3    H216414   3.775   4.435   2.253  1.2964  3.1425 -0.4115
 5470TIP3   OH216415   0.193   1.027   3.500  0.0787  0.7926 -0.3162
 5470TIP3    H116416   0.112   1.075   3.485  0.6243  1.2538 -1.8789
 5470TIP3    H216417   0.179   0.942   3.457 -0.3190  0.1192  1.1346
 5471TIP3   OH216418   1.155   4.479   3.043  0.0667  0.0328  0.2676
 5471TIP3    H116419   1.074   4.530   3.041  0.5516  0.7687 -1.2531
 5471TIP3    H216420   1.173   4.467   3.136 -0.2347  2.3670  0.6589
 5472TIP3   OH216421   0.348   4.354   4.228 -0.1887 -0.4458 -0.0388
 5472TIP3    H116422   0.333   4.357   4.134 -0.1927 -4.4222 -0.2276
 5472TIP3    H216423   0.271   4.396   4.266 -1.0822 -0.5050 -1.7452
 5473TIP3   OH216424   0.483   1.383   2.655  0.0690 -0.4553 -0.5983
 5473TIP3    H116425   0.494   1.455   2.718 -0.6817  1.3089 -2.4066
 5473TIP3    H216426   0.571   1.348   2.643  0.6592  0.9508 -0.5676
 5474TIP3   OH216427   0.126   3.398   4.386  0.5520  0.1608 -0.5268
 5474TIP3    H116428   0.127   3.327   4.450  0.5852 -0.0671 -0.7801
 5474TIP3    H216429   0.033   3.417   4.371  0.5315 -0.2114 -0.8810
 5475TIP3   OH216430   0.541   5.364   3.044  0.2754  0.1600  0.7131
 5475TIP3    H116431   0.571   5.300   2.978  0.4556  2.1971 -1.2489
 5475TIP3    H216432   0.481   5.315   3.099 -0.9633 -1.3103 -1.8359
 5476TIP3   OH216433   5.730   4.159   2.690  0.3742 -0.0625  0.0015
 5476TIP3    H116434   5.716   4.106   2.611  0.2432  1.0701 -0.7511
 5476TIP3    H216435   5.757   4.096   2.757 -1.2999 -1.2949 -0.4508
 5477TIP3   OH216436   4.454   4.855   3.924 -0.0523 -0.2962  0.1596
 5477TIP3    H116437   4.372   4.849   3.973 -1.0412  0.1079 -1.4182
 5477TIP3    H216438   4.474   4.949   3.922  0.5732 -0.4102  0.7168
 5478TIP3   OH216439   6.448   4.540   0.635 -0.3714  0.0885 -0.2218
 5478TIP3    H116440   6.371   4.486   0.619 -0.4743  0.1992 -0.0995
 5478TIP3    H216441   6.472   4.522   0.726  0.6092 -1.0559 -0.6937
 5479TIP3   OH216442   5.149   3.527   3.920 -0.3188 -0.3361  0.9604
 5479TIP3    H116443   5.097   3.463   3.871  0.2558  0.2203 -0.4219
 5479TIP3    H216444   5.121   3.612   3.886  1.3772 -0.0169  0.2548
 5480TIP3   OH216445   6.068   5.391   3.068 -0.1068 -0.5615  0.0955
 5480TIP3    H116446   6.022   5.472   3.044  2.3691  1.1410  0.8823
 5480TIP3    H216447   6.065   5.389   3.164 -0.0640 -1.3416  0.0818
 5481TIP3   OH216448   5.555   4.833   2.417  0.9659  0.1333  0.0196
 5481TIP3    H116449   5.538   4.836   2.512 -2.1230  2.2856 -0.5357
 5481TIP3    H216450   5.512   4.753   2.388  0.1874  0.5008  0.1473
 5482TIP3   OH216451   5.001   0.216   1.199 -0.3301 -0.0456  0.6607
 5482TIP3    H116452   4.920   0.169   1.217 -0.7622  0.7444  0.8262
 5482TIP3    H216453   5.001   0.288   1.263  0.5048 -0.0530  0.6704
 5483TIP3   OH216454   0.416   4.127   1.447  0.1133  0.3113 -0.5510
 5483TIP3    H116455   0.446   4.089   1.530 -0.2043 -0.3402 -0.7349
 5483TIP3    H216456   0.405   4.220   1.467 -1.3312 -0.0803  0.5353
 5484TIP3   OH216457   4.839   4.249   5.260  0.2867 -0.1982  0.3119
 5484TIP3    H116458   4.894   4.215   5.331  1.3321 -3.6059 -2.0096
 5484TIP3    H216459   4.881   4.332   5.236  0.9153  0.1602  2.4767
 5485TIP3   OH216460   0.524   4.158   4.107 -0.0941 -0.2592 -0.2632
 5485TIP3    H116461   0.468   4.222   4.150  1.9544  1.4012  0.0598
 5485TIP3    H216462   0.518   4.079   4.161 -3.8294 -0.9212 -1.5049
 5486TIP3   OH216463   6.245   3.155   5.034 -0.2799 -0.5096  0.2285
 5486TIP3    H116464   6.174   3.112   4.987  0.2642 -0.7673 -0.3501
 5486TIP3    H216465   6.271   3.092   5.101 -1.9204  0.3576  1.7480
 5487TIP3   OH216466   4.526   4.978   3.551  0.4998  0.1539  0.2813
 5487TIP3    H116467   4.526   5.004   3.459 -0.0679  0.9850  0.5030
 5487TIP3    H216468   4.614   4.999   3.582  0.8578 -0.6217 -0.2055
 5488TIP3   OH216469   4.756   5.315   4.986 -0.6765  0.2016  0.0551
 5488TIP3    H116470   4.777   5.386   5.047 -1.8574  0.8428 -0.2726
 5488TIP3    H216471   4.708   5.251   5.037 -2.6132  1.2381 -0.4270
 5489TIP3   OH216472   1.606   1.436   4.199 -0.3847 -0.4114  0.8860
 5489TIP3    H116473   1.691   1.401   4.173 -0.2400  1.3064 -1.0602
 5489TIP3    H216474   1.618   1.531   4.203 -2.1832 -0.1419  0.6121
 5490TIP3   OH216475   0.848   0.799   2.368 -0.7629  0.2385 -0.6852
 5490TIP3    H116476   0.806   0.805   2.454  0.5274  0.4164 -0.0564
 5490TIP3    H216477   0.863   0.705   2.355  1.7401  0.4100  0.6363
 5491TIP3   OH216478   5.992   4.240   3.219 -0.1303 -0.3153  0.0688
 5491TIP3    H116479   6.066   4.206   3.269  1.0879  1.2736 -0.5978
 5491TIP3    H216480   6.029   4.314   3.170 -2.0399  0.1532 -0.6871
 5492TIP3   OH216481   5.178   5.644   2.938  0.0665  0.8801  0.2170
 5492TIP3    H116482   5.140   5.569   2.984  1.4491  0.0750  0.0599
 5492TIP3    H216483   5.109   5.711   2.940 -1.7291 -0.8862 -0.9220
 5493TIP3   OH216484   3.569   1.040   0.301 -0.3149  0.1623 -0.3667
 5493TIP3    H116485   3.505   1.066   0.367 -0.7903  1.0686 -1.1914
 5493TIP3    H216486   3.524   1.049   0.217  0.2572 -1.0654 -0.8335
 5494TIP3   OH216487   6.331   4.944   2.670 -0.2569 -0.1120  0.9040
 5494TIP3    H116488   6.285   4.894   2.602 -0.3857  1.3254 -0.0902
 5494TIP3    H216489   6.326   4.888   2.748 -0.6121 -1.5270 -0.1073
 5495TIP3   OH216490   5.857   3.840   2.225  0.2318  0.1417 -0.2453
 5495TIP3    H116491   5.816   3.764   2.266 -1.2746 -0.8594 -3.4782
 5495TIP3    H216492   5.934   3.805   2.180 -0.1799  0.5847 -1.3164
 5496TIP3   OH216493   5.703   4.701   3.939 -0.6092  0.2806 -0.0801
 5496TIP3    H116494   5.777   4.645   3.917 -1.6553 -0.4968 -1.7210
 5496TIP3    H216495   5.733   4.752   4.014  0.5600 -2.0868  1.1215
 5497TIP3   OH216496   5.271   4.752   4.479 -0.0679  0.2817 -0.2032
 5497TIP3    H116497   5.316   4.741   4.395  1.4227  0.6614  0.5189
 5497TIP3    H216498   5.191   4.800   4.457  2.2930  4.1502 -0.9163
 5498TIP3   OH216499   5.541   5.156   4.186 -0.0984 -0.4015  0.2185
 5498TIP3    H116500   5.519   5.190   4.099 -1.1495  0.2729  0.7378
 5498TIP3    H216501   5.616   5.209   4.214  0.8973 -1.3118 -0.6939
 5499TIP3   OH216502   4.246   4.299   3.816  0.3041  0.3978  0.1778
 5499TIP3    H116503   4.229   4.337   3.730 -1.3262  1.3961  0.9006
 5499TIP3    H216504   4.164   4.257   3.840  1.0330 -0.6368  0.8640
 5500TIP3   OH216505   2.528   0.512   1.972  0.6839 -0.2703  0.0211
 5500TIP3    H116506   2.587   0.464   1.913 -0.9844 -1.3320 -0.8287
 5500TIP3    H216507   2.522   0.457   2.050  1.0838 -0.0043  0.2365
 5501TIP3   OH216508   4.499   5.691   4.497  0.1716 -0.4339  0.0288
 5501TIP3    H116509   4.476   5.611   4.450  1.3897 -0.2612 -0.8857
 5501TIP3    H216510   4.575   5.667   4.550  1.7572  0.5996 -1.7306
 5502TIP3   OH216511   3.526   3.746   4.209  0.4856 -0.4324 -0.5932
 5502TIP3    H116512   3.440   3.704   4.205  0.7141 -0.9962  0.3973
 5502TIP3    H216513   3.532   3.780   4.298 -0.5178  3.5221 -1.9222
 5503TIP3   OH216514   6.342   0.355   3.447  0.1355  0.2028 -0.0276
 5503TIP3    H116515   6.269   0.369   3.507 -0.8576 -1.2226 -0.8774
 5503TIP3    H216516   6.376   0.268   3.469  0.7200  0.2943 -0.5363
 5504TIP3   OH216517   1.343   4.652   2.665  0.5630  0.2858  0.3229
 5504TIP3    H116518   1.420   4.706   2.645  1.7154 -0.7770  1.7426
 5504TIP3    H216519   1.334   4.595   2.589  1.7768 -0.2282  0.5479
 5505TIP3   OH216520   5.747   0.915   2.569  0.3464 -0.0984 -0.2949
 5505TIP3    H116521   5.669   0.867   2.539 -0.5771  0.1266  1.6287
 5505TIP3    H216522   5.811   0.846   2.589 -0.3979 -0.4809  0.8715
 5506TIP3   OH216523   4.545   3.905   3.428 -0.3118 -0.4340 -0.4029
 5506TIP3    H116524   4.456   3.872   3.412 -0.5395 -0.3260  0.6548
 5506TIP3    H216525   4.538   3.958   3.507  0.3729  0.8954 -1.2031
 5507TIP3   OH216526   3.370   5.041   2.754 -0.4370 -0.6550  0.1784
 5507TIP3    H116527   3.370   5.055   2.659 -2.3356 -1.4572  0.0227
 5507TIP3    H216528   3.338   4.951   2.765  0.5036 -0.8405  1.5542
 5508TIP3   OH216529   0.607   5.053   3.745  0.5209 -0.0691  0.2816
 5508TIP3    H116530   0.586   4.961   3.756  1.9005 -0.6916 -2.0021
 5508TIP3    H216531   0.560   5.079   3.666  0.5929  1.0522  0.5986
 5509TIP3   OH216532   6.026   3.653   3.193  0.0371 -0.3603 -0.1545
 5509TIP3    H116533   6.108   3.626   3.235 -0.3356 -0.8688  0.2514
 5509TIP3    H216534   5.972   3.574   3.192 -0.1858 -0.2104 -1.0659
 5510TIP3   OH216535   4.361   1.838   0.311 -0.0580  0.1315  0.9049
 5510TIP3    H116536   4.438   1.840   0.369  1.5288 -1.4381 -1.0942
 5510TIP3    H216537   4.384   1.896   0.239 -1.0689  0.2092  0.6377
 5511TIP3   OH216538   0.261   4.891   3.501  0.6145 -0.2460 -0.0359
 5511TIP3    H116539   0.258   4.797   3.521  1.9121 -0.2504  0.2105
 5511TIP3    H216540   0.194   4.930   3.557 -0.3913 -1.0991 -0.6201
 5512TIP3   OH216541   4.296   4.656   2.039 -0.4443 -0.6217  0.3709
 5512TIP3    H116542   4.342   4.574   2.022 -0.4591 -0.7069  0.7501
 5512TIP3    H216543   4.204   4.633   2.040 -0.5634 -0.3026 -1.2672
 5513TIP3   OH216544   4.814   4.367   0.427 -0.2237  0.1351 -0.0677
 5513TIP3    H116545   4.778   4.416   0.501 -1.0664  0.5724 -0.7488
 5513TIP3    H216546   4.812   4.275   0.455  1.0095  0.4442  1.0711
 5514TIP3   OH216547   4.360   1.199   0.140  0.1627  0.4315 -0.0858
 5514TIP3    H116548   4.332   1.115   0.104 -0.9933  2.1914 -3.5048
 5514TIP3    H216549   4.455   1.200   0.127  0.6583 -1.5851  2.8488
 5515TIP3   OH216550   6.360   2.498   4.527  0.0510 -0.1325  0.1340
 5515TIP3    H116551   6.271   2.478   4.558  0.3195 -1.0075  0.3375
 5515TIP3    H216552   6.405   2.414   4.527  0.2785 -0.0368 -1.9431
 5516TIP3   OH216553   4.690   4.402   2.556 -0.3882  0.1000 -0.1727
 5516TIP3    H116554   4.609   4.353   2.543  0.6531 -1.2195 -1.9615
 5516TIP3    H216555   4.745   4.378   2.481  1.5154  1.2504  0.8076
 5517TIP3   OH216556   0.756   4.911   3.054  0.1730 -0.4094  0.0848
 5517TIP3    H116557   0.776   5.001   3.029 -0.9598 -0.1327  0.1537
 5517TIP3    H216558   0.743   4.915   3.149  0.1138 -0.6535  0.0878
 5518TIP3   OH216559   6.493   0.477   2.995 -0.3019 -0.5148 -0.4020
 5518TIP3    H116560   6.523   0.490   2.905 -1.3656 -0.2381 -0.7237
 5518TIP3    H216561   6.478   0.383   3.003  2.8400 -1.0101  0.4770
 5519TIP3   OH216562   4.480   0.052   1.999  0.6361  0.4672 -0.0364
 5519TIP3    H116563   4.445  -0.032   2.029  0.6939  1.2601  2.3139
 5519TIP3    H216564   4.573   0.036   1.985  0.7257  0.2598  0.8196
 5520TIP3   OH216565   3.920   0.356   4.756  0.0921 -0.6813 -0.1668
 5520TIP3    H116566   3.897   0.266   4.731  0.2338 -0.7501 -0.0486
 5520TIP3    H216567   3.836   0.402   4.758 -0.2407 -1.2989  1.7031
 5521TIP3   OH216568   0.210   3.966   4.041 -0.1414 -0.2015 -0.1167
 5521TIP3    H116569   0.140   4.030   4.053 -2.0063 -2.0666 -0.6698
 5521TIP3    H216570   0.276   4.011   3.988 -1.2979  1.3372 -0.2716
 5522TIP3   OH216571   1.945   5.327   3.216  0.2749  0.3680  0.5525
 5522TIP3    H116572   2.040   5.330   3.218  0.3981 -2.2846 -0.3651
 5522TIP3    H216573   1.921   5.391   3.149  1.3606  1.4614  1.1912
 5523TIP3   OH216574   2.026   5.394   2.726  0.5065  0.2911  0.0013
 5523TIP3    H116575   2.011   5.315   2.675 -0.2714  0.0894  0.5340
 5523TIP3    H216576   2.080   5.449   2.669  0.0392 -0.1172 -0.8577
 5524TIP3   OH216577   1.705   5.024   2.073 -0.0728  0.1071 -0.0042
 5524TIP3    H116578   1.772   5.058   2.015 -0.0058 -1.2936 -0.7616
 5524TIP3    H216579   1.749   4.958   2.127 -0.4548  0.3825  0.6623
 5525TIP3   OH216580   2.902   0.579   4.670  0.0137 -0.8064  0.3046
 5525TIP3    H116581   2.965   0.557   4.601 -0.4073  1.7258 -0.9327
 5525TIP3    H216582   2.818   0.549   4.636  0.1013 -1.4741  0.6611
 5526TIP3   OH216583   1.903   4.081   4.582  0.1825 -0.0403 -0.2981
 5526TIP3    H116584   1.959   4.006   4.564 -0.3533 -0.2140 -1.2718
 5526TIP3    H216585   1.823   4.043   4.618  0.4464  0.1657  0.5183
 5527TIP3   OH216586   5.266   2.702   1.190  0.0150 -0.0306  0.0723
 5527TIP3    H116587   5.299   2.620   1.227  0.1902 -0.8243 -1.7785
 5527TIP3    H216588   5.328   2.769   1.220 -0.1360 -0.5666  1.6049
 5528TIP3   OH216589   5.498   3.265   1.371 -0.6506 -0.1104 -0.4375
 5528TIP3    H116590   5.527   3.202   1.305  1.4588 -0.3194  0.6260
 5528TIP3    H216591   5.495   3.349   1.325  2.1026 -0.0141 -0.5342
 5529TIP3   OH216592   4.502   4.169   4.038  0.2324  0.3241 -0.0634
 5529TIP3    H116593   4.417   4.209   4.020 -0.7729 -2.0483 -0.7037
 5529TIP3    H216594   4.530   4.209   4.121 -1.6247  0.9069  0.2955
 5530TIP3   OH216595   3.250   0.344   4.021  0.9406  0.4613 -0.5287
 5530TIP3    H116596   3.258   0.438   4.003  2.4738  0.6542  1.0714
 5530TIP3    H216597   3.246   0.304   3.934  1.5041  1.9059 -1.2408
 5531TIP3   OH216598   6.244   4.119   4.026 -0.3925  0.1891  0.1041
 5531TIP3    H116599   6.304   4.061   4.074  0.3912  1.0438  0.1856
 5531TIP3    H216600   6.283   4.126   3.939 -0.2696  0.8877  0.2105
 5532TIP3   OH216601   4.017   2.951   0.219 -0.0134  0.6122  0.2355
 5532TIP3    H116602   4.027   2.874   0.275  0.8427 -1.5637 -2.7779
 5532TIP3    H216603   4.107   2.979   0.200 -0.3008  1.7528  0.5038
 5533TIP3   OH216604   4.571   3.227   0.514 -0.1732 -0.0496  0.1076
 5533TIP3    H116605   4.523   3.182   0.445 -1.2056  1.6402 -0.2860
 5533TIP3    H216606   4.503   3.259   0.574  0.5475  1.0940  0.3199
 5534TIP3   OH216607   4.452   4.885   2.046 -0.1331 -0.6645 -0.0935
 5534TIP3    H116608   4.418   4.796   2.043  1.1758 -1.1396 -2.5741
 5534TIP3    H216609   4.532   4.882   1.993 -1.6719  2.6424 -2.7780
 5535TIP3   OH216610   2.608   2.794   0.352 -0.5441 -0.5834  0.0934
 5535TIP3    H116611   2.564   2.799   0.268 -0.4663  2.8708  0.1739
 5535TIP3    H216612   2.538   2.807   0.417 -0.5646 -2.9570  0.6087
 5536TIP3   OH216613   3.223   0.538   3.092  0.8889  0.1683  0.3229
 5536TIP3    H116614   3.279   0.505   3.021  0.3053  0.4940 -0.2979
 5536TIP3    H216615   3.153   0.584   3.047  0.9400  1.0589  1.1551
 5537TIP3   OH216616   0.457   0.708   1.086 -0.8693 -0.5863  0.7681
 5537TIP3    H116617   0.430   0.620   1.111 -0.3544 -0.7519  0.7631
 5537TIP3    H216618   0.500   0.696   1.001 -2.7383 -0.0051 -0.2620
 5538TIP3   OH216619   1.892   0.824   5.096  0.1039  0.0026  0.0836
 5538TIP3    H116620   1.941   0.818   5.178 -2.0709 -4.0125  1.2036
 5538TIP3    H216621   1.955   0.798   5.029  0.5758 -1.3116  1.0349
 5539TIP3   OH216622   2.264   5.287   3.598  0.6265  0.0377 -0.8125
 5539TIP3    H116623   2.184   5.320   3.557 -0.6549 -1.5235  0.4064
 5539TIP3    H216624   2.324   5.362   3.596 -0.9879  1.3523 -1.3495
 5540TIP3   OH216625   5.807   5.954   5.179  0.1080  0.3780 -0.1313
 5540TIP3    H116626   5.753   5.876   5.190  1.8225 -1.1057 -1.8481
 5540TIP3    H216627   5.880   5.941   5.240  0.8648  0.1734 -1.0637
 5541TIP3   OH216628   2.342   6.035   5.110 -0.6039 -0.0154 -0.3564
 5541TIP3    H116629   2.280   5.970   5.078  0.0561  0.0035 -1.6942
 5541TIP3    H216630   2.331   6.110   5.052 -1.1611  0.9686  1.0036
 5542TIP3   OH216631   0.689   5.584   3.975 -0.7371  0.7751  0.5427
 5542TIP3    H116632   0.735   5.504   3.950 -0.8238  0.0206  2.6491
 5542TIP3    H216633   0.757   5.639   4.014 -0.3241  2.5015 -2.5210
 5543TIP3   OH216634   0.278   5.999   3.019  0.0988 -0.0584 -0.1793
 5543TIP3    H116635   0.331   6.063   2.973  2.8291 -2.1275 -0.0307
 5543TIP3    H216636   0.265   5.928   2.956 -1.2839 -0.2233  0.2702
 5544TIP3   OH216637   0.218   2.948   5.093 -0.3361 -0.2794  0.1464
 5544TIP3    H116638   0.218   3.040   5.066 -2.0358 -0.3519 -0.1645
 5544TIP3    H216639   0.158   2.906   5.032  1.0931 -1.7653 -0.2507
 5545TIP3   OH216640   1.218   6.136   5.071  0.0851 -0.2368  0.4997
 5545TIP3    H116641   1.282   6.124   5.141  0.3095 -1.4768  0.0932
 5545TIP3    H216642   1.224   6.056   5.018 -0.0260  0.7276 -0.9940
 5546TIP3   OH216643   2.605   3.780   0.887 -0.3073  0.2073 -0.0929
 5546TIP3    H116644   2.632   3.771   0.978 -0.9305 -0.9525 -0.0104
 5546TIP3    H216645   2.674   3.736   0.837 -0.3245  0.2205 -0.1286
 5547TIP3   OH216646   2.404   5.488   3.493 -0.1750  0.0102 -0.1833
 5547TIP3    H116647   2.495   5.460   3.478  0.3367  1.6753 -0.3311
 5547TIP3    H216648   2.354   5.447   3.423  0.2183 -2.1162  0.7507
 5548TIP3   OH216649   5.212   0.065   0.860  0.0815 -0.4103  0.1361
 5548TIP3    H116650   5.180   0.114   0.785  0.7420  0.0236  0.1332
 5548TIP3    H216651   5.145  -0.001   0.877  0.2902 -0.9883 -1.2895
 5549TIP3   OH216652   4.790   4.106   0.509  0.9390 -0.2214  0.0050
 5549TIP3    H116653   4.862   4.094   0.571  0.7158 -0.7979  0.1552
 5549TIP3    H216654   4.740   4.025   0.515  1.7285 -0.8929 -1.9887
 5550TIP3   OH216655   1.834   5.362   4.406 -0.0758  0.1278 -0.5410
 5550TIP3    H116656   1.763   5.307   4.439 -0.8025 -0.7197 -3.3300
 5550TIP3    H216657   1.910   5.337   4.458 -1.2283 -0.9067  0.6804
 5551TIP3   OH216658   0.219   4.276   1.086 -0.4265  0.0600  0.0815
 5551TIP3    H116659   0.217   4.228   1.004  0.8869  0.6804 -0.3230
 5551TIP3    H216660   0.301   4.249   1.128 -1.0858 -0.2577  1.1872
 5552TIP3   OH216661   0.733   5.608   1.776  0.2674 -0.2217 -0.1979
 5552TIP3    H116662   0.656   5.632   1.726 -0.7168 -3.4290 -0.3305
 5552TIP3    H216663   0.804   5.603   1.711 -0.1253 -0.4568 -0.6066
 5553TIP3   OH216664   5.896   5.362   4.984 -0.7150  0.8061 -0.5474
 5553TIP3    H116665   5.832   5.321   4.926 -0.4121  1.6526 -1.5061
 5553TIP3    H216666   5.848   5.434   5.025 -1.1691 -0.2981  0.9257
 5554TIP3   OH216667   2.102   5.157   4.134  0.0255 -0.5814 -0.1216
 5554TIP3    H116668   2.024   5.144   4.081 -0.6336  1.3777  0.2996
 5554TIP3    H216669   2.174   5.159   4.071 -0.6346  0.7244 -0.8536
 5555TIP3   OH216670   4.721   3.214   2.172 -0.0372  0.1407  0.2225
 5555TIP3    H116671   4.691   3.243   2.086 -0.8688  0.5457  0.6486
 5555TIP3    H216672   4.666   3.138   2.192  0.1839  0.0207  0.3782
 5556TIP3   OH216673   0.676   5.253   1.856  0.2223 -0.1196 -0.2848
 5556TIP3    H116674   0.747   5.289   1.803 -2.7769  1.7267 -3.2879
 5556TIP3    H216675   0.668   5.162   1.828  1.6920 -0.4923  0.4559
 5557TIP3   OH216676   1.352   3.681   2.679  0.5294  0.0323  0.0727
 5557TIP3    H116677   1.365   3.761   2.729 -1.4378  0.2076  0.3108
 5557TIP3    H216678   1.258   3.675   2.665  0.6664 -2.0706 -0.2224
 5558TIP3   OH216679   1.408   4.259   4.337  0.4407 -0.2792 -0.2193
 5558TIP3    H116680   1.475   4.206   4.294  0.9155  0.2471 -0.1343
 5558TIP3    H216681   1.333   4.201   4.345  0.6551 -0.6573 -0.9443
 5559TIP3   OH216682   4.753   4.871   1.110  0.4242 -0.2280  0.0767
 5559TIP3    H116683   4.808   4.827   1.174 -0.4154 -0.5248  0.6078
 5559TIP3    H216684   4.785   4.841   1.025  0.2469 -1.4000  0.4185
 5560TIP3   OH216685   3.204   1.911   3.128  0.1849 -0.0117  0.1432
 5560TIP3    H116686   3.276   1.873   3.178 -1.3323 -1.9189  0.9784
 5560TIP3    H216687   3.231   1.902   3.036  0.7526 -1.2742  0.4222
 5561TIP3   OH216688   3.095   4.387   4.973 -0.3262  0.0341 -0.1069
 5561TIP3    H116689   3.113   4.442   5.050  0.0899 -0.9832  0.5442
 5561TIP3    H216690   3.006   4.411   4.947 -1.3635 -1.1885  2.0857
 5562TIP3   OH216691   2.825   0.972   5.229 -0.1296  0.0595 -0.2777
 5562TIP3    H116692   2.798   0.966   5.321 -1.1783  1.5161 -0.4730
 5562TIP3    H216693   2.782   0.898   5.186  0.9715 -1.0720  0.5377
 5563TIP3   OH216694   1.927   4.546   2.794  0.0537  0.2973 -0.0241
 5563TIP3    H116695   1.947   4.458   2.762  1.6503  0.1366  1.3750
 5563TIP3    H216696   1.952   4.604   2.722 -0.4091 -0.3207 -0.7040
 5564TIP3   OH216697   4.751   3.698   2.867 -0.2611  0.5988  0.1560
 5564TIP3    H116698   4.662   3.727   2.846 -0.3184  0.4027  0.1306
 5564TIP3    H216699   4.775   3.639   2.796 -0.2837  0.2915  0.4004
 5565TIP3   OH216700   0.982   4.040   4.076  0.2034 -0.1734 -0.1817
 5565TIP3    H116701   0.925   4.113   4.102  0.0023 -0.6368  0.6899
 5565TIP3    H216702   0.922   3.967   4.061  0.5631 -0.6959  0.8562
 5566TIP3   OH216703   2.750   5.154   2.686 -0.2293 -0.3167 -0.1784
 5566TIP3    H116704   2.699   5.127   2.762 -0.1446 -0.9265 -0.3335
 5566TIP3    H216705   2.840   5.158   2.718 -0.1368 -0.9774 -0.3444
 5567TIP3   OH216706   3.518   0.910   2.023 -0.2435  0.3962  0.0305
 5567TIP3    H116707   3.434   0.911   1.976  0.0705  0.6622 -0.5197
 5567TIP3    H216708   3.561   0.992   1.998  0.4796 -0.0561 -0.2296
 5568TIP3   OH216709   0.297   6.068   5.250  0.2372  0.4502  0.7116
 5568TIP3    H116710   0.262   6.120   5.322 -1.1414 -1.0321  1.1420
 5568TIP3    H216711   0.389   6.096   5.242  0.1632  1.2371  2.4525
 5569TIP3   OH216712   1.017   4.540   4.267  0.2548 -0.3615  0.0127
 5569TIP3    H116713   0.980   4.496   4.344 -0.6441  2.2721  1.1546
 5569TIP3    H216714   0.947   4.535   4.201 -1.1460  2.0794  1.2172
 5570TIP3   OH216715   5.008   3.095   0.388  0.0170 -0.3717 -0.2425
 5570TIP3    H116716   5.003   3.154   0.463 -0.7078 -1.1787  0.3498
 5570TIP3    H216717   5.080   3.036   0.409  0.8134  0.3557 -0.8851
 5571TIP3   OH216718   6.089   0.072   2.663 -0.3052  0.2380 -0.1799
 5571TIP3    H116719   6.049   0.159   2.663 -2.2725 -0.6193 -0.7264
 5571TIP3    H216720   6.018   0.014   2.634  1.3667 -1.3602 -1.1818
 5572TIP3   OH216721   5.460   1.048   2.231  0.8796 -0.1591  0.0722
 5572TIP3    H116722   5.470   1.035   2.325  0.0106  1.6539  0.4387
 5572TIP3    H216723   5.388   0.990   2.207  0.3813  0.1806  0.7298
 5573TIP3   OH216724   5.028   1.472   3.053  0.5332 -0.0698 -0.6198
 5573TIP3    H116725   5.056   1.557   3.020 -0.0401  0.3212 -0.0870
 5573TIP3    H216726   5.049   1.411   2.981  0.0041  0.6658 -1.4113
 5574TIP3   OH216727   1.294   5.630   4.226  0.4048 -0.1025  0.2438
 5574TIP3    H116728   1.254   5.632   4.139  0.0035  0.2197  0.4341
 5574TIP3    H216729   1.383   5.597   4.211  1.4652  3.0327 -0.7473
 5575TIP3   OH216730   0.195   2.708   0.812 -0.1108 -0.1242  0.6490
 5575TIP3    H116731   0.289   2.706   0.829 -0.1387  1.4711  1.0485
 5575TIP3    H216732   0.176   2.623   0.772  1.8195  0.2903 -1.2344
 5576TIP3   OH216733   3.794   5.387   3.524 -0.7030 -0.7094  0.2304
 5576TIP3    H116734   3.779   5.465   3.469  1.3465 -1.1126 -0.9403
 5576TIP3    H216735   3.723   5.327   3.500  0.3144 -0.9841 -2.1881
 5577TIP3   OH216736   1.714   4.618   5.067  0.2800  0.3626  0.0599
 5577TIP3    H116737   1.748   4.692   5.119 -1.3520  1.6816 -0.7279
 5577TIP3    H216738   1.696   4.656   4.981  1.4024 -1.4529 -1.0041
 5578TIP3   OH216739   3.159   1.707   4.515  0.0787 -0.2100  0.1590
 5578TIP3    H116740   3.130   1.637   4.456  0.8716 -1.2051  0.9186
 5578TIP3    H216741   3.170   1.664   4.600 -1.9776  1.4140  1.2788
 5579TIP3   OH216742   3.730   5.324   2.746 -0.1851  0.1508  0.3589
 5579TIP3    H116743   3.779   5.398   2.781  1.1773 -0.7055  0.3213
 5579TIP3    H216744   3.686   5.286   2.822  2.9853 -1.8724  1.3027
 5580TIP3   OH216745   3.211   5.940   2.994  0.1929 -0.7731 -0.1905
 5580TIP3    H116746   3.232   6.005   3.061 -1.9387  1.4946 -1.6652
 5580TIP3    H216747   3.242   5.857   3.031  2.4258  0.9612  1.9737
 5581TIP3   OH216748   1.100   3.637   0.253 -0.3708 -0.5267 -0.3314
 5581TIP3    H116749   1.091   3.698   0.180  0.1843  1.9827  1.5920
 5581TIP3    H216750   1.023   3.652   0.307 -0.3892 -1.7797  0.0134
 5582TIP3   OH216751   5.065   5.644   4.095 -0.0637  0.2117 -0.0700
 5582TIP3    H116752   5.155   5.658   4.126 -0.4791  3.2171 -0.0279
 5582TIP3    H216753   5.015   5.714   4.137 -2.5762 -1.8610  0.4537
 5583TIP3   OH216754   1.680   5.775   5.257 -0.0041 -0.2113 -0.1335
 5583TIP3    H116755   1.763   5.774   5.305 -0.6024  0.2909  0.9226
 5583TIP3    H216756   1.705   5.790   5.166  0.9257  2.2320  0.4952
 5584TIP3   OH216757   3.824   0.266   3.196  0.0908  0.0328 -0.1372
 5584TIP3    H116758   3.834   0.279   3.290 -1.4761  0.5270 -0.0367
 5584TIP3    H216759   3.843   0.173   3.183  0.3472 -0.0309  0.6565
 5585TIP3   OH216760   5.423   4.263   0.181 -0.2965  0.6341 -0.0431
 5585TIP3    H116761   5.415   4.359   0.181  2.7347  1.0098  3.2014
 5585TIP3    H216762   5.471   4.242   0.102  1.3227  2.0961  0.5307
 5586TIP3   OH216763   0.881   5.356   5.200  0.3498 -0.0627 -0.0207
 5586TIP3    H116764   0.944   5.395   5.260 -0.3457  2.0291 -0.6285
 5586TIP3    H216765   0.815   5.424   5.186 -3.2420 -2.8879  2.2695
 5587TIP3   OH216766   5.290   6.088   4.584  0.3597  0.5148 -0.2487
 5587TIP3    H116767   5.277   6.080   4.490  0.5042 -0.6140 -0.1771
 5587TIP3    H216768   5.264   6.178   4.604  0.1395  0.7018 -1.3277
 5588TIP3   OH216769   4.785   4.942   2.231  0.7004  0.0315  0.0425
 5588TIP3    H116770   4.703   4.943   2.280  0.6905  0.2171  0.0226
 5588TIP3    H216771   4.851   4.919   2.296  0.7085  0.4329  0.1724
 5589TIP3   OH216772   5.636   0.148   3.417 -0.6198  0.0598 -0.2651
 5589TIP3    H116773   5.585   0.211   3.468  1.0781  0.7732  0.5963
 5589TIP3    H216774   5.698   0.201   3.368  0.9380 -0.9216  0.5951
 5590TIP3   OH216775   3.214   4.497   1.754 -0.1901  0.1975 -0.0442
 5590TIP3    H116776   3.225   4.562   1.684 -0.4629  1.2614  0.8880
 5590TIP3    H216777   3.162   4.542   1.821  0.6174 -0.5820  1.1364
 5591TIP3   OH216778   4.770   1.193   1.504 -0.2435 -0.5886  0.0104
 5591TIP3    H116779   4.854   1.227   1.473 -0.8003  0.3706 -0.4731
 5591TIP3    H216780   4.739   1.258   1.566 -0.1781 -1.4240  0.9315
 5592TIP3   OH216781   4.645   1.192   2.125  0.0881 -0.4176 -0.3410
 5592TIP3    H116782   4.555   1.163   2.106  0.8575 -2.2833 -1.2498
 5592TIP3    H216783   4.649   1.281   2.090 -0.8554 -1.0038 -2.0049
 5593TIP3   OH216784   2.669   5.416   4.451 -0.5357  0.1088 -0.0906
 5593TIP3    H116785   2.635   5.334   4.487  0.1399 -0.2913 -0.3568
 5593TIP3    H216786   2.631   5.484   4.507  0.4993 -0.5025  1.3746
 5594TIP3   OH216787   5.161   0.846   3.907  0.2659  0.5439  1.0227
 5594TIP3    H116788   5.199   0.932   3.893  0.2756  0.4488  0.4171
 5594TIP3    H216789   5.081   0.846   3.854 -0.4440  0.6521  2.0767
 5595TIP3   OH216790   0.107   4.227   3.973  0.0261  0.1718 -0.3602
 5595TIP3    H116791   0.173   4.296   3.974 -0.0905  0.2964 -1.2385
 5595TIP3    H216792   0.077   4.223   3.883 -1.1660  0.1050  0.0345
 5596TIP3   OH216793   3.625   5.928   3.270  0.4165  0.1085 -0.1887
 5596TIP3    H116794   3.578   6.010   3.287 -0.5299 -0.7336  1.3944
 5596TIP3    H216795   3.621   5.881   3.353  0.7786 -1.6280 -1.1381
 5597TIP3   OH216796   1.858   5.612   4.715  0.3497 -0.7706 -0.2662
 5597TIP3    H116797   1.781   5.566   4.682 -1.4694  0.8719  1.5100
 5597TIP3    H216798   1.931   5.556   4.693 -1.3068 -2.1409 -2.4674
 5598TIP3   OH216799   4.815   1.286   1.156 -0.2786 -0.6625 -0.0228
 5598TIP3    H116800   4.868   1.248   1.086  1.3382 -0.0792  0.8682
 5598TIP3    H216801   4.855   1.254   1.237 -1.2784 -0.2014  0.6700
 5599TIP3   OH216802   4.247   3.978   2.189  0.1831  0.2225  0.9949
 5599TIP3    H116803   4.265   4.038   2.117  0.1195  0.6229  1.3067
 5599TIP3    H216804   4.213   4.035   2.259  0.0484 -0.1878  1.2646
 5600TIP3   OH216805   1.596   4.637   3.435  0.1878 -0.0408 -0.3555
 5600TIP3    H116806   1.555   4.573   3.378 -2.0813  1.6438 -0.6697
 5600TIP3    H216807   1.627   4.706   3.376  0.4534  0.3134  0.1900
 5601TIP3   OH216808   2.677   3.239   0.037 -0.0085 -0.1700 -0.3943
 5601TIP3    H116809   2.686   3.292   0.116 -1.1612 -0.4432 -0.0798
 5601TIP3    H216810   2.595   3.192   0.048 -0.6224  0.4604 -2.1649
 5602TIP3   OH216811   3.464   0.042   0.087 -0.2416  0.1509  0.2606
 5602TIP3    H116812   3.494  -0.045   0.060 -0.2138  0.3575 -0.3835
 5602TIP3    H216813   3.399   0.025   0.155 -0.4943 -0.3863 -0.1111
 5603TIP3   OH216814   2.958   5.359   4.526 -0.5349  0.4364 -0.7585
 5603TIP3    H116815   3.027   5.412   4.567  1.4994 -1.7536 -1.2434
 5603TIP3    H216816   2.878   5.410   4.540  0.3830  0.8393  4.0509
 5604TIP3   OH216817   5.394   0.055   4.398  0.0874  0.2422  0.4084
 5604TIP3    H116818   5.391   0.138   4.445  0.0935  0.4609  0.0235
 5604TIP3    H216819   5.431   0.076   4.313 -0.4313 -0.0545  0.1035
 5605TIP3   OH216820   3.695   0.865   4.298  0.0421  0.0082  0.1802
 5605TIP3    H116821   3.601   0.876   4.290 -0.0059 -1.0652 -0.9353
 5605TIP3    H216822   3.731   0.953   4.289 -0.7482  0.2125 -1.0577
 5606TIP3   OH216823   1.931   5.762   3.112 -0.1596 -0.2163  0.5605
 5606TIP3    H116824   1.986   5.729   3.041 -0.1655  1.2082 -0.1032
 5606TIP3    H216825   1.927   5.689   3.175 -1.1413 -1.9425 -1.4448
 5607TIP3   OH216826   4.666   4.417   0.169 -0.2488 -0.1456 -0.2496
 5607TIP3    H116827   4.594   4.480   0.164  1.3843  1.7371 -0.5933
 5607TIP3    H216828   4.692   4.418   0.261  0.5489  0.5920 -0.4762
 5608TIP3   OH216829   3.466   1.288   3.274  0.3222 -0.0217 -0.1413
 5608TIP3    H116830   3.425   1.302   3.360  2.6184  0.9696  0.8189
 5608TIP3    H216831   3.410   1.223   3.231 -1.3418  0.1127  1.7623
 5609TIP3   OH216832   3.924   5.208   1.027  0.0042 -0.2822  0.0612
 5609TIP3    H116833   3.968   5.146   1.084 -0.5698 -1.2616 -0.5574
 5609TIP3    H216834   3.989   5.277   1.013  0.6625 -0.7623  0.7012
 5610TIP3   OH216835   0.420   1.138   0.725 -0.3024 -0.2418  0.0156
 5610TIP3    H116836   0.512   1.164   0.721 -0.2730 -0.4045 -0.4142
 5610TIP3    H216837   0.420   1.056   0.774  0.0633 -1.4942 -2.0337
 5611TIP3   OH216838   1.480   5.118   2.482  0.0698 -0.0667 -0.1425
 5611TIP3    H116839   1.412   5.183   2.462 -1.5196 -2.0214 -1.3600
 5611TIP3    H216840   1.497   5.075   2.398  1.4864 -0.8701  0.5398
 5612TIP3   OH216841   3.787   1.109   4.185 -0.3705 -0.4304  0.1437
 5612TIP3    H116842   3.857   1.092   4.122 -1.3795  2.4178 -1.8717
 5612TIP3    H216843   3.808   1.196   4.220 -1.5618 -0.6135  1.3417
 5613TIP3   OH216844   0.152   3.764   3.373 -0.0425 -0.0999 -0.4403
 5613TIP3    H116845   0.082   3.712   3.333 -1.8719  1.8127  0.1987
 5613TIP3    H216846   0.194   3.808   3.299 -0.0861 -0.5565 -0.7401
 5614TIP3   OH216847   0.186   5.752   4.401 -0.0579 -0.2859  0.3261
 5614TIP3    H116848   0.259   5.710   4.357  0.1597  0.2864  0.1282
 5614TIP3    H216849   0.221   5.782   4.484  0.2635  1.0474 -0.2701
 5615TIP3   OH216850   1.771   3.161   3.522 -0.4014 -0.4937  0.2489
 5615TIP3    H116851   1.838   3.096   3.502  1.0539  0.6064  1.3478
 5615TIP3    H216852   1.810   3.214   3.593 -3.9047 -2.0607  3.4893
 5616TIP3   OH216853   1.555   2.402   0.373 -0.7412  0.5016 -0.2645
 5616TIP3    H116854   1.540   2.383   0.465  4.3527  0.8326  0.7849
 5616TIP3    H216855   1.566   2.497   0.369  2.5933  0.1545 -0.5300
 5617TIP3   OH216856   3.904   5.976   3.133 -0.2779  0.4725 -0.3604
 5617TIP3    H116857   3.997   5.976   3.112 -0.3133 -0.2014 -0.5317
 5617TIP3    H216858   3.890   6.056   3.183 -0.1149  1.8881 -2.5489
 5618TIP3   OH216859   1.181   1.527   4.266 -0.0230  0.0985  0.2554
 5618TIP3    H116860   1.263   1.492   4.232  0.3327  0.7399  0.4331
 5618TIP3    H216861   1.202   1.556   4.355 -0.0365  1.6210 -0.2080
 5619TIP3   OH216862   1.872   4.858   3.745  0.6441 -0.3275  0.6965
 5619TIP3    H116863   1.857   4.786   3.683  2.4048 -0.6325  0.5950
 5619TIP3    H216864   1.819   4.836   3.821 -1.0562 -0.2701 -0.4508
 5620TIP3   OH216865   2.827   5.144   4.894 -0.4559 -0.7195  0.4844
 5620TIP3    H116866   2.822   5.231   4.934  1.1265  0.5888 -2.0833
 5620TIP3    H216867   2.738   5.127   4.862 -0.7203  0.0225  0.8212
 5621TIP3   OH216868   0.335   5.500   4.623 -0.2584 -0.0844  0.1207
 5621TIP3    H116869   0.324   5.406   4.638  1.2713 -0.2395  0.3923
 5621TIP3    H216870   0.425   5.508   4.589 -0.5984  1.2080 -0.4913
 5622TIP3   OH216871   5.538   1.421   0.849  0.6291  0.0189 -0.1748
 5622TIP3    H116872   5.460   1.400   0.797 -0.7299 -1.2691  2.3433
 5622TIP3    H216873   5.513   1.500   0.897  0.8716 -0.3976  0.6330
 5623TIP3   OH216874   4.106   0.011   5.091 -0.4881  0.2976  0.5285
 5623TIP3    H116875   4.021   0.039   5.058  0.3367  1.7913 -0.3830
 5623TIP3    H216876   4.115   0.055   5.175 -1.0748 -0.7235  1.1324
 5624TIP3   OH216877   0.502   3.823   0.006  0.0976  0.3679  0.1970
 5624TIP3    H116878   0.424   3.806   0.060 -1.1089  0.7902 -1.3592
 5624TIP3    H216879   0.525   3.914   0.025  1.0716 -0.1909  1.7211
 5625TIP3   OH216880   1.271   4.872   3.730 -0.1398  0.2788  0.3598
 5625TIP3    H116881   1.331   4.937   3.767 -0.1251  0.3437  0.2176
 5625TIP3    H216882   1.185   4.913   3.734  0.2452  1.3686 -2.2544
 5626TIP3   OH216883   3.830   4.875   4.802 -0.6166  0.1398  0.0021
 5626TIP3    H116884   3.915   4.897   4.843 -1.1134 -0.0743  1.1803
 5626TIP3    H216885   3.823   4.936   4.729  0.6804 -0.0166 -0.2699
 5627TIP3   OH216886   4.872   2.224   2.785 -0.3310  0.0839  0.2874
 5627TIP3    H116887   4.884   2.156   2.852 -1.4089 -0.6326 -0.2248
 5627TIP3    H216888   4.952   2.276   2.790 -0.5879  0.3395  2.4522
 5628TIP3   OH216889   5.206   1.899   2.857 -0.4104 -0.4204  0.1305
 5628TIP3    H116890   5.118   1.934   2.876 -0.4026 -0.3007 -0.0579
 5628TIP3    H216891   5.242   1.959   2.792 -0.4562 -0.8716 -0.3080
 5629TIP3   OH216892   0.855   5.779   2.933  0.4644 -0.6078  0.0674
 5629TIP3    H116893   0.791   5.712   2.910 -0.2313 -0.0309  0.3211
 5629TIP3    H216894   0.861   5.835   2.856  0.7633 -0.7377 -0.0049
 5630TIP3   OH216895   5.636   5.834   4.742 -0.1569  0.1423 -0.5769
 5630TIP3    H116896   5.626   5.929   4.740 -1.4975  0.0618  0.7994
 5630TIP3    H216897   5.724   5.818   4.709 -0.1592  1.8108 -1.4631
 5631TIP3   OH216898   5.691   3.288   0.086  0.2080 -0.0510 -0.2477
 5631TIP3    H116899   5.678   3.198   0.115  1.8900 -0.5171 -0.9242
 5631TIP3    H216900   5.648   3.342   0.153 -0.5415 -1.3284  0.3052
 5632TIP3   OH216901   3.263   0.189   1.041  0.2785  0.0092  0.0691
 5632TIP3    H116902   3.235   0.175   1.132  1.8863  0.7113  0.6765
 5632TIP3    H216903   3.188   0.158   0.989  0.2301 -2.5569  1.5586
 5633TIP3   OH216904   5.257   2.268   2.446 -0.0196 -0.2139 -0.2040
 5633TIP3    H116905   5.309   2.346   2.425  1.0267 -0.6300  0.7415
 5633TIP3    H216906   5.212   2.246   2.365  0.8869  0.4642 -0.9056
 5634TIP3   OH216907   4.956   2.433   1.417 -0.0829 -0.2982  0.6784
 5634TIP3    H116908   4.865   2.405   1.427  0.1612 -0.7905  1.6163
 5634TIP3    H216909   5.003   2.354   1.390 -0.0360  0.1043 -0.4445
 5635TIP3   OH216910   3.133   1.128   3.501 -0.4805 -0.1156 -0.3626
 5635TIP3    H116911   3.130   1.192   3.572 -0.5745 -1.7222  1.1126
 5635TIP3    H216912   3.219   1.141   3.460  0.8925 -1.2997  2.0751
 5636TIP3   OH216913   5.938   3.508   0.713 -0.5447  0.1893  0.2420
 5636TIP3    H116914   5.983   3.509   0.798  1.7493  1.8735 -0.9326
 5636TIP3    H216915   5.888   3.589   0.712  0.4483  0.8132 -0.4907
 5637TIP3   OH216916   0.358   5.585   3.047 -0.6093  0.3519  0.5230
 5637TIP3    H116917   0.304   5.535   3.109 -1.5356  0.9659  0.2045
 5637TIP3    H216918   0.431   5.526   3.027 -0.4103  0.0542  2.0307
 5638TIP3   OH216919   5.074   0.597   1.839 -0.0276 -0.3449 -0.0812
 5638TIP3    H116920   5.059   0.671   1.896 -0.4399 -0.7136  0.2912
 5638TIP3    H216921   5.160   0.564   1.864  0.0603 -0.1262 -0.0983
 5639TIP3   OH216922   0.983   3.879   4.709 -0.1475  0.0380  0.2127
 5639TIP3    H116923   1.012   3.914   4.793 -2.2337  1.2674  0.4704
 5639TIP3    H216924   0.896   3.841   4.728  0.0900 -1.1784 -1.0427
 5640TIP3   OH216925   2.595   5.861   2.354  0.3628  0.1694 -0.3445
 5640TIP3    H116926   2.636   5.775   2.363  1.0262  0.2279 -2.4775
 5640TIP3    H216927   2.668   5.919   2.332 -0.2270  1.1085  0.1636
 5641TIP3   OH216928   0.890   1.989   0.413  0.3116 -0.3093  0.0551
 5641TIP3    H116929   0.943   2.068   0.419  0.1425 -0.2430  0.6709
 5641TIP3    H216930   0.882   1.973   0.319 -0.4149  0.9358 -0.1186
 5642TIP3   OH216931   3.655   1.191   2.014 -0.2167 -0.9065  0.1692
 5642TIP3    H116932   3.645   1.248   2.090 -1.2790 -2.1876  1.0063
 5642TIP3    H216933   3.749   1.192   1.995 -0.3359  1.9860 -0.5255
 5643TIP3   OH216934   2.360   5.806   3.542 -0.4898 -0.1833 -0.0021
 5643TIP3    H116935   2.328   5.723   3.508 -0.2670  0.0708 -0.8574
 5643TIP3    H216936   2.429   5.832   3.480  0.7968 -0.3244  1.3505
 5644TIP3   OH216937   6.123   1.467   2.875  0.2649  0.1846  0.3231
 5644TIP3    H116938   6.188   1.538   2.869  0.5431  0.0537  1.7558
 5644TIP3    H216939   6.166   1.392   2.834 -0.1586  0.9029 -1.5210
 5645TIP3   OH216940   4.976   0.934   0.456  0.2329  0.2824  0.6365
 5645TIP3    H116941   4.922   1.001   0.499 -0.5123 -0.4591  0.8917
 5645TIP3    H216942   5.048   0.982   0.417 -2.1822  1.6915 -2.2843
 5646TIP3   OH216943   4.706   2.848   0.908  0.0747  0.7650  0.4263
 5646TIP3    H116944   4.777   2.794   0.874 -0.8037 -1.0676  1.4015
 5646TIP3    H216945   4.634   2.834   0.846 -0.6037 -0.3273  1.4365
 5647TIP3   OH216946   1.807   4.022   3.942  0.0349  0.1820 -0.8253
 5647TIP3    H116947   1.731   4.006   3.886 -0.1588  2.7740 -1.3847
 5647TIP3    H216948   1.773   4.074   4.015  0.9616 -0.0391 -0.2203
 5648TIP3   OH216949   3.285   0.570   2.660 -0.1465  0.2517  0.0245
 5648TIP3    H116950   3.303   0.528   2.744  0.0774  0.9822  0.3528
 5648TIP3    H216951   3.340   0.649   2.661  0.0596  0.1249 -0.9243
 5649TIP3   OH216952   3.121   5.027   3.726 -0.0254 -0.0434 -0.0202
 5649TIP3    H116953   3.101   4.953   3.784 -1.6185  1.2723  1.1705
 5649TIP3    H216954   3.177   5.084   3.779 -0.1549  0.3896 -0.3488
 5650TIP3   OH216955   2.643   5.661   3.678 -0.0795 -0.4638 -0.1553
 5650TIP3    H116956   2.654   5.573   3.714 -1.5140 -0.6649 -0.1667
 5650TIP3    H216957   2.548   5.670   3.667  0.0072  1.3156  0.4316
 5651TIP3   OH216958   5.222   3.055   1.114  0.1249  0.2549  0.7306
 5651TIP3    H116959   5.275   2.979   1.138 -0.7620 -0.1494  1.4627
 5651TIP3    H216960   5.139   3.042   1.160  0.2137  2.0445  1.4247
 5652TIP3   OH216961   3.604   0.505   0.894  0.1174 -0.3096  0.5772
 5652TIP3    H116962   3.671   0.437   0.896  0.5800  0.1098 -0.4053
 5652TIP3    H216963   3.522   0.458   0.910  0.2312 -1.3750 -1.6721
 5653TIP3   OH216964   5.636   4.689   0.718  0.1189  0.5070  0.1781
 5653TIP3    H116965   5.617   4.725   0.804  2.4310 -0.3745  1.1093
 5653TIP3    H216966   5.585   4.608   0.714  0.4708  0.2384  0.9841
 5654TIP3   OH216967   2.671   5.957   1.773  0.3293  0.2246  0.1462
 5654TIP3    H116968   2.729   6.030   1.792  0.3183  0.9123 -2.3257
 5654TIP3    H216969   2.730   5.883   1.757  0.3980  0.0955  0.9876
 5655TIP3   OH216970   0.249   3.848   0.671  0.0381  0.1152 -0.0122
 5655TIP3    H116971   0.206   3.917   0.619 -0.0381 -0.7613 -1.1503
 5655TIP3    H216972   0.188   3.774   0.666  1.5222 -1.0630 -1.4389
 5656TIP3   OH216973   4.745   0.656   4.252 -0.3819 -0.2449  0.4220
 5656TIP3    H116974   4.651   0.674   4.257 -0.3338  0.0978  0.0729
 5656TIP3    H216975   4.779   0.721   4.190 -0.2240 -1.5332 -0.8772
 5657TIP3   OH216976   3.755   0.080   1.771 -0.1476 -0.0451 -0.0117
 5657TIP3    H116977   3.731   0.167   1.738 -0.7373 -0.4839 -0.7668
 5657TIP3    H216978   3.785   0.033   1.693  0.7385 -0.3258  0.5025
 5658TIP3   OH216979   6.386   3.454   0.409 -0.0114  0.1066 -0.0339
 5658TIP3    H116980   6.383   3.549   0.420 -0.4349  0.2462 -1.2686
 5658TIP3    H216981   6.320   3.421   0.471 -0.7357  0.7016 -0.4756
 5659TIP3   OH216982   2.902   0.635   3.193 -0.0662 -0.1195 -0.1662
 5659TIP3    H116983   2.870   0.720   3.222 -0.4534 -0.2095 -0.3220
 5659TIP3    H216984   2.839   0.608   3.126  0.2121 -0.4007 -0.3128
 5660TIP3   OH216985   1.787   4.831   4.248 -0.1955  0.0838  0.5263
 5660TIP3    H116986   1.826   4.914   4.273  0.5519 -0.1050 -0.0015
 5660TIP3    H216987   1.768   4.787   4.331 -0.3042  0.6382  0.7952
 5661TIP3   OH216988   5.469   5.558   4.338 -0.3999 -0.4512 -0.5895
 5661TIP3    H116989   5.460   5.586   4.429 -0.2164  0.3194 -0.8089
 5661TIP3    H216990   5.550   5.508   4.336 -0.0854  0.0545 -0.4586
 5662TIP3   OH216991   1.528   4.401   5.076  0.0370 -0.6319  0.4931
 5662TIP3    H116992   1.533   4.355   5.160 -2.1554  1.1664  1.6435
 5662TIP3    H216993   1.593   4.471   5.083 -1.5379  0.7416  1.4771
 5663TIP3   OH216994   4.833   1.107   3.153  0.3337 -0.9160 -0.0418
 5663TIP3    H116995   4.858   1.114   3.245  0.9337 -1.4407 -0.1589
 5663TIP3    H216996   4.915   1.124   3.105  0.1063 -1.0204 -0.4722
 5664TIP3   OH216997   5.144   4.136   1.021  0.0771 -0.7476 -0.3599
 5664TIP3    H116998   5.170   4.045   1.036 -0.8338 -0.9745 -0.1146
 5664TIP3    H216999   5.110   4.166   1.106 -1.4048 -0.7839 -0.9376
 5665TIP3   OH217000   5.826   5.573   1.407 -0.0533  0.1602  0.7812
 5665TIP3    H117001   5.841   5.667   1.413  2.9894 -0.1932 -0.4851
 5665TIP3    H217002   5.909   5.533   1.434 -1.1110 -2.1433  0.7384
 5666TIP3   OH217003   4.100   3.649   4.604 -0.6309 -0.3893 -1.0936
 5666TIP3    H117004   4.171   3.713   4.617 -1.1978  0.2222 -0.9990
 5666TIP3    H217005   4.126   3.574   4.657 -0.3705  0.0859 -0.5416
 5667TIP3   OH217006   1.261   0.465   5.062  0.1693 -0.2762 -0.2117
 5667TIP3    H117007   1.214   0.537   5.019 -0.0247 -0.3794 -0.1723
 5667TIP3    H217008   1.338   0.507   5.100  1.7965 -0.6154 -2.9866
 5668TIP3   OH217009   1.346   5.244   5.043 -0.1597 -0.0960 -0.4621
 5668TIP3    H117010   1.286   5.318   5.042  0.9152  0.8035  0.6809
 5668TIP3    H217011   1.309   5.183   5.107  0.2212  0.5355  0.3667
 5669TIP3   OH217012   4.545   3.687   1.014  0.5772  0.1207 -0.0746
 5669TIP3    H117013   4.597   3.633   1.074  0.7332 -0.2002 -0.4953
 5669TIP3    H217014   4.587   3.773   1.018 -0.4556  0.5776  1.5887
 5670TIP3   OH217015   5.793   0.329   3.274 -0.5769 -0.3738 -0.0156
 5670TIP3    H117016   5.776   0.335   3.180 -1.6218 -1.0399  0.1208
 5670TIP3    H217017   5.864   0.266   3.282 -1.4844 -1.4502 -0.2773
 5671TIP3   OH217018   4.050   0.589   2.191 -0.1845  0.1903  0.9793
 5671TIP3    H117019   3.983   0.546   2.245 -1.2467  0.0732 -0.3956
 5671TIP3    H217020   4.096   0.647   2.252 -0.6336 -0.7497  2.2361
 5672TIP3   OH217021   5.498   1.449   4.076  0.2658  0.1877 -0.5241
 5672TIP3    H117022   5.444   1.517   4.035 -1.6231 -0.4639  0.8258
 5672TIP3    H217023   5.466   1.445   4.166  2.5273 -0.2929  0.2775
 5673TIP3   OH217024   0.505   4.971   4.503 -0.4367  0.2923 -0.1168
 5673TIP3    H117025   0.599   4.952   4.497 -0.4830  0.4421 -1.5995
 5673TIP3    H217026   0.491   4.995   4.594  1.3809  2.4535 -0.3465
 5674TIP3   OH217027   4.712   0.116   4.594  0.1894 -0.0511 -0.0292
 5674TIP3    H117028   4.751   0.186   4.647  1.1010  0.6753 -1.6185
 5674TIP3    H217029   4.697   0.156   4.509  1.8107 -2.0738 -1.3264
 5675TIP3   OH217030   1.312   6.070   3.828 -0.2597  0.5560  0.6248
 5675TIP3    H117031   1.388   6.111   3.869 -0.6039  1.0368  0.7901
 5675TIP3    H217032   1.297   6.122   3.749 -0.9402  1.0101  1.0434
 5676TIP3   OH217033   4.255   1.344   3.561 -0.6677  0.1340  0.0535
 5676TIP3    H117034   4.234   1.357   3.654 -2.1290 -0.4182 -0.1869
 5676TIP3    H217035   4.209   1.263   3.537  0.1504 -0.0231 -1.0175
 5677TIP3   OH217036   5.818   0.733   4.324 -0.0405  0.1487 -0.3185
 5677TIP3    H117037   5.838   0.722   4.231  2.1025  0.3433  0.0865
 5677TIP3    H217038   5.878   0.672   4.368 -0.5047  0.6069  0.9625
 5678TIP3   OH217039   5.693   0.605   2.279 -0.0250  0.0288  0.6139
 5678TIP3    H117040   5.748   0.538   2.319 -0.6993 -0.6038  0.5045
 5678TIP3    H217041   5.732   0.620   2.193 -0.3358 -0.8223  0.3166
 5679TIP3   OH217042   0.698   0.976   2.852  0.3087  0.2898 -0.1295
 5679TIP3    H117043   0.687   1.071   2.849  0.6401  0.3684  1.0523
 5679TIP3    H217044   0.755   0.960   2.927  0.3193 -0.8392 -0.3630
 5680TIP3   OH217045   3.269   0.651   4.048  1.0107 -0.2644  0.0582
 5680TIP3    H117046   3.274   0.693   3.962 -0.4071 -0.6752 -0.2319
 5680TIP3    H217047   3.189   0.686   4.087  0.1926 -2.1519  0.0953
 5681TIP3   OH217048   5.841   2.109   2.835 -0.3280  0.4865  0.2968
 5681TIP3    H117049   5.761   2.159   2.851 -0.3419  0.4146  0.4566
 5681TIP3    H217050   5.835   2.035   2.896 -0.2658  0.3381  0.1203
 5682TIP3   OH217051   1.293   4.102   0.572 -0.9122  0.6530  0.0113
 5682TIP3    H117052   1.361   4.160   0.537 -0.5016 -0.1343 -0.5177
 5682TIP3    H217053   1.215   4.120   0.519 -0.0400 -1.2199 -2.0350
 5683TIP3   OH217054   2.651   6.128   3.161  0.2044  0.0979  0.1644
 5683TIP3    H117055   2.597   6.104   3.086  0.3957 -1.3878  0.4919
 5683TIP3    H217056   2.622   6.070   3.231  0.7875  0.7198  0.9316
 5684TIP3   OH217057   3.550   5.518   4.258 -0.2457  0.2131 -0.2189
 5684TIP3    H117058   3.498   5.446   4.295 -0.9170  0.4566 -0.6733
 5684TIP3    H217059   3.635   5.478   4.239  0.1688  0.1450  1.7446
 5685TIP3   OH217060   5.017   3.775   0.466  0.2130 -0.1345 -0.2103
 5685TIP3    H117061   5.048   3.724   0.540  0.2372  0.0455 -0.0950
 5685TIP3    H217062   5.093   3.828   0.440 -0.0547  0.4643  0.2084
 5686TIP3   OH217063   2.738   6.048   4.480 -0.0826 -0.0162  0.7080
 5686TIP3    H117064   2.698   5.995   4.412  1.5182 -1.0767  0.5717
 5686TIP3    H217065   2.665   6.074   4.536 -1.1019 -1.0117 -0.1353
 5687TIP3   OH217066   3.725   5.124   3.786  0.7044  0.2742  0.2868
 5687TIP3    H117067   3.794   5.108   3.722  1.3489 -0.2386  1.0987
 5687TIP3    H217068   3.770   5.122   3.871  0.0520  2.0132  0.6925
 5688TIP3   OH217069   2.668   4.890   4.215  0.4971 -0.2406  0.1118
 5688TIP3    H117070   2.662   4.950   4.289 -2.1685 -2.0872  1.4998
 5688TIP3    H217071   2.638   4.806   4.250  2.4707 -2.0113 -2.1996
 5689TIP3   OH217072   1.109   4.748   2.855 -0.4601  0.0357  0.2958
 5689TIP3    H117073   1.082   4.811   2.788  0.0770  2.6776  2.4727
 5689TIP3    H217074   1.179   4.698   2.813 -2.0830 -0.3573 -2.0745
 5690TIP3   OH217075   2.662   0.394   4.643  0.0363 -0.0308 -0.1321
 5690TIP3    H117076   2.727   0.331   4.673  0.0586  0.2211  0.3567
 5690TIP3    H217077   2.636   0.363   4.557 -1.0255 -1.5276  0.7029
 5691TIP3   OH217078   1.347   4.564   4.673  0.0817 -0.1401  0.3718
 5691TIP3    H117079   1.297   4.527   4.600 -0.8536 -0.5124  1.1832
 5691TIP3    H217080   1.417   4.615   4.631  1.4023 -2.7931 -0.7851
 5692TIP3   OH217081   0.247   1.014   3.861  0.0626 -0.4690  0.1365
 5692TIP3    H117082   0.282   0.953   3.927  0.5184 -1.0600 -0.6414
 5692TIP3    H217083   0.196   0.958   3.802  1.0145 -0.2100 -0.9594
 5693TIP3   OH217084   2.450   5.165   4.982 -0.5493 -0.2544  0.2720
 5693TIP3    H117085   2.378   5.106   5.004  0.3200 -1.0339  1.0520
 5693TIP3    H217086   2.480   5.199   5.065 -1.3534  1.6884 -0.2132
 5694TIP3   OH217087   3.036   4.758   3.842 -0.1993 -0.0698  0.0887
 5694TIP3    H117088   2.955   4.743   3.792  1.3582 -2.1235 -1.9550
 5694TIP3    H217089   3.097   4.691   3.809  2.1249  0.9900  2.0722
 5695TIP3   OH217090   2.032   5.285   4.588 -0.0398 -0.0933 -0.0778
 5695TIP3    H117091   2.114   5.333   4.580 -0.8041  1.0200 -1.4344
 5695TIP3    H217092   2.053   5.211   4.646  1.2027  1.7152  1.8530
 5696TIP3   OH217093   2.997   4.849   2.921 -0.3545 -0.0894 -0.1771
 5696TIP3    H117094   2.958   4.845   3.008 -0.1691 -3.7417 -0.1961
 5696TIP3    H217095   2.925   4.828   2.861  0.0482  0.0636 -0.7181
 5697TIP3   OH217096   1.274   5.908   4.636  0.2001 -0.1657 -0.1101
 5697TIP3    H117097   1.328   5.857   4.576  1.1933 -1.2670  1.6700
 5697TIP3    H217098   1.190   5.861   4.639 -0.4786  0.8712 -1.9439
 5698TIP3   OH217099   2.173   5.661   4.755 -0.6398 -0.1864 -0.0929
 5698TIP3    H117100   2.209   5.575   4.775 -2.5876 -0.7329  1.2225
 5698TIP3    H217101   2.238   5.723   4.788 -0.0152 -1.1401  0.4939
 5699TIP3   OH217102   5.587   0.683   4.459 -0.0318 -0.8146 -0.0234
 5699TIP3    H117103   5.583   0.723   4.545 -1.9301 -0.6379 -0.1616
 5699TIP3    H217104   5.680   0.679   4.438  0.5843 -2.3469  2.7217
 5700TIP3   OH217105   5.145   5.490   4.831  0.3885 -0.1667  0.5136
 5700TIP3    H117106   5.174   5.400   4.813 -0.1923 -0.1410 -0.6137
 5700TIP3    H217107   5.220   5.531   4.875  1.6654 -0.4295 -1.3562
 5701TIP3   OH217108   1.751   4.553   3.114  0.1303  0.0165  0.1647
 5701TIP3    H117109   1.658   4.534   3.106 -0.4714  3.0365 -0.7011
 5701TIP3    H217110   1.795   4.475   3.079 -2.0097 -1.9548  1.7553
 5702TIP3   OH217111   4.679   3.641   2.059 -1.0093 -0.5211  0.3180
 5702TIP3    H117112   4.611   3.698   2.094  0.0705 -0.0676  1.7344
 5702TIP3    H217113   4.703   3.583   2.132 -0.7248 -1.4891 -0.5231
 5703TIP3   OH217114   0.684   5.636   5.030 -0.1476  0.6602 -0.6085
 5703TIP3    H117115   0.683   5.599   5.119 -1.6325  1.3518 -0.3342
 5703TIP3    H217116   0.607   5.599   4.988  0.4809  0.4438 -1.5834
 5704TIP3   OH217117   4.094   6.112   5.284 -0.0687  0.6330  0.4042
 5704TIP3    H117118   4.042   6.185   5.318 -0.1455  0.0380  1.5506
 5704TIP3    H217119   4.037   6.036   5.292 -0.1258  0.4970 -1.1426
 5705TIP3   OH217120   1.242   1.060   5.170 -0.0113  0.2436 -0.1094
 5705TIP3    H117121   1.188   1.129   5.133  0.0943 -1.1213 -2.8935
 5705TIP3    H217122   1.192   0.979   5.157  1.4480 -0.6704 -0.2262
 5706TIP3   OH217123   4.366   5.607   3.469  0.2031  0.2102  0.5076
 5706TIP3    H117124   4.357   5.623   3.376 -1.8009  0.1453  0.6776
 5706TIP3    H217125   4.322   5.523   3.484 -0.7293  0.8904  1.7189
 5707TIP3   OH217126   0.613   4.116   2.010  0.0405  0.8103  0.4258
 5707TIP3    H117127   0.602   4.034   2.058 -0.0542  0.0455 -0.8728
 5707TIP3    H217128   0.707   4.134   2.015  0.0189  0.7858  0.9703
 5708TIP3   OH217129   5.311   0.208   2.447  0.3104  0.1773  0.2940
 5708TIP3    H117130   5.379   0.270   2.421  3.6057 -3.0102  0.9248
 5708TIP3    H217131   5.308   0.214   2.543  1.3996 -1.3268  0.4409
 5709TIP3   OH217132   4.777   0.255   1.393 -0.6243  0.2538  0.1192
 5709TIP3    H117133   4.759   0.330   1.450 -1.7628 -0.4096  0.6301
 5709TIP3    H217134   4.801   0.184   1.452  0.4891  0.2052 -0.3674
 5710TIP3   OH217135   4.501   2.818   0.724  0.3394 -0.2633  0.3281
 5710TIP3    H117136   4.456   2.734   0.733  1.4563 -0.9071 -0.1246
 5710TIP3    H217137   4.431   2.879   0.698 -0.2382 -1.3113 -0.6320
 5711TIP3   OH217138   5.338   5.669   3.800  0.6106  0.3596  0.0187
 5711TIP3    H117139   5.245   5.646   3.802  0.4251  0.9534 -1.2211
 5711TIP3    H217140   5.364   5.673   3.892 -0.5108 -0.1170  0.3637
 5712TIP3   OH217141   1.083   5.914   3.635 -0.1081 -0.0247  0.4981
 5712TIP3    H117142   1.129   5.833   3.655  0.0466 -0.0737 -0.0610
 5712TIP3    H217143   1.137   5.957   3.568 -0.5685  0.1933  0.2631
 5713TIP3   OH217144   3.239   4.308   2.698  0.8683 -0.4800 -0.1224
 5713TIP3    H117145   3.243   4.297   2.793 -0.6668 -1.5533 -0.1749
 5713TIP3    H217146   3.233   4.219   2.664 -0.6108 -0.0189 -1.1148
 5714TIP3   OH217147   0.890   0.887   4.449 -0.3109  0.5074  0.3142
 5714TIP3    H117148   0.986   0.888   4.442 -0.2042 -1.3983  1.0864
 5714TIP3    H217149   0.865   0.802   4.411 -1.6034  0.5379  1.0703
 5715TIP3   OH217150   6.223   1.233   0.935 -0.5523  0.0244 -0.6635
 5715TIP3    H117151   6.274   1.165   0.977  0.0677 -0.0628 -1.5361
 5715TIP3    H217152   6.149   1.248   0.993  0.1673 -0.2500  0.3278
 5716TIP3   OH217153   3.575   5.888   5.012  0.4713  0.2011 -0.9274
 5716TIP3    H117154   3.632   5.964   5.027  0.7411 -0.3028  0.6864
 5716TIP3    H217155   3.635   5.817   4.989  0.4283 -0.0880 -0.1727
 5717TIP3   OH217156   0.553   0.831   3.629 -0.2029  0.3513 -0.1048
 5717TIP3    H117157   0.560   0.903   3.691 -0.3317  0.0381  0.2746
 5717TIP3    H217158   0.598   0.862   3.550  1.8203 -0.0370  0.8631
 5718TIP3   OH217159   5.465   5.687   3.356  0.1699 -0.4049  0.0283
 5718TIP3    H117160   5.370   5.688   3.350  0.1592 -1.1896  0.1079
 5718TIP3    H217161   5.485   5.630   3.430  0.6996 -0.1940  0.0544
 5719TIP3   OH217162   3.911   5.929   4.216 -0.1546 -0.5883  0.1953
 5719TIP3    H117163   3.890   5.838   4.197  0.5944 -0.2853 -2.2730
 5719TIP3    H217164   3.829   5.976   4.199 -0.1933 -0.6449  0.2256
 5720TIP3   OH217165   4.715   5.291   3.241 -0.8477 -0.3000  0.1475
 5720TIP3    H117166   4.730   5.381   3.269  2.6790 -0.1983 -1.7470
 5720TIP3    H217167   4.650   5.297   3.172 -0.5779  0.8225 -0.0151
 5721TIP3   OH217168   3.182   5.210   3.018 -0.4241  0.6803 -0.2968
 5721TIP3    H117169   3.197   5.222   3.112  1.0940  1.4106 -0.6158
 5721TIP3    H217170   3.205   5.118   3.002  0.5551  0.8985 -0.1752
 5722TIP3   OH217171   0.973   1.932   3.924 -0.4720 -0.4161  0.6010
 5722TIP3    H117172   0.960   1.840   3.900  2.5208 -1.0088  1.0717
 5722TIP3    H217173   1.028   1.929   4.002 -0.3036  1.7837  0.5939
 5723TIP3   OH217174   5.303   5.394   4.147 -0.2186 -0.2866 -0.0160
 5723TIP3    H117175   5.295   5.481   4.186 -0.4649  0.0067 -0.7132
 5723TIP3    H217176   5.397   5.383   4.132 -0.2737  0.2440 -0.7788
 5724TIP3   OH217177   5.169   3.537   2.375  0.2584 -0.1958  0.2288
 5724TIP3    H117178   5.111   3.604   2.339 -0.4582  0.0177  1.7308
 5724TIP3    H217179   5.244   3.536   2.316 -1.2852 -0.5246 -1.7894
 5725TIP3   OH217180   4.968   1.990   2.945  0.9541 -0.2656 -0.1410
 5725TIP3    H117181   4.910   1.926   2.986  2.6903 -1.1330  0.9942
 5725TIP3    H217182   4.976   2.060   3.010 -0.3364  0.7841 -1.0785
 5726TIP3   OH217183   5.876   1.070   3.217 -0.4889  0.6426 -0.1878
 5726TIP3    H117184   5.933   1.134   3.174 -0.8356  0.8413 -0.3505
 5726TIP3    H217185   5.853   1.009   3.147  2.2990 -1.4168  0.6023
 5727TIP3   OH217186   0.559   0.017   3.442 -0.0756  0.0537 -0.0464
 5727TIP3    H117187   0.613  -0.046   3.488  0.3236  1.3514  1.2931
 5727TIP3    H217188   0.604   0.031   3.358  1.3322  0.6524  0.8041
 5728TIP3   OH217189   1.200   4.735   4.146  0.3088  0.2109  0.2660
 5728TIP3    H117190   1.212   4.708   4.055 -0.4500  1.0545 -0.0935
 5728TIP3    H217191   1.171   4.655   4.191  0.3631 -0.1305 -0.3001
 5729TIP3   OH217192   5.775   1.181   1.939 -0.1068  0.0811 -0.0026
 5729TIP3    H117193   5.687   1.149   1.956  1.5742 -3.4166  2.6764
 5729TIP3    H217194   5.825   1.104   1.912  2.7863  1.4214  1.2787
 5730TIP3   OH217195   0.609   2.035   2.912 -0.1359 -0.1722 -0.5057
 5730TIP3    H117196   0.528   2.055   2.865  0.2290  0.4314 -0.8826
 5730TIP3    H217197   0.665   1.993   2.847  0.1129  0.0418 -0.4315
 5731TIP3   OH217198   0.921   3.056   2.870 -0.6301  0.6906 -0.6160
 5731TIP3    H117199   0.906   3.111   2.947  1.1350  0.6142 -0.2043
 5731TIP3    H217200   0.928   3.118   2.797 -0.4168  0.8909 -0.4263
 5732TIP3   OH217201   4.485   5.355   4.763 -0.5084 -0.3835  0.4255
 5732TIP3    H117202   4.458   5.389   4.849 -1.4231 -0.1373  0.0470
 5732TIP3    H217203   4.570   5.395   4.747  0.0315 -1.0220  1.5611
 5733TIP3   OH217204   4.493   4.498   3.507  0.4842 -0.3223  0.3949
 5733TIP3    H117205   4.567   4.445   3.536  0.5296 -0.8779 -0.7101
 5733TIP3    H217206   4.513   4.587   3.538  0.5262 -0.8972  2.0303
 5734TIP3   OH217207   4.623   5.985   3.963 -0.2280 -0.1811 -0.6030
 5734TIP3    H117208   4.675   6.004   4.041  1.2359 -1.1582 -1.3202
 5734TIP3    H217209   4.646   5.896   3.940 -0.1583  0.3134 -2.5280
 5735TIP3   OH217210   2.092   5.056   0.581 -0.4385  0.3375  0.2845
 5735TIP3    H117211   2.098   5.140   0.534 -0.0376  0.1820  0.0571
 5735TIP3    H217212   2.174   5.011   0.561 -0.8820 -0.3411 -0.0431
 5736TIP3   OH217213   1.455   5.771   2.311  0.1524 -0.2211  0.1650
 5736TIP3    H117214   1.419   5.809   2.231  0.2908  1.2609  0.7829
 5736TIP3    H217215   1.548   5.795   2.309 -0.2865  1.8183  1.8452
 5737TIP3   OH217216   1.015   3.389   1.796 -0.4444  0.2743 -0.3256
 5737TIP3    H117217   1.074   3.361   1.866 -0.5027  2.7887  0.8073
 5737TIP3    H217218   0.930   3.397   1.838 -0.4119  2.1546 -0.5630
 5738TIP3   OH217219   0.885   0.388   0.517  0.6942 -0.3759 -0.1278
 5738TIP3    H117220   0.899   0.320   0.582  1.1449  0.3764  0.5750
 5738TIP3    H217221   0.863   0.341   0.436 -4.5787 -1.2684  1.6303
 5739TIP3   OH217222   4.735   2.154   3.217 -0.0345 -0.2465  0.0662
 5739TIP3    H117223   4.675   2.191   3.152  0.0522 -0.2212 -0.0002
 5739TIP3    H217224   4.682   2.089   3.264  0.0043 -0.5266 -0.2745
 5740TIP3   OH217225   0.721   0.577   1.697  0.6544 -0.4528 -0.0872
 5740TIP3    H117226   0.727   0.657   1.749  3.2137  0.0308 -1.0821
 5740TIP3    H217227   0.680   0.605   1.615 -0.8536 -0.6868  0.5737
 5741TIP3   OH217228   5.523   1.776   2.749  0.1763  0.3681 -0.2108
 5741TIP3    H117229   5.530   1.857   2.697  0.1477  0.2480 -0.4038
 5741TIP3    H217230   5.479   1.803   2.829 -0.2001  0.4665 -0.4493
 5742TIP3   OH217231   0.173   3.565   1.969 -0.1042 -0.2935 -0.4073
 5742TIP3    H117232   0.201   3.567   2.060  0.4896  0.9407 -0.6167
 5742TIP3    H217233   0.241   3.515   1.924  0.2124  0.1148 -0.3817
 5743TIP3   OH217234   5.957   0.162   1.608 -0.7863  0.2523  0.1269
 5743TIP3    H117235   5.991   0.175   1.696  0.9294 -0.5405 -0.4013
 5743TIP3    H217236   5.911   0.079   1.612  0.5178 -0.4944 -0.0618
 5744TIP3   OH217237   1.450   1.094   4.972  0.8389  0.3608 -0.2529
 5744TIP3    H117238   1.404   1.070   5.052 -0.3804 -1.7821 -1.5589
 5744TIP3    H217239   1.416   1.181   4.950  0.1971  0.3847  0.8305
 5745TIP3   OH217240   6.387   2.998   0.311  0.5185  0.2645 -0.3140
 5745TIP3    H117241   6.385   2.943   0.389  0.9655 -0.7404 -0.9935
 5745TIP3    H217242   6.300   2.988   0.273  0.6294 -0.0573 -0.4870
 5746TIP3   OH217243   4.471   4.790   5.085  0.3513 -0.0544  0.1553
 5746TIP3    H117244   4.566   4.804   5.080  0.4624 -0.6648  0.5560
 5746TIP3    H217245   4.439   4.863   5.139  0.6800 -0.2064  0.5617
 5747TIP3   OH217246   4.490   6.146   3.161  0.2951  0.0184  0.6853
 5747TIP3    H117247   4.420   6.137   3.096 -0.9514  1.0721  1.8331
 5747TIP3    H217248   4.564   6.098   3.124  0.3770  2.4973 -2.6136
 5748TIP3   OH217249   5.809   2.371   1.339  0.4543 -0.0715  0.2216
 5748TIP3    H117250   5.854   2.392   1.258  0.6276  1.0605  0.5972
 5748TIP3    H217251   5.743   2.307   1.315  1.8516 -1.2695 -0.4452
 5749TIP3   OH217252   3.692   3.848   0.965 -1.1385  0.5810 -0.1518
 5749TIP3    H117253   3.698   3.944   0.965  0.6964  0.4847  0.7374
 5749TIP3    H217254   3.642   3.827   1.044 -0.4012  0.7499  0.3637
 5750TIP3   OH217255   5.342   1.277   1.163 -0.4675  0.3216  0.2380
 5750TIP3    H117256   5.277   1.208   1.173 -0.2079  0.1824  1.0080
 5750TIP3    H217257   5.305   1.335   1.097 -0.1003 -1.2178 -1.3576
 5751TIP3   OH217258   4.986   4.514   5.209  0.0940  0.0923 -0.1605
 5751TIP3    H117259   5.003   4.605   5.185 -1.5616  1.2761  2.8922
 5751TIP3    H217260   5.030   4.502   5.292  1.5609 -2.4057 -1.2514
 5752TIP3   OH217261   3.521   3.930   4.776  0.6302  0.4248  0.0224
 5752TIP3    H117262   3.550   3.994   4.712  1.1403 -1.6214 -1.8341
 5752TIP3    H217263   3.428   3.918   4.757  0.4863  0.7401  0.5035
 5753TIP3   OH217264   5.688   0.561   2.997 -0.3413  0.1363  0.4805
 5753TIP3    H117265   5.629   0.580   3.070 -0.7362  0.5073  0.0608
 5753TIP3    H217266   5.635   0.574   2.918 -0.0210 -0.6232  0.1300
 5754TIP3   OH217267   4.406   1.818   1.455  0.3312  0.4472 -0.1316
 5754TIP3    H117268   4.314   1.845   1.451  0.0845 -0.1846  1.2147
 5754TIP3    H217269   4.451   1.891   1.498  0.0583 -0.2471  1.3553
 5755TIP3   OH217270   1.381   0.726   0.174 -0.1038  0.2984  0.1925
 5755TIP3    H117271   1.404   0.817   0.191 -1.3908  0.5983  0.3486
 5755TIP3    H217272   1.400   0.681   0.256  1.0785  0.3040 -0.0617
 5756TIP3   OH217273   3.540   5.350   3.204 -0.2445 -0.6136 -0.5534
 5756TIP3    H117274   3.446   5.345   3.218 -0.3458  0.1315 -0.9772
 5756TIP3    H217275   3.566   5.260   3.182 -0.4770 -1.3124  1.8421
 5757TIP3   OH217276   5.316   1.905   3.108 -0.3120  0.2568  0.0006
 5757TIP3    H117277   5.284   1.907   3.018  0.1330  0.7074 -0.1500
 5757TIP3    H217278   5.383   1.837   3.108 -1.0413 -0.4667  0.2406
 5758TIP3   OH217279   6.194   0.080   4.095 -0.1708  0.5317  0.2532
 5758TIP3    H117280   6.248   0.035   4.160 -0.7394 -3.1561 -1.6527
 5758TIP3    H217281   6.160   0.157   4.140  0.6236 -1.1196  3.8382
 5759TIP3   OH217282   6.266   1.133   2.518 -0.0999  0.1710  0.0722
 5759TIP3    H117283   6.246   1.180   2.437  0.8045  0.9002  0.2658
 5759TIP3    H217284   6.337   1.074   2.494 -0.4883 -0.3107  0.1009
 5760TIP3   OH217285   1.056   0.935   3.291  0.5073  0.4730 -0.5270
 5760TIP3    H117286   1.050   0.840   3.283  1.7641  0.4907 -1.9209
 5760TIP3    H217287   1.112   0.950   3.367 -0.6465  0.1141  0.3942
 5761TIP3   OH217288   4.446   2.720   1.207  0.4576 -1.0283 -0.3542
 5761TIP3    H117289   4.363   2.680   1.232  0.5233 -2.3116 -2.1228
 5761TIP3    H217290   4.513   2.660   1.239  0.6713 -0.7648 -0.2972
 5762TIP3   OH217291   6.413   3.004   4.537  0.0429  0.3836  0.2738
 5762TIP3    H117292   6.450   2.921   4.567  1.4424  0.4091 -1.3139
 5762TIP3    H217293   6.334   2.979   4.489  1.3628 -0.1844 -1.6407
 5763TIP3   OH217294   5.659   0.511   5.032 -0.1170 -0.1660 -0.2038
 5763TIP3    H117295   5.637   0.419   5.049 -1.8199  0.2328 -0.1161
 5763TIP3    H217296   5.581   0.559   5.060  1.2595  1.4297  0.9849
 5764TIP3   OH217297   6.070   0.877   4.568 -0.4632  0.1495 -0.4680
 5764TIP3    H117298   6.066   0.783   4.547  1.3304 -0.0449 -0.0956
 5764TIP3    H217299   5.990   0.914   4.531 -1.5187 -1.6463 -0.0250
 5765TIP3   OH217300   4.612   0.320   0.342  0.3613 -0.7232 -0.2018
 5765TIP3    H117301   4.621   0.358   0.429 -0.4551  2.4067 -1.4468
 5765TIP3    H217302   4.681   0.361   0.290  0.5304 -2.1992 -1.1824
 5766TIP3   OH217303   2.377   2.803   0.532  0.5781 -0.0138 -0.1887
 5766TIP3    H117304   2.351   2.888   0.498 -1.0906 -0.2455  0.5047
 5766TIP3    H217305   2.445   2.823   0.596  0.2161  0.7785 -0.0529
 5767TIP3   OH217306   1.802   3.589   0.763 -0.4941 -0.9951 -0.2006
 5767TIP3    H117307   1.807   3.502   0.723 -1.4177 -1.1230 -0.0498
 5767TIP3    H217308   1.761   3.644   0.696 -1.1660 -0.9939  0.1996
 5768TIP3   OH217309   2.156   1.308   3.104  0.2280 -0.2181 -0.1616
 5768TIP3    H117310   2.184   1.218   3.092  2.0851  0.1779  1.0568
 5768TIP3    H217311   2.237   1.359   3.105 -0.6708  1.2245  1.1740
 5769TIP3   OH217312   5.210   4.300   3.607  0.2013  0.4861  0.1834
 5769TIP3    H117313   5.251   4.369   3.554 -0.4447 -1.1996 -2.6371
 5769TIP3    H217314   5.246   4.219   3.571 -1.0804 -0.7491  1.6764
 5770TIP3   OH217315   0.148   1.546   2.999  0.0515 -0.3798  0.0968
 5770TIP3    H117316   0.063   1.507   3.016 -0.8176  1.6093  0.4059
 5770TIP3    H217317   0.177   1.506   2.917 -1.6630 -0.2845 -0.5584
 5771TIP3   OH217318   6.148   0.225   4.732  0.4734  0.9550 -0.1893
 5771TIP3    H117319   6.108   0.312   4.731 -0.4307  0.5735  1.1740
 5771TIP3    H217320   6.111   0.180   4.655  0.7020  1.6629 -0.7121
 5772TIP3   OH217321   0.547   1.840   2.418 -0.1315 -0.2688 -0.2064
 5772TIP3    H117322   0.501   1.819   2.499 -0.9439 -2.3605 -1.1868
 5772TIP3    H217323   0.497   1.912   2.380  0.7305  1.3043  1.5216
 5773TIP3   OH217324   3.283   4.529   3.185  0.4968 -0.0765  0.1332
 5773TIP3    H117325   3.200   4.518   3.231  0.1699  0.4685 -0.3190
 5773TIP3    H217326   3.262   4.585   3.110  1.1826 -0.2976 -0.2318
 5774TIP3   OH217327   3.459   0.409   3.821  0.0261 -0.3116  0.6257
 5774TIP3    H117328   3.398   0.378   3.888 -0.2637  1.4742  1.2362
 5774TIP3    H217329   3.523   0.461   3.869  0.8260 -0.4484 -0.2771
 5775TIP3   OH217330   4.593   5.048   4.838  0.3433 -0.7843 -0.0181
 5775TIP3    H117331   4.605   5.131   4.883  0.4221  0.1440 -1.6861
 5775TIP3    H217332   4.608   4.981   4.905  1.3200  0.5284  1.1005
 5776TIP3   OH217333   4.630   0.221   4.346  0.2631  0.7402 -0.6248
 5776TIP3    H117334   4.606   0.146   4.290  1.0657  0.6478 -0.8482
 5776TIP3    H217335   4.689   0.273   4.292  1.0813  0.6252  0.1589
 5777TIP3   OH217336   5.179   0.063   2.925 -0.2127 -0.1156  0.1185
 5777TIP3    H117337   5.195   0.147   2.968 -3.0263 -0.5514  2.1149
 5777TIP3    H217338   5.147   0.006   2.994  1.2878 -2.7628 -1.3011
 5778TIP3   OH217339   4.118   5.221   5.004 -0.0306 -0.4125  0.1243
 5778TIP3    H117340   4.096   5.212   4.912  1.7704  1.1845 -0.5119
 5778TIP3    H217341   4.077   5.146   5.047 -0.3098 -1.5448 -2.0712
 5779TIP3   OH217342   0.049   0.814   4.400  0.0091  0.0616 -0.4766
 5779TIP3    H117343   0.017   0.732   4.438  3.2389 -0.4419  1.2993
 5779TIP3    H217344   0.027   0.881   4.464 -0.3365  0.1912 -0.7315
 5780TIP3   OH217345   0.885   1.409   0.104  0.2553 -0.0812 -0.2984
 5780TIP3    H117346   0.952   1.445   0.046 -0.1175  0.0538 -0.6474
 5780TIP3    H217347   0.842   1.485   0.142 -0.2921 -0.1505 -0.7600
 5781TIP3   OH217348   5.910   0.678   2.567 -0.2735 -0.1910  0.1985
 5781TIP3    H117349   5.985   0.649   2.514 -0.7425  0.9352 -1.1224
 5781TIP3    H217350   5.841   0.616   2.547  0.1496 -0.9201  1.0052
 5782TIP3   OH217351   4.003   5.892   3.499 -0.2510 -0.4237  0.4206
 5782TIP3    H117352   3.975   5.801   3.503  2.2955 -1.2181  1.8564
 5782TIP3    H217353   4.062   5.896   3.423  0.0675 -0.1314  0.6776
 5783TIP3   OH217354   3.142   4.740   4.092 -0.4970 -0.1309 -0.2913
 5783TIP3    H117355   3.172   4.653   4.066  0.2167 -0.1350  0.5169
 5783TIP3    H217356   3.092   4.771   4.017  0.2961 -0.7276 -1.0893
 5784TIP3   OH217357   5.164   4.836   4.894  0.7234  0.9761  0.1353
 5784TIP3    H117358   5.162   4.929   4.916  1.4494  0.7386  1.2064
 5784TIP3    H217359   5.073   4.815   4.873  0.0757  1.3192  2.4835
 5785TIP3   OH217360   5.920   0.442   2.905 -0.1283  0.1603 -0.0156
 5785TIP3    H117361   5.901   0.350   2.922 -0.0415 -0.0987 -1.2516
 5785TIP3    H217362   5.851   0.490   2.949 -0.0532 -0.4861  0.8152
 5786TIP3   OH217363   0.878   3.027   4.736 -0.1954  0.4170  0.1596
 5786TIP3    H117364   0.805   2.993   4.685 -1.4271  1.6175  1.0867
 5786TIP3    H217365   0.895   3.114   4.700 -1.1272  1.3074  1.8166
 5787TIP3   OH217366   4.494   1.739   3.229  0.1506 -0.1068  0.3706
 5787TIP3    H117367   4.502   1.684   3.308 -0.9286  0.6515  1.0260
 5787TIP3    H217368   4.438   1.688   3.171  0.4389 -0.3966  0.3459
 5788TIP3   OH217369   2.916   3.075   0.033  0.0870  0.5017  0.0803
 5788TIP3    H117370   2.834   3.117   0.059  0.0009 -0.1772  0.9299
 5788TIP3    H217371   2.960   3.140  -0.022 -1.2426  0.6798 -0.7788
 5789TIP3   OH217372   6.379   2.340   1.993 -0.2170 -0.0807 -0.1331
 5789TIP3    H117373   6.382   2.262   1.938 -0.3798 -0.3916  0.2964
 5789TIP3    H217374   6.437   2.402   1.950  0.3842 -0.6525 -0.1487
 5790TIP3   OH217375   2.218   6.053   0.404  0.4450 -0.3200 -0.2531
 5790TIP3    H117376   2.298   6.096   0.433  0.5052  0.1827 -1.1159
 5790TIP3    H217377   2.166   6.124   0.365 -1.7313 -0.0634  2.9588
 5791TIP3   OH217378   0.169   1.679   4.483 -0.6180  0.0726 -0.6209
 5791TIP3    H117379   0.247   1.635   4.516 -1.1473  1.1664  2.1978
 5791TIP3    H217380   0.096   1.621   4.508 -0.9755  0.6243 -0.3749
 5792TIP3   OH217381   5.221   0.688   1.477 -0.0185 -0.2711 -0.3173
 5792TIP3    H117382   5.268   0.613   1.440 -0.7179 -1.2793  0.7857
 5792TIP3    H217383   5.267   0.709   1.558 -1.0356 -0.8532  0.4358
 5793TIP3   OH217384   4.118   3.798   4.218 -0.1808  0.0633 -0.1351
 5793TIP3    H117385   4.074   3.853   4.282 -1.2104 -0.2088 -0.5919
 5793TIP3    H217386   4.184   3.855   4.178  0.3061  0.2999  0.9845
 5794TIP3   OH217387   1.402   0.578   0.448 -0.8360 -0.6592  0.6172
 5794TIP3    H117388   1.491   0.591   0.480 -1.6066  1.9202  1.8094
 5794TIP3    H217389   1.403   0.489   0.410  2.4386 -0.3375 -0.1977
 5795TIP3   OH217390   5.757   1.397   3.594 -0.0828 -0.0599 -0.4805
 5795TIP3    H117391   5.825   1.329   3.599 -0.9358 -0.8860  0.0484
 5795TIP3    H217392   5.692   1.370   3.659 -0.5582  1.1288 -0.4601
 5796TIP3   OH217393   1.145   3.967   0.851  0.2112  0.2252 -0.4961
 5796TIP3    H117394   1.097   4.041   0.889 -0.9315 -0.3292 -0.8619
 5796TIP3    H217395   1.207   4.009   0.791  1.1867  1.0283  1.0308
 5797TIP3   OH217396   2.372   2.303   0.240 -0.1138 -0.1682  0.0234
 5797TIP3    H117397   2.427   2.226   0.223 -0.1737 -0.2673  0.2722
 5797TIP3    H217398   2.314   2.275   0.310  0.6601  0.4789  0.9339
 5798TIP3   OH217399   2.397   3.898   0.772 -0.2350  0.2248  0.3406
 5798TIP3    H117400   2.478   3.853   0.796  0.3097  0.8693 -0.2690
 5798TIP3    H217401   2.347   3.903   0.854  0.5625  0.2822  0.8224
 5799TIP3   OH217402   4.733   5.959   2.949  0.1046  0.3382  0.0732
 5799TIP3    H117403   4.736   5.865   2.935  2.0852  0.5257 -0.8959
 5799TIP3    H217404   4.654   5.988   2.905 -0.8616 -0.9455  0.9367
 5800TIP3   OH217405   3.061   2.843   0.650 -0.3486  0.1336  0.8462
 5800TIP3    H117406   3.035   2.901   0.721 -0.7771  0.8873  0.0848
 5800TIP3    H217407   3.010   2.873   0.575  0.5214 -0.2914  0.0753
 5801TIP3   OH217408   2.729   2.460   0.950 -0.2877  0.0678  0.2032
 5801TIP3    H117409   2.821   2.473   0.973  0.4382 -0.1609 -2.3614
 5801TIP3    H217410   2.682   2.461   1.033  2.0309  0.2456  1.5339
 5802TIP3   OH217411   3.635   5.893   4.690  0.0447 -0.2358 -0.0625
 5802TIP3    H117412   3.585   5.848   4.621  1.5668 -1.8037 -0.1804
 5802TIP3    H217413   3.694   5.826   4.723  0.7422  1.0845  1.3892
 5803TIP3   OH217414   3.728   0.304   0.353  0.1453 -0.1598  0.2612
 5803TIP3    H117415   3.727   0.210   0.373 -1.5580  0.1381  1.6808
 5803TIP3    H217416   3.721   0.309   0.258 -2.0129 -1.4380  0.3309
 5804TIP3   OH217417   4.671   1.036   1.802 -0.0816 -0.7424  0.2015
 5804TIP3    H117418   4.671   1.008   1.710 -0.6008 -1.3623  0.3836
 5804TIP3    H217419   4.605   1.105   1.806 -0.0561 -0.7124  0.1010
 5805TIP3   OH217420   0.663   1.246   2.972  0.1015  0.1710  0.1823
 5805TIP3    H117421   0.570   1.263   2.986 -0.2590  0.4642 -2.2966
 5805TIP3    H217422   0.709   1.315   3.020 -0.9387 -0.1395  1.6447
 5806TIP3   OH217423   3.235   3.063   0.352 -0.0233 -0.8151  0.2750
 5806TIP3    H117424   3.220   3.143   0.301 -2.3273 -1.5888 -0.3045
 5806TIP3    H217425   3.280   3.005   0.291 -0.7142 -0.9116 -0.1426
 5807TIP3   OH217426   0.890   1.143   3.529  0.1544 -0.5134 -0.1225
 5807TIP3    H117427   0.969   1.101   3.563 -0.5108 -0.7554  1.1458
 5807TIP3    H217428   0.875   1.102   3.444  1.8115  0.0656 -0.7191
 5808TIP3   OH217429   0.114   1.465   1.469  0.0184  0.2482  0.2266
 5808TIP3    H117430   0.071   1.380   1.468  0.5886 -0.0388 -0.9601
 5808TIP3    H217431   0.193   1.451   1.520  0.3505 -0.0594 -0.3660
 5809TIP3   OH217432   1.031   2.347   0.081 -0.0629  0.5519 -0.1027
 5809TIP3    H117433   1.111   2.399   0.088 -0.1549  0.6018  0.6212
 5809TIP3    H217434   1.061   2.258   0.061  0.0913  0.8853 -1.4175
 5810TIP3   OH217435   6.184   0.143   1.418 -0.8195 -0.2361 -0.1401
 5810TIP3    H117436   6.192   0.223   1.366 -0.0584 -1.4855 -1.9940
 5810TIP3    H217437   6.095   0.147   1.453 -0.7990  1.4098 -0.2296
 5811TIP3   OH217438   3.283   5.683   3.102  0.0344 -0.2479 -0.0809
 5811TIP3    H117439   3.338   5.616   3.062 -0.8070 -0.2411 -1.2999
 5811TIP3    H217440   3.294   5.671   3.196  2.8246  0.3581 -0.2973
 5812TIP3   OH217441   0.061   0.882   1.797  0.0524 -0.0949  0.0524
 5812TIP3    H117442   0.089   0.889   1.888  0.7920 -0.8621 -0.1099
 5812TIP3    H217443  -0.011   0.818   1.798 -0.5046  0.5294  0.2136
 5813TIP3   OH217444   5.490   5.784   2.038  0.2293 -0.8086 -0.3244
 5813TIP3    H117445   5.412   5.792   2.094 -0.2818 -1.8681 -0.8769
 5813TIP3    H217446   5.504   5.690   2.031  0.7913 -0.6488 -1.3050
 5814TIP3   OH217447   2.327   3.260   0.613  0.0863  0.2973  0.3492
 5814TIP3    H117448   2.404   3.317   0.613  0.6100 -0.4066  0.0651
 5814TIP3    H217449   2.253   3.321   0.613  0.6382  0.9831 -0.0195
 5815TIP3   OH217450   3.984   5.107   2.177 -0.4263 -0.1984  0.0801
 5815TIP3    H117451   3.955   5.156   2.101 -0.8837 -0.7406 -0.0936
 5815TIP3    H217452   4.080   5.105   2.169 -0.6057 -2.9311 -2.1559
 5816TIP3   OH217453   5.118   1.009   2.310  0.1728 -0.2518 -0.2532
 5816TIP3    H117454   5.190   0.995   2.372  1.3314 -0.3583 -1.5928
 5816TIP3    H217455   5.055   1.063   2.358  0.4181 -1.4740  1.4622
 5817TIP3   OH217456   3.242   5.943   4.509  0.2930 -0.0609  1.0567
 5817TIP3    H117457   3.241   5.950   4.604 -1.4686  0.7223  0.9861
 5817TIP3    H217458   3.209   6.027   4.478 -0.5730 -0.8556 -0.2128
 5818TIP3   OH217459   2.239   2.219   0.474  0.0531 -0.3181  0.0704
 5818TIP3    H117460   2.187   2.294   0.504  1.4571  1.0271 -0.7601
 5818TIP3    H217461   2.191   2.142   0.505 -1.2148  0.9328  1.2867
 5819TIP3   OH217462   6.419   1.396   1.207 -0.1877 -0.2303  0.4064
 5819TIP3    H117463   6.481   1.336   1.165  0.7434  0.2579  1.0638
 5819TIP3    H217464   6.460   1.419   1.291 -1.0256  0.4888  0.6330
 5820TIP3   OH217465   6.010   1.317   1.101 -0.0585 -0.8720 -0.0359
 5820TIP3    H117466   5.967   1.338   1.184  0.8705 -1.8490  0.7176
 5820TIP3    H217467   6.023   1.402   1.058 -0.9060 -0.3961  0.6278
 5821TIP3   OH217468   1.019   3.809   1.040  0.7499  0.3034 -0.9293
 5821TIP3    H117469   1.083   3.846   0.980  0.0319  1.8217 -0.7785
 5821TIP3    H217470   0.983   3.884   1.087  2.7664 -0.9986  2.9073
 5822TIP3   OH217471   3.392   1.223   0.456  0.0333 -0.7119  0.0575
 5822TIP3    H117472   3.337   1.145   0.454 -0.9921 -0.0655  1.6634
 5822TIP3    H217473   3.337   1.290   0.498  1.3707  0.4871 -0.0535
 5823TIP3   OH217474   2.833   2.358   1.722  0.1130  0.0756 -0.2053
 5823TIP3    H117475   2.779   2.426   1.681 -1.2346 -0.4301  0.6980
 5823TIP3    H217476   2.852   2.393   1.809 -0.3712 -0.5773  0.1680
 5824TIP3   OH217477   5.666   0.824   5.317 -0.1130 -0.0194  0.4049
 5824TIP3    H117478   5.576   0.840   5.349 -0.2697 -1.0581  0.4929
 5824TIP3    H217479   5.679   0.891   5.250 -1.4404 -0.7005 -0.5462
 5825TIP3   OH217480   4.484   0.783   4.260 -0.3425 -0.2877  0.1831
 5825TIP3    H117481   4.480   0.856   4.199  1.2648  0.7221  1.2347
 5825TIP3    H217482   4.406   0.731   4.242 -1.0718  1.2481 -1.1284
 5826TIP3   OH217483   5.097   1.424   0.080  0.1450 -0.1241 -0.0652
 5826TIP3    H117484   5.054   1.418   0.165 -1.1134  2.1011 -0.4905
 5826TIP3    H217485   5.191   1.418   0.100 -0.1026  0.9220  1.5650
 5827TIP3   OH217486   0.277   1.084   2.554 -0.6281 -0.1772 -0.6175
 5827TIP3    H117487   0.218   1.148   2.515  1.5168  1.4958 -1.2441
 5827TIP3    H217488   0.356   1.134   2.574  0.7979 -2.4675 -0.3378
 5828TIP3   OH217489   6.382   1.356   2.687  0.5234 -0.1061  0.2085
 5828TIP3    H117490   6.382   1.295   2.613  2.3620  0.7414 -0.5232
 5828TIP3    H217491   6.342   1.436   2.653 -0.3020 -0.3165  0.6702
 5829TIP3   OH217492   5.711   1.690   0.643 -0.3711  0.4831 -0.0526
 5829TIP3    H117493   5.652   1.695   0.568 -0.3230 -1.1837 -0.2014
 5829TIP3    H217494   5.775   1.623   0.620 -0.7772 -0.5643  1.7787
 5830TIP3   OH217495   4.666   4.748   2.972  0.1727 -0.2306 -0.4158
 5830TIP3    H117496   4.748   4.699   2.966 -0.6165 -1.6004 -0.1780
 5830TIP3    H217497   4.614   4.700   3.036 -0.0680  1.7472  0.9116
 5831TIP3   OH217498   5.732   0.187   2.616  0.0453 -0.7820 -0.1756
 5831TIP3    H117499   5.743   0.190   2.712  2.5782 -0.6448 -0.4250
 5831TIP3    H217500   5.684   0.106   2.600 -1.2382 -0.3340  1.2852
 5832TIP3   OH217501   4.516   6.065   2.793 -0.4855 -0.1771 -0.8511
 5832TIP3    H117502   4.532   6.107   2.709 -1.5677 -0.4256 -1.1906
 5832TIP3    H217503   4.421   6.074   2.807 -0.3028 -0.0283  0.3906
 5833TIP3   OH217504   2.423   0.206   2.286 -0.3963 -0.3393 -0.6489
 5833TIP3    H117505   2.401   0.114   2.267 -0.9638 -0.3142 -0.1056
 5833TIP3    H217506   2.349   0.256   2.253 -0.1875 -0.0892 -0.7409
 5834TIP3   OH217507   6.034   4.830   4.692 -0.3126 -0.7224 -0.4137
 5834TIP3    H117508   6.036   4.784   4.776 -2.5721 -0.8293 -0.4013
 5834TIP3    H217509   6.123   4.864   4.682 -0.0969 -0.4268  2.1697
 5835TIP3   OH217510   0.970   0.869   2.750  0.4349  0.1000 -0.1130
 5835TIP3    H117511   0.950   0.870   2.843  0.7081  0.5630 -0.0605
 5835TIP3    H217512   1.013   0.953   2.733 -0.1983  0.2946 -0.7811
 5836TIP3   OH217513   5.573   1.350   3.776 -0.1104 -0.4378 -0.7171
 5836TIP3    H117514   5.526   1.428   3.803 -0.5992 -1.0650  0.2980
 5836TIP3    H217515   5.604   1.311   3.857  0.3705 -1.1457 -1.2292
 5837TIP3   OH217516   0.647   1.162   2.435  0.2976 -0.4633  0.4141
 5837TIP3    H117517   0.704   1.195   2.505  0.0557  1.0927 -0.1095
 5837TIP3    H217518   0.661   1.067   2.436  1.9288 -0.2409  1.1386
 5838TIP3   OH217519   3.735   4.085   3.073 -0.2063 -0.1099  0.1254
 5838TIP3    H117520   3.795   4.158   3.088 -1.1557  0.5777  0.6451
 5838TIP3    H217521   3.792   4.012   3.048  0.6596  1.1591 -1.7849
 5839TIP3   OH217522   1.473   0.723   2.208  0.6912 -0.5435  0.2876
 5839TIP3    H117523   1.378   0.712   2.202  0.7973 -1.7893  0.7819
 5839TIP3    H217524   1.486   0.779   2.284  0.3112  0.2127 -0.2036
 5840TIP3   OH217525   1.862   1.029   2.550  0.5044  0.4453 -0.3876
 5840TIP3    H117526   1.949   1.053   2.519  1.3042 -1.2250  0.4932
 5840TIP3    H217527   1.832   0.961   2.489  0.0626  0.6139 -0.3576
 5841TIP3   OH217528   1.940   5.876   3.652 -0.4619 -0.3420 -0.0610
 5841TIP3    H117529   2.022   5.916   3.624  1.0629 -2.3331  1.4034
 5841TIP3    H217530   1.939   5.887   3.747 -1.6648 -0.7535 -0.0173
 5842TIP3   OH217531   5.984   2.878   2.825  0.1219  0.2533 -0.3000
 5842TIP3    H117532   5.889   2.885   2.837  0.2275 -0.9081  1.3202
 5842TIP3    H217533   6.012   2.968   2.807 -1.3854  0.4872 -1.6996
 5843TIP3   OH217534   0.413   5.284   5.305  0.6006  0.5519 -0.0758
 5843TIP3    H117535   0.385   5.367   5.345 -1.4389 -0.1151 -0.0285
 5843TIP3    H217536   0.360   5.277   5.225  0.9237 -0.5882 -0.2025
 5844TIP3   OH217537   2.322   0.585   3.365  0.7319 -0.3496 -0.2292
 5844TIP3    H117538   2.306   0.514   3.303  0.6046 -1.5584  1.1626
 5844TIP3    H217539   2.393   0.554   3.420  0.5919  0.5485  0.4711
 5845TIP3   OH217540   0.708   1.328   4.175  0.0525  0.5416 -0.1980
 5845TIP3    H117541   0.724   1.322   4.081  3.5412 -0.6039  0.3979
 5845TIP3    H217542   0.726   1.420   4.196  2.9317  0.0294 -0.1307
 5846TIP3   OH217543   1.704   0.854   2.894 -0.2931  0.1682  0.3988
 5846TIP3    H117544   1.624   0.815   2.929  0.1153  0.3815  1.6115
 5846TIP3    H217545   1.730   0.796   2.822 -0.9535 -0.5055  0.7002
 5847TIP3   OH217546  -0.012   1.272   0.563  0.0185 -0.1012 -0.4382
 5847TIP3    H117547   0.036   1.347   0.527  0.8229  1.0718  2.9442
 5847TIP3    H217548   0.050   1.231   0.624 -2.2145 -0.4072  1.6809
 5848TIP3   OH217549   0.082   0.494   2.309  0.4873  0.4465  0.6925
 5848TIP3    H117550   0.105   0.412   2.353 -0.4358 -0.6485 -0.7931
 5848TIP3    H217551   0.051   0.466   2.223 -0.8752  2.2866  0.5683
 5849TIP3   OH217552   6.162   1.463   3.227 -0.3001  0.6095 -0.0306
 5849TIP3    H117553   6.189   1.542   3.180 -0.9758  1.7058  1.4240
 5849TIP3    H217554   6.210   1.466   3.310 -0.5276 -0.3848  0.1502
 5850TIP3   OH217555   3.585   4.567   4.593 -0.0676 -0.1992 -0.0416
 5850TIP3    H117556   3.626   4.647   4.560 -0.5510 -1.1452 -3.0950
 5850TIP3    H217557   3.547   4.593   4.677  1.6831  2.1953  0.0706
 5851TIP3   OH217558   2.384   4.095   2.365 -0.2986 -0.1559  0.3034
 5851TIP3    H117559   2.401   4.043   2.443 -0.5175 -0.8094 -0.0780
 5851TIP3    H217560   2.439   4.055   2.297 -1.2109 -0.5095 -0.2353
 5852TIP3   OH217561   5.909   5.539   2.604  0.2723 -0.7944  0.2971
 5852TIP3    H117562   6.002   5.534   2.626  0.6968 -0.3000 -1.2863
 5852TIP3    H217563   5.902   5.614   2.545 -1.4079  0.1838  1.6773
 5853TIP3   OH217564   6.130   4.756   2.082  0.1230  0.3471 -0.0428
 5853TIP3    H117565   6.090   4.719   2.160 -0.7361  0.0596 -0.6034
 5853TIP3    H217566   6.112   4.850   2.088  1.1586  0.5020  0.7259
 5854TIP3   OH217567   5.876   1.177  -0.030  0.2727 -0.5807  0.2481
 5854TIP3    H117568   5.969   1.164  -0.013  0.1660 -0.5548  0.8792
 5854TIP3    H217569   5.833   1.141   0.048 -0.0645  2.8615  1.7435
 5855TIP3   OH217570   0.020   4.232   4.735 -0.3057  0.1145 -0.5364
 5855TIP3    H117571   0.049   4.212   4.824 -2.0982 -0.4550 -0.0672
 5855TIP3    H217572  -0.028   4.154   4.707 -1.4929  1.0890 -1.2534
 5856TIP3   OH217573   1.428   0.815   4.970 -0.3698 -0.0287  0.5227
 5856TIP3    H117574   1.450   0.906   4.947  0.6373 -0.7925 -1.6726
 5856TIP3    H217575   1.403   0.775   4.887 -1.0424 -1.7158  1.5174
 5857TIP3   OH217576   0.310   0.076   4.819 -0.2584  0.3400  0.6153
 5857TIP3    H117577   0.219   0.086   4.790 -0.1535  2.9311  1.0927
 5857TIP3    H217578   0.308   0.001   4.878 -1.7280 -0.7620 -0.7788
 5858TIP3   OH217579   1.277   1.863   3.024 -0.7944 -0.1196  0.0337
 5858TIP3    H117580   1.334   1.865   3.101  0.9292  1.7830 -1.2253
 5858TIP3    H217581   1.251   1.772   3.015  1.5945 -0.9464  1.0218
 5859TIP3   OH217582   6.309   0.655   2.891 -0.1394  0.3125 -0.4492
 5859TIP3    H117583   6.398   0.621   2.896 -0.2903 -0.2164 -1.3001
 5859TIP3    H217584   6.319   0.750   2.903  0.3497  0.0693  1.2558
 5860TIP3   OH217585   6.059   0.272   4.313 -0.1130  0.1281  0.2506
 5860TIP3    H117586   5.993   0.223   4.362  0.4784  0.4059  1.3430
 5860TIP3    H217587   6.064   0.356   4.357  0.8095  0.1917  0.0351
 5861TIP3   OH217588   5.598   6.071   2.107  0.2600  0.0946 -0.1057
 5861TIP3    H117589   5.617   6.098   2.197 -0.0000  0.2143 -0.0868
 5861TIP3    H217590   5.517   6.020   2.114  0.3211 -0.0227 -0.2500
 5862TIP3   OH217591   0.966   1.647   3.961 -1.0327  0.0857 -0.4995
 5862TIP3    H117592   0.975   1.573   3.901 -0.4022  0.5132 -0.9368
 5862TIP3    H217593   1.055   1.667   3.988 -1.2520  0.3573  0.0176
 5863TIP3   OH217594   5.868   4.894   2.444  0.3595 -0.0802  0.0909
 5863TIP3    H117595   5.780   4.929   2.441  0.5514  0.4864  0.9135
 5863TIP3    H217596   5.914   4.949   2.507  0.9101 -1.2319  0.7129
 5864TIP3   OH217597   0.832   0.603   1.236  0.2307  0.1023 -0.4251
 5864TIP3    H117598   0.767   0.555   1.185 -0.0930 -1.0448  1.0416
 5864TIP3    H217599   0.904   0.542   1.247 -0.8766 -0.7606  2.8956
 5865TIP3   OH217600   3.537   2.382   4.648  0.2213  0.6549 -0.2885
 5865TIP3    H117601   3.620   2.393   4.695 -0.3607  1.0779  0.6481
 5865TIP3    H217602   3.538   2.290   4.620  0.7192  0.4792  0.2915
 5866TIP3   OH217603   1.487   4.975   4.955 -0.3460  0.0799  0.5050
 5866TIP3    H117604   1.456   5.052   4.909  1.5397 -0.8189 -2.3853
 5866TIP3    H217605   1.409   4.920   4.967 -0.7490  0.0163 -2.2807
 5867TIP3   OH217606   0.760   5.974   0.710  0.1450 -0.4800 -0.3160
 5867TIP3    H117607   0.844   5.929   0.701  0.7548  0.7251 -0.7759
 5867TIP3    H217608   0.694   5.904   0.705  1.0697 -1.3026 -1.0844
 5868TIP3   OH217609   4.774   5.178   0.864 -0.4983  0.5944 -0.1365
 5868TIP3    H117610   4.814   5.235   0.798  2.1129  0.1608  1.0029
 5868TIP3    H217611   4.769   5.231   0.943 -0.6022  0.1224  0.1804
 5869TIP3   OH217612   5.778   5.304   3.978  0.0184 -0.2192  0.4185
 5869TIP3    H117613   5.776   5.334   4.069  0.7471 -0.6376  0.5781
 5869TIP3    H217614   5.849   5.240   3.975 -0.4845 -0.7556 -0.2785
 5870TIP3   OH217615   3.948   1.335   4.869  0.2103  0.0048  0.3480
 5870TIP3    H117616   3.983   1.329   4.958  0.9793 -1.6291 -0.0505
 5870TIP3    H217617   3.879   1.268   4.866  0.2311  0.0154 -0.3048
 5871TIP3   OH217618   2.868   0.186   4.709 -0.8798 -0.5979 -0.2148
 5871TIP3    H117619   2.886   0.228   4.793  0.4620 -0.6608 -0.4620
 5871TIP3    H217620   2.954   0.178   4.667 -1.3836 -1.6774 -1.0675
 5872TIP3   OH217621   5.977   5.890   3.184 -0.1329 -0.1501 -0.4653
 5872TIP3    H117622   5.964   5.980   3.155 -1.4389 -0.2217 -0.1400
 5872TIP3    H217623   6.052   5.859   3.134 -1.3400  0.2486 -2.5973
 5873TIP3   OH217624   5.010   0.697   4.388 -0.2927  0.4101 -0.4354
 5873TIP3    H117625   4.920   0.683   4.360 -0.6590 -1.2014  1.3987
 5873TIP3    H217626   5.009   0.783   4.429 -0.7780  0.8078 -1.2792
 5874TIP3   OH217627   1.444   1.606   0.627 -0.4361 -0.4974  0.2028
 5874TIP3    H117628   1.368   1.656   0.597 -1.5967 -0.3419  3.2198
 5874TIP3    H217629   1.409   1.520   0.649  0.2288 -0.4334  1.5951
 5875TIP3   OH217630   4.942   3.454   1.700  0.3776 -0.9461  0.5672
 5875TIP3    H117631   5.026   3.416   1.724  1.2538  0.0931 -0.7723
 5875TIP3    H217632   4.933   3.436   1.607  0.4327  1.3286  0.0843
 5876TIP3   OH217633   3.741   5.423   2.217 -0.2172  0.5729  0.4192
 5876TIP3    H117634   3.710   5.337   2.189  0.0124  0.5239  0.3200
 5876TIP3    H217635   3.737   5.420   2.313  0.7493  0.0988  0.4456
 5877TIP3   OH217636   0.839   4.746   5.042  0.2118  0.1950 -0.2307
 5877TIP3    H117637   0.896   4.759   5.118 -2.1436 -0.2666  1.6902
 5877TIP3    H217638   0.815   4.654   5.047 -0.4503  0.3185 -1.1986
 5878TIP3   OH217639   4.666   1.902  -0.008  0.0762 -0.6797 -0.4079
 5878TIP3    H117640   4.700   1.952   0.066  2.2514 -1.9743 -0.4877
 5878TIP3    H217641   4.599   1.846   0.030 -2.2399  2.0442 -0.2776
 5879TIP3   OH217642   0.191   5.398   1.230 -1.0528  0.0359 -0.2802
 5879TIP3    H117643   0.123   5.397   1.297 -0.7337 -5.2299  0.1456
 5879TIP3    H217644   0.273   5.397   1.279 -0.7203  1.4411 -0.7898
 5880TIP3   OH217645   6.209   3.171   0.889 -0.0427 -0.4008 -0.1036
 5880TIP3    H117646   6.130   3.184   0.942  0.3773 -1.5668  0.8449
 5880TIP3    H217647   6.203   3.080   0.861 -0.2186  0.1941 -2.0223
 5881TIP3   OH217648   2.483   0.863   4.955  0.3044 -0.1692 -0.5250
 5881TIP3    H117649   2.467   0.892   5.045  2.0200  0.3257 -0.3639
 5881TIP3    H217650   2.531   0.936   4.915 -0.0301 -0.5883 -1.6971
 5882TIP3   OH217651   1.998   5.018   1.871  0.3949  0.1432  0.0859
 5882TIP3    H117652   2.067   5.031   1.806 -0.3719  1.9769 -0.3818
 5882TIP3    H217653   1.982   5.105   1.907 -2.0074 -0.1637 -0.1561
 5883TIP3   OH217654   0.135   4.856   1.369  0.2232 -0.2196 -0.0029
 5883TIP3    H117655   0.113   4.898   1.286 -1.4384 -1.5563 -0.2739
 5883TIP3    H217656   0.229   4.840   1.364  0.3514  0.7769 -1.1109
 5884TIP3   OH217657   6.227   3.492  -0.010  0.0539 -0.1037 -0.5026
 5884TIP3    H117658   6.137   3.522   0.000 -0.1259 -0.7574 -0.0674
 5884TIP3    H217659   6.223   3.398   0.011  1.0599  0.1336  0.8404
 5885TIP3   OH217660   5.967   4.591   1.532 -0.4141  0.2721 -0.3342
 5885TIP3    H117661   6.043   4.534   1.520  0.3158  0.7349  1.8797
 5885TIP3    H217662   6.004   4.679   1.542 -1.1445  0.3412  1.9234
 5886TIP3   OH217663   0.045   3.683   1.421 -0.1267 -0.5052 -0.0529
 5886TIP3    H117664  -0.009   3.607   1.403  0.8853 -0.6367 -2.8323
 5886TIP3    H217665   0.104   3.655   1.491 -0.1431 -2.0860 -0.6627
 5887TIP3   OH217666   3.420   0.542   5.037  0.4059  0.0939  0.3566
 5887TIP3    H117667   3.426   0.531   4.942  0.9589  0.4224  0.3467
 5887TIP3    H217668   3.330   0.519   5.058  0.5234 -0.8851 -0.1269
 5888TIP3   OH217669   0.092   4.032   0.488 -0.3255 -0.4078  0.9378
 5888TIP3    H117670   0.111   4.102   0.425 -1.2540 -2.7654 -2.0981
 5888TIP3    H217671  -0.000   4.045   0.511 -0.0845  0.2483  1.5350
 5889TIP3   OH217672   0.621   1.700   5.211 -0.9306  0.1960  0.0450
 5889TIP3    H117673   0.567   1.776   5.231 -0.8958  0.0708  0.6186
 5889TIP3    H217674   0.698   1.735   5.167 -0.6030  0.5565  0.9010
 5890TIP3   OH217675   3.765   4.290   1.333  0.1093 -0.0528 -0.4444
 5890TIP3    H117676   3.677   4.312   1.362 -0.4851 -0.3773 -1.9783
 5890TIP3    H217677   3.808   4.255   1.411 -1.3123 -0.4951  0.1487
 5891TIP3   OH217678   6.032   5.849   2.116 -0.4121  0.1348  0.5185
 5891TIP3    H117679   6.076   5.775   2.159 -0.6774 -0.4458 -0.1864
 5891TIP3    H217680   5.976   5.886   2.184 -0.2411 -0.2931  0.8968
 5892TIP3   OH217681   3.233   0.238   0.185  0.0617 -0.0149  0.0357
 5892TIP3    H117682   3.184   0.224   0.104  0.2650 -0.4345 -0.0147
 5892TIP3    H217683   3.222   0.156   0.234 -0.9533  0.6333  0.9044
 5893TIP3   OH217684   3.708   6.033   1.374 -0.2613  0.3576  0.1918
 5893TIP3    H117685   3.756   6.045   1.292  0.2159 -0.3010  0.3691
 5893TIP3    H217686   3.625   6.079   1.360 -1.4787 -2.2499 -1.7815
 5894TIP3   OH217687   0.872   5.137   3.793 -0.0188  0.5751  0.3607
 5894TIP3    H117688   0.791   5.092   3.770  1.3086 -1.6730 -0.0626
 5894TIP3    H217689   0.862   5.158   3.886 -0.8954 -0.1270  0.4370
 5895TIP3   OH217690   1.388   6.052   5.274 -0.1358 -0.1515 -0.2237
 5895TIP3    H117691   1.386   6.069   5.368  1.5015 -2.3247  0.2389
 5895TIP3    H217692   1.349   5.965   5.264 -2.2669  0.9393 -1.8071
 5896TIP3   OH217693   4.177   1.395   3.830 -0.7215 -0.0904  0.1986
 5896TIP3    H117694   4.254   1.449   3.809 -0.3222 -0.6252  0.2959
 5896TIP3    H217695   4.195   1.362   3.918 -0.4668 -1.2692 -0.2871
 5897TIP3   OH217696   3.387   5.088   0.545  0.2015 -0.8076  0.4571
 5897TIP3    H117697   3.391   5.041   0.461  0.2017 -1.6191  0.8998
 5897TIP3    H217698   3.425   5.027   0.608  0.1884 -0.2056  1.0531
 5898TIP3   OH217699   5.862   4.948   0.491 -0.2752 -0.4499  0.0865
 5898TIP3    H117700   5.854   4.930   0.584  1.6151  0.6694  0.4901
 5898TIP3    H217701   5.930   4.887   0.461  1.8720  1.7821  0.2541
 5899TIP3   OH217702   6.369   4.727   3.855  0.0895  0.0188 -0.5641
 5899TIP3    H117703   6.302   4.790   3.830  0.7741  0.9754 -0.0213
 5899TIP3    H217704   6.341   4.696   3.942  0.1988  0.2011 -0.4639
 5900TIP3   OH217705   5.109   3.256   2.254  0.3135 -0.1625  0.7637
 5900TIP3    H117706   5.091   3.278   2.346  0.8943  0.4051  0.7476
 5900TIP3    H217707   5.204   3.269   2.245 -0.0558  1.9806 -0.4978
 5901TIP3   OH217708   6.282   1.915   5.307 -0.1972  0.0851  0.1243
 5901TIP3    H117709   6.302   1.961   5.225  2.7591  1.7525  1.6804
 5901TIP3    H217710   6.268   1.985   5.371  2.0970 -1.0990  2.0285
 5902TIP3   OH217711   5.060   0.136   4.373 -0.3402 -0.1368 -0.4240
 5902TIP3    H117712   5.074   0.195   4.447  0.2837  1.9156 -2.1283
 5902TIP3    H217713   4.993   0.074   4.403  0.8808 -0.2029  2.3083
 5903TIP3   OH217714   3.853   0.398   3.990 -0.1461 -0.1833 -0.3121
 5903TIP3    H117715   3.888   0.436   4.070 -1.2375  0.0850  0.0426
 5903TIP3    H217716   3.857   0.304   4.004  2.8260 -0.2644 -1.2988
 5904TIP3   OH217717   0.341   5.908   5.017 -0.9432  0.4154  0.3126
 5904TIP3    H117718   0.288   5.963   5.075 -0.7030  1.2821 -0.2662
 5904TIP3    H217719   0.397   5.971   4.971  1.0295 -0.5457  1.3769
 5905TIP3   OH217720   3.591   2.549   1.376  0.0439 -0.1268  0.2804
 5905TIP3    H117721   3.525   2.543   1.306  0.6531 -1.2744 -0.2053
 5905TIP3    H217722   3.540   2.549   1.457 -0.5586 -1.0583 -0.0878
 5906TIP3   OH217723   0.298   4.025   0.895  0.1568  0.2203 -0.0015
 5906TIP3    H117724   0.362   4.079   0.848  1.4138  0.0096  1.4208
 5906TIP3    H217725   0.266   3.963   0.829 -0.0952  1.6280 -1.2376
 5907TIP3   OH217726   5.272   5.559   1.214  0.0771  0.5430 -0.0860
 5907TIP3    H117727   5.276   5.573   1.119 -1.3471  0.8648 -0.1096
 5907TIP3    H217728   5.332   5.487   1.231  0.8136  0.9037 -1.1546
 5908TIP3   OH217729   5.355   3.745   4.424 -0.4861 -0.5468 -0.1038
 5908TIP3    H117730   5.430   3.723   4.480  0.3351  0.8385 -0.6272
 5908TIP3    H217731   5.365   3.687   4.348  0.5326  0.1796 -0.5437
 5909TIP3   OH217732   5.010   0.459   1.334  0.0807  0.2703 -0.0784
 5909TIP3    H117733   4.962   0.541   1.327 -0.4624  0.0822  1.3025
 5909TIP3    H217734   4.996   0.430   1.424  1.5307 -0.5660 -0.0950
 5910TIP3   OH217735   4.589   5.978   0.184 -0.5456  0.0370 -0.2152
 5910TIP3    H117736   4.505   6.003   0.145 -2.0076 -1.9177  1.5843
 5910TIP3    H217737   4.584   5.883   0.194  1.3985  0.0351  1.0040
 5911TIP3   OH217738   3.181   2.001   5.271 -0.2651  0.1433 -0.8569
 5911TIP3    H117739   3.235   1.968   5.200 -0.9471 -0.7757 -0.9609
 5911TIP3    H217740   3.238   2.062   5.319  0.8114 -0.7205 -1.0267
 5912TIP3   OH217741   5.807   1.683   1.101 -0.3708 -0.2654 -0.1584
 5912TIP3    H117742   5.886   1.682   1.154 -0.4476 -0.8679 -0.0480
 5912TIP3    H217743   5.826   1.623   1.028 -1.0719 -1.1974  0.3982
 5913TIP3   OH217744   2.642   4.579   0.210  0.3543  0.5377  0.4437
 5913TIP3    H117745   2.674   4.560   0.121  0.3586  0.4526  0.4638
 5913TIP3    H217746   2.709   4.543   0.268  0.0450  0.0376  0.4920
 5914TIP3   OH217747   3.756   4.120   0.933  0.1147 -0.0054 -0.6299
 5914TIP3    H117748   3.832   4.077   0.972 -2.7316 -2.5484  2.4065
 5914TIP3    H217749   3.745   4.200   0.984  0.0671 -0.2622 -0.2294
 5915TIP3   OH217750   6.062   1.273   1.992 -0.3630  0.0029 -0.1645
 5915TIP3    H117751   6.000   1.221   1.942  0.3544 -0.4200 -0.6349
 5915TIP3    H217752   6.014   1.352   2.017 -1.0109 -0.2100 -0.7288
 5916TIP3   OH217753   1.363   0.520   1.372  0.4385 -0.7614  0.1617
 5916TIP3    H117754   1.375   0.582   1.300  1.5233 -0.7971  0.3025
 5916TIP3    H217755   1.450   0.509   1.409  0.2367 -2.3148  0.2004
 5917TIP3   OH217756   2.960   0.074   5.112 -0.3002  0.1683 -0.5866
 5917TIP3    H117757   3.006  -0.002   5.076  0.3072  0.3388 -0.1935
 5917TIP3    H217758   2.976   0.144   5.049 -1.5413 -0.2318 -1.3586
 5918TIP3   OH217759   3.943   5.175   5.303 -0.0485 -1.0337  0.2048
 5918TIP3    H117760   3.941   5.096   5.249 -2.6347 -1.3825  0.7273
 5918TIP3    H217761   3.876   5.232   5.264  1.3142  0.6189  0.2480
 5919TIP3   OH217762   4.976   5.273   0.461 -0.4246 -0.5403 -0.3106
 5919TIP3    H117763   4.926   5.329   0.521  0.9857  0.6601 -0.2034
 5919TIP3    H217764   4.935   5.287   0.376 -1.3274 -0.8763  0.0612
 5920TIP3   OH217765   0.712   5.909   2.363  0.0226 -0.5665  0.0309
 5920TIP3    H117766   0.636   5.904   2.420 -0.2404  2.1300 -0.0365
 5920TIP3    H217767   0.680   5.877   2.278 -0.8247 -0.1703  0.1965
 5921TIP3   OH217768   0.013   3.978   0.873 -0.2226  0.6192 -0.1203
 5921TIP3    H117769  -0.015   3.929   0.796 -0.6346  1.6183 -0.6151
 5921TIP3    H217770   0.105   3.957   0.883 -0.0401  0.8888 -1.1907
 5922TIP3   OH217771   5.142   0.049   3.565 -0.4025  0.3299  0.3794
 5922TIP3    H117772   5.204  -0.020   3.589 -1.5418 -0.8721 -0.1214
 5922TIP3    H217773   5.186   0.096   3.493  0.9666  1.0141  1.6323
 5923TIP3   OH217774   2.740   4.039   1.188 -0.0134  0.2177  0.6492
 5923TIP3    H117775   2.693   4.068   1.110 -0.4440 -0.1782  0.7537
 5923TIP3    H217776   2.671   4.028   1.254 -0.2594 -3.5346 -0.0952
 5924TIP3   OH217777   1.883   3.060   1.462 -0.4193 -0.0092 -0.7792
 5924TIP3    H117778   1.826   3.126   1.423 -1.0985  0.8237  1.5069
 5924TIP3    H217779   1.939   3.110   1.522  0.9469 -1.1599 -1.0703
 5925TIP3   OH217780   3.025   5.967   4.894  0.2281  0.1542 -0.3485
 5925TIP3    H117781   2.995   5.998   4.809 -1.1709  3.0156  1.1256
 5925TIP3    H217782   2.957   5.993   4.956  1.5236 -1.2592  1.7717
 5926TIP3   OH217783  -0.031   4.991   0.430 -0.1750  0.1466  0.0710
 5926TIP3    H117784   0.056   4.961   0.457 -0.4529 -1.3039 -0.5685
 5926TIP3    H217785  -0.017   5.036   0.347  0.1637  1.2374  0.7152
 5927TIP3   OH217786   0.169   4.780   0.643 -0.6937  0.8064 -0.3545
 5927TIP3    H117787   0.182   4.851   0.581 -0.8364  0.2056 -1.0727
 5927TIP3    H217788   0.081   4.747   0.623 -0.0045 -0.6171 -1.0830
 5928TIP3   OH217789   1.459   4.289   0.214 -0.4448  0.1884  0.3567
 5928TIP3    H117790   1.466   4.199   0.246  0.4728  0.0861 -0.1131
 5928TIP3    H217791   1.499   4.287   0.127  0.5140  1.2686  0.7573
 5929TIP3   OH217792   0.162   4.947   1.633  0.5693  0.4248  0.3283
 5929TIP3    H117793   0.160   4.939   1.538  1.5765  0.3166  0.3181
 5929TIP3    H217794   0.117   5.029   1.651 -1.4679 -0.5467 -0.1108
 5930TIP3   OH217795   1.532   0.773   4.051 -0.4565  0.6248  0.0272
 5930TIP3    H117796   1.533   0.678   4.059 -0.4437  0.5371 -1.0033
 5930TIP3    H217797   1.606   0.802   4.106  0.4437 -0.0518 -0.8225
 5931TIP3   OH217798   4.962   3.252   3.479  0.2474 -0.1480  0.1095
 5931TIP3    H117799   4.985   3.335   3.521 -1.0644  0.3228 -0.0704
 5931TIP3    H217800   4.874   3.267   3.443  0.2336 -1.4318 -0.4168
 5932TIP3   OH217801   0.929   4.625   2.318 -0.1351  0.4415 -0.4982
 5932TIP3    H117802   0.855   4.617   2.259  0.9872  0.1983 -1.9045
 5932TIP3    H217803   0.982   4.696   2.282  1.3056 -0.6722 -0.6479
 5933TIP3   OH217804   6.238   2.685   0.071  0.2928  0.5578 -0.1110
 5933TIP3    H117805   6.328   2.670   0.043 -0.3475 -0.5941 -1.6038
 5933TIP3    H217806   6.225   2.627   0.146 -0.3138 -1.9902 -2.1435
 5934TIP3   OH217807   4.385   0.930   0.372 -0.5059  0.5083  0.7043
 5934TIP3    H117808   4.355   0.882   0.294  0.6886  1.8503 -0.6238
 5934TIP3    H217809   4.473   0.896   0.387  0.3984  2.3378 -0.3229
 5935TIP3   OH217810   2.073   4.749   0.324 -0.3719 -0.2950  0.0843
 5935TIP3    H117811   2.082   4.780   0.234 -0.7566 -0.5074 -0.0304
 5935TIP3    H217812   1.981   4.724   0.331 -0.5261  0.4717  0.7749
 5936TIP3   OH217813   0.283   2.404   5.157  0.2751 -0.1027 -0.5772
 5936TIP3    H117814   0.344   2.400   5.084 -2.1424  1.6530 -2.7733
 5936TIP3    H217815   0.332   2.446   5.227  2.6072 -1.7383 -1.1755
 5937TIP3   OH217816   0.844   3.877   2.452 -0.7360  0.4554 -0.6651
 5937TIP3    H117817   0.764   3.824   2.455 -0.9779  0.8595  0.2661
 5937TIP3    H217818   0.853   3.911   2.541  0.5290  0.3374 -0.7468
 5938TIP3   OH217819   0.937   6.126   3.489 -0.3368 -0.2371 -0.5716
 5938TIP3    H117820   0.911   6.091   3.404  1.3607  0.7787 -1.5389
 5938TIP3    H217821   0.998   6.062   3.524  0.9628  0.5852 -1.2956
 5939TIP3   OH217822   4.033   3.203   5.067 -0.1508 -0.1334  0.0267
 5939TIP3    H117823   4.075   3.199   4.981  2.1696  1.0658  1.0424
 5939TIP3    H217824   3.977   3.280   5.063 -1.1844 -0.9252 -0.8884
 5940TIP3   OH217825   0.411   3.775   0.469  0.2028  0.1868 -0.1398
 5940TIP3    H117826   0.347   3.805   0.533  0.4308  0.9690 -0.2692
 5940TIP3    H217827   0.451   3.697   0.509  0.2840  0.6183  0.6244
 5941TIP3   OH217828   4.384   2.058   4.953 -0.1250 -0.3900 -0.2051
 5941TIP3    H117829   4.353   1.971   4.975 -0.6859 -0.0818  0.2252
 5941TIP3    H217830   4.372   2.065   4.858  1.9748 -1.5885 -0.5941
 5942TIP3   OH217831   0.536   2.702   2.533  0.6485  0.8210  0.0553
 5942TIP3    H117832   0.479   2.724   2.459 -0.2433 -0.1001  0.4537
 5942TIP3    H217833   0.522   2.772   2.596  1.9369  1.9852 -0.9214
 5943TIP3   OH217834   1.058   5.234   1.310 -0.9051  0.2473  0.6573
 5943TIP3    H117835   1.120   5.162   1.318 -1.0264 -0.1451 -1.5570
 5943TIP3    H217836   1.089   5.300   1.371  0.6158 -0.6964  0.9231
 5944TIP3   OH217837   6.097   0.778   5.076 -0.0987 -0.0423 -0.8692
 5944TIP3    H117838   6.148   0.769   4.996  1.0975  1.6542 -0.3132
 5944TIP3    H217839   6.006   0.785   5.045  0.2612 -0.2276 -2.0080
 5945TIP3   OH217840   1.802   3.740   1.009 -0.2005 -0.0226  0.2595
 5945TIP3    H117841   1.755   3.670   1.055  1.3136 -0.5496  1.0281
 5945TIP3    H217842   1.825   3.702   0.924 -2.8398  0.8921 -0.9343
 5946TIP3   OH217843   5.854   3.203   4.045 -0.0596  0.1411 -0.2286
 5946TIP3    H117844   5.908   3.124   4.041  1.0702  0.8781  0.2088
 5946TIP3    H217845   5.913   3.274   4.020 -1.0259  0.8745 -0.4695
 5947TIP3   OH217846   1.985   6.144   4.611 -0.0127 -0.3514  0.1822
 5947TIP3    H117847   1.963   6.053   4.633  3.1660 -0.8406  1.5860
 5947TIP3    H217848   2.017   6.181   4.693  0.7944  1.3921 -0.9042
 5948TIP3   OH217849   3.611   0.985   5.122  0.1964 -0.1484  0.4967
 5948TIP3    H117850   3.575   0.899   5.146  0.1837 -0.6999 -1.4045
 5948TIP3    H217851   3.697   0.965   5.084 -0.8010  0.4365 -2.1450
 5949TIP3   OH217852   4.592   1.970   4.253 -0.2485 -0.2785  0.0414
 5949TIP3    H117853   4.595   1.874   4.250  0.8143 -0.2260 -1.0547
 5949TIP3    H217854   4.684   1.997   4.248 -0.5517  0.7973  0.1883
 5950TIP3   OH217855   3.765   1.585   4.646  0.3526 -0.1041  0.7175
 5950TIP3    H117856   3.762   1.501   4.601 -0.6037  0.5138 -0.3970
 5950TIP3    H217857   3.674   1.601   4.673  0.5792  0.4468  1.1622
 5951TIP3   OH217858   2.113   4.484   0.010  0.1613 -0.3420  0.5517
 5951TIP3    H117859   2.069   4.415  -0.039 -1.5095  0.6036  0.6768
 5951TIP3    H217860   2.199   4.448   0.031 -0.4286 -2.1003  0.0023
 5952TIP3   OH217861   1.850   3.422   0.284 -0.4171 -0.1270 -0.2979
 5952TIP3    H117862   1.863   3.333   0.319  1.1799  0.4822  0.7282
 5952TIP3    H217863   1.762   3.421   0.248 -0.2526 -2.2703 -0.7032
 5953TIP3   OH217864   0.485   5.202   0.442  0.1105 -0.1023  0.0011
 5953TIP3    H117865   0.531   5.119   0.455 -0.5892 -0.5736 -0.4551
 5953TIP3    H217866   0.430   5.186   0.365  1.8559  1.5962 -1.6386
 5954TIP3   OH217867   0.812   4.106   1.725  0.3276 -0.1753  0.2585
 5954TIP3    H117868   0.826   4.121   1.818  0.7063 -2.4084  0.6027
 5954TIP3    H217869   0.899   4.085   1.691  0.0972  0.0391 -0.4714
 5955TIP3   OH217870   6.063   5.633   0.548 -0.3662 -0.6404  0.5722
 5955TIP3    H117871   5.994   5.696   0.526 -0.2790 -0.8004 -0.1844
 5955TIP3    H217872   6.141   5.667   0.503 -0.6241 -1.9823 -0.9220
 5956TIP3   OH217873   3.444   2.775   4.227 -0.0642  0.0503 -0.9542
 5956TIP3    H117874   3.430   2.857   4.179  0.7290 -0.6774 -2.4731
 5956TIP3    H217875   3.532   2.747   4.202 -0.0089 -0.8517  0.2005
 5957TIP3   OH217876   3.339   4.045   1.767  0.7099 -0.6151  0.0412
 5957TIP3    H117877   3.302   4.024   1.852  0.1402 -1.3316 -0.3765
 5957TIP3    H217878   3.280   4.110   1.730  0.3296 -1.1379 -0.2752
 5958TIP3   OH217879   6.501   5.526   2.913 -0.6904  0.1502 -0.3886
 5958TIP3    H117880   6.412   5.490   2.909 -0.3001 -0.9290  0.4626
 5958TIP3    H217881   6.550   5.476   2.847 -0.5903  0.3882 -0.4928
 5959TIP3   OH217882   0.315   1.218   0.435 -0.3381 -0.5688 -0.3015
 5959TIP3    H117883   0.308   1.311   0.458  1.6073 -0.4734 -0.0150
 5959TIP3    H217884   0.354   1.177   0.513  0.1489 -1.3678 -0.9609
 5960TIP3   OH217885   2.412   0.027   3.454  0.0107  0.1232  0.0802
 5960TIP3    H117886   2.388  -0.004   3.542 -0.2283 -1.9562 -0.6816
 5960TIP3    H217887   2.349  -0.017   3.396 -0.4041  2.1777 -1.0603
 5961TIP3   OH217888   2.025   6.046   1.034 -0.4391  0.1629  0.2186
 5961TIP3    H117889   2.102   6.091   0.999  0.0639 -1.1399 -0.3918
 5961TIP3    H217890   2.056   6.006   1.115 -0.8588  0.8219  0.7088
 5962TIP3   OH217891   2.726   0.809   1.216 -0.6392 -0.0746 -0.7470
 5962TIP3    H117892   2.658   0.876   1.217 -1.4148 -0.8649 -0.4294
 5962TIP3    H217893   2.797   0.846   1.268 -1.4608  0.0973  0.2746
 5963TIP3   OH217894   3.230   0.265   5.049  0.3559  0.0611 -0.2458
 5963TIP3    H117895   3.254   0.174   5.067 -0.5159  0.0147  0.7737
 5963TIP3    H217896   3.213   0.303   5.136 -3.1345  0.0857 -0.8720
 5964TIP3   OH217897   4.339   0.293   1.298  0.4257 -0.4650  0.2732
 5964TIP3    H117898   4.338   0.317   1.205  1.4150  1.8509  0.8209
 5964TIP3    H217899   4.387   0.210   1.301  0.3198 -0.5967 -1.2916
 5965TIP3   OH217900   6.434   5.153   1.698 -0.3004  0.3305  0.0341
 5965TIP3    H117901   6.383   5.222   1.742 -4.1508 -2.1232 -0.3417
 5965TIP3    H217902   6.427   5.174   1.605 -0.4396  0.0885 -0.0087
 5966TIP3   OH217903   5.326   2.991   3.751 -0.1044 -0.1044 -0.1240
 5966TIP3    H117904   5.250   3.042   3.780  0.5104  0.5168  0.4133
 5966TIP3    H217905   5.364   3.043   3.680 -1.1364 -1.2299 -1.5604
 5967TIP3   OH217906   2.402   5.490   1.434  0.4673  0.4779 -0.1102
 5967TIP3    H117907   2.347   5.493   1.513 -1.2250  0.6579 -1.2578
 5967TIP3    H217908   2.452   5.409   1.443 -1.3155 -0.6412  0.1419
 5968TIP3   OH217909   3.364   5.823   0.007 -0.8529  0.0381  0.1410
 5968TIP3    H117910   3.325   5.758  -0.051  0.9927 -0.0299 -1.0928
 5968TIP3    H217911   3.356   5.785   0.095 -1.7817 -0.8230 -0.3093
 5969TIP3   OH217912   1.345   0.777   3.565 -0.3556  0.5543  0.2767
 5969TIP3    H117913   1.388   0.831   3.498 -0.9822  1.8229  0.8727
 5969TIP3    H217914   1.378   0.689   3.550  2.0281  1.4024  0.3721
 5970TIP3   OH217915   5.758   0.814   0.991  0.1285 -0.3131 -0.1096
 5970TIP3    H117916   5.692   0.767   1.043 -0.2440  0.6518  0.3225
 5970TIP3    H217917   5.772   0.759   0.914 -0.0639 -1.2721  0.5316
 5971TIP3   OH217918   4.674   0.219   0.936  0.7092 -0.0615 -0.4802
 5971TIP3    H117919   4.738   0.148   0.930 -0.4210 -1.3653  2.0635
 5971TIP3    H217920   4.592   0.180   0.905  0.0413  0.0543  1.0941
 5972TIP3   OH217921   0.513   2.398   4.956  0.0519 -0.0803 -0.4698
 5972TIP3    H117922   0.598   2.412   4.997 -0.6326  0.7818  0.7100
 5972TIP3    H217923   0.491   2.484   4.919 -0.9144  0.0934  0.4610
 5973TIP3   OH217924   5.440   5.817   0.413 -0.3738  0.2825 -0.0407
 5973TIP3    H117925   5.506   5.748   0.410 -0.5776  0.1164 -0.7890
 5973TIP3    H217926   5.380   5.789   0.482 -1.8314 -1.5518 -1.9930
 5974TIP3   OH217927  -0.012   0.077   1.915 -0.1405  0.0947  0.2948
 5974TIP3    H117928   0.022   0.129   1.841  0.1552 -1.3442 -0.6057
 5974TIP3    H217929   0.030  -0.009   1.905 -0.9524 -0.4584  1.5106
 5975TIP3   OH217930   4.026   5.059   0.666 -1.1409 -0.1793 -1.0275
 5975TIP3    H117931   4.093   5.067   0.734 -1.1188  1.9879 -1.2688
 5975TIP3    H217932   4.076   5.045   0.586 -1.1734 -2.9212 -0.6065
 5976TIP3   OH217933   0.619   1.520   2.028  0.5482 -0.5967 -0.1410
 5976TIP3    H117934   0.637   1.574   2.105 -2.9725 -0.4520  0.6528
 5976TIP3    H217935   0.614   1.583   1.955 -0.6072 -0.1911  0.2822
 5977TIP3   OH217936   4.921   1.453   0.727  0.1170 -0.1730 -0.0048
 5977TIP3    H117937   4.882   1.527   0.774  0.3022 -0.8603  1.2535
 5977TIP3    H217938   4.846   1.398   0.703  0.1840 -0.9995  1.5606
 5978TIP3   OH217939   0.727   2.565   0.535  0.2525 -0.0485 -0.1249
 5978TIP3    H117940   0.737   2.648   0.490  0.6733  0.1584  0.3476
 5978TIP3    H217941   0.633   2.546   0.530  0.0133  0.9263  0.5985
 5979TIP3   OH217942   1.274   0.839   3.996  0.2514  0.5249  0.0988
 5979TIP3    H117943   1.249   0.813   4.085  0.1700 -0.5705 -0.2398
 5979TIP3    H217944   1.369   0.826   3.994  0.0870 -0.6278 -0.3571
 5980TIP3   OH217945   3.953   5.802   1.357  0.1511  0.3837 -0.2013
 5980TIP3    H117946   4.048   5.789   1.355  0.2816  1.2955 -0.0854
 5980TIP3    H217947   3.941   5.891   1.392 -0.6558  1.3612 -2.8747
 5981TIP3   OH217948   0.255   0.342   0.824  0.2774  0.1977 -0.0198
 5981TIP3    H117949   0.240   0.288   0.901 -1.1855 -0.3247 -0.6477
 5981TIP3    H217950   0.167   0.371   0.798  0.8779  1.4287 -0.7214
 5982TIP3   OH217951   4.973   2.666   1.581 -0.3751  0.3799 -0.2060
 5982TIP3    H117952   5.058   2.652   1.622 -1.6844  1.5802  3.1193
 5982TIP3    H217953   4.964   2.595   1.517  2.8045 -0.1289 -0.1505
 5983TIP3   OH217954   1.258   5.923   4.929  0.3048 -0.0836  0.2896
 5983TIP3    H117955   1.316   5.850   4.954  0.0060  0.2991  2.2042
 5983TIP3    H217956   1.270   5.931   4.835  0.8497 -2.1851  0.1368
 5984TIP3   OH217957   5.850   4.401   1.149  0.1472 -0.6488  0.8390
 5984TIP3    H117958   5.757   4.390   1.130  0.8970 -1.5829 -2.5840
 5984TIP3    H217959   5.857   4.492   1.177 -1.5520 -0.0044 -0.6854
 5985TIP3   OH217960   5.235   0.947   2.076  0.0067 -0.2745  0.6444
 5985TIP3    H117961   5.207   0.975   2.163  0.0505  0.6942  0.3530
 5985TIP3    H217962   5.161   0.898   2.040 -0.0832 -0.5027  1.1409
 5986TIP3   OH217963   2.847   4.146   4.711 -0.2734 -0.2691 -0.0434
 5986TIP3    H117964   2.779   4.112   4.769 -0.3025 -0.1478 -0.0049
 5986TIP3    H217965   2.929   4.122   4.753 -0.2955  0.1853  0.2665
 5987TIP3   OH217966   4.888   3.222   3.879 -0.2489 -0.0935 -0.1213
 5987TIP3    H117967   4.837   3.255   3.953  0.6646  2.4864 -0.6044
 5987TIP3    H217968   4.851   3.267   3.802  1.1632  0.0028 -0.7649
 5988TIP3   OH217969   5.700   5.869   1.887 -0.0558 -0.1949  0.6718
 5988TIP3    H117970   5.710   5.962   1.869 -1.8107  0.0264  0.7537
 5988TIP3    H217971   5.633   5.864   1.955 -1.7857 -1.6120 -1.0596
 5989TIP3   OH217972   4.505   5.815   1.020 -0.2013 -0.1851 -0.4108
 5989TIP3    H117973   4.563   5.751   0.979 -0.5646 -0.0810 -1.1016
 5989TIP3    H217974   4.417   5.788   0.992 -0.3986  0.2955 -0.2608
 5990TIP3   OH217975   6.150   5.366   0.075  0.2838 -0.0528  0.0946
 5990TIP3    H117976   6.140   5.275   0.104 -1.8116  0.5327  1.3652
 5990TIP3    H217977   6.086   5.415   0.128  0.1713  1.8989 -1.7846
 5991TIP3   OH217978   3.739   2.862   4.446  0.0415 -0.0824  0.1168
 5991TIP3    H117979   3.752   2.828   4.357  0.0843  0.2086  0.0113
 5991TIP3    H217980   3.742   2.957   4.436  1.8165 -0.0582  0.6842
 5992TIP3   OH217981   3.872   5.719   1.106  0.1882  0.0738 -0.6862
 5992TIP3    H117982   3.905   5.732   1.195 -0.0678  2.1250 -0.8743
 5992TIP3    H217983   3.796   5.663   1.116 -1.2697  2.2253  0.6878
 5993TIP3   OH217984   2.967   4.521   4.647 -0.0033 -0.0607 -0.1626
 5993TIP3    H117985   2.928   4.468   4.717 -0.8430  0.1816 -0.4475
 5993TIP3    H217986   2.903   4.518   4.577  0.2759  0.7535 -0.4471
 5994TIP3   OH217987   4.599   1.677   4.214  0.7325 -0.5087  0.5767
 5994TIP3    H117988   4.669   1.615   4.192 -0.5883 -1.3705 -1.3080
 5994TIP3    H217989   4.534   1.623   4.261 -0.2152 -0.4721 -0.6758
 5995TIP3   OH217990   1.026   0.397   0.116  0.0242 -0.0381  0.8158
 5995TIP3    H117991   1.056   0.373   0.028 -0.3135 -1.5969  1.1107
 5995TIP3    H217992   1.091   0.460   0.147  1.0986 -0.7836  0.1151
 5996TIP3   OH217993   5.138   6.030   0.895 -0.0313  0.4415  0.4932
 5996TIP3    H117994   5.060   6.085   0.882 -0.1829  0.2148  0.4397
 5996TIP3    H217995   5.104   5.948   0.930  0.4070  1.1667  2.6779
 5997TIP3   OH217996   3.749   2.152   4.431  0.4061  0.3758  0.2705
 5997TIP3    H117997   3.839   2.161   4.462 -0.1177  0.3929  1.7881
 5997TIP3    H217998   3.756   2.100   4.351  1.7946  0.6441  0.2144
 5998TIP3   OH217999   0.678   0.997   0.365  0.2616  0.3324 -0.2332
 5998TIP3    H118000   0.720   1.083   0.367 -0.1959  0.6013 -1.4786
 5998TIP3    H218001   0.750   0.934   0.364  0.6017  0.7079  0.3901
 5999TIP3   OH218002   1.607   5.308   2.711  0.2265 -0.1243  0.0940
 5999TIP3    H118003   1.634   5.337   2.798  0.1282  2.9273 -0.8458
 5999TIP3    H218004   1.557   5.228   2.727 -0.7047  0.9762  2.9395
 6000TIP3   OH218005   5.610   2.629   4.183  0.0870 -0.6175  0.1853
 6000TIP3    H118006   5.690   2.581   4.206 -0.1900 -0.2186  2.1020
 6000TIP3    H218007   5.628   2.720   4.209  0.3372  0.2306 -2.7300
 6001TIP3   OH218008   6.309   4.871   1.675 -0.2797  0.8036 -0.4626
 6001TIP3    H118009   6.352   4.850   1.592  0.7965 -0.0427  0.2962
 6001TIP3    H218010   6.338   4.960   1.695  0.8245  0.3784 -0.1480
 6002TIP3   OH218011   0.191   0.950   2.903 -0.1570  0.1891  0.4869
 6002TIP3    H118012   0.143   0.962   2.985  0.6049  2.1315  0.6866
 6002TIP3    H218013   0.144   1.005   2.839  1.0006  1.0671  0.3721
 6003TIP3   OH218014   4.157   2.355   5.185  0.6332 -0.2138 -0.4086
 6003TIP3    H118015   4.158   2.451   5.194  0.8357  0.0713 -3.2798
 6003TIP3    H218016   4.101   2.326   5.258  0.2865  2.0920  0.3134
 6004TIP3   OH218017   3.213   3.964   4.756  0.4900 -0.4076 -0.9414
 6004TIP3    H118018   3.145   3.917   4.709 -1.1183 -0.7137  1.5832
 6004TIP3    H218019   3.167   4.007   4.829  2.7072  0.8691 -0.2307
 6005TIP3   OH218020   6.307   5.918   1.639 -0.0246  0.2709 -0.2438
 6005TIP3    H118021   6.288   5.953   1.726 -1.7869 -0.8539 -0.1415
 6005TIP3    H218022   6.235   5.857   1.622  1.9907 -1.8802 -1.1940
 6006TIP3   OH218023   0.182   0.900   2.046 -0.0868 -0.0053  0.2658
 6006TIP3    H118024   0.172   0.839   2.119  1.1109 -0.7209 -0.1538
 6006TIP3    H218025   0.180   0.986   2.087  0.0234 -0.3828  1.0850
 6007TIP3   OH218026   4.375   4.082   4.406  0.0644 -0.1770  0.0404
 6007TIP3    H118027   4.436   4.078   4.479  2.0811 -0.9978 -1.6281
 6007TIP3    H218028   4.402   4.010   4.348  0.2939  2.0778 -2.7908
 6008TIP3   OH218029   1.200   3.794   1.497 -0.4739 -0.1948  0.2385
 6008TIP3    H118030   1.207   3.807   1.591  0.0020  2.0876 -0.0873
 6008TIP3    H218031   1.289   3.803   1.464 -1.0196  1.9908 -0.7515
 6009TIP3   OH218032   2.849   3.774   3.844 -0.5089  0.2288 -0.8126
 6009TIP3    H118033   2.899   3.848   3.878 -1.2981 -0.3662  1.7450
 6009TIP3    H218034   2.762   3.785   3.883 -1.1260 -1.0997 -1.7986
 6010TIP3   OH218035   4.552   5.805   4.244 -0.1941 -0.1002 -0.0483
 6010TIP3    H118036   4.620   5.738   4.233 -0.5286 -0.5051  0.3607
 6010TIP3    H218037   4.524   5.796   4.335 -1.5550 -0.6433 -0.5186
 6011TIP3   OH218038   2.643   1.517   5.129 -0.0902  0.4228 -0.5627
 6011TIP3    H118039   2.657   1.608   5.155  1.0979 -0.1466  0.8463
 6011TIP3    H218040   2.729   1.487   5.099 -0.0645 -0.7152  0.5795
 6012TIP3   OH218041   3.454   3.909   3.971 -0.3059 -0.0545 -0.1215
 6012TIP3    H118042   3.464   3.836   4.031  1.6762 -0.2374 -0.6549
 6012TIP3    H218043   3.493   3.880   3.889 -0.1597  1.3190 -0.5659
 6013TIP3   OH218044   5.956   1.782   3.249  0.0942  0.4928 -0.2380
 6013TIP3    H118045   6.001   1.836   3.185 -0.8483  1.6093  0.0178
 6013TIP3    H218046   5.873   1.759   3.208 -0.6758  1.5193  0.6876
 6014TIP3   OH218047   1.449   0.347   0.189  0.0091  0.1480 -0.4494
 6014TIP3    H118048   1.454   0.377   0.098  0.6612 -1.4360 -0.9622
 6014TIP3    H218049   1.421   0.256   0.182 -1.0764  0.3614  1.0157
 6015TIP3   OH218050   2.422   1.492   4.915 -0.2025 -0.0035  0.0562
 6015TIP3    H118051   2.458   1.508   5.002  1.6049  0.4151 -0.7510
 6015TIP3    H218052   2.498   1.494   4.856 -1.4961  0.7066 -1.6600
 6016TIP3   OH218053   0.781   0.601   3.077 -0.7341  0.1465  0.1038
 6016TIP3    H118054   0.711   0.585   3.141 -1.0580  1.4934  0.1027
 6016TIP3    H218055   0.736   0.601   2.992 -0.7473  1.0766  0.1082
 6017TIP3   OH218056   4.436   5.474   2.045 -0.5364 -0.6094  0.4129
 6017TIP3    H118057   4.433   5.460   2.139 -1.3789 -1.1786  0.3082
 6017TIP3    H218058   4.482   5.557   2.034  2.8699 -2.3362  1.1362
 6018TIP3   OH218059   4.679   4.526   0.625 -0.2214 -0.1277 -0.9059
 6018TIP3    H118060   4.723   4.512   0.709 -0.2060 -1.0246 -1.0513
 6018TIP3    H218061   4.609   4.588   0.644 -0.5117 -0.6823 -0.1169
 6019TIP3   OH218062   0.861   1.889   0.145 -0.2271 -0.1796 -0.1976
 6019TIP3    H118063   0.869   1.794   0.135 -0.5805 -0.4568  2.0602
 6019TIP3    H218064   0.770   1.908   0.125 -0.0106 -0.2002 -1.2828
 6020TIP3   OH218065   1.003   0.958   1.308  0.5460  0.3943 -0.9727
 6020TIP3    H118066   0.960   0.931   1.389  0.6613 -1.7638 -1.5955
 6020TIP3    H218067   1.032   1.048   1.325  0.9358 -0.1692  1.5071
 6021TIP3   OH218068   3.396   0.532   4.747  0.6631  0.1105 -0.3062
 6021TIP3    H118069   3.484   0.495   4.747  1.1816  1.3304 -0.8009
 6021TIP3    H218070   3.351   0.486   4.675  1.9118  1.8052 -2.2253
 6022TIP3   OH218071   2.854   3.670   4.694 -0.6720  0.2802  0.1366
 6022TIP3    H118072   2.856   3.575   4.704 -0.1959  0.2147 -0.5772
 6022TIP3    H218073   2.877   3.704   4.781  2.9115 -0.2817 -0.5216
 6023TIP3   OH218074   5.490   0.600   1.655 -0.3025 -0.2920  0.5707
 6023TIP3    H118075   5.566   0.652   1.681 -1.0369  0.2872  1.5717
 6023TIP3    H218076   5.449   0.573   1.737 -2.0616  0.6962  0.0616
 6024TIP3   OH218077   3.732   4.453   4.821 -0.0736 -0.5147  0.2192
 6024TIP3    H118078   3.730   4.361   4.848  2.3053 -0.9013 -0.7706
 6024TIP3    H218079   3.688   4.453   4.735 -1.9046 -0.3638  1.1414
 6025TIP3   OH218080   4.441   4.483   4.555  0.0722 -0.6561 -0.4978
 6025TIP3    H118081   4.479   4.551   4.499  1.8345 -0.6238  0.7154
 6025TIP3    H218082   4.392   4.427   4.494 -0.9626  1.3776 -1.5891
 6026TIP3   OH218083   2.728   3.780   3.563 -0.2168 -0.9607 -0.2075
 6026TIP3    H118084   2.796   3.802   3.626 -0.9102  0.9758 -0.0946
 6026TIP3    H218085   2.682   3.705   3.601 -0.3109 -0.1197  1.3614
 6027TIP3   OH218086   5.229   2.828   5.244 -0.1711 -0.2226 -0.6313
 6027TIP3    H118087   5.192   2.911   5.276  1.0091 -0.0193  0.2441
 6027TIP3    H218088   5.234   2.772   5.322 -1.3401 -1.2641 -1.3020
 6028TIP3   OH218089   3.562   1.134   0.816 -0.1037  0.0749  0.3743
 6028TIP3    H118090   3.573   1.167   0.727 -1.7108  0.2823  0.2387
 6028TIP3    H218091   3.586   1.208   0.872 -1.8160  0.8757  0.0809
 6029TIP3   OH218092   6.346   5.298   0.624 -0.8944  0.0029 -0.2205
 6029TIP3    H118093   6.392   5.359   0.682  0.4938  1.4585 -2.7998
 6029TIP3    H218094   6.416   5.253   0.577 -1.9799 -2.0765  0.0955
 6030TIP3   OH218095   6.291   3.607   1.249  0.2553 -0.9770 -0.4974
 6030TIP3    H118096   6.308   3.571   1.162 -0.4564  1.3129 -1.6161
 6030TIP3    H218097   6.265   3.698   1.233  0.9816 -0.2559  2.1637
 6031TIP3   OH218098   0.466   5.505   0.780  0.3129 -0.1938  0.5153
 6031TIP3    H118099   0.427   5.420   0.761  0.1130  0.1294 -0.5377
 6031TIP3    H218100   0.503   5.495   0.868  0.1779 -1.3232  0.4531
 6032TIP3   OH218101   3.961   1.382   5.147 -0.0746 -0.2960 -0.1568
 6032TIP3    H118102   3.976   1.317   5.216 -1.4514 -1.1626 -0.6408
 6032TIP3    H218103   3.866   1.384   5.137  0.1040 -0.2077 -2.0411
 6033TIP3   OH218104   6.346   1.680   2.273  0.0209  0.7294 -0.0535
 6033TIP3    H118105   6.276   1.707   2.214  0.5160 -1.4952 -1.7252
 6033TIP3    H218106   6.377   1.761   2.313 -2.4104  1.9196 -0.4894
 6034TIP3   OH218107   5.835   5.366   1.227  0.0425  0.1622 -0.3936
 6034TIP3    H118108   5.809   5.435   1.288  0.3564  0.1351 -0.2250
 6034TIP3    H218109   5.773   5.295   1.243  0.0361  0.2107 -0.2052
 6035TIP3   OH218110   3.491   2.105   4.560 -0.2488 -0.5345 -0.0574
 6035TIP3    H118111   3.582   2.076   4.557  0.0869  0.6348 -2.0363
 6035TIP3    H218112   3.480   2.158   4.481 -2.6407 -0.6251  0.1846
 6036TIP3   OH218113   1.234   0.985   1.872 -0.0560 -0.1298 -0.6753
 6036TIP3    H118114   1.240   0.897   1.909 -0.3427  0.5663  1.1370
 6036TIP3    H218115   1.191   0.973   1.787  2.9863 -2.0866 -2.0040
 6037TIP3   OH218116   6.425   4.690   2.369 -0.3641  0.1201  0.0217
 6037TIP3    H118117   6.397   4.661   2.456 -0.2134  2.5699  0.9446
 6037TIP3    H218118   6.504   4.639   2.350 -0.1415 -0.1132  1.5216
 6038TIP3   OH218119   6.206   5.088   0.480 -0.1535  0.3462  0.2381
 6038TIP3    H118120   6.143   5.061   0.413  0.4058  0.2125 -0.2465
 6038TIP3    H218121   6.287   5.044   0.455  0.7535  2.3997 -0.5037
 6039TIP3   OH218122   3.414   2.953   0.155  0.5518 -0.2990  0.2763
 6039TIP3    H118123   3.459   2.874   0.125  1.4131  0.3561 -0.1904
 6039TIP3    H218124   3.356   2.977   0.083 -0.5752 -1.1646  0.8929
 6040TIP3   OH218125   0.103   5.492   0.133  0.2436 -0.3557 -0.2512
 6040TIP3    H118126   0.029   5.432   0.135 -1.4758  1.6617 -1.2286
 6040TIP3    H218127   0.096   5.541   0.216 -0.2237  0.6397 -0.8704
 6041TIP3   OH218128   0.014   1.029   3.126 -0.0027  0.1312  0.3803
 6041TIP3    H118129   0.029   0.959   3.189 -1.4835 -0.1536  0.4169
 6041TIP3    H218130   0.049   1.107   3.169 -1.6322  0.0628  1.8724
 6042TIP3   OH218131   1.936   3.204   4.750  0.0767 -0.3029 -0.0377
 6042TIP3    H118132   2.004   3.262   4.715  1.0168 -0.4065  1.5487
 6042TIP3    H218133   1.884   3.260   4.808 -1.7048 -0.0376 -1.8629
 6043TIP3   OH218134   4.965   2.412   5.095 -0.3987 -0.0010  0.1035
 6043TIP3    H118135   4.993   2.385   5.007  0.4078  0.3920  0.2372
 6043TIP3    H218136   4.932   2.332   5.135 -0.6847 -0.2020 -0.5241
 6044TIP3   OH218137   4.876   3.468   4.585  0.0437  0.0127 -0.4232
 6044TIP3    H118138   4.938   3.522   4.537 -0.2634  0.0675 -0.7633
 6044TIP3    H218139   4.911   3.379   4.577 -0.4377 -0.0965 -1.4616
 6045TIP3   OH218140   6.369   1.985   1.158 -0.0181 -0.4141  0.3206
 6045TIP3    H118141   6.309   1.950   1.092  0.3032  2.5110 -1.6254
 6045TIP3    H218142   6.456   1.963   1.125  0.1356  0.8145 -0.1155
 6046TIP3   OH218143   0.475   0.220   0.710 -0.0626  0.5966  0.3493
 6046TIP3    H118144   0.402   0.278   0.731 -0.5688 -0.3752  1.3063
 6046TIP3    H218145   0.478   0.220   0.614 -1.9961 -0.1612  0.2562
 6047TIP3   OH218146   2.008   1.361   3.440 -0.3880  0.7369  0.4302
 6047TIP3    H118147   2.030   1.431   3.502  1.4715 -1.0488  1.8297
 6047TIP3    H218148   2.058   1.285   3.470  0.6961 -0.1642 -3.3026
 6048TIP3   OH218149   2.490   2.665   5.254 -0.1450  0.2327  0.4090
 6048TIP3    H118150   2.484   2.760   5.259  0.5360  0.4243 -1.7190
 6048TIP3    H218151   2.566   2.643   5.308  0.2679  0.9898  0.1460
 6049TIP3   OH218152   1.944   0.547   0.151 -0.4530 -0.4399  0.1894
 6049TIP3    H118153   1.951   0.453   0.169  0.2304 -0.4871 -0.3169
 6049TIP3    H218154   1.852   0.560   0.129 -0.2133 -1.2831 -1.3789
 6050TIP3   OH218155   4.875   3.674   4.113 -0.2584  0.0542 -0.1935
 6050TIP3    H118156   4.839   3.744   4.059  1.8001  1.2472 -0.0640
 6050TIP3    H218157   4.941   3.717   4.168  0.0512 -1.7368  0.8923
 6051TIP3   OH218158   2.567   1.627   1.175  0.4241  0.6152  0.1796
 6051TIP3    H118159   2.481   1.595   1.200  0.2912  0.8594  0.0423
 6051TIP3    H218160   2.549   1.691   1.106  0.9028 -1.7191 -2.2113
 6052TIP3   OH218161   3.358   4.876   5.253 -0.0060  0.0681  0.2909
 6052TIP3    H118162   3.309   4.863   5.171 -2.5955 -0.7782  1.8913
 6052TIP3    H218163   3.355   4.971   5.267 -0.2596  0.1341 -0.1820
 6053TIP3   OH218164   0.919   5.073   0.315  0.4697  0.0109  0.1384
 6053TIP3    H118165   1.006   5.035   0.318  0.8244  0.8343  0.5487
 6053TIP3    H218166   0.870   5.028   0.383  1.4705  1.6771  2.0102
 6054TIP3   OH218167   5.734   4.308   3.963  1.3717  0.0089  0.5674
 6054TIP3    H118168   5.815   4.257   3.951  1.4269 -0.1819  1.6608
 6054TIP3    H218169   5.763   4.399   3.959  1.4138 -0.0419 -0.4793
 6055TIP3   OH218170   1.269   1.766   1.269  0.0373 -0.0781 -0.6373
 6055TIP3    H118171   1.265   1.842   1.212 -1.8102  0.0851 -0.3220
 6055TIP3    H218172   1.178   1.742   1.284  0.5416 -1.1550  0.8723
 6056TIP3   OH218173   5.843   5.980   2.296  0.0581  0.4885 -0.1082
 6056TIP3    H118174   5.843   6.034   2.217 -0.5421 -1.7434 -1.6624
 6056TIP3    H218175   5.755   5.992   2.332 -0.3707 -0.1270 -0.9342
 6057TIP3   OH218176   2.474   3.564   4.983  0.2149  0.1061 -1.1552
 6057TIP3    H118177   2.485   3.579   4.889 -1.4885  0.8101 -1.2542
 6057TIP3    H218178   2.436   3.645   5.016  2.4125  0.5318  0.4783
 6058TIP3   OH218179   3.541   2.442   5.303  0.3727  0.3049 -0.1366
 6058TIP3    H118180   3.453   2.417   5.274  0.5515  0.1518 -0.5516
 6058TIP3    H218181   3.556   2.527   5.261 -0.5003  1.4547  1.8029
 6059TIP3   OH218182   0.465   0.743   0.258  0.6029  0.0706  0.2208
 6059TIP3    H118183   0.521   0.722   0.333 -0.2246  0.0338  0.8362
 6059TIP3    H218184   0.456   0.659   0.211  1.5129  0.1978 -0.2012
 6060TIP3   OH218185   1.231   0.633   2.178  0.4448 -0.9057  0.6060
 6060TIP3    H118186   1.258   0.627   2.087  2.6988  0.9133  1.0968
 6060TIP3    H218187   1.140   0.602   2.179  0.1425 -0.2285 -2.3740
 6061TIP3   OH218188   2.920   0.851   4.564 -0.5618  0.8898  0.4082
 6061TIP3    H118189   2.876   0.821   4.484  1.0766  1.3712 -0.7106
 6061TIP3    H218190   2.921   0.775   4.621  0.9959 -0.4115 -1.2671
 6062TIP3   OH218191   0.828   1.806   2.710  0.5136 -0.2615 -0.1004
 6062TIP3    H118192   0.750   1.861   2.703  1.1166  0.4814 -0.9911
 6062TIP3    H218193   0.793   1.717   2.724 -0.4837  0.0722 -0.4058
 6063TIP3   OH218194   2.426   1.297   0.545  0.5994  0.5579 -0.5747
 6063TIP3    H118195   2.352   1.258   0.500 -0.9556  1.4734  1.1421
 6063TIP3    H218196   2.457   1.227   0.604  0.3193  0.5982 -0.3814
 6064TIP3   OH218197   0.962   1.009   0.585 -0.4277  0.1129 -0.2010
 6064TIP3    H118198   0.978   0.947   0.656 -1.9288 -0.0170  0.0491
 6064TIP3    H218199   0.938   0.955   0.510 -1.7576  0.3737  0.0217
 6065TIP3   OH218200   3.100   2.387   4.541 -0.0263 -0.2306 -0.7572
 6065TIP3    H118201   3.080   2.478   4.521  0.5598  0.1919  0.5136
 6065TIP3    H218202   3.108   2.345   4.456 -1.5352  0.6285 -1.3405
 6066TIP3   OH218203   1.339   4.007   4.515 -0.9068  0.0369 -0.0443
 6066TIP3    H118204   1.421   3.996   4.468 -0.2612  3.5056  0.1286
 6066TIP3    H218205   1.272   4.014   4.447 -0.7096 -0.3329 -0.2718
 6067TIP3   OH218206   4.175   2.885   5.263  0.1581  0.5101 -0.0648
 6067TIP3    H118207   4.186   2.796   5.228 -1.3229  0.9694 -1.7238
 6067TIP3    H218208   4.082   2.891   5.284  0.3593  1.5001  0.5553
 6068TIP3   OH218209   1.000   1.262   1.105  0.5012 -0.4646  0.2549
 6068TIP3    H118210   1.064   1.198   1.074  1.1770 -0.0525  0.7636
 6068TIP3    H218211   1.054   1.336   1.136 -0.2818  0.6947 -1.0781
 6069TIP3   OH218212   0.373   2.786   0.534  0.2313 -0.0781  0.0105
 6069TIP3    H118213   0.299   2.740   0.494 -0.1648  0.6672 -0.1303
 6069TIP3    H218214   0.390   2.739   0.615 -1.7203  0.9579  1.0567
 6070TIP3   OH218215   1.839   2.968   4.610 -0.0114 -0.3242  0.4844
 6070TIP3    H118216   1.900   3.020   4.662 -0.4855 -0.4447  1.1754
 6070TIP3    H218217   1.804   3.029   4.546  0.3512 -0.0962  0.5010
 6071TIP3   OH218218   6.057   0.327   0.221 -0.0258  0.2428 -0.0471
 6071TIP3    H118219   6.019   0.370   0.144 -1.0091 -1.4754 -0.5594
 6071TIP3    H218220   6.015   0.369   0.296  0.8289  1.8287 -0.4555
 6072TIP3   OH218221   6.505   1.314   0.871  0.3512 -0.0888  0.1434
 6072TIP3    H118222   6.418   1.281   0.891  0.4983  1.1058  3.0669
 6072TIP3    H218223   6.547   1.245   0.821 -1.8762 -1.1526 -0.2917
 6073TIP3   OH218224   2.350   2.528   4.849 -0.4705  0.1737  0.0555
 6073TIP3    H118225   2.296   2.568   4.917 -0.2504  0.2032  0.2140
 6073TIP3    H218226   2.332   2.435   4.855 -1.4552  0.3044 -0.7263
 6074TIP3   OH218227   5.996   5.271   0.672  0.0405 -0.2170  0.0618
 6074TIP3    H118228   5.982   5.288   0.765  2.4005  0.7696  0.2915
 6074TIP3    H218229   5.928   5.322   0.628 -0.5691 -0.0027  1.2383
 6075TIP3   OH218230   2.919   4.241   3.406 -1.2266  0.5753  0.2276
 6075TIP3    H118231   2.866   4.162   3.393 -1.9028  1.1907 -0.7605
 6075TIP3    H218232   2.978   4.218   3.478 -0.1972 -1.4582 -1.2148
 6076TIP3   OH218233   2.127   6.069   2.713  0.1294 -0.5309  0.3201
 6076TIP3    H118234   2.182   6.147   2.719 -1.5236  0.7665 -1.0395
 6076TIP3    H218235   2.187   5.999   2.687  1.0444  0.9874 -1.7213
 6077TIP3   OH218236   3.695   4.160   5.261 -0.0097 -0.3998 -0.1463
 6077TIP3    H118237   3.632   4.201   5.203  0.3391 -0.0292 -0.2659
 6077TIP3    H218238   3.765   4.130   5.203  0.4170  0.1122  0.0964
 6078TIP3   OH218239   3.863   2.029   0.020  0.3116  0.2307  0.6770
 6078TIP3    H118240   3.957   2.011   0.022  0.4145  0.8483  2.4481
 6078TIP3    H218241   3.856   2.119  -0.011  0.3436  0.4088  1.1847
 6079TIP3   OH218242   5.942   2.253   0.895 -0.4407  0.6565  0.4189
 6079TIP3    H118243   6.013   2.305   0.857 -1.3786  2.0238  0.5220
 6079TIP3    H218244   5.986   2.175   0.930  0.8180  0.7917 -0.7987
 6080TIP3   OH218245   2.784   0.386   2.552  0.1221 -0.0631 -0.1839
 6080TIP3    H118246   2.792   0.358   2.461 -1.6593 -0.1316 -0.3376
 6080TIP3    H218247   2.872   0.375   2.589  0.3183 -2.2732 -1.2436
 6081TIP3   OH218248   1.622   0.783   0.834 -0.1975 -0.1778 -0.2669
 6081TIP3    H118249   1.547   0.727   0.854  0.5218 -1.1498 -0.2399
 6081TIP3    H218250   1.646   0.759   0.745 -1.3494  1.8006 -1.1558
 6082TIP3   OH218251   6.447   4.248   0.806 -0.3243 -0.3742  0.4841
 6082TIP3    H118252   6.482   4.160   0.820 -1.0762 -0.3738  2.4936
 6082TIP3    H218253   6.521   4.299   0.774  0.7321 -1.1232  1.7225
 6083TIP3   OH218254   1.745   1.585   0.099 -0.2173  0.0937 -0.4827
 6083TIP3    H118255   1.709   1.506   0.140  2.2346  0.0456  1.6701
 6083TIP3    H218256   1.832   1.560   0.070  1.4958  2.5648  2.2551
 6084TIP3   OH218257   6.185   5.668   2.300 -0.4773  0.3371  0.0882
 6084TIP3    H118258   6.233   5.636   2.223 -1.2427 -0.5282 -0.0404
 6084TIP3    H218259   6.118   5.601   2.315 -1.2371  1.2266  0.6391
 6085TIP3   OH218260   4.634   2.212   4.882  0.0420 -0.4393  0.0734
 6085TIP3    H118261   4.568   2.145   4.900 -3.2593  2.0652 -2.0848
 6085TIP3    H218262   4.650   2.206   4.788  0.8086  0.8092  0.1164
 6086TIP3   OH218263   2.862   0.179   1.909 -0.0868 -0.7964 -0.3666
 6086TIP3    H118264   2.886   0.270   1.927  0.1187 -0.8809 -0.1972
 6086TIP3    H218265   2.920   0.153   1.837  0.7695 -1.1823  0.4317
 6087TIP3   OH218266   2.341   0.137   1.529  0.1456 -0.2278  0.7533
 6087TIP3    H118267   2.248   0.155   1.542  0.1294 -0.5871  1.1782
 6087TIP3    H218268   2.343   0.054   1.481  0.2414 -0.0067  0.3732
 6088TIP3   OH218269   4.052   5.230   0.394  0.4799 -0.1074  0.1157
 6088TIP3    H118270   4.094   5.314   0.408  0.8051 -0.2598  0.0628
 6088TIP3    H218271   3.968   5.237   0.439 -0.0657  0.7049 -1.0146
 6089TIP3   OH218272   6.438   3.944   1.156  0.2156 -0.1947  0.3068
 6089TIP3    H118273   6.490   3.864   1.166 -0.0685 -0.2530  1.3398
 6089TIP3    H218274   6.463   3.978   1.070  1.9916 -0.1917  0.8051
 6090TIP3   OH218275   1.386   0.211   1.268  0.3390 -0.1143  0.1190
 6090TIP3    H118276   1.458   0.216   1.332  1.0952  1.1049 -0.7812
 6090TIP3    H218277   1.329   0.143   1.301  0.6431  0.5815  2.1852
 6091TIP3   OH218278   6.489   0.197   2.171  0.2653  0.4328  0.6275
 6091TIP3    H118279   6.487   0.148   2.089 -4.3771  2.1877 -0.4483
 6091TIP3    H218280   6.504   0.130   2.238 -0.9198 -1.7366 -1.2033
 6092TIP3   OH218281   5.609   5.936   0.862  0.5764  0.0136 -0.0570
 6092TIP3    H118282   5.582   6.016   0.818 -0.0924  0.0702  0.4511
 6092TIP3    H218283   5.624   5.873   0.791 -0.6888  0.0461 -0.3624
 6093TIP3   OH218284   5.152   5.145   0.265 -0.0400 -0.4534 -0.1077
 6093TIP3    H118285   5.151   5.145   0.169 -0.8153  0.3728 -0.1027
 6093TIP3    H218286   5.060   5.159   0.290  0.3621  0.6422  0.7601
 6094TIP3   OH218287   3.103   1.919   2.303  0.1629  0.4873 -0.3693
 6094TIP3    H118288   3.079   1.830   2.276  1.2429  0.0913 -0.0380
 6094TIP3    H218289   3.164   1.949   2.236  0.3488  0.7204 -0.0947
 6095TIP3   OH218290   4.210   5.378   1.153  0.1008 -0.9014  0.4147
 6095TIP3    H118291   4.205   5.388   1.058 -1.3402  0.1491  0.5920
 6095TIP3    H218292   4.272   5.446   1.181  0.9445 -1.5699  0.1698
 6096TIP3   OH218293   0.210   0.431   0.157  0.4102  0.5313 -0.0586
 6096TIP3    H118294   0.206   0.359   0.221  1.3134 -0.1273 -0.7281
 6096TIP3    H218295   0.119   0.458   0.147  0.0884 -0.3206  0.4347
 6097TIP3   OH218296   0.083   5.445   2.171  0.4020 -0.2280  0.6404
 6097TIP3    H118297   0.126   5.528   2.192 -2.1480  0.9700  1.3030
 6097TIP3    H218298   0.049   5.458   2.082  1.2701 -1.1106  0.1752
 6098TIP3   OH218299   6.216   5.882   0.289 -0.3730 -0.6199 -0.4483
 6098TIP3    H118300   6.162   5.887   0.210  0.5382  1.6422 -0.9616
 6098TIP3    H218301   6.159   5.915   0.358 -0.0815  0.5368 -0.7571
 6099TIP3   OH218302   0.349   1.379   2.081 -0.4919  0.2599 -0.0038
 6099TIP3    H118303   0.335   1.382   2.175  2.2593 -1.2815  0.4923
 6099TIP3    H218304   0.430   1.429   2.067 -0.1784 -0.6085 -1.3923
 6100TIP3   OH218305   3.377   4.955   1.401 -0.3646 -0.9884  0.7312
 6100TIP3    H118306   3.329   5.033   1.370  1.5747 -0.2034 -0.3927
 6100TIP3    H218307   3.371   4.894   1.328  0.8067 -0.6705  0.3602
 6101TIP3   OH218308   3.162   3.396   4.668 -0.1710  0.3197 -0.0266
 6101TIP3    H118309   3.197   3.409   4.580 -1.3911 -0.5011 -0.6540
 6101TIP3    H218310   3.067   3.388   4.655 -0.5202  1.6360  1.5262
 6102TIP3   OH218311   5.698   5.138   1.321 -0.2609  0.0681 -0.5016
 6102TIP3    H118312   5.607   5.107   1.327 -0.1404  0.0325  1.5526
 6102TIP3    H218313   5.747   5.080   1.380  0.9602  0.6142 -0.9590
 6103TIP3   OH218314   4.062   4.751   0.951  0.5702 -0.5099  0.2414
 6103TIP3    H118315   4.145   4.795   0.933 -0.3183  0.8895 -0.5125
 6103TIP3    H218316   4.034   4.716   0.866 -0.3776  0.3768  0.1848
 6104TIP3   OH218317   4.828   1.161   3.877  0.2387 -0.6194  0.0684
 6104TIP3    H118318   4.869   1.218   3.942  1.1262  1.0392 -1.8695
 6104TIP3    H218319   4.799   1.085   3.926  0.5680  0.7470  2.4536
 6105TIP3   OH218320   1.462   0.122   0.407 -0.1443 -0.0440 -0.0992
 6105TIP3    H118321   1.482   0.215   0.419 -0.9810 -0.2163  2.9455
 6105TIP3    H218322   1.380   0.108   0.454 -0.4303 -2.1937 -1.1439
 6106TIP3   OH218323   5.043   2.341   4.836  0.3728  0.4887 -0.1035
 6106TIP3    H118324   5.026   2.382   4.752 -1.4952 -0.1526 -0.0858
 6106TIP3    H218325   4.983   2.266   4.838 -0.5811  1.2681  2.3336
 6107TIP3   OH218326   1.674   5.565   4.501  0.8258 -0.2314 -0.3570
 6107TIP3    H118327   1.738   5.525   4.442  0.7503 -0.0459 -0.5685
 6107TIP3    H218328   1.703   5.656   4.508  0.2406  0.0070 -0.9403
 6108TIP3   OH218329   3.044   1.741   5.277 -0.5085  0.3366 -0.1291
 6108TIP3    H118330   2.959   1.727   5.319 -0.0727  0.6052  0.8372
 6108TIP3    H218331   3.055   1.836   5.275  0.9225  0.2344  2.0678
 6109TIP3   OH218332   0.503   5.479   0.408  0.2834 -0.1329  0.3239
 6109TIP3    H118333   0.567   5.499   0.476  2.2943 -0.9286 -1.2800
 6109TIP3    H218334   0.489   5.384   0.416  1.2523 -0.3995 -0.9516
 6110TIP3   OH218335   4.673   6.100   0.599 -0.6525 -0.3152 -0.1681
 6110TIP3    H118336   4.666   6.007   0.576 -0.3958 -0.2003 -0.7072
 6110TIP3    H218337   4.763   6.111   0.627 -0.9761 -0.4648  0.9556
 6111TIP3   OH218338   1.238   0.306   0.917 -0.9083 -0.1229 -0.3606
 6111TIP3    H118339   1.224   0.398   0.896 -1.8269 -0.4174 -1.1143
 6111TIP3    H218340   1.304   0.306   0.986 -1.3779  1.1323  0.0961
 6112TIP3   OH218341   3.618   3.768   4.470  0.4125  0.0577 -0.5507
 6112TIP3    H118342   3.707   3.732   4.471  0.2765 -0.2817 -0.5156
 6112TIP3    H218343   3.630   3.863   4.475  0.7462 -0.0206  0.0857
 6113TIP3   OH218344   6.194   2.195   3.152 -0.6881  0.3325 -0.2441
 6113TIP3    H118345   6.277   2.229   3.118 -0.5666 -2.3357 -2.7600
 6113TIP3    H218346   6.216   2.157   3.237  0.4727  0.4579 -0.4905
 6114TIP3   OH218347   2.331   3.264   5.276  0.8308 -0.4756 -0.0271
 6114TIP3    H118348   2.375   3.344   5.303 -0.8455  0.3021  0.4899
 6114TIP3    H218349   2.297   3.283   5.188  2.9253 -1.6572 -1.1440
 6115TIP3   OH218350   3.781   2.005   4.188  0.1209  0.3163 -0.0612
 6115TIP3    H118351   3.812   2.078   4.135 -0.3535 -0.0437 -0.8474
 6115TIP3    H218352   3.704   1.973   4.142  0.1340 -0.4778  0.4541
 6116TIP3   OH218353   1.802   4.307   1.205  0.1032 -0.0180 -1.0272
 6116TIP3    H118354   1.779   4.327   1.295  0.2651 -2.4925 -0.3991
 6116TIP3    H218355   1.795   4.390   1.159  0.3930  1.3390  1.3372
 6117TIP3   OH218356   0.959   6.070   4.570 -0.0723 -0.3907  0.4060
 6117TIP3    H118357   0.871   6.040   4.593 -0.4396 -0.4061 -0.9626
 6117TIP3    H218358   1.017   6.019   4.626 -1.0114  0.9074  2.6157
 6118TIP3   OH218359   4.221   0.333   0.743 -0.1815 -0.1322  0.6002
 6118TIP3    H118360   4.128   0.346   0.764  0.3991  0.0500  3.2643
 6118TIP3    H218361   4.234   0.239   0.753  0.3074  0.0755  2.0347
 6119TIP3   OH218362   5.097   3.375   0.881 -0.1832 -0.2500 -0.1823
 6119TIP3    H118363   5.077   3.468   0.892  1.8223  0.0555  1.3403
 6119TIP3    H218364   5.012   3.332   0.879 -1.1103  1.5203  0.0671
 6120TIP3   OH218365   1.710   5.741   1.373 -0.6615 -0.2775  0.1425
 6120TIP3    H118366   1.778   5.679   1.398 -1.6645 -0.8885  1.4297
 6120TIP3    H218367   1.714   5.745   1.278  1.5327  0.1229  0.2218
 6121TIP3   OH218368   2.879   2.156   1.379 -0.0388  0.1027  0.3250
 6121TIP3    H118369   2.899   2.170   1.287 -2.3329  2.1212  0.0991
 6121TIP3    H218370   2.965   2.156   1.422  0.9233  1.2711 -1.5060
 6122TIP3   OH218371   3.451   1.986   1.714 -0.0208  0.1784  0.1367
 6122TIP3    H118372   3.519   2.009   1.652 -0.9560  0.1335 -0.9270
 6122TIP3    H218373   3.480   2.023   1.797  0.8841  0.8759 -0.4864
 6123TIP3   OH218374   1.566   0.249   4.651  0.4414 -0.1699  0.1521
 6123TIP3    H118375   1.561   0.211   4.563  1.9510  1.7479 -0.7836
 6123TIP3    H218376   1.476   0.243   4.684 -0.4455  0.3314 -2.0502
 6124TIP3   OH218377   4.760   5.999   1.763 -0.0383 -0.0677  0.6208
 6124TIP3    H118378   4.807   6.001   1.679 -0.1573 -0.2041  0.5510
 6124TIP3    H218379   4.785   5.916   1.803 -1.0462 -0.6254  0.1085
 6125TIP3   OH218380   5.938   2.344   3.821 -0.1186  0.3858  0.3037
 6125TIP3    H118381   5.974   2.425   3.856  0.0575  0.2159  0.5190
 6125TIP3    H218382   5.951   2.280   3.891  0.3113  0.0292 -0.0961
 6126TIP3   OH218383   2.671   2.352   2.244  0.2234 -0.2909  0.4915
 6126TIP3    H118384   2.706   2.263   2.243  1.1320  0.0546  0.8157
 6126TIP3    H218385   2.576   2.341   2.246  0.3481 -1.2542  1.3163
 6127TIP3   OH218386   5.136   1.785   4.636 -0.4934  0.4050 -0.4499
 6127TIP3    H118387   5.106   1.875   4.628 -0.8051  0.3955  0.4465
 6127TIP3    H218388   5.169   1.779   4.726 -0.9755 -0.5149 -0.3291
 6128TIP3   OH218389   4.189   5.569   2.497 -0.2421  0.6086  0.0816
 6128TIP3    H118390   4.170   5.500   2.433  0.9091 -0.6647  1.0798
 6128TIP3    H218391   4.124   5.637   2.479 -2.5806 -1.5190  0.2929
 6129TIP3   OH218392   3.265   0.700   2.241 -0.3863  0.5453 -0.0808
 6129TIP3    H118393   3.170   0.712   2.243 -0.5097 -0.3487 -0.3476
 6129TIP3    H218394   3.282   0.654   2.159  0.1926  0.0231  0.3217
 6130TIP3   OH218395   5.257   3.962   5.292  0.0387  0.2178  0.7599
 6130TIP3    H118396   5.244   3.995   5.203  1.8083  1.0704  0.7802
 6130TIP3    H218397   5.171   3.932   5.320 -0.5176 -0.1531 -1.2764
 6131TIP3   OH218398   3.985   0.095   1.075 -0.4344  0.6413  0.0870
 6131TIP3    H118399   4.056   0.038   1.047  0.3499  1.6316  0.0463
 6131TIP3    H218400   3.990   0.094   1.171  0.1630  1.3665  0.0665
 6132TIP3   OH218401   0.476   0.326   0.460 -1.0932 -0.1511  0.3432
 6132TIP3    H118402   0.493   0.400   0.519 -1.3365  0.1049  0.0901
 6132TIP3    H218403   0.381   0.325   0.450 -0.9760  0.3749 -0.7941
 6133TIP3   OH218404   2.066   0.880   0.524  0.2377  0.3864  0.3984
 6133TIP3    H118405   2.003   0.810   0.541 -1.2105  1.3991 -0.7244
 6133TIP3    H218406   2.137   0.837   0.476 -1.1564 -0.1174 -1.2622
 6134TIP3   OH218407   0.146   3.154   1.907 -0.3002  0.3192 -0.0806
 6134TIP3    H118408   0.174   3.144   1.816  0.0823 -0.9823  0.1623
 6134TIP3    H218409   0.077   3.219   1.904  1.0308  1.7071 -1.0352
 6135TIP3   OH218410   5.182   2.054   0.672 -0.0979 -0.1577  0.1615
 6135TIP3    H118411   5.108   2.093   0.625  0.1529  0.8007  0.5507
 6135TIP3    H218412   5.153   1.965   0.692 -0.4390 -0.3684 -1.2618
 6136TIP3   OH218413   6.098   1.994   4.919  0.2263 -0.2951 -0.2622
 6136TIP3    H118414   6.024   1.951   4.961 -0.5102  1.3467  0.1380
 6136TIP3    H218415   6.173   1.938   4.941 -0.6130 -1.0541  0.7486
 6137TIP3   OH218416   5.643   2.152   3.875  0.8593  0.8746  0.1917
 6137TIP3    H118417   5.670   2.181   3.963 -1.3260  0.3918  1.0579
 6137TIP3    H218418   5.696   2.074   3.859  1.3826  1.0449  1.0290
 6138TIP3   OH218419   5.384   1.781   5.099 -0.3426  0.0402  0.4688
 6138TIP3    H118420   5.352   1.801   5.187  1.0265  0.3918  0.9026
 6138TIP3    H218421   5.450   1.714   5.113 -0.7212 -0.5065 -0.3859
 6139TIP3   OH218422   2.502   5.933   0.043  0.0539  0.3362 -0.6148
 6139TIP3    H118423   2.561   5.993   0.087 -2.3308  0.5852  2.4455
 6139TIP3    H218424   2.481   5.975  -0.041  0.1949  2.6678  0.5001
 6140TIP3   OH218425   3.496   0.404   1.809  0.1340  0.3117 -0.0005
 6140TIP3    H118426   3.410   0.428   1.775  0.6208  1.4248 -0.4888
 6140TIP3    H218427   3.542   0.365   1.735  0.6026  1.1863 -0.1817
 6141TIP3   OH218428   6.313   5.648   0.421 -0.2870 -0.1803  0.5829
 6141TIP3    H118429   6.299   5.738   0.392 -0.4246 -0.3651  0.0532
 6141TIP3    H218430   6.395   5.650   0.470  0.1779  0.0732 -0.1833
 6142TIP3   OH218431   1.643   4.100   1.835  0.1415  0.0971  0.2284
 6142TIP3    H118432   1.575   4.163   1.859 -1.2501 -1.7998  1.4269
 6142TIP3    H218433   1.718   4.125   1.888 -0.4507  0.6486  0.8241
 6143TIP3   OH218434   3.242   0.567   1.375  0.2937 -0.2476 -0.4515
 6143TIP3    H118435   3.268   0.656   1.402 -0.1311 -0.6203  1.2849
 6143TIP3    H218436   3.205   0.578   1.288 -0.9505  1.5110  0.2662
 6144TIP3   OH218437   0.254   2.429   3.308 -0.4321  0.4469  0.0822
 6144TIP3    H118438   0.273   2.345   3.265 -2.3503  0.4802 -0.9162
 6144TIP3    H218439   0.312   2.491   3.265  1.8215 -0.5552  1.6201
 6145TIP3   OH218440   1.962   0.461   0.443  0.2300  0.2284  0.5503
 6145TIP3    H118441   2.009   0.511   0.510 -1.2407  1.4848  0.6567
 6145TIP3    H218442   1.936   0.526   0.378  0.0827 -0.7127 -0.3413
 6146TIP3   OH218443   4.225   0.614   0.288  0.4021 -0.3862 -0.4769
 6146TIP3    H118444   4.217   0.602   0.383  0.7846  2.8762  0.0011
 6146TIP3    H218445   4.276   0.538   0.260  0.1915 -1.4707  1.9022
 6147TIP3   OH218446   0.031   2.409   4.996  0.4454 -0.4246  0.0339
 6147TIP3    H118447   0.111   2.361   5.018  0.5002 -0.5605 -0.4692
 6147TIP3    H218448  -0.015   2.353   4.934 -0.4902 -0.7716  1.0259
 6148TIP3   OH218449   5.930   2.613   4.770  0.3779  0.3809 -0.1981
 6148TIP3    H118450   5.840   2.632   4.744  0.8366 -2.2899 -4.1637
 6148TIP3    H218451   5.921   2.549   4.841 -0.8929 -0.2144 -0.8768
 6149TIP3   OH218452   4.639   1.251   0.098 -0.0163 -0.1415  0.3692
 6149TIP3    H118453   4.674   1.315   0.036 -0.6733  0.0877  0.2354
 6149TIP3    H218454   4.694   1.174   0.085 -0.0057 -0.0223 -0.3468
 6150TIP3   OH218455   3.768   1.841   1.807  0.5913 -0.0041 -0.1076
 6150TIP3    H118456   3.703   1.779   1.774  1.3127 -0.8773  0.0995
 6150TIP3    H218457   3.722   1.890   1.875  0.1326 -0.5970  0.0142
 6151TIP3   OH218458   4.228   1.765   4.722  0.6197 -0.5267  0.3239
 6151TIP3    H118459   4.163   1.770   4.792  1.1156 -1.7060  0.8868
 6151TIP3    H218460   4.278   1.686   4.741  2.3785  0.4782  0.0280
 6152TIP3   OH218461   5.212   0.238   0.637  0.0288 -0.1119  0.1230
 6152TIP3    H118462   5.132   0.270   0.595  1.2341  1.2282 -1.2322
 6152TIP3    H218463   5.281   0.253   0.572  1.4238 -0.9946  1.3662
 6153TIP3   OH218464   3.229   0.722   0.395 -0.9562 -0.1333  0.3256
 6153TIP3    H118465   3.137   0.702   0.379 -1.2944  2.3022 -1.0645
 6153TIP3    H218466   3.268   0.728   0.308  0.1548  0.3699  0.8444
 6154TIP3   OH218467   0.684   3.172   4.010  0.1209  0.4848  0.6165
 6154TIP3    H118468   0.623   3.245   4.005  0.9728  1.2622  1.5414
 6154TIP3    H218469   0.761   3.201   3.963  0.0303 -0.2624 -0.0100
 6155TIP3   OH218470   6.342   0.978   4.527 -0.1936 -0.2651 -0.0462
 6155TIP3    H118471   6.277   0.909   4.519 -0.8986  0.4003 -0.0816
 6155TIP3    H218472   6.294   1.053   4.563  0.8023 -0.1379  1.0591
 6156TIP3   OH218473   2.045   2.997   1.261 -0.4990  0.3757  0.1475
 6156TIP3    H118474   2.042   3.087   1.228 -1.1237  0.7652  1.2029
 6156TIP3    H218475   1.989   2.999   1.339 -0.3906 -0.8944  0.2700
 6157TIP3   OH218476   2.448   5.731   3.016  0.0020  0.6380  0.9279
 6157TIP3    H118477   2.434   5.815   2.972  0.2032 -0.0276 -0.4434
 6157TIP3    H218478   2.542   5.728   3.032  0.5652 -0.8714 -2.2976
 6158TIP3   OH218479   2.248   5.832   0.211  0.0001 -0.0659 -0.3605
 6158TIP3    H118480   2.335   5.871   0.218  0.8302 -1.9694  0.4021
 6158TIP3    H218481   2.199   5.867   0.285 -0.7284  2.9407 -2.1557
 6159TIP3   OH218482   0.609   5.791   1.060 -0.2954 -0.4149  0.5236
 6159TIP3    H118483   0.525   5.751   1.083  0.2741 -1.6777  0.4050
 6159TIP3    H218484   0.674   5.724   1.078  0.6455  0.3541  0.0520
 6160TIP3   OH218485   2.413   1.005   1.102 -0.0709  0.5093  0.3203
 6160TIP3    H118486   2.487   1.041   1.053 -0.6929  1.2049 -0.1310
 6160TIP3    H218487   2.379   1.079   1.152 -0.0094  0.0156  1.0986
 6161TIP3   OH218488   0.426   3.143   1.996 -0.0994  0.2509  0.0168
 6161TIP3    H118489   0.333   3.128   1.980  0.5355 -0.9531 -2.9450
 6161TIP3    H218490   0.443   3.100   2.080 -2.3065  0.9378  0.8389
 6162TIP3   OH218491   4.030   0.588   1.025  0.2552  0.6564 -0.2724
 6162TIP3    H118492   4.014   0.522   0.956 -1.3202 -0.6447  1.2888
 6162TIP3    H218493   4.124   0.584   1.040  0.4217 -0.0148 -1.4008
 6163TIP3   OH218494   0.542   4.689   1.787 -0.3627  0.4996 -0.4501
 6163TIP3    H118495   0.575   4.657   1.871 -1.2083  0.2127 -0.2261
 6163TIP3    H218496   0.447   4.675   1.791 -0.2972 -0.5116 -1.8724
 6164TIP3   OH218497   4.078   1.032   2.253  0.2623  0.1752  0.0619
 6164TIP3    H118498   3.983   1.025   2.251  0.2066  1.0356 -3.2455
 6164TIP3    H218499   4.097   1.110   2.305 -0.8771  0.4997 -0.0154
 6165TIP3   OH218500   6.393   4.669   0.032  0.1212 -0.0099 -0.6939
 6165TIP3    H118501   6.445   4.676   0.112  0.4201  2.7151 -1.0517
 6165TIP3    H218502   6.303   4.686   0.061 -0.1919 -1.9329 -0.5044
 6166TIP3   OH218503   6.316   4.186   4.488 -0.0449  0.2848  0.0224
 6166TIP3    H118504   6.240   4.227   4.529 -0.0786  0.4381 -0.1892
 6166TIP3    H218505   6.331   4.107   4.539 -0.9993 -0.2996 -0.5709
 6167TIP3   OH218506   0.195   5.015   1.143  0.3974  0.3797  0.0741
 6167TIP3    H118507   0.204   5.101   1.184 -1.1552  1.0879 -1.0399
 6167TIP3    H218508   0.263   5.013   1.075 -0.7829  1.5104 -1.1795
 6168TIP3   OH218509   3.458   2.292   4.346  0.0906 -0.3889  0.0854
 6168TIP3    H118510   3.494   2.263   4.262  0.8896 -1.4772  0.7859
 6168TIP3    H218511   3.507   2.371   4.367 -0.4228  0.1403 -0.6797
 6169TIP3   OH218512   2.182   4.795   1.907 -0.2305  0.3567 -0.6369
 6169TIP3    H118513   2.104   4.849   1.915  0.7452  1.6250  0.7083
 6169TIP3    H218514   2.231   4.834   1.834  0.9441  1.9679  0.9561
 6170TIP3   OH218515   2.018   0.706   3.007  0.2319  0.2563  0.0432
 6170TIP3    H118516   2.110   0.714   3.032 -0.0576  2.0375  0.5579
 6170TIP3    H218517   1.969   0.745   3.080 -0.8847  0.4370 -0.7873
 6171TIP3   OH218518   2.761   5.536   0.606  0.0083 -0.2507  0.4455
 6171TIP3    H118519   2.797   5.459   0.561 -1.3655 -0.8299  0.2898
 6171TIP3    H218520   2.695   5.500   0.665 -0.9790  0.8493  0.0340
 6172TIP3   OH218521   5.371   0.529   1.908  0.4866  0.4227 -0.1984
 6172TIP3    H118522   5.323   0.446   1.902 -1.1647  1.3985 -0.9379
 6172TIP3    H218523   5.392   0.537   2.001  0.5786 -0.7742 -0.1000
 6173TIP3   OH218524   0.786   5.998   0.388  0.0842 -0.2749 -0.3338
 6173TIP3    H118525   0.853   6.021   0.452  1.0507 -0.6482 -1.2006
 6173TIP3    H218526   0.834   5.974   0.309 -1.0313 -1.3875 -0.7069
 6174TIP3   OH218527   6.232   4.117   3.719  0.3727 -0.1360 -0.5058
 6174TIP3    H118528   6.160   4.180   3.720  0.8626  0.4319 -0.4595
 6174TIP3    H218529   6.199   4.043   3.667 -1.1509 -0.9740  1.5727
 6175TIP3   OH218530   5.342   3.661   1.039 -0.3651  0.3315  0.4221
 6175TIP3    H118531   5.438   3.669   1.046 -0.3100 -0.8434  1.1578
 6175TIP3    H218532   5.326   3.643   0.947  0.3018 -1.6910  0.6818
 6176TIP3   OH218533   1.724   5.153   1.091 -0.7011 -0.3688  0.0844
 6176TIP3    H118534   1.710   5.192   1.005 -1.3973 -0.8483 -0.0251
 6176TIP3    H218535   1.638   5.151   1.131 -0.2380  0.6401  1.1487
 6177TIP3   OH218536   1.007   4.684   0.927  0.2754  0.4117 -0.0506
 6177TIP3    H118537   1.036   4.704   0.838  1.1602 -2.3096 -0.4126
 6177TIP3    H218538   1.043   4.754   0.980  2.1245  0.5416 -1.4372
 6178TIP3   OH218539   0.569   4.351   0.587 -0.1910  0.0310  0.0271
 6178TIP3    H118540   0.538   4.433   0.549 -2.5256 -0.0641  1.6443
 6178TIP3    H218541   0.526   4.282   0.536  1.2467 -0.2194 -0.8928
 6179TIP3   OH218542   5.304   5.413   0.301 -0.2383 -0.5096  0.5438
 6179TIP3    H118543   5.252   5.487   0.273  1.7485 -0.3938 -3.1005
 6179TIP3    H218544   5.246   5.337   0.291 -1.0503  0.0936  0.6490
 6180TIP3   OH218545   4.033   2.537   4.589 -0.0263  0.5613 -0.0113
 6180TIP3    H118546   3.939   2.525   4.595  0.1729 -0.8651  0.5424
 6180TIP3    H218547   4.052   2.535   4.495 -0.5263  0.6207 -0.1133
 6181TIP3   OH218548   4.896   3.831   4.544 -0.3302  0.5397 -0.4130
 6181TIP3    H118549   4.974   3.786   4.511 -1.1534  0.1761 -1.8843
 6181TIP3    H218550   4.893   3.808   4.637  0.2282 -1.0318 -0.7709
 6182TIP3   OH218551   3.848   4.090   4.166 -0.0408 -0.0241  0.3632
 6182TIP3    H118552   3.921   4.039   4.201  1.4025  0.6070 -1.6890
 6182TIP3    H218553   3.812   4.035   4.095  0.4149  1.0242 -0.6907
 6183TIP3   OH218554   5.773   3.814   3.986  0.1484 -0.3455 -0.5034
 6183TIP3    H118555   5.869   3.817   3.984  0.1041  0.8654 -1.6269
 6183TIP3    H218556   5.746   3.898   3.950 -1.3465 -0.5249  0.1609
 6184TIP3   OH218557   3.009   1.151   0.902 -0.4502 -0.3128 -0.0181
 6184TIP3    H118558   3.000   1.246   0.895  1.1892 -0.0761  0.8250
 6184TIP3    H218559   2.984   1.130   0.992 -1.6449 -0.8042 -0.4516
 6185TIP3   OH218560   0.810   2.846   3.112 -0.1143  0.6868 -0.1239
 6185TIP3    H118561   0.759   2.774   3.150 -0.5017  0.1826 -1.5536
 6185TIP3    H218562   0.877   2.866   3.177 -0.4634 -0.4742  0.5960
 6186TIP3   OH218563   5.606   4.994   0.180 -0.4301  0.4317  0.0195
 6186TIP3    H118564   5.584   5.066   0.121 -0.2302 -0.4689 -1.1915
 6186TIP3    H218565   5.571   4.916   0.137  0.1516 -0.3037  0.8487
 6187TIP3   OH218566   1.654   4.799   0.990  0.3184 -0.0075  0.2229
 6187TIP3    H118567   1.575   4.846   0.964  1.7028  1.7367 -0.8656
 6187TIP3    H218568   1.673   4.741   0.916  0.2580 -0.1852  0.3457
 6188TIP3   OH218569   6.331   3.339   4.371 -0.3212  0.2495 -0.1897
 6188TIP3    H118570   6.354   3.286   4.294  0.3954  0.9717 -0.4737
 6188TIP3    H218571   6.354   3.284   4.445  2.1694  0.8743 -0.4660
 6189TIP3   OH218572   3.439   4.606   4.833 -0.3593 -0.3294 -0.0043
 6189TIP3    H118573   3.510   4.637   4.889 -1.2923  1.8288  0.0593
 6189TIP3    H218574   3.421   4.517   4.863  1.5462 -0.4777  0.7253
 6190TIP3   OH218575   1.498   4.349   1.823 -0.0294 -0.0873  0.1555
 6190TIP3    H118576   1.529   4.391   1.743  0.1023  0.4418  0.4805
 6190TIP3    H218577   1.404   4.340   1.811  0.1126 -0.8147 -0.4288
 6191TIP3   OH218578   3.104   0.270   2.486  0.7243  0.8846  0.0750
 6191TIP3    H118579   3.067   0.301   2.404 -0.1201  1.4980  0.6723
 6191TIP3    H218580   3.084   0.177   2.489  6.0450 -0.5657 -3.2272
 6192TIP3   OH218581   4.861   1.209   4.292 -0.5236 -0.3428  0.0388
 6192TIP3    H118582   4.782   1.176   4.336 -1.6308  1.1885 -0.7388
 6192TIP3    H218583   4.927   1.211   4.361 -1.1438 -1.7196  0.6912
 6193TIP3   OH218584   1.210   4.477   3.339 -0.0403 -0.1003 -0.2871
 6193TIP3    H118585   1.204   4.425   3.419 -0.8580  0.9031  0.3277
 6193TIP3    H218586   1.211   4.568   3.370  1.8518  0.2435 -1.3184
 6194TIP3   OH218587   2.421   0.046   0.772 -0.8065  0.3705 -0.3262
 6194TIP3    H118588   2.430   0.038   0.867 -0.3942  1.3201 -0.2767
 6194TIP3    H218589   2.411   0.140   0.757  2.1485  0.5402 -1.4847
 6195TIP3   OH218590   2.228   5.918   2.034 -0.0317  0.1964 -0.1182
 6195TIP3    H118591   2.243   5.866   2.113 -0.2800  0.6624  0.2420
 6195TIP3    H218592   2.139   5.896   2.006  0.5674 -1.0300 -1.0817
 6196TIP3   OH218593   4.596   1.670   1.291  0.0271  0.1480 -0.9170
 6196TIP3    H118594   4.586   1.577   1.309  3.3666  0.2191  1.5995
 6196TIP3    H218595   4.526   1.712   1.341  2.8246 -0.5279  3.8075
 6197TIP3   OH218596   2.860   1.956   0.875 -0.2506 -0.4560  0.3731
 6197TIP3    H118597   2.783   2.007   0.900 -0.8352 -0.2300 -1.7175
 6197TIP3    H218598   2.830   1.865   0.880  0.2684 -0.5382  2.4229
 6198TIP3   OH218599   2.766   0.064   0.781 -0.2531  0.1040 -0.0675
 6198TIP3    H118600   2.728   0.117   0.711 -0.0773  0.5519  0.1704
 6198TIP3    H218601   2.808  -0.009   0.736  0.6837  0.8980 -0.4991
 6199TIP3   OH218602   5.564   2.379   4.561 -0.3839  0.0137  0.1773
 6199TIP3    H118603   5.520   2.429   4.493  0.8256 -0.2356 -0.8174
 6199TIP3    H218604   5.563   2.289   4.529 -0.2936 -0.1953  0.7518
 6200TIP3   OH218605   3.098   2.451   4.800  0.3816 -0.3404 -0.8672
 6200TIP3    H118606   3.020   2.418   4.844  0.7437 -1.1837 -0.8484
 6200TIP3    H218607   3.094   2.415   4.712  0.1629  0.5560 -1.2323
 6201TIP3   OH218608   5.338   2.739   4.949  0.0971  0.2094 -0.4038
 6201TIP3    H118609   5.267   2.693   4.992 -0.8142  1.9839  0.0331
 6201TIP3    H218610   5.315   2.737   4.856 -0.6127  0.9226 -0.2450
 6202TIP3   OH218611   1.755   0.058   1.086 -0.2150  0.4390  0.1506
 6202TIP3    H118612   1.813   0.007   1.029  1.3098 -0.3848  2.3700
 6202TIP3    H218613   1.705   0.113   1.026 -0.4695 -2.2061 -2.1756
 6203TIP3   OH218614   1.705   6.076   1.581  0.7085  0.0508  0.1981
 6203TIP3    H118615   1.696   5.990   1.542 -1.7239 -0.6431  2.1594
 6203TIP3    H218616   1.774   6.066   1.646  0.7592 -0.2940  0.0917
 6204TIP3   OH218617   1.277   5.316   0.856 -0.0795  0.4097  0.0515
 6204TIP3    H118618   1.260   5.305   0.950  0.9039  0.4618  0.2456
 6204TIP3    H218619   1.370   5.293   0.846 -0.1110  0.6666 -0.8652
 6205TIP3   OH218620   2.090   4.036   1.452  0.5358 -0.1161  0.6305
 6205TIP3    H118621   2.154   4.010   1.519 -0.1059  1.1755  1.7580
 6205TIP3    H218622   2.050   4.116   1.486 -1.7428 -0.9352 -0.0298
 6206TIP3   OH218623   3.593   2.517   4.405  0.2157 -0.5223  0.2131
 6206TIP3    H118624   3.626   2.531   4.494  0.9100 -2.4323  0.2795
 6206TIP3    H218625   3.656   2.562   4.349 -1.7507  3.1269  0.8056
 6207TIP3   OH218626   1.861   0.430   1.361  0.4456 -0.1817  0.3286
 6207TIP3    H118627   1.872   0.393   1.273 -1.2285 -0.9985  0.4500
 6207TIP3    H218628   1.938   0.400   1.408  0.9835 -0.3774 -0.6471
 6208TIP3   OH218629   1.652   5.102  -0.010  0.2329 -0.5690 -0.1805
 6208TIP3    H118630   1.658   5.129   0.081 -0.7376  2.2407 -0.9146
 6208TIP3    H218631   1.686   5.012  -0.011  3.2726  0.4730  2.3939
 6209TIP3   OH218632   1.666   0.165   0.819 -0.4506  0.0030 -0.5630
 6209TIP3    H118633   1.752   0.172   0.777 -0.0696  2.2785  0.4848
 6209TIP3    H218634   1.626   0.087   0.780  1.3992 -0.1197 -2.3081
 6210TIP3   OH218635   5.427   0.332   0.144  0.1672 -0.1034  0.8135
 6210TIP3    H118636   5.386   0.418   0.137  0.4986  0.0734  1.0420
 6210TIP3    H218637   5.371   0.274   0.091  2.5111  1.1370 -3.2944
 6211TIP3   OH218638   3.719   4.868   5.183 -0.3439  0.0016  0.0709
 6211TIP3    H118639   3.679   4.927   5.247 -0.0730  0.5678 -0.2756
 6211TIP3    H218640   3.761   4.800   5.235  0.7508  1.0211  0.5223
 6212TIP3   OH218641   2.731   0.457   0.229 -0.2357  0.0728  0.0447
 6212TIP3    H118642   2.671   0.423   0.295  1.0545 -1.8439  0.2887
 6212TIP3    H218643   2.767   0.379   0.187  2.0031  1.1555 -0.1419
 6213TIP3   OH218644   1.650   5.413   0.966  0.3402 -0.3700 -0.0367
 6213TIP3    H118645   1.713   5.442   0.901  0.7110  0.2198  0.5835
 6213TIP3    H218646   1.572   5.391   0.915  0.4499  0.5927 -0.6294
 6214TIP3   OH218647   0.031   5.004   4.781  0.5886  0.2561 -0.7221
 6214TIP3    H118648   0.024   4.929   4.722 -0.9715  0.3059 -0.6079
 6214TIP3    H218649  -0.001   5.078   4.730 -1.8314  0.1139  0.5307
 6215TIP3   OH218650   0.193   0.317   0.425 -0.3743 -0.0397  0.0731
 6215TIP3    H118651   0.118   0.334   0.482 -0.2444  2.1735 -0.3515
 6215TIP3    H218652   0.192   0.222   0.412 -2.1286 -0.2413  1.3813
 6216TIP3   OH218653   4.111   1.200   4.689 -0.1923  0.0887 -0.0723
 6216TIP3    H118654   4.040   1.192   4.625 -0.9079  1.0827  0.5930
 6216TIP3    H218655   4.098   1.285   4.730  2.0068  0.7521 -0.6757
 6217TIP3   OH218656   1.665   5.257   0.267  0.0275  0.5825  0.3205
 6217TIP3    H118657   1.603   5.280   0.336 -0.7212  0.7828 -0.4082
 6217TIP3    H218658   1.729   5.199   0.310 -0.9902 -0.0919  0.9430
 6218TIP3   OH218659   5.584   2.939   4.045 -0.3266 -0.5584  0.0140
 6218TIP3    H118660   5.547   3.027   4.034 -2.5341 -1.4640 -0.1120
 6218TIP3    H218661   5.621   2.939   4.133  0.9966  0.9394 -0.5196
 6219TIP3   OH218662   0.216   4.923   4.977 -0.1878  0.7846  0.8874
 6219TIP3    H118663   0.226   5.018   4.968 -0.5960  0.6789 -0.7563
 6219TIP3    H218664   0.130   4.904   4.939  1.1913 -0.6149 -1.6672
 6220TIP3   OH218665   1.080   5.686   0.033 -0.2543  0.3430  0.4346
 6220TIP3    H118666   1.026   5.625  -0.016 -1.7934  0.7672  1.5500
 6220TIP3    H218667   1.138   5.631   0.085 -1.2148 -0.1694  0.9752
 6221TIP3   OH218668   0.933   4.092   0.145 -0.3631 -0.8139 -0.1319
 6221TIP3    H118669   0.914   4.185   0.161 -0.8130 -1.3491  2.6207
 6221TIP3    H218670   0.916   4.081   0.051 -0.4600  1.8365 -0.4844
 6222TIP3   OH218671   3.299   3.352   5.167  0.3807 -0.0777  0.1712
 6222TIP3    H118672   3.353   3.390   5.098  0.7516 -0.9681 -0.0297
 6222TIP3    H218673   3.213   3.340   5.126 -0.1193  1.7365  0.6170
 6223TIP3   OH218674   4.573   2.880   4.706  0.0170  0.1484  0.2152
 6223TIP3    H118675   4.558   2.804   4.761  0.1358 -0.0277  0.0059
 6223TIP3    H218676   4.567   2.846   4.616  2.3732 -0.0689  0.1125
 6224TIP3   OH218677   2.934   2.964   4.485 -0.1734  0.2763  0.3377
 6224TIP3    H118678   2.978   3.005   4.411 -0.5203 -1.3011 -0.7771
 6224TIP3    H218679   2.863   2.913   4.445 -0.9470  0.1500  1.8369
 6225TIP3   OH218680   3.323   1.867   4.665 -0.4322 -0.0364  0.3294
 6225TIP3    H118681   3.392   1.925   4.632  0.3636 -0.0594  1.9050
 6225TIP3    H218682   3.285   1.828   4.586 -0.1949  1.7240 -0.6819
 6226TIP3   OH218683   0.934   5.340   3.335 -0.1253 -0.3143  0.5828
 6226TIP3    H118684   0.944   5.249   3.310  0.6175 -0.2791  0.7417
 6226TIP3    H218685   0.847   5.365   3.304  0.0405 -0.8087 -0.2655
 6227TIP3   OH218686   3.585   0.666   2.121  0.0654 -0.0395  0.6855
 6227TIP3    H118687   3.544   0.748   2.094  1.1009  0.2787  0.0475
 6227TIP3    H218688   3.601   0.677   2.215  2.1557  1.3811  0.2059
 6228TIP3   OH218689   0.858   5.632   0.835 -0.3074 -0.4552 -0.6505
 6228TIP3    H118690   0.787   5.669   0.782 -0.4299  0.8839  0.4168
 6228TIP3    H218691   0.821   5.623   0.922  0.9194  0.5912  0.0081
 6229TIP3   OH218692   0.859   0.964   4.868 -0.5200 -0.0852 -0.1243
 6229TIP3    H118693   0.803   0.974   4.790  0.6753 -1.1490 -1.1363
 6229TIP3    H218694   0.813   1.012   4.936 -2.2060 -0.1383 -1.1879
 6230TIP3   OH218695   3.757   2.194   5.043  0.8581  0.3099  0.5403
 6230TIP3    H118696   3.827   2.152   5.092  0.1128  0.9044  2.1433
 6230TIP3    H218697   3.780   2.287   5.042  2.0052  0.0396 -2.1679
 6231TIP3   OH218698   1.323   1.473   0.982  0.1837 -0.1936 -0.0251
 6231TIP3    H118699   1.388   1.527   1.029  1.2014 -1.2140 -0.2337
 6231TIP3    H218700   1.268   1.437   1.050  0.7492 -0.4982  0.2721
 6232TIP3   OH218701   0.584   4.384   2.472 -0.3275 -0.1353 -0.4390
 6232TIP3    H118702   0.561   4.305   2.522 -0.9238 -0.2283 -0.8571
 6232TIP3    H218703   0.513   4.445   2.492 -0.3120 -0.0048 -0.7960
 6233TIP3   OH218704   0.043   2.211   3.327 -0.9830  0.4199 -0.7285
 6233TIP3    H118705   0.074   2.289   3.374 -1.4348  1.6688 -2.4477
 6233TIP3    H218706   0.019   2.244   3.240 -4.4231 -1.0162 -0.3687
 6234TIP3   OH218707   3.799   0.845   1.969  0.3448 -0.2759 -0.4227
 6234TIP3    H118708   3.779   0.798   1.888  0.8108 -2.5375  0.7352
 6234TIP3    H218709   3.715   0.848   2.017  0.3097  0.1140 -0.5046
 6235TIP3   OH218710   5.220   2.380   5.302 -0.1776 -0.4209  0.1005
 6235TIP3    H118711   5.247   2.289   5.307  2.1539  0.1006 -1.5787
 6235TIP3    H218712   5.179   2.388   5.216  0.2238  0.2317 -0.0380
 6236TIP3   OH218713   4.632   3.338   4.796  0.3542  0.4283  0.1867
 6236TIP3    H118714   4.539   3.331   4.777  0.3637 -1.9363  0.8716
 6236TIP3    H218715   4.662   3.247   4.805  2.6316  1.1655  0.3660
 6237TIP3   OH218716   5.205   3.839   3.547 -0.3666 -0.0683  0.6336
 6237TIP3    H118717   5.220   3.829   3.453 -0.3860 -0.0740  0.6311
 6237TIP3    H218718   5.260   3.913   3.572 -1.9221  1.2613  0.2131
 6238TIP3   OH218719   0.938   2.098   4.929 -0.3509  0.0293  0.2183
 6238TIP3    H118720   0.851   2.059   4.922 -0.3932  0.3835 -1.5325
 6238TIP3    H218721   0.996   2.034   4.888  0.0361  0.3586  0.2499
 6239TIP3   OH218722   4.394   0.649   3.940  0.3124  0.2763  0.2081
 6239TIP3    H118723   4.470   0.592   3.938  0.4187  0.4415 -0.9743
 6239TIP3    H218724   4.342   0.618   4.014 -0.1632 -2.0722 -1.0613
 6240TIP3   OH218725   4.524   0.057   0.144  0.4346 -0.1921 -0.3018
 6240TIP3    H118726   4.462  -0.014   0.124 -1.4838  0.1754  3.6878
 6240TIP3    H218727   4.480   0.136   0.113 -0.6807 -0.0579  1.5195
 6241TIP3   OH218728   0.823   3.916   2.718  0.1623  0.5441 -0.2419
 6241TIP3    H118729   0.791   3.849   2.779  0.5567 -0.6395 -1.2940
 6241TIP3    H218730   0.760   3.987   2.724 -1.7206 -1.0190 -0.9782
 6242TIP3   OH218731   2.681   0.497   1.680 -0.5715 -0.3828  0.2195
 6242TIP3    H118732   2.689   0.581   1.635 -2.2730  0.6908  1.8356
 6242TIP3    H218733   2.614   0.449   1.632 -1.0562  0.0108  0.5020
 6243TIP3   OH218734   1.605   0.281   1.427 -0.3976 -0.1398 -0.4332
 6243TIP3    H118735   1.679   0.330   1.391 -0.7085  0.2459 -0.5520
 6243TIP3    H218736   1.613   0.291   1.522 -1.8399  2.2084 -0.5170
 6244TIP3   OH218737   1.655   0.396   0.365 -0.0169  0.2500 -0.1652
 6244TIP3    H118738   1.594   0.362   0.299 -0.0151  1.0236 -0.5652
 6244TIP3    H218739   1.725   0.437   0.313 -0.1226  1.0488  0.3328
 6245TIP3   OH218740   4.718   0.762   2.614 -0.2924 -0.3789 -1.0498
 6245TIP3    H118741   4.670   0.692   2.571 -1.6968 -0.0453 -0.0583
 6245TIP3    H218742   4.752   0.721   2.694 -1.9254  0.2981  0.0137
 6246TIP3   OH218743   3.133   1.951   0.828 -0.8763 -0.4419  0.4319
 6246TIP3    H118744   3.157   1.908   0.746 -0.8089 -0.2402  0.3464
 6246TIP3    H218745   3.041   1.928   0.840 -1.5895  1.5106 -0.9573
 6247TIP3   OH218746   1.215   0.633   1.086  0.4706 -0.4431 -0.2275
 6247TIP3    H118747   1.183   0.616   0.998 -4.2374  0.1609  1.2251
 6247TIP3    H218748   1.214   0.729   1.094 -0.1998 -0.5258  0.8017
 6248TIP3   OH218749   5.302   4.039   0.262 -0.2717  0.1351  0.5747
 6248TIP3    H118750   5.337   4.125   0.236  0.7324 -0.1884  0.8300
 6248TIP3    H218751   5.208   4.053   0.270 -0.1470  1.1533  0.3680
 6249TIP3   OH218752   2.854   5.809   0.531  0.0859 -0.2788 -0.1105
 6249TIP3    H118753   2.807   5.771   0.457  0.1561  1.2921 -0.9769
 6249TIP3    H218754   2.793   5.873   0.567  0.7225  0.1966  0.1180
 6250TIP3   OH218755   2.437   4.465   1.727  0.7320 -0.0497  0.0480
 6250TIP3    H118756   2.505   4.481   1.792  0.7515 -0.0086  0.0170
 6250TIP3    H218757   2.436   4.544   1.673 -0.1200  0.4187  0.7408
 6251TIP3   OH218758   1.791   5.123   0.800  0.0503  0.5490 -0.1224
 6251TIP3    H118759   1.817   5.053   0.860 -1.3904  0.5637  0.5660
 6251TIP3    H218760   1.865   5.133   0.740  0.7790 -0.7092  0.5404
 6252TIP3   OH218761   5.334   0.667   3.761  0.5254 -0.9251 -0.0120
 6252TIP3    H118762   5.422   0.693   3.789  0.5310 -1.9637  0.9663
 6252TIP3    H218763   5.276   0.699   3.829  0.2271 -0.9439 -0.2553
 6253TIP3   OH218764   2.090   0.843   0.209  0.3001  0.5018 -0.3934
 6253TIP3    H118765   2.036   0.772   0.243  1.6405  0.4132  1.5918
 6253TIP3    H218766   2.027   0.902   0.166 -1.3864  0.3704  1.8106
 6254TIP3   OH218767   0.948   5.452   0.648  0.6165  0.2262  0.3461
 6254TIP3    H118768   0.955   5.509   0.725  0.8482  0.4341  0.1726
 6254TIP3    H218769   0.861   5.414   0.654 -0.0835  1.6929 -0.2933
 6255TIP3   OH218770   0.181   4.250   0.291  0.1463  0.0736  0.1306
 6255TIP3    H118771   0.229   4.251   0.208  0.1049  2.5165  0.0752
 6255TIP3    H218772   0.123   4.327   0.285 -0.9126 -0.5695  1.8207
 6256TIP3   OH218773   4.090   0.085   0.527 -0.0477 -0.0366 -0.3250
 6256TIP3    H118774   4.169   0.107   0.477  0.5658 -1.6048 -0.0542
 6256TIP3    H218775   4.067  -0.003   0.499 -1.1295  0.0270  0.3434
 6257TIP3   OH218776   6.459   3.186   0.782 -0.5519  0.0318 -0.8704
 6257TIP3    H118777   6.369   3.169   0.809 -1.3753  0.5355 -3.1581
 6257TIP3    H218778   6.507   3.108   0.809 -1.5445  0.0006  0.8949
 6258TIP3   OH218779   0.989   5.894   2.313  0.3107  0.3188 -0.4591
 6258TIP3    H118780   0.942   5.860   2.389 -0.2721  4.6590  1.3087
 6258TIP3    H218781   0.930   5.880   2.239 -0.1833 -1.7529  0.3108
 6259TIP3   OH218782   5.616   3.583   5.147  0.1255  0.1931 -0.0002
 6259TIP3    H118783   5.589   3.611   5.235  2.8097 -0.1442  0.9822
 6259TIP3    H218784   5.614   3.487   5.151  0.3419  0.1775 -0.2927
 6260TIP3   OH218785   1.485   4.967   2.254  0.1985  0.3601 -0.0073
 6260TIP3    H118786   1.451   4.880   2.234 -0.2406  0.5751 -0.2095
 6260TIP3    H218787   1.537   4.991   2.177  0.0076  0.4370 -0.1102
 6261TIP3   OH218788   2.614   4.030   4.833  0.1422  0.1589  0.0698
 6261TIP3    H118789   2.527   3.992   4.827  0.3721 -0.2643 -0.5535
 6261TIP3    H218790   2.648   3.998   4.917 -0.1889  0.0971  0.1813
 6262TIP3   OH218791   0.619   3.572   1.234 -0.4171 -0.1477  0.3054
 6262TIP3    H118792   0.595   3.574   1.327  0.0282 -1.1994  0.4504
 6262TIP3    H218793   0.712   3.549   1.234 -0.7391 -1.4914 -0.4386
 6263TIP3   OH218794   2.354   6.126   0.738 -0.2431 -0.2579  0.1676
 6263TIP3    H118795   2.267   6.119   0.699 -0.2267 -0.4923  0.1748
 6263TIP3    H218796   2.337   6.125   0.833 -0.3700  1.2774  0.1842
 6264TIP3   OH218797   0.365   2.002   4.508 -0.3849  0.1899  0.0980
 6264TIP3    H118798   0.391   1.919   4.468  2.1356  1.2103 -0.4616
 6264TIP3    H218799   0.408   2.069   4.454  0.7436  1.7058  2.7704
 6265TIP3   OH218800   2.659   5.706   1.410  0.8377 -0.4405 -0.2772
 6265TIP3    H118801   2.566   5.718   1.391  0.5119  0.2291  1.6049
 6265TIP3    H218802   2.667   5.613   1.433  0.0771  0.0927  2.3130
 6266TIP3   OH218803   5.399   1.990   1.954  0.2951 -0.3515  0.6752
 6266TIP3    H118804   5.324   2.039   1.989  1.4984  1.1338  1.2272
 6266TIP3    H218805   5.363   1.904   1.932 -2.2215  1.2445 -1.7611
 6267TIP3   OH218806   0.871   0.815   0.383 -0.3176 -0.2266  0.5378
 6267TIP3    H118807   0.817   0.739   0.359  0.1654 -0.6899  0.9021
 6267TIP3    H218808   0.960   0.782   0.381  0.1717  1.1141 -2.3113
 6268TIP3   OH218809   5.656   0.004   0.379 -0.8396  0.6100 -0.4041
 6268TIP3    H118810   5.597  -0.030   0.312  0.6665 -1.1788 -0.8752
 6268TIP3    H218811   5.690   0.085   0.342 -2.3650  1.2307 -0.4696
 6269TIP3   OH218812   3.966   5.188   3.155  0.1982  0.3231  0.5865
 6269TIP3    H118813   3.949   5.245   3.080  0.4040 -0.3432  0.0186
 6269TIP3    H218814   4.061   5.179   3.157  0.1936  0.3912  0.9614
 6270TIP3   OH218815   0.114   3.336   5.280 -0.7862 -0.4641 -0.1488
 6270TIP3    H118816   0.176   3.380   5.221  1.3895 -2.3852  0.6166
 6270TIP3    H218817   0.035   3.324   5.228  0.4358 -0.4071 -2.0611
 6271TIP3   OH218818   1.498   5.349   0.481 -0.1620  0.2022  0.2753
 6271TIP3    H118819   1.421   5.399   0.508 -0.2873  0.9081 -1.2962
 6271TIP3    H218820   1.471   5.258   0.486 -0.9470  0.4297  0.2149
 6272TIP3   OH218821   5.713   4.585   4.949  0.4849  0.4039  0.6112
 6272TIP3    H118822   5.701   4.630   5.033  0.8957  1.3248  0.1821
 6272TIP3    H218823   5.645   4.517   4.948  0.7323  0.1323  1.8519
 6273TIP3   OH218824   5.779   5.462   0.525  0.4443  0.0281 -0.0605
 6273TIP3    H118825   5.730   5.424   0.452  0.9216 -2.6600  0.9558
 6273TIP3    H218826   5.818   5.541   0.489 -2.3964  0.8012 -1.6579
 6274TIP3   OH218827   2.131   3.903   5.297 -0.2170  0.3325  0.1191
 6274TIP3    H118828   2.224   3.895   5.319 -0.2921  1.8463  1.0897
 6274TIP3    H218829   2.131   3.926   5.204  0.3787  0.0801  0.0546
 6275TIP3   OH218830   0.342   1.718   4.832 -0.1746  0.1406  0.3977
 6275TIP3    H118831   0.277   1.672   4.886  0.2331 -0.8355  0.0647
 6275TIP3    H218832   0.364   1.655   4.763 -0.3184  1.1906 -0.6143
 6276TIP3   OH218833   0.442   5.006   4.775  0.0787 -0.4197 -0.0853
 6276TIP3    H118834   0.533   4.982   4.792  0.3318 -0.0355 -0.8567
 6276TIP3    H218835   0.391   4.956   4.839  0.7115 -1.7284 -0.5918
 6277TIP3   OH218836   4.370   1.241   0.892  0.4449  0.6786  0.1246
 6277TIP3    H118837   4.343   1.325   0.929 -0.0997  0.8865 -0.7350
 6277TIP3    H218838   4.324   1.176   0.945  0.6148  0.9287  0.5846
 6278TIP3   OH218839   4.943   1.320   4.897 -0.1348 -0.3179  0.0027
 6278TIP3    H118840   4.861   1.271   4.891  0.5360 -1.4192 -0.4260
 6278TIP3    H218841   4.943   1.376   4.820 -0.8553  0.2748  0.4283
 6279TIP3   OH218842   0.365   5.705   1.195  0.3328  0.3267 -0.4426
 6279TIP3    H118843   0.276   5.716   1.162 -0.4148 -3.1622  0.2404
 6279TIP3    H218844   0.362   5.743   1.283  0.0222  1.7346 -1.0364
 6280TIP3   OH218845   0.837   4.412   4.435 -0.4770 -0.3593  0.3025
 6280TIP3    H118846   0.745   4.403   4.462 -0.4069  1.2207  1.1325
 6280TIP3    H218847   0.887   4.401   4.516 -0.1060  1.6555  0.3666
 6281TIP3   OH218848   1.095   4.772   0.688 -0.2135  0.1998  0.2587
 6281TIP3    H118849   1.175   4.823   0.698 -0.8440  1.1854  0.3386
 6281TIP3    H218850   1.104   4.730   0.603  0.5584  0.0042  0.4369
 6282TIP3   OH218851   1.694   5.824   2.573  0.1411 -0.1441 -0.3264
 6282TIP3    H118852   1.706   5.744   2.624  0.0525  0.4992  0.7186
 6282TIP3    H218853   1.783   5.854   2.555  0.1750 -0.4833 -0.7413
 6283TIP3   OH218854   4.113   4.253   3.385 -0.3778  0.3601 -0.0632
 6283TIP3    H118855   4.145   4.167   3.409 -0.4548  0.4865  0.5104
 6283TIP3    H218856   4.099   4.249   3.291 -0.4395 -0.2714 -0.0252
 6284TIP3   OH218857   2.052   4.675   1.007  0.5347 -0.7537  0.2350
 6284TIP3    H118858   2.060   4.681   0.912 -0.8557  0.6200  0.1807
 6284TIP3    H218859   2.112   4.741   1.041 -1.0962  0.7797  0.2029
 6285TIP3   OH218860   1.393   2.979   4.231 -0.3668  0.6405 -0.1995
 6285TIP3    H118861   1.376   2.931   4.312  0.1931  3.3216  1.5730
 6285TIP3    H218862   1.368   3.069   4.251  2.3331  1.8753 -2.1494
 6286TIP3   OH218863   5.295   1.488   4.878 -0.0004  0.4767 -0.0392
 6286TIP3    H118864   5.359   1.418   4.886 -0.6950 -0.0836  0.6653
 6286TIP3    H218865   5.247   1.468   4.797  0.5435  0.7616 -0.4352
 6287TIP3   OH218866   2.721   2.918   2.077  0.1442  0.2370 -0.1542
 6287TIP3    H118867   2.666   2.973   2.021  1.3018  1.0340 -0.5172
 6287TIP3    H218868   2.810   2.950   2.062  0.8133 -1.6122 -0.2430
 6288TIP3   OH218869   3.656   2.435   0.646 -0.0806 -0.8714  0.0302
 6288TIP3    H118870   3.679   2.527   0.664 -0.4314 -1.0114  1.2612
 6288TIP3    H218871   3.718   2.385   0.699 -1.9490 -1.2859  1.8800
 6289TIP3   OH218872   0.783   5.356   0.390  0.8286 -0.2675  0.4828
 6289TIP3    H118873   0.857   5.300   0.367  0.4495 -0.3203 -0.6022
 6289TIP3    H218874   0.753   5.322   0.474  0.7552 -1.5316 -0.0459
 6290TIP3   OH218875   2.446   5.346   2.022 -0.6845  0.0595  0.1177
 6290TIP3    H118876   2.510   5.368   1.954 -0.6621  2.4058  0.8401
 6290TIP3    H218877   2.361   5.352   1.979 -0.5020 -1.9703 -0.5659
 6291TIP3   OH218878   0.110   5.617   0.388  0.2259 -0.2021 -0.3393
 6291TIP3    H118879   0.127   5.707   0.415 -0.3725 -0.5864  1.4011
 6291TIP3    H218880   0.163   5.564   0.447 -1.8833 -1.1083  0.7976
 6292TIP3   OH218881   6.464   4.697   0.401  0.0336 -0.7394 -0.1590
 6292TIP3    H118882   6.459   4.660   0.489  1.0186 -0.4957  0.0050
 6292TIP3    H218883   6.428   4.785   0.410  0.9785 -0.3880  0.1918
 6293TIP3   OH218884   5.364   1.154   0.201 -0.0800  0.3800 -0.1949
 6293TIP3    H118885   5.420   1.175   0.276 -0.0903  2.7241 -0.8106
 6293TIP3    H218886   5.393   1.213   0.132 -1.5503 -0.2182 -1.3456
 6294TIP3   OH218887   2.055   1.666   1.559  0.5513 -0.2271 -0.1054
 6294TIP3    H118888   2.060   1.583   1.512 -0.1365  1.0420 -2.4647
 6294TIP3    H218889   1.962   1.681   1.572  0.7113 -0.2756  1.1817
 6295TIP3   OH218890   5.750   4.086   3.110 -0.2147  0.3071 -0.3483
 6295TIP3    H118891   5.690   4.070   3.183 -1.3930 -0.2335 -1.4238
 6295TIP3    H218892   5.837   4.090   3.151 -0.9913  1.3717  1.2603
 6296TIP3   OH218893   3.378   5.807   5.197  0.0197  0.2808  0.0730
 6296TIP3    H118894   3.438   5.830   5.126 -1.7038  3.6391 -0.3474
 6296TIP3    H218895   3.400   5.868   5.268  0.3082 -1.6531  1.6922
 6297TIP3   OH218896   5.073   3.638   0.998 -0.3142 -0.2346 -0.2152
 6297TIP3    H118897   5.006   3.686   1.046 -0.7911 -0.0839 -1.0075
 6297TIP3    H218898   5.154   3.652   1.047 -0.4483  1.4000 -0.4600
 6298TIP3   OH218899   4.709   2.313   1.452  0.0185  0.3265 -0.5377
 6298TIP3    H118900   4.629   2.265   1.433  0.8034 -1.3155  0.2583
 6298TIP3    H218901   4.702   2.339   1.544  1.8402 -2.7057  0.5180
 6299TIP3   OH218902   1.660   4.030   4.720  0.2694 -0.1712 -0.1604
 6299TIP3    H118903   1.620   4.114   4.697 -1.8351 -1.6354 -2.0225
 6299TIP3    H218904   1.627   4.011   4.808  0.9718  1.0674  0.3838
 6300TIP3   OH218905   6.428   3.459   0.773 -0.2557 -0.6888 -0.5593
 6300TIP3    H118906   6.459   3.373   0.801 -2.0883 -1.0874  0.3161
 6300TIP3    H218907   6.349   3.441   0.723 -0.5285  0.4651 -0.5618
 6301TIP3   OH218908   0.422   1.415   3.958  0.1702  0.4634  0.3625
 6301TIP3    H118909   0.468   1.331   3.951  0.5391  0.7586 -0.8422
 6301TIP3    H218910   0.350   1.408   3.895  0.5590  1.2767 -0.1835
 6302TIP3   OH218911   5.937   1.422   0.160  0.1965 -0.1436  0.1860
 6302TIP3    H118912   5.945   1.502   0.108 -1.8316  1.5041  2.2957
 6302TIP3    H218913   6.027   1.401   0.185  0.7274  1.7162 -0.0447
 6303TIP3   OH218914   3.803   1.171   0.353  0.0378 -0.0231  0.0647
 6303TIP3    H118915   3.719   1.126   0.343  1.1975 -2.3481  0.2812
 6303TIP3    H218916   3.857   1.137   0.282  1.2854  0.2418  0.8648
 6304TIP3   OH218917   1.210   4.443   4.450  0.4210  0.4143  0.3373
 6304TIP3    H118918   1.286   4.403   4.408  1.0381  0.3193  1.5203
 6304TIP3    H218919   1.180   4.509   4.387  0.8670 -0.2399 -0.5769
 6305TIP3   OH218920   3.545   1.644  -0.029  0.4881 -0.2836  0.4950
 6305TIP3    H118921   3.579   1.711   0.030 -0.9377  0.5054  0.4475
 6305TIP3    H218922   3.463   1.616   0.012  0.5063 -1.1780 -0.0799
 6306TIP3   OH218923   6.288   1.816   4.360  0.2377  0.6399 -0.1614
 6306TIP3    H118924   6.214   1.783   4.410  0.2982 -0.8283 -1.0131
 6306TIP3    H218925   6.355   1.748   4.369  0.8778  1.1872 -0.7665
 6307TIP3   OH218926   2.353   3.913   4.763  0.2549 -0.1208 -0.1591
 6307TIP3    H118927   2.347   3.928   4.668 -0.1037  2.0528  0.1980
 6307TIP3    H218928   2.353   3.817   4.771 -1.9214 -0.3513 -2.2268
 6308TIP3   OH218929   0.231   5.363   5.084  0.0866 -0.0872  0.6947
 6308TIP3    H118930   0.301   5.428   5.078 -0.8769  0.8732 -0.5293
 6308TIP3    H218931   0.192   5.362   4.996 -2.1428  0.2078  1.6442
 6309TIP3   OH218932   0.156   0.786   0.631 -0.0682  0.2545  0.0820
 6309TIP3    H118933   0.093   0.853   0.605 -1.4179 -1.5753 -1.5133
 6309TIP3    H218934   0.207   0.768   0.552 -0.3155 -1.2408  0.2488
 6310TIP3   OH218935   0.865   2.524   3.412 -0.6984  0.1112  0.7908
 6310TIP3    H118936   0.832   2.437   3.435 -1.6251  0.4500  0.7877
 6310TIP3    H218937   0.960   2.516   3.418 -0.6418 -1.4898 -1.2793
 6311TIP3   OH218938   3.797   1.867   1.331  0.9445 -0.0438 -0.1371
 6311TIP3    H118939   3.719   1.837   1.377  0.5183  1.3756  0.0838
 6311TIP3    H218940   3.853   1.789   1.326 -0.4921 -1.0900 -0.3603
 6312TIP3   OH218941   0.947   5.037   0.769  0.3742 -0.6823 -0.0254
 6312TIP3    H118942   0.961   5.051   0.863 -1.1547 -1.0645  0.2789
 6312TIP3    H218943   1.026   4.994   0.739  0.9139 -0.4758  1.0794
 6313TIP3   OH218944   5.625   2.459   0.719 -0.3970  0.7296 -0.4768
 6313TIP3    H118945   5.632   2.397   0.791 -0.8873  1.8824  0.5697
 6313TIP3    H218946   5.537   2.495   0.727 -0.1874  1.4134 -1.1985
 6314TIP3   OH218947   5.258   0.662   0.455  0.0830  0.5910 -0.0651
 6314TIP3    H118948   5.303   0.676   0.538 -1.9964  0.3825  1.1218
 6314TIP3    H218949   5.263   0.567   0.441  0.1911  0.5927 -0.0391
 6315TIP3   OH218950   6.005   1.812   1.823 -0.0092 -0.0269 -0.2268
 6315TIP3    H118951   6.026   1.886   1.767  0.4667 -0.4099 -0.5663
 6315TIP3    H218952   6.057   1.740   1.788  1.3089  0.0482  1.5048
 6316TIP3   OH218953   0.954   5.418   4.734 -0.0332  0.2134 -0.0945
 6316TIP3    H118954   0.925   5.471   4.659  1.7299  1.2632 -0.0792
 6316TIP3    H218955   0.877   5.367   4.759 -0.3497 -0.9938 -3.3303
 6317TIP3   OH218956   4.846   2.049   1.694 -0.1869  0.2658  0.1072
 6317TIP3    H118957   4.825   2.044   1.787 -0.0193 -0.4123  0.1163
 6317TIP3    H218958   4.931   2.004   1.687 -1.4502 -2.0656 -0.7509
 6318TIP3   OH218959   2.141   1.227   0.285  0.9389  0.0002  0.0197
 6318TIP3    H118960   2.178   1.300   0.335  0.2841  0.3391  0.0013
 6318TIP3    H218961   2.096   1.174   0.351 -1.8252  1.6115 -0.5264
 6319TIP3   OH218962   3.478   2.230   1.072  0.5379  0.1321  0.3626
 6319TIP3    H118963   3.566   2.262   1.052  0.1064  1.5501  0.7037
 6319TIP3    H218964   3.422   2.269   1.005  0.1199 -0.6016  0.2701
 6320TIP3   OH218965   6.435   2.809   2.406  0.4570  0.2519 -0.4039
 6320TIP3    H118966   6.399   2.769   2.326 -0.0418  3.5465 -1.9450
 6320TIP3    H218967   6.511   2.756   2.427 -0.1635 -1.4887 -2.3146
 6321TIP3   OH218968   0.067   2.821   0.478 -0.0222  0.3321  0.4054
 6321TIP3    H118969   0.085   2.906   0.436 -1.6523  0.6275  0.2794
 6321TIP3    H218970   0.085   2.836   0.571  0.2677  0.6451  0.3006
 6322TIP3   OH218971   0.540   4.213   3.831  0.4178  0.1886  0.1208
 6322TIP3    H118972   0.619   4.250   3.792  0.1296  1.8889  1.1281
 6322TIP3    H218973   0.558   4.210   3.924 -0.5535  0.2024  0.3178
 6323TIP3   OH218974   0.884   0.850   1.070 -0.5661  0.1137  0.1287
 6323TIP3    H118975   0.902   0.933   1.113 -1.9391  0.9980 -0.9330
 6323TIP3    H218976   0.888   0.784   1.140 -0.5895  1.2155  1.1744
 6324TIP3   OH218977   4.496   2.375   0.276 -0.5569 -0.7014  0.7001
 6324TIP3    H118978   4.407   2.404   0.291 -0.7703 -1.1555  0.3566
 6324TIP3    H218979   4.527   2.345   0.361 -1.0109 -1.2747  0.6700
 6325TIP3   OH218980   2.567   5.760   0.635  0.3174  0.8706 -0.3316
 6325TIP3    H118981   2.507   5.685   0.635 -0.1933  1.2711 -0.3340
 6325TIP3    H218982   2.654   5.722   0.624  0.1677  0.1971  0.7883
 6326TIP3   OH218983   4.525   2.996   1.051 -0.0572 -0.0452  0.6553
 6326TIP3    H118984   4.545   3.088   1.036  0.5040  0.3660  3.5958
 6326TIP3    H218985   4.607   2.950   1.033 -0.6105 -0.1500 -1.8329
 6327TIP3   OH218986   3.227   1.649   0.416  0.2915  0.7779  0.7344
 6327TIP3    H118987   3.231   1.631   0.510 -2.7648 -1.7146  0.4601
 6327TIP3    H218988   3.292   1.590   0.377 -0.9456 -0.7830  0.9913
 6328TIP3   OH218989   4.957   0.445   1.614  0.0530 -0.1890 -0.1333
 6328TIP3    H118990   4.863   0.446   1.626  0.2363 -2.3343  1.6383
 6328TIP3    H218991   4.989   0.516   1.670 -0.3521 -0.7046  0.7545
 6329TIP3   OH218992   4.556   3.871   0.176 -0.1558  0.1560  0.7172
 6329TIP3    H118993   4.559   3.966   0.191  1.1862  0.4512 -1.1060
 6329TIP3    H218994   4.603   3.833   0.250 -0.9124  0.8909  1.5867
 6330TIP3   OH218995   5.642   2.258   0.938  0.1264  0.1195 -0.2597
 6330TIP3    H118996   5.735   2.249   0.959  0.1555  1.5869  0.3289
 6330TIP3    H218997   5.626   2.193   0.870  1.8770  0.6940 -1.2590
 6331TIP3   OH218998   0.682   2.924   4.570 -0.1689  0.0631  0.7196
 6331TIP3    H118999   0.717   2.855   4.514 -2.5705 -1.0222  0.4665
 6331TIP3    H219000   0.594   2.941   4.535 -0.6539  1.2973  2.4618
 6332TIP3   OH219001   1.084   3.018   0.326 -0.0518 -0.3530 -0.0758
 6332TIP3    H119002   1.126   3.024   0.411 -0.5620 -0.3162  0.1764
 6332TIP3    H219003   1.009   2.960   0.340 -0.9707  0.7845 -0.1564
 6333TIP3   OH219004   4.300   2.972   0.114  0.1263 -0.1180 -0.2499
 6333TIP3    H119005   4.348   2.893   0.090 -0.1099 -0.4040  0.2255
 6333TIP3    H219006   4.330   3.038   0.051  1.4185 -0.1917  0.2628
 6334TIP3   OH219007   5.864   0.362   4.904 -0.4853  0.6025  0.1656
 6334TIP3    H119008   5.797   0.427   4.923 -0.9214  0.3738 -0.5608
 6334TIP3    H219009   5.878   0.369   4.810 -0.8201 -0.6196  0.0149
 6335TIP3   OH219010   5.124   0.578   4.915 -0.0864  1.3351  0.2596
 6335TIP3    H119011   5.102   0.609   5.003  0.3643  2.3415  0.0155
 6335TIP3    H219012   5.076   0.637   4.857 -2.2818 -0.7662 -0.1514
 6336TIP3   OH219013   6.191   2.892   0.849 -0.4581 -0.4015 -0.2824
 6336TIP3    H119014   6.139   2.855   0.778 -0.1580 -2.2072  0.4336
 6336TIP3    H219015   6.267   2.834   0.856 -0.1900  0.1030  1.1313
 6337TIP3   OH219016   0.043   2.217   1.286  0.1942  0.2824 -0.3344
 6337TIP3    H119017   0.043   2.261   1.371  2.1179  0.5111 -0.4096
 6337TIP3    H219018  -0.034   2.162   1.287  1.1705 -1.1346  2.3480
 6338TIP3   OH219019   3.450   1.940   1.031 -0.1605 -0.0672  0.4581
 6338TIP3    H119020   3.366   1.894   1.037  0.0360 -0.3257  1.4431
 6338TIP3    H219021   3.431   2.029   1.061 -0.2585  0.1186 -0.1483
 6339TIP3   OH219022   0.575   3.354   5.202 -0.1152  0.3299 -0.0194
 6339TIP3    H119023   0.628   3.370   5.280 -0.6879 -1.4214  0.7649
 6339TIP3    H219024   0.585   3.260   5.185 -1.5166  0.3278 -0.9152
 6340TIP3   OH219025   6.317   1.933   1.415  0.0857 -1.2824 -0.4052
 6340TIP3    H119026   6.409   1.921   1.439  0.2424  0.4176 -0.1046
 6340TIP3    H219027   6.318   1.944   1.320  0.1805 -1.3557 -0.4122
 6341TIP3   OH219028   2.133   0.539   4.243  0.1858  0.3343  0.5938
 6341TIP3    H119029   2.190   0.615   4.233 -1.4341  1.8430  2.3347
 6341TIP3    H219030   2.188   0.472   4.284  1.3144  0.9781  0.1213
 6342TIP3   OH219031   2.421   4.387   5.003  0.3774  0.3672 -0.1848
 6342TIP3    H119032   2.464   4.401   4.919  0.1729  0.8513 -0.2061
 6342TIP3    H219033   2.423   4.472   5.046  1.3515 -0.0881  0.7096
 6343TIP3   OH219034   2.780   2.174   4.644  0.2641 -0.0361 -0.4728
 6343TIP3    H119035   2.738   2.252   4.608 -1.5992  0.2288  2.1489
 6343TIP3    H219036   2.851   2.207   4.698 -0.0435 -0.1690  0.0219
 6344TIP3   OH219037   5.604   0.779   1.915  0.1469 -0.0593  0.0061
 6344TIP3    H119038   5.658   0.741   1.984  1.9999  2.0970 -0.1974
 6344TIP3    H219039   5.653   0.764   1.834 -0.6257 -0.0235 -0.4781
 6345TIP3   OH219040   2.010   3.777   2.879 -0.1095 -0.1556 -0.1223
 6345TIP3    H119041   2.081   3.717   2.902  1.9848  1.3646 -2.3675
 6345TIP3    H219042   2.035   3.860   2.919 -1.4858 -0.0182  0.4610
 6346TIP3   OH219043   5.695   2.003   1.921  0.8267  0.7930  0.7735
 6346TIP3    H119044   5.614   2.002   1.971  1.2348 -0.7542  1.4308
 6346TIP3    H219045   5.705   2.094   1.891 -3.3646  0.1845 -2.9034
 6347TIP3   OH219046   1.535   2.945   0.488 -0.3007 -0.2360  0.0959
 6347TIP3    H119047   1.459   2.975   0.538 -0.7452 -1.7319  0.3355
 6347TIP3    H219048   1.585   3.025   0.470 -0.6220  0.4576  2.1109
 6348TIP3   OH219049   1.104   0.917   1.610 -0.2003  0.1864  0.2897
 6348TIP3    H119050   1.132   0.828   1.589  0.4970  0.9469 -2.0706
 6348TIP3    H219051   1.008   0.914   1.603 -0.1452 -0.2489 -0.2838
 6349TIP3   OH219052   4.665   6.031   0.997 -0.3306 -0.0806  0.2973
 6349TIP3    H119053   4.596   5.969   1.023 -0.4815 -0.1366 -0.2380
 6349TIP3    H219054   4.734   5.976   0.960 -0.2629  0.0302  0.2599
 6350TIP3   OH219055   0.513   2.443   0.781 -0.0950 -0.9193 -0.0694
 6350TIP3    H119056   0.463   2.392   0.845  1.5663 -0.6654  1.4570
 6350TIP3    H219057   0.592   2.391   0.766  0.4460 -0.0086 -0.3833
 6351TIP3   OH219058   2.316   1.857   1.943 -0.4425 -0.4170 -0.3653
 6351TIP3    H119059   2.406   1.827   1.943  0.3182  1.6988  2.1136
 6351TIP3    H219060   2.295   1.870   1.850  1.4895 -1.7319 -1.0093
 6352TIP3   OH219061   6.232   2.991   1.487 -0.3645  0.0656  0.1189
 6352TIP3    H119062   6.308   2.933   1.498  0.9629  1.5013 -1.1661
 6352TIP3    H219063   6.163   2.935   1.452  0.6218 -0.9338 -0.2533
 6353TIP3   OH219064   5.663   1.820   1.305 -0.8959  0.1458 -0.0673
 6353TIP3    H119065   5.684   1.792   1.216 -0.6297  1.8894 -0.5629
 6353TIP3    H219066   5.736   1.787   1.359 -0.2580  0.4578 -0.7399
 6354TIP3   OH219067   6.393   2.041   0.708  0.8274  0.2221 -0.8306
 6354TIP3    H119068   6.489   2.046   0.706  0.8736  0.1693  0.6057
 6354TIP3    H219069   6.375   1.952   0.737  0.3527  0.2841 -0.9476
 6355TIP3   OH219070   1.660   2.739   1.519  0.9907 -0.3058 -0.1056
 6355TIP3    H119071   1.672   2.672   1.586 -0.7265 -0.2639  0.2514
 6355TIP3    H219072   1.695   2.699   1.439  0.0026 -1.6210  0.1076
 6356TIP3   OH219073   0.481   2.292   2.198 -0.1116 -0.0192 -0.0026
 6356TIP3    H119074   0.432   2.358   2.150  0.5580  0.3979 -0.1271
 6356TIP3    H219075   0.558   2.339   2.231  1.4284 -1.1994 -1.8073
 6357TIP3   OH219076   2.403   3.206   0.100  0.2338  0.2015 -0.2281
 6357TIP3    H119077   2.360   3.287   0.074 -0.6946  0.6486  2.5572
 6357TIP3    H219078   2.331   3.145   0.116  0.8301 -0.3959  0.2055
 6358TIP3   OH219079   0.209   2.746   2.020  0.2483 -0.0291  0.1135
 6358TIP3    H119080   0.304   2.740   2.013  0.3159 -0.5125  1.1987
 6358TIP3    H219081   0.194   2.814   2.086 -0.1164 -0.7234  0.7646
 6359TIP3   OH219082   0.156   1.626   0.061 -0.0819  0.3202  0.8028
 6359TIP3    H119083   0.203   1.563   0.115 -1.0024  0.5791  1.9500
 6359TIP3    H219084   0.069   1.588   0.050  0.5144 -0.4231 -1.7619
 6360TIP3   OH219085   3.689   4.175   4.904 -0.5205 -0.3062 -0.3841
 6360TIP3    H119086   3.623   4.172   4.973  1.6262 -0.4034  1.7759
 6360TIP3    H219087   3.664   4.105   4.844 -1.8841 -0.9345  0.8592
 6361TIP3   OH219088   6.366   6.087   2.758  0.3552  0.6298  0.2756
 6361TIP3    H119089   6.404   6.027   2.823  1.3692 -0.9926 -1.7498
 6361TIP3    H219090   6.375   6.174   2.797  2.1045 -0.1755  1.7542
 6362TIP3   OH219091   4.097   4.063   4.396 -0.7278 -0.0321 -0.3291
 6362TIP3    H119092   4.183   4.049   4.435 -0.7773 -1.0801 -0.5672
 6362TIP3    H219093   4.048   4.111   4.463 -0.2321 -0.2067  0.1646
 6363TIP3   OH219094   3.612   0.452   3.167  0.1095 -0.2310  0.0548
 6363TIP3    H119095   3.673   0.379   3.157  0.3199  0.2643 -2.4986
 6363TIP3    H219096   3.535   0.426   3.116 -0.8942  0.1819  1.3165
 6364TIP3   OH219097   0.635   0.879   0.920 -0.1709 -0.0584 -0.3780
 6364TIP3    H119098   0.667   0.894   0.831  0.6369  0.7027  0.0340
 6364TIP3    H219099   0.712   0.892   0.975 -0.6965 -0.4269  0.4434
 6365TIP3   OH219100   1.796   4.120   3.648 -0.3074  0.1903  0.1326
 6365TIP3    H119101   1.835   4.077   3.724 -0.7960  1.0431  0.8804
 6365TIP3    H219102   1.818   4.063   3.574  1.0469 -0.1110  0.7583
 6366TIP3   OH219103   0.589   1.487   1.592  0.2552 -0.0637  0.4304
 6366TIP3    H119104   0.499   1.459   1.608 -0.1924 -0.0489 -1.9678
 6366TIP3    H219105   0.581   1.559   1.530  2.0091 -1.0211 -0.9395
 6367TIP3   OH219106   2.640   4.432   5.206 -0.1936 -0.4036  0.3161
 6367TIP3    H119107   2.679   4.463   5.124 -1.2739  0.0980 -0.0164
 6367TIP3    H219108   2.563   4.383   5.178  0.0028 -1.1033  0.9868
 6368TIP3   OH219109   2.083   0.552   0.668 -0.3817 -0.5033  0.3286
 6368TIP3    H119110   2.020   0.601   0.719 -1.9677 -1.9037 -0.2282
 6368TIP3    H219111   2.128   0.496   0.732  0.4023  0.5861  0.7413
 6369TIP3   OH219112   0.650   1.674   0.777 -0.2456 -0.2483 -0.0281
 6369TIP3    H119113   0.738   1.701   0.751  0.4435 -0.7918  1.6510
 6369TIP3    H219114   0.654   1.578   0.776 -0.4275 -0.2684  1.3236
 6370TIP3   OH219115   1.167   2.265   1.014  0.0150 -0.1166 -0.4126
 6370TIP3    H119116   1.250   2.298   1.049 -0.1198 -1.3657  1.1097
 6370TIP3    H219117   1.188   2.235   0.926  1.5179 -1.8297  0.5135
 6371TIP3   OH219118   0.097   3.707   1.150 -0.2117 -0.2190  0.4014
 6371TIP3    H119119   0.187   3.739   1.151 -1.1295  2.5609  0.3454
 6371TIP3    H219120   0.074   3.695   1.243 -0.3331  0.7979  0.5105
 6372TIP3   OH219121   0.308   3.057   0.442  0.0601  0.0052 -0.2904
 6372TIP3    H119122   0.343   3.098   0.521  0.5600  0.8179 -0.9268
 6372TIP3    H219123   0.332   2.965   0.451  0.9696  0.2656  0.0439
 6373TIP3   OH219124   3.894   2.673   5.233 -0.1029  0.3863 -0.3566
 6373TIP3    H119125   3.933   2.635   5.312  0.3252  1.9400  0.1932
 6373TIP3    H219126   3.847   2.750   5.264  0.6428  1.4049 -1.7172
 6374TIP3   OH219127   4.032   4.947   4.441  0.5490  0.4584 -0.4326
 6374TIP3    H119128   4.125   4.939   4.460  0.3986 -0.8828 -0.2639
 6374TIP3    H219129   4.028   4.976   4.350  1.0772 -2.1156 -1.2955
 6375TIP3   OH219130   1.096   1.879   1.491  0.0931  0.9145  0.3055
 6375TIP3    H119131   1.181   1.848   1.521  0.0572  2.3564  2.0029
 6375TIP3    H219132   1.109   1.971   1.471 -0.9061  0.9863 -0.0477
 6376TIP3   OH219133   0.957   1.539   2.177 -0.3268 -0.5922 -0.2407
 6376TIP3    H119134   0.869   1.558   2.145 -0.7889 -1.3838  0.5423
 6376TIP3    H219135   0.993   1.624   2.200 -0.6997 -0.2112 -1.0297
 6377TIP3   OH219136   2.322   2.814   1.972 -0.4265 -0.1380 -0.2781
 6377TIP3    H119137   2.353   2.899   2.004 -0.4109  0.0978 -0.9039
 6377TIP3    H219138   2.284   2.833   1.886  1.3626 -1.0640 -1.3071
 6378TIP3   OH219139   4.990   3.700   3.781 -0.1692  0.6097 -0.0795
 6378TIP3    H119140   4.911   3.721   3.831  0.9555  1.5168  1.3546
 6378TIP3    H219141   5.019   3.784   3.746  0.0840  0.2581 -0.7163
 6379TIP3   OH219142   0.145   1.460   1.882 -0.1226  0.0767 -0.7019
 6379TIP3    H119143   0.208   1.433   1.948 -1.0026 -0.3439 -0.0144
 6379TIP3    H219144   0.086   1.520   1.928 -0.6361 -0.0820 -1.1460
 6380TIP3   OH219145   0.751   2.328   1.169  0.1883  0.2794  0.2631
 6380TIP3    H119146   0.717   2.253   1.121  0.1156  0.9060 -0.6765
 6380TIP3    H219147   0.689   2.340   1.241 -0.6397  0.3504 -0.4420
 6381TIP3   OH219148   5.019   3.130   1.515  0.4643  0.2416  0.3519
 6381TIP3    H119149   5.112   3.116   1.495  0.7841  3.0664 -0.3298
 6381TIP3    H219150   4.978   3.045   1.499  2.3307 -0.1364 -2.8845
 6382TIP3   OH219151   0.807   4.602   2.568 -0.1902 -0.2398 -0.0967
 6382TIP3    H119152   0.834   4.645   2.487  0.0460 -1.7558 -0.8444
 6382TIP3    H219153   0.724   4.560   2.547 -0.7579  0.3951  0.8177
 6383TIP3   OH219154   2.973   3.655   2.212 -0.2960  0.3323  0.7252
 6383TIP3    H119155   2.906   3.690   2.153  0.0368  1.5217  1.0400
 6383TIP3    H219156   2.990   3.566   2.179 -1.3077  0.3820  0.0459
 6384TIP3   OH219157   6.214   0.236   2.423  0.0515  0.1714 -0.3726
 6384TIP3    H119158   6.123   0.233   2.394 -0.3470 -1.2514  0.9389
 6384TIP3    H219159   6.209   0.256   2.516  1.1994  2.1315 -0.7019
 6385TIP3   OH219160   0.637   2.804   0.399 -0.5209 -0.2326 -0.0242
 6385TIP3    H119161   0.547   2.770   0.402 -0.1397 -1.3632 -1.0312
 6385TIP3    H219162   0.629   2.888   0.353 -0.8856 -0.9583 -1.3147
 6386TIP3   OH219163   2.942   4.102   5.170 -0.1948 -0.0545  0.0812
 6386TIP3    H119164   2.976   4.044   5.238  0.1610  0.4087  0.2996
 6386TIP3    H219165   2.915   4.181   5.216 -1.5509 -0.3924 -0.0965
 6387TIP3   OH219166   1.822   0.830   2.351 -0.5815  0.2779 -0.4934
 6387TIP3    H119167   1.771   0.871   2.281  0.9457  1.6764 -0.8271
 6387TIP3    H219168   1.814   0.736   2.335 -1.9897  0.5167 -1.2806
 6388TIP3   OH219169   2.838   2.028   0.047  0.6172 -0.0909  0.1273
 6388TIP3    H119170   2.810   2.032  -0.044 -0.3640  0.3286  0.4404
 6388TIP3    H219171   2.925   2.068   0.048  0.7486 -0.3500 -0.6623
 6389TIP3   OH219172   5.571   2.166   0.144 -0.1982 -0.5390 -0.1945
 6389TIP3    H119173   5.629   2.241   0.127  0.2068 -0.9727 -0.7169
 6389TIP3    H219174   5.541   2.180   0.234  0.3639 -0.0709 -0.0736
 6390TIP3   OH219175   4.998   2.982   0.815 -0.7612  0.2862  0.6088
 6390TIP3    H119176   4.921   3.007   0.764 -1.0409 -2.7186 -0.5371
 6390TIP3    H219177   4.966   2.978   0.905 -2.0720 -1.3205  0.0967
 6391TIP3   OH219178   3.201   4.391   4.474 -0.1584  0.1236  0.0801
 6391TIP3    H119179   3.128   4.451   4.486 -1.7851 -2.1763  2.2328
 6391TIP3    H219180   3.160   4.304   4.470  2.1517 -0.9206 -2.5065
 6392TIP3   OH219181   4.889   1.426   5.285  0.8709  0.2803  0.5856
 6392TIP3    H119182   4.906   1.336   5.314  1.9407  0.3899  0.3184
 6392TIP3    H219183   4.951   1.441   5.213 -0.2497  0.7662 -0.2863
 6393TIP3   OH219184   0.357   6.048   3.909  0.2111 -0.0865 -0.5477
 6393TIP3    H119185   0.264   6.048   3.886  0.1210  0.1384 -0.1850
 6393TIP3    H219186   0.397   6.106   3.844 -0.3220  2.0486  0.9676
 6394TIP3   OH219187   0.396   0.147   1.071  0.4475 -0.7214 -0.1481
 6394TIP3    H119188   0.484   0.154   1.033 -0.1026  2.0111 -1.0979
 6394TIP3    H219189   0.363   0.063   1.040  2.0880 -1.0015 -1.2226
 6395TIP3   OH219190   0.447   5.064   2.648 -0.4484  0.2120 -0.4686
 6395TIP3    H119191   0.411   5.115   2.576  0.0333  0.3085 -0.6442
 6395TIP3    H219192   0.370   5.028   2.693 -0.7621  0.4776 -0.7892
 6396TIP3   OH219193   5.028   1.138   5.088 -0.1430 -0.0126 -0.4996
 6396TIP3    H119194   4.967   1.082   5.040 -2.0923 -0.1980  2.0717
 6396TIP3    H219195   5.035   1.218   5.035 -1.7660 -0.4402 -1.3777
 6397TIP3   OH219196   2.223   1.089   0.570  0.3506 -0.3042  0.3248
 6397TIP3    H119197   2.159   1.025   0.539  1.9297 -1.4318 -0.7067
 6397TIP3    H219198   2.290   1.036   0.613  1.2777  0.7217  0.1728
 6398TIP3   OH219199   6.305   0.791   1.030  0.1371 -0.3840  0.0857
 6398TIP3    H119200   6.385   0.777   0.979 -0.1989 -0.9300 -0.2962
 6398TIP3    H219201   6.234   0.781   0.966 -0.2726 -0.7636  0.5981
 6399TIP3   OH219202   0.157   2.823   1.066  0.1283 -0.0842 -0.2150
 6399TIP3    H119203   0.200   2.764   1.004  1.9183  1.3091 -0.3318
 6399TIP3    H219204   0.167   2.779   1.151  1.0410 -0.1884 -0.3684
 6400TIP3   OH219205   3.604   1.342   4.859 -1.0491 -0.2532  0.1931
 6400TIP3    H119206   3.556   1.283   4.917 -0.7880  0.0120  0.6833
 6400TIP3    H219207   3.667   1.285   4.814 -1.2086 -0.4516  0.2216
 6401TIP3   OH219208   0.457   3.416   0.447 -0.1630  0.3601 -0.1348
 6401TIP3    H119209   0.513   3.435   0.373  0.4017  1.3451  0.5398
 6401TIP3    H219210   0.503   3.347   0.495 -1.2421 -1.3560 -1.4792
 6402TIP3   OH219211   3.869   3.594   4.902  0.8444  0.1514  0.4169
 6402TIP3    H119212   3.804   3.661   4.925  0.7339  0.1625  0.0628
 6402TIP3    H219213   3.945   3.644   4.874  0.8640  0.1313  0.4337
 6403TIP3   OH219214   6.101   5.025   0.213 -0.0921 -0.0920  0.2322
 6403TIP3    H119215   6.033   4.970   0.174  0.8361 -1.6092  0.7326
 6403TIP3    H219216   6.153   5.055   0.138 -0.9605  0.6113 -0.0975
 6404TIP3   OH219217   3.490   4.455   3.629  0.3040  0.0911 -0.0242
 6404TIP3    H119218   3.506   4.409   3.711 -1.5253 -2.7830 -1.1854
 6404TIP3    H219219   3.395   4.469   3.627  0.6377  2.5197 -0.4641
 6405TIP3   OH219220   5.095   2.186   1.048 -0.0560 -0.5897 -0.4823
 6405TIP3    H119221   5.141   2.151   0.971 -1.3434  0.0616 -1.5776
 6405TIP3    H219222   5.123   2.277   1.053 -0.3762 -0.4910 -0.4966
 6406TIP3   OH219223   1.435   0.216   2.503  0.0021  0.5813 -0.1187
 6406TIP3    H119224   1.413   0.292   2.451 -1.5329  1.7518  2.1328
 6406TIP3    H219225   1.406   0.141   2.450 -0.7887  1.6907 -1.2770
 6407TIP3   OH219226   0.936   1.467   0.818 -0.0068 -0.4301  0.4309
 6407TIP3    H119227   1.009   1.406   0.829  0.5075  0.0354 -0.3428
 6407TIP3    H219228   0.863   1.426   0.865  1.2868  0.0757  2.9606
 6408TIP3   OH219229   0.647   3.996   4.968  0.3708 -0.2447  0.3380
 6408TIP3    H119230   0.742   4.010   4.975  0.3825  0.8587 -1.5781
 6408TIP3    H219231   0.636   3.901   4.976  2.0088 -0.7528 -2.6246
 6409TIP3   OH219232   4.842   6.121   0.119 -0.4056  0.0783  0.1200
 6409TIP3    H119233   4.870   6.033   0.093  0.4625  0.1104  0.8879
 6409TIP3    H219234   4.759   6.108   0.165 -1.7832 -0.0094 -2.3073
 6410TIP3   OH219235   1.948   1.180   1.965 -0.2295 -0.9334 -0.0378
 6410TIP3    H119236   2.002   1.168   2.043 -0.6673 -1.6651  0.1532
 6410TIP3    H219237   1.926   1.273   1.966  0.0883 -0.8608  0.5009
 6411TIP3   OH219238   4.645   2.209   0.692  0.3321 -0.2477  0.6050
 6411TIP3    H119239   4.696   2.286   0.716  0.4321  0.1932 -0.9422
 6411TIP3    H219240   4.596   2.236   0.614 -0.5914 -1.3540  0.7814
 6412TIP3   OH219241   0.123   2.229   0.354 -0.4050  0.2986 -0.3316
 6412TIP3    H119242   0.192   2.207   0.416  0.6251  0.6774 -1.3211
 6412TIP3    H219243   0.078   2.147   0.337  1.1426 -0.3673 -1.2852
 6413TIP3   OH219244   0.595   3.664   0.673 -0.0827  0.3038 -0.1423
 6413TIP3    H119245   0.676   3.716   0.672 -0.2004  0.4883  0.0160
 6413TIP3    H219246   0.554   3.685   0.757 -0.2629  0.1579 -0.1944
 6414TIP3   OH219247   1.788   3.649   4.396 -0.2122 -0.2454 -0.6186
 6414TIP3    H119248   1.718   3.702   4.359 -1.4199 -0.7493  0.9042
 6414TIP3    H219249   1.780   3.660   4.490  2.3379  0.3928 -0.4407
 6415TIP3   OH219250   4.781   2.732   1.182 -0.1090  0.0998 -0.0786
 6415TIP3    H119251   4.793   2.743   1.087 -1.5827 -1.4454 -0.4752
 6415TIP3    H219252   4.797   2.639   1.197  0.2084  0.3547  1.2274
 6416TIP3   OH219253   1.982   1.143   2.231 -0.0890  0.1218  0.0957
 6416TIP3    H119254   1.995   1.219   2.288  1.1458 -0.0365  0.0319
 6416TIP3    H219255   1.887   1.133   2.227 -0.2088  0.5042  1.6252
 6417TIP3   OH219256   5.731   4.799   3.673 -0.4281 -0.8456 -0.4552
 6417TIP3    H119257   5.701   4.758   3.754  0.8459  0.3237  0.6273
 6417TIP3    H219258   5.651   4.815   3.623 -1.4317  0.3593  1.4965
 6418TIP3   OH219259   6.269   1.849   0.910 -0.1078  0.4649 -0.8508
 6418TIP3    H119260   6.188   1.845   0.963  0.1143 -1.9854 -0.6216
 6418TIP3    H219261   6.278   1.760   0.875  2.6321  0.6433 -0.6688
 6419TIP3   OH219262   0.606   4.882   5.267 -0.9320 -0.6989  0.4409
 6419TIP3    H119263   0.518   4.901   5.301 -0.3568  0.5227  1.2919
 6419TIP3    H219264   0.635   4.966   5.231  0.8847 -0.4269  2.4588
 6420TIP3   OH219265   2.946   5.730   5.029 -0.4194  0.4158  0.3882
 6420TIP3    H119266   2.913   5.640   5.037  1.0970 -0.3808 -1.8088
 6420TIP3    H219267   2.883   5.773   4.971 -1.0892  0.7675  1.3584
 6421TIP3   OH219268   5.054   5.513   0.789 -0.5908  0.6230  0.1942
 6421TIP3    H119269   4.988   5.479   0.728 -0.7653  0.1931  0.6198
 6421TIP3    H219270   5.108   5.438   0.811  0.1649  1.0185 -0.3019
 6422TIP3   OH219271   1.214   5.084   5.222  0.0995  0.0032  0.7390
 6422TIP3    H119272   1.122   5.059   5.218 -0.0400  0.5891  0.3529
 6422TIP3    H219273   1.226   5.117   5.311 -0.1328  0.2061  0.6938
 6423TIP3   OH219274   1.990   0.143   1.454  0.1448 -0.1536  0.1173
 6423TIP3    H119275   1.960   0.176   1.539  0.1078  0.6697 -0.2110
 6423TIP3    H219276   1.945   0.059   1.444 -0.6652  0.2330  0.4423
 6424TIP3   OH219277   1.517   2.029   0.467  0.0849  0.1766 -0.1500
 6424TIP3    H119278   1.543   1.980   0.546  0.0528  1.6949  0.8263
 6424TIP3    H219279   1.599   2.042   0.419  0.2830  0.2612  0.2105
 6425TIP3   OH219280   1.435   4.306   4.838  0.0374 -0.4012 -0.7338
 6425TIP3    H119281   1.453   4.352   4.919  1.6073 -1.3954 -0.4883
 6425TIP3    H219282   1.471   4.363   4.769  2.1038 -1.2766 -0.4215
 6426TIP3   OH219283   5.585   2.483   1.589  0.0960 -0.4431 -0.4250
 6426TIP3    H119284   5.535   2.457   1.666  1.3866 -0.5240  0.3917
 6426TIP3    H219285   5.676   2.487   1.618  0.6226 -0.5674 -1.9606
 6427TIP3   OH219286   3.954   3.929   4.914  0.0560 -0.7740 -0.5276
 6427TIP3    H119287   3.924   3.961   4.999  0.6443 -0.4875 -0.4251
 6427TIP3    H219288   4.017   3.860   4.934  1.8538  0.7769 -0.6750
 6428TIP3   OH219289   1.700   3.501   1.154 -0.0575 -0.5536  0.2147
 6428TIP3    H119290   1.740   3.455   1.228 -0.5302  0.5607  1.1812
 6428TIP3    H219291   1.606   3.498   1.171 -0.0677  1.3251  0.6536
 6429TIP3   OH219292   2.349   4.106   5.113  0.6687 -0.3030 -0.5652
 6429TIP3    H119293   2.255   4.118   5.100  0.6185  1.5772  1.3013
 6429TIP3    H219294   2.390   4.176   5.061  1.0035 -0.5931 -0.6982
 6430TIP3   OH219295   6.361   0.139   3.880  0.1475  0.0600  0.5430
 6430TIP3    H119296   6.284   0.128   3.935  0.9249  0.1635  1.6817
 6430TIP3    H219297   6.357   0.066   3.818  0.3784 -1.3482  2.1269
 6431TIP3   OH219298   0.148   3.344   1.618  0.5189  0.2236 -0.5868
 6431TIP3    H119299   0.100   3.286   1.559  0.7398 -0.0453 -0.5059
 6431TIP3    H219300   0.225   3.293   1.644  0.6146  0.4808 -0.3620
 6432TIP3   OH219301   0.522   3.385   4.052  0.1679  0.3367 -1.0933
 6432TIP3    H119302   0.470   3.360   4.128  0.5941 -1.1020 -1.2432
 6432TIP3    H219303   0.470   3.451   4.007 -0.9573 -0.1716 -0.5511
 6433TIP3   OH219304   5.159   2.894   0.496 -0.2180  0.3393  0.3252
 6433TIP3    H119305   5.174   2.800   0.501 -1.1320  0.2389  1.4015
 6433TIP3    H219306   5.241   2.933   0.527  0.9561 -0.0449 -2.1745
 6434TIP3   OH219307   5.747   1.107   1.246 -0.4371  0.1688  0.0012
 6434TIP3    H119308   5.743   1.011   1.252 -2.1103  0.2660  0.7137
 6434TIP3    H219309   5.721   1.126   1.156  1.0052 -0.0982 -0.4775
 6435TIP3   OH219310   2.654   3.353   5.121 -0.4448  0.0317 -0.0007
 6435TIP3    H119311   2.590   3.408   5.076 -1.3158 -1.3781 -0.5416
 6435TIP3    H219312   2.643   3.266   5.081  1.5977 -0.3067  0.1259
 6436TIP3   OH219313   5.942   5.321   1.785  0.2889  0.0939  0.0990
 6436TIP3    H119314   5.942   5.251   1.719 -0.1460 -0.4733  0.6984
 6436TIP3    H219315   5.907   5.397   1.739  0.2586 -0.2257 -0.4068
 6437TIP3   OH219316   1.924   4.644   3.560 -0.7023  0.2353 -0.1429
 6437TIP3    H119317   1.873   4.679   3.487 -0.8642 -0.9110 -0.5902
 6437TIP3    H219318   1.888   4.557   3.575  0.6453 -0.3099  0.0009
 6438TIP3   OH219319   2.903   1.455   1.610  0.2524 -0.4308  0.3981
 6438TIP3    H119320   2.828   1.471   1.554  0.0914 -1.4930  0.2935
 6438TIP3    H219321   2.906   1.360   1.620  1.3829 -0.3802  0.6697
 6439TIP3   OH219322   0.981   2.114   1.126  0.4728 -0.2972 -0.4041
 6439TIP3    H119323   0.904   2.168   1.109  0.9247  0.7613  0.8105
 6439TIP3    H219324   1.055   2.175   1.124  1.0501 -0.9366  0.4839
 6440TIP3   OH219325   6.150   2.940   0.149  0.4777  0.0413  0.8754
 6440TIP3    H119326   6.180   2.860   0.107  2.0588  1.4030 -0.6861
 6440TIP3    H219327   6.066   2.917   0.190 -2.0329 -0.9825 -4.4399
 6441TIP3   OH219328   4.879   5.845   0.954  0.6575 -0.2684 -0.5201
 6441TIP3    H119329   4.841   5.829   0.868  1.6647  0.2505 -1.0755
 6441TIP3    H219330   4.941   5.773   0.967  0.4498 -0.3897 -0.2016
 6442TIP3   OH219331   4.558   4.494   5.102  0.2661 -0.5820  0.4507
 6442TIP3    H119332   4.520   4.432   5.164 -0.2986 -1.1095 -0.4140
 6442TIP3    H219333   4.543   4.580   5.141 -2.3011 -0.7311 -0.0966
 6443TIP3   OH219334   2.525   2.022   0.767  0.2175 -0.0021  0.4947
 6443TIP3    H119335   2.607   2.065   0.788  1.8312 -2.9848  0.5306
 6443TIP3    H219336   2.512   2.039   0.674  0.1853  1.5522  0.7733
 6444TIP3   OH219337   1.501   5.468   4.142  0.1364  0.0209 -0.5927
 6444TIP3    H119338   1.539   5.381   4.136  0.3837  0.1764 -1.4319
 6444TIP3    H219339   1.451   5.478   4.061  0.4188  0.7986 -0.6819
 6445TIP3   OH219340   5.249   0.902   1.798  0.0676 -0.1684 -0.0063
 6445TIP3    H119341   5.246   0.883   1.892 -0.5850  1.7718  0.3793
 6445TIP3    H219342   5.337   0.936   1.783  1.2707 -3.4517 -0.7163
 6446TIP3   OH219343   4.222   3.070   2.510 -0.2933  0.2188  0.1154
 6446TIP3    H119344   4.150   3.117   2.467 -1.0962 -1.5928 -0.5937
 6446TIP3    H219345   4.296   3.130   2.506 -1.5231  1.7438 -0.0051
 6447TIP3   OH219346   1.109   0.517   2.695 -0.6903 -0.2163  0.0892
 6447TIP3    H119347   1.091   0.549   2.784  1.9162 -0.0059  0.5709
 6447TIP3    H219348   1.173   0.579   2.660 -3.9982  1.5092 -3.1387
 6448TIP3   OH219349   2.377   4.956   5.306  0.1441 -0.4717  0.3631
 6448TIP3    H119350   2.333   4.877   5.338  0.8165 -0.8668  0.3300
 6448TIP3    H219351   2.317   4.991   5.240 -0.9026 -0.0568  1.5090
 6449TIP3   OH219352   4.433   0.212   3.955 -0.0290  0.2291  0.1590
 6449TIP3    H119353   4.393   0.164   3.883  0.1699  0.9394 -0.4398
 6449TIP3    H219354   4.496   0.151   3.994  1.8863  0.7145 -2.0239
 6450TIP3   OH219355   2.230   4.264   0.336 -0.3263  0.2198  0.2694
 6450TIP3    H119356   2.204   4.235   0.248 -2.0100  1.1998  0.4139
 6450TIP3    H219357   2.217   4.188   0.392  1.2760 -0.5742 -0.4099
 6451TIP3   OH219358   5.831   2.583   1.706  0.7007 -0.2737 -0.3900
 6451TIP3    H119359   5.758   2.590   1.768  0.8693  0.7781 -0.2887
 6451TIP3    H219360   5.909   2.581   1.762  0.9969  2.8673 -0.5645
 6452TIP3   OH219361   3.352   5.401   5.029 -0.2145 -0.2653 -0.1647
 6452TIP3    H119362   3.300   5.324   5.005  0.7263 -0.6214 -1.1300
 6452TIP3    H219363   3.343   5.460   4.955 -0.7091  0.4308  0.4568
 6453TIP3   OH219364   2.158   2.936   1.771 -0.6200 -0.5500  0.0573
 6453TIP3    H119365   2.229   2.938   1.708 -0.8598  0.5136 -0.1948
 6453TIP3    H219366   2.081   2.910   1.720 -0.5688 -0.9400  0.1747
 6454TIP3   OH219367   0.837   2.275   0.258 -0.3586  0.2339  0.7147
 6454TIP3    H119368   0.890   2.296   0.182 -0.8374 -1.6513 -0.1792
 6454TIP3    H219369   0.856   2.344   0.321 -2.0733  3.4348 -2.1143
 6455TIP3   OH219370   2.084   0.365   3.380  0.5701 -0.7416  0.7651
 6455TIP3    H119371   2.180   0.367   3.376  0.7654 -1.4579  3.8781
 6455TIP3    H219372   2.064   0.286   3.429 -1.7426 -1.6409 -1.4816
 6456TIP3   OH219373   0.973   0.178   1.434  0.0188 -0.3386 -0.0501
 6456TIP3    H119374   0.893   0.166   1.383 -0.5460 -0.0462  0.7698
 6456TIP3    H219375   0.959   0.258   1.484 -0.4060 -1.8588  2.3692
 6457TIP3   OH219376   0.376   4.911   0.985 -0.7618 -0.4275  0.3477
 6457TIP3    H119377   0.468   4.924   0.964 -0.9957  1.4167  0.3334
 6457TIP3    H219378   0.376   4.846   1.055  0.6677  0.6772  1.4219
 6458TIP3   OH219379   2.288   0.548   4.652 -0.1757 -0.5862  0.0507
 6458TIP3    H119380   2.367   0.594   4.679 -0.4547 -0.9106  1.4674
 6458TIP3    H219381   2.279   0.476   4.715 -1.2633 -0.9124 -0.4604
 6459TIP3   OH219382   0.876   4.225   2.925  0.4227 -0.1054  0.2812
 6459TIP3    H119383   0.786   4.205   2.902  1.1624 -3.4559  0.0405
 6459TIP3    H219384   0.904   4.291   2.861 -1.8786  1.1425  0.5190
 6460TIP3   OH219385   0.446   1.406   0.904 -0.5746  0.3793 -0.4419
 6460TIP3    H119386   0.424   1.327   0.955  1.2622  0.0946 -0.0519
 6460TIP3    H219387   0.362   1.446   0.885 -1.4313 -0.6994  0.9452
 6461TIP3   OH219388   0.692   5.108   0.138 -0.0035 -0.2060  0.0989
 6461TIP3    H119389   0.637   5.187   0.136  1.0554  0.5266 -0.7203
 6461TIP3    H219390   0.725   5.104   0.228  1.3229  1.2879 -0.2837
 6462TIP3   OH219391   1.312   4.675   1.046  0.2578  0.1292  0.0612
 6462TIP3    H119392   1.241   4.624   1.006 -0.3294  0.5959  0.4903
 6462TIP3    H219393   1.335   4.741   0.981  0.7337 -0.4179 -0.3296
 6463TIP3   OH219394   2.441   1.057   1.860  0.3725  0.3945 -0.0564
 6463TIP3    H119395   2.503   1.124   1.886  0.2321  0.3283  0.4626
 6463TIP3    H219396   2.472   1.026   1.775  2.0139 -0.8326  0.9794
 6464TIP3   OH219397   1.287   1.445   0.213  0.4757  0.0721 -0.2273
 6464TIP3    H119398   1.285   1.541   0.207 -1.1298  0.1689  1.5014
 6464TIP3    H219399   1.377   1.422   0.192  0.4664  1.8311 -2.3649
 6465TIP3   OH219400   5.510   3.393   0.332  0.0373 -0.4741  0.1548
 6465TIP3    H119401   5.474   3.476   0.364 -1.1975 -1.2722  0.8731
 6465TIP3    H219402   5.437   3.351   0.286  0.7316 -1.0402 -0.4350
 6466TIP3   OH219403   6.222   2.929   1.111 -0.2966 -0.1664  0.1308
 6466TIP3    H119404   6.143   2.963   1.154  0.6607  1.2675  0.7860
 6466TIP3    H219405   6.205   2.940   1.018 -0.6538  0.6132  0.2866
 6467TIP3   OH219406   2.523   0.376   0.379  0.2437 -0.1561 -0.5345
 6467TIP3    H119407   2.428   0.364   0.379  0.2112  0.0882 -0.8312
 6467TIP3    H219408   2.547   0.376   0.472  0.0171 -0.6834 -0.4723
 6468TIP3   OH219409   1.276   1.160   0.405 -0.1516 -0.1135 -0.3110
 6468TIP3    H119410   1.193   1.141   0.361  0.5838 -0.0488 -1.7677
 6468TIP3    H219411   1.325   1.212   0.341  1.0774 -0.3157  0.4582
 6469TIP3   OH219412   1.786   4.085   5.030  0.3259  0.0203 -0.0419
 6469TIP3    H119413   1.701   4.043   5.042  0.9769 -1.7453 -1.3312
 6469TIP3    H219414   1.773   4.144   4.956  0.2853 -0.4618 -0.4230
 6470TIP3   OH219415   5.046   5.383   5.078  0.6108 -0.0571 -0.0177
 6470TIP3    H119416   5.051   5.440   5.002 -1.4926 -0.6783 -0.6437
 6470TIP3    H219417   5.026   5.296   5.042  2.2638 -0.9124  1.0415
 6471TIP3   OH219418   0.818   1.400   2.362  0.4837 -0.2166 -0.3965
 6471TIP3    H119419   0.824   1.318   2.313 -0.5266  0.5568 -1.8560
 6471TIP3    H219420   0.869   1.463   2.310 -0.4773  0.5754 -0.4062
 6472TIP3   OH219421   4.396   3.030   5.284  0.0495 -0.5899 -0.1874
 6472TIP3    H119422   4.302   3.011   5.288 -0.3948  1.4667 -0.1433
 6472TIP3    H219423   4.418   3.020   5.191 -1.0569  2.5126 -0.8473
 6473TIP3   OH219424   1.140   0.727   0.351  0.2641 -0.5354  0.3495
 6473TIP3    H119425   1.204   0.747   0.283 -0.6719 -2.0634 -1.0277
 6473TIP3    H219426   1.191   0.688   0.422  1.0923  0.0081  0.0618
 6474TIP3   OH219427   4.697   1.172   2.400 -0.1802  0.6733 -0.0786
 6474TIP3    H119428   4.789   1.158   2.423  0.0359  0.9784 -0.7278
 6474TIP3    H219429   4.700   1.206   2.310 -0.8911  1.2817  0.1215
 6475TIP3   OH219430   3.119   5.346   4.879  0.9330 -0.1743  0.1740
 6475TIP3    H119431   3.139   5.254   4.894  1.7354 -0.2877 -1.5330
 6475TIP3    H219432   3.032   5.358   4.919  1.0309 -1.5346  0.8270
 6476TIP3   OH219433   1.435   0.978   0.181  0.3573  0.2065  0.1669
 6476TIP3    H119434   1.340   0.983   0.191  0.1889  0.0623 -1.2729
 6476TIP3    H219435   1.453   1.022   0.098  1.4348 -0.7018 -0.0990
 6477TIP3   OH219436   1.117   3.161   1.059  0.1461 -0.3319 -0.5206
 6477TIP3    H119437   1.114   3.192   1.149 -0.0296 -0.8003 -0.3669
 6477TIP3    H219438   1.168   3.081   1.062  0.9730  0.1677 -0.9895
 6478TIP3   OH219439   0.863   2.878   1.568  0.3852  0.5321  0.4536
 6478TIP3    H119440   0.807   2.917   1.501  1.5761  2.3575  0.5081
 6478TIP3    H219441   0.902   2.952   1.613 -1.1182 -0.6129  3.8339
 6479TIP3   OH219442   5.074   4.410   0.370 -0.2860  0.1677 -0.6232
 6479TIP3    H119443   5.083   4.473   0.298 -0.9069 -0.3692 -1.1743
 6479TIP3    H219444   4.982   4.418   0.397 -0.5606 -1.0497 -1.1960
 6480TIP3   OH219445   1.668   2.298   0.906 -0.2449 -0.1584  0.4216
 6480TIP3    H119446   1.717   2.217   0.890  0.0944  0.1130  0.0405
 6480TIP3    H219447   1.628   2.318   0.821  0.4029  0.5422  0.2718
 6481TIP3   OH219448   3.074   3.082   4.705 -0.2478  0.0784 -0.1529
 6481TIP3    H119449   3.009   3.134   4.752  0.6444  0.0998  1.0732
 6481TIP3    H219450   3.027   3.049   4.628 -1.4126  0.9338  0.1815
 6482TIP3   OH219451   1.594   2.674   0.460  0.3607  0.3508 -0.5981
 6482TIP3    H119452   1.568   2.651   0.549 -1.3542  0.2307 -1.0958
 6482TIP3    H219453   1.593   2.770   0.458 -0.8548  0.3514 -0.8031
 6483TIP3   OH219454   4.501   5.713   0.314  0.2257  1.0525 -0.8216
 6483TIP3    H119455   4.412   5.696   0.283  0.1327  1.4537 -0.7789
 6483TIP3    H219456   4.547   5.630   0.301 -0.5957  0.3309  0.7155
 6484TIP3   OH219457   4.185   0.357   3.073  0.1825 -0.1343  0.1920
 6484TIP3    H119458   4.224   0.352   2.986 -3.5167  0.1249 -1.5575
 6484TIP3    H219459   4.169   0.265   3.097  0.2709 -0.1618  0.1466
 6485TIP3   OH219460   3.663   3.765   4.983  0.1516  0.3443  0.1307
 6485TIP3    H119461   3.635   3.835   4.925 -0.9372  0.3148  0.6076
 6485TIP3    H219462   3.682   3.808   5.066 -0.2871  0.1186  0.3528
 6486TIP3   OH219463   4.372   5.920   1.232  0.2981  0.4893  0.5450
 6486TIP3    H119464   4.411   5.865   1.163 -0.0925  0.8422  0.0440
 6486TIP3    H219465   4.442   5.930   1.296  0.9239  0.8064 -0.1740
 6487TIP3   OH219466   0.678   0.134   1.396 -0.4073 -0.2960 -0.1437
 6487TIP3    H119467   0.720   0.088   1.469 -0.2926  1.1564  0.7221
 6487TIP3    H219468   0.677   0.070   1.326  1.2070 -1.1225  0.5419
 6488TIP3   OH219469   6.063   1.703   1.200 -0.3386  0.2194  0.2632
 6488TIP3    H119470   6.095   1.695   1.289 -1.3866  1.1101  0.7432
 6488TIP3    H219471   6.114   1.640   1.150 -0.7782 -1.3607  1.7677
 6489TIP3   OH219472   1.475   2.648   4.127  0.5743  0.6038  0.1126
 6489TIP3    H119473   1.461   2.623   4.036  0.6476 -0.2676  0.3331
 6489TIP3    H219474   1.400   2.610   4.174  0.0481  1.8281  0.2851
 6490TIP3   OH219475   4.883   3.656   5.045  0.2176 -0.1750 -0.3715
 6490TIP3    H119476   4.846   3.569   5.060  1.2595 -0.5018  0.3330
 6490TIP3    H219477   4.864   3.704   5.126  1.3397 -0.3605  0.0197
 6491TIP3   OH219478   5.317   1.375   4.325  0.1714 -0.3232  0.4662
 6491TIP3    H119479   5.293   1.457   4.369  0.4420 -0.3889  0.7356
 6491TIP3    H219480   5.372   1.329   4.389  1.3301 -0.0131 -0.2998
 6492TIP3   OH219481   6.414   0.593   4.511 -0.1221 -0.0043  0.4561
 6492TIP3    H119482   6.324   0.624   4.509 -0.1604 -0.2012 -1.1164
 6492TIP3    H219483   6.430   0.572   4.604 -2.2618 -1.6580  0.4908
 6493TIP3   OH219484   5.250   4.646   0.995  0.1642  0.3063 -0.1210
 6493TIP3    H119485   5.217   4.576   1.051 -0.1746 -0.1312 -0.8552
 6493TIP3    H219486   5.198   4.722   1.020  1.7241  0.7402  1.8982
 6494TIP3   OH219487   3.420   1.169   1.220  0.5788  0.0890  0.3787
 6494TIP3    H119488   3.459   1.172   1.307  1.2022 -0.5371  0.1231
 6494TIP3    H219489   3.445   1.251   1.179  1.1628 -0.0700  0.4170
 6495TIP3   OH219490   6.412   2.710   0.886  0.1852  1.1603  0.3201
 6495TIP3    H119491   6.508   2.703   0.880  0.0160 -2.0343  0.5889
 6495TIP3    H219492   6.395   2.729   0.978  0.4459 -2.5724  1.2303
 6496TIP3   OH219493   3.958   1.058   1.565  1.0806 -0.6006 -0.1889
 6496TIP3    H119494   4.013   1.071   1.642  0.4622  4.0879 -0.4138
 6496TIP3    H219495   4.016   1.074   1.491  0.6429 -0.7673 -0.5713
 6497TIP3   OH219496   5.804   3.135   4.737 -0.0828 -0.2001 -0.1628
 6497TIP3    H119497   5.823   3.225   4.709 -0.7668 -0.0237 -0.0715
 6497TIP3    H219498   5.771   3.144   4.826 -1.8470 -0.3613 -0.7791
 6498TIP3   OH219499   0.405   2.022   0.865  0.4659  0.6960  0.4708
 6498TIP3    H119500   0.392   1.931   0.892 -0.3018  0.8736  0.7294
 6498TIP3    H219501   0.484   2.021   0.812 -1.0637 -0.5826 -1.8372
 6499TIP3   OH219502   2.212   2.458   1.293  0.9151  0.5400 -0.2474
 6499TIP3    H119503   2.225   2.446   1.199  0.8487 -1.7815 -0.0039
 6499TIP3    H219504   2.117   2.455   1.305  0.9887 -0.9757  0.0753
 6500TIP3   OH219505   2.101   1.024   3.501 -0.0121 -0.4782 -0.2306
 6500TIP3    H119506   2.011   1.002   3.480 -0.5443  1.2943  0.0798
 6500TIP3    H219507   2.115   0.987   3.588 -1.1078  0.9212  0.5735
 6501TIP3   OH219508   2.027   4.537   4.892  0.6638  0.4918 -0.5392
 6501TIP3    H119509   2.106   4.489   4.867  1.5295  1.3662  0.4977
 6501TIP3    H219510   2.004   4.588   4.814 -1.3840 -2.9868 -2.3582
 6502TIP3   OH219511   0.682   1.228   0.030 -0.4591  0.4627  0.0019
 6502TIP3    H119512   0.591   1.256   0.041  0.2948  3.1236 -0.1120
 6502TIP3    H219513   0.734   1.305   0.055  1.7230 -0.6258 -1.0297
 6503TIP3   OH219514   6.354   1.914   4.675 -0.1667  0.1322  0.4231
 6503TIP3    H119515   6.375   1.899   4.768 -0.6366  2.2140  0.8888
 6503TIP3    H219516   6.434   1.952   4.639  0.0380 -0.7440 -0.0574
 6504TIP3   OH219517   0.959   5.144   4.521 -0.5243 -0.1970 -0.3827
 6504TIP3    H119518   1.049   5.139   4.488 -0.6889 -0.8038 -0.7423
 6504TIP3    H219519   0.965   5.203   4.596  0.5701 -1.8445  0.8720
 6505TIP3   OH219520   6.447   3.247   4.879 -0.2898 -0.2468  0.2694
 6505TIP3    H119521   6.530   3.227   4.922 -0.0755 -0.3485 -0.1785
 6505TIP3    H219522   6.380   3.212   4.937  0.0017 -0.5728  0.4086
 6506TIP3   OH219523   0.393   3.447   4.716  0.0844  0.1044  0.5800
 6506TIP3    H119524   0.317   3.501   4.737 -1.1961 -0.5524 -2.1167
 6506TIP3    H219525   0.362   3.357   4.723  0.4930 -0.1664 -0.8287
 6507TIP3   OH219526   3.940   2.098   1.461  0.7456  0.1255 -0.0433
 6507TIP3    H119527   3.896   2.024   1.420  1.5778  0.1169 -0.9450
 6507TIP3    H219528   3.877   2.170   1.456  0.6505 -0.0193 -0.8676
 6508TIP3   OH219529   0.749   4.813   3.966  0.2557  0.3589  0.1697
 6508TIP3    H119530   0.801   4.837   3.889  0.0153 -1.9530 -0.7574
 6508TIP3    H219531   0.793   4.856   4.039  1.5910  1.0719 -1.0355
 6509TIP3   OH219532   4.083   4.894   4.896  0.7792  0.6837  0.1168
 6509TIP3    H119533   4.120   4.827   4.952  0.2713  0.7406  0.5264
 6509TIP3    H219534   4.157   4.950   4.873  1.1853  0.0337 -0.1625
 6510TIP3   OH219535   2.198   2.179   1.403 -0.0428  1.0034 -0.4707
 6510TIP3    H119536   2.268   2.232   1.440 -0.1524  0.4575  0.5465
 6510TIP3    H219537   2.127   2.184   1.468  0.1998 -0.9399 -0.0192
 6511TIP3   OH219538   1.447   4.728   4.280  0.3043  0.7787  0.9738
 6511TIP3    H119539   1.383   4.711   4.211  2.9959 -1.6509 -1.0229
 6511TIP3    H219540   1.449   4.823   4.287  1.4444  1.2241 -3.8224
 6512TIP3   OH219541   3.275   2.255   1.896 -0.5086  0.3778 -0.0965
 6512TIP3    H119542   3.271   2.217   1.809 -0.7256 -0.4533  0.2726
 6512TIP3    H219543   3.200   2.313   1.901 -1.2768 -0.6116  0.0144
 6513TIP3   OH219544   4.250   4.658   4.364  0.2242  0.1191 -0.0031
 6513TIP3    H119545   4.242   4.563   4.378  0.5362 -0.0158 -0.7084
 6513TIP3    H219546   4.277   4.692   4.449  1.1399 -0.5661 -0.0030
 6514TIP3   OH219547   5.178   2.593   5.095  0.0856  0.7202 -0.3844
 6514TIP3    H119548   5.151   2.673   5.139  0.2566  0.6994 -0.2372
 6514TIP3    H219549   5.104   2.534   5.104  0.0292  0.7994 -0.3318
 6515TIP3   OH219550   5.082   4.360   4.966  0.2558  0.9854 -0.1283
 6515TIP3    H119551   4.989   4.371   4.987  0.3079  0.8135  0.1868
 6515TIP3    H219552   5.091   4.401   4.880  0.0417  1.6867  0.1802
 6516TIP3   OH219553   4.280   4.843   3.571  0.1923 -0.6673 -0.7697
 6516TIP3    H119554   4.371   4.855   3.544 -0.1206  1.5530 -0.9408
 6516TIP3    H219555   4.274   4.886   3.656 -0.8523 -0.1688 -1.0810
 6517TIP3   OH219556   4.792   4.420   4.852 -0.0154  0.2187 -0.1225
 6517TIP3    H119557   4.791   4.375   4.768  0.8647 -1.8835  0.9716
 6517TIP3    H219558   4.875   4.469   4.852  0.8053 -1.1598  0.2297
 6518TIP3   OH219559   0.555   1.795   1.034  0.7710 -0.0643 -0.0948
 6518TIP3    H119560   0.603   1.753   1.105  0.6594 -0.7155 -0.3986
 6518TIP3    H219561   0.592   1.758   0.954  0.3151  0.0263 -0.3523
 6519TIP3   OH219562   4.812   2.503   4.011 -0.1215  0.1285 -0.0460
 6519TIP3    H119563   4.896   2.463   3.986  0.4946  0.2177  1.8557
 6519TIP3    H219564   4.835   2.591   4.040 -1.0081  0.5075 -0.4692
 6520TIP3   OH219565   4.630   2.817   4.432 -0.3887 -0.2437  0.1232
 6520TIP3    H119566   4.691   2.831   4.360  0.0550  2.0696  0.9019
 6520TIP3    H219567   4.543   2.824   4.393 -0.1481  0.8599 -0.2221
 6521TIP3   OH219568   5.023   2.475   4.592 -0.1552  0.0905 -0.6550
 6521TIP3    H119569   4.954   2.524   4.549 -1.3911 -0.3710  0.7503
 6521TIP3    H219570   5.058   2.417   4.524 -0.7198  0.7686 -1.5287
 6522TIP3   OH219571   5.307   4.682   4.725  0.2373 -0.0451  0.5914
 6522TIP3    H119572   5.296   4.714   4.635  1.4281  0.1377  0.4999
 6522TIP3    H219573   5.258   4.744   4.778  0.2616  0.3710  0.1429
 6523TIP3   OH219574   4.464   2.534   4.497 -0.2124 -0.1716  0.4280
 6523TIP3    H119575   4.455   2.577   4.581  0.0816  0.6201  0.0566
 6523TIP3    H219576   4.531   2.466   4.511 -1.4945 -1.2755  1.3017
 6524TIP3   OH219577   3.823   0.702   4.487  0.4087  0.1900 -0.4423
 6524TIP3    H119578   3.860   0.636   4.429  0.2648 -0.4091  0.1290
 6524TIP3    H219579   3.783   0.766   4.429  0.0602 -0.5223 -0.9951
 6525TIP3   OH219580   5.029   4.114   4.224  0.1562 -0.0318  0.3792
 6525TIP3    H119581   5.101   4.176   4.232  0.0524 -0.0036  1.1838
 6525TIP3    H219582   4.998   4.101   4.314 -1.2793  0.4674 -0.0247
 6526TIP3   OH219583   4.524   4.496   4.840 -0.4694  0.1314 -0.0752
 6526TIP3    H119584   4.532   4.497   4.936 -0.3745  0.0948 -0.0820
 6526TIP3    H219585   4.608   4.462   4.810 -0.0697  1.2370 -0.2269
 6527TIP3   OH219586   5.900   3.460   4.826  0.1885 -0.8470 -0.1765
 6527TIP3    H119587   5.941   3.431   4.907 -1.0587 -1.4648  0.2570
 6527TIP3    H219588   5.842   3.532   4.852  0.3952 -0.5026 -0.6500
 6528TIP3   OH219589   0.244   1.406   0.220 -0.0296 -0.0580  0.6502
 6528TIP3    H119590   0.206   1.436   0.302 -0.6583 -0.3177  0.4613
 6528TIP3    H219591   0.289   1.325   0.241 -0.8986 -0.5666  0.5862
 6529TIP3   OH219592   0.905   0.119   5.070 -0.6809  0.2375 -0.1270
 6529TIP3    H119593   0.887   0.193   5.128 -1.0303 -1.9731  2.6961
 6529TIP3    H219594   0.819   0.099   5.031 -0.7429  0.8104 -0.2921
 6530TIP3   OH219595   5.485   4.136   4.347  0.1609 -0.3972 -0.0349
 6530TIP3    H119596   5.538   4.161   4.423 -0.3534 -0.3181  0.2989
 6530TIP3    H219597   5.549   4.118   4.279  0.5914  0.4489  0.1376
 6531TIP3   OH219598   5.984   2.335   0.365 -0.1136  0.3564  0.3131
 6531TIP3    H119599   5.933   2.322   0.444  1.1799 -0.4700  1.0321
 6531TIP3    H219600   5.975   2.254   0.315  1.6487 -0.3693  1.1315
 6532TIP3   OH219601   0.170   0.127   3.886 -0.0664 -0.5058  0.1641
 6532TIP3    H119602   0.187   0.148   3.794 -0.8817 -0.8572 -0.0767
 6532TIP3    H219603   0.219   0.047   3.902  0.9916  0.1762  0.3573
 6533TIP3   OH219604   0.393   4.098   4.701 -0.1506 -0.0330 -0.0366
 6533TIP3    H119605   0.346   4.103   4.784  1.9302 -1.8696  1.2939
 6533TIP3    H219606   0.477   4.140   4.717  0.8116 -1.6149 -0.8008
 6534TIP3   OH219607   0.167   2.442   0.759 -0.3566 -0.0845 -0.3598
 6534TIP3    H119608   0.253   2.402   0.753  0.2104  1.1590 -0.6233
 6534TIP3    H219609   0.115   2.381   0.811  0.7990 -0.6371  0.1365
 6535TIP3   OH219610   3.761   5.426   5.151 -0.6310  0.1076 -0.7014
 6535TIP3    H119611   3.808   5.474   5.219  0.9445 -1.3155 -0.7647
 6535TIP3    H219612   3.672   5.416   5.186 -0.5581  1.7120 -0.0306
 6536TIP3   OH219613   4.011   4.258   4.930  0.4319 -0.1544 -0.4958
 6536TIP3    H119614   3.917   4.248   4.947  0.2629  1.4295 -0.4029
 6536TIP3    H219615   4.029   4.194   4.861 -0.2227 -2.0591  1.0480
 6537TIP3   OH219616   4.256   1.939   1.094 -0.1947 -0.2836 -0.2343
 6537TIP3    H119617   4.240   1.849   1.065 -1.1095 -0.2989  0.2988
 6537TIP3    H219618   4.227   1.940   1.185  1.9172 -0.0179  0.4545
 6538TIP3   OH219619   0.049   0.399   3.933 -0.3147 -0.6059 -0.0692
 6538TIP3    H119620   0.100   0.441   3.864 -0.4565 -0.5129 -0.1172
 6538TIP3    H219621   0.039   0.467   4.000 -0.9183 -0.4269 -0.3407
 6539TIP3   OH219622   1.125   1.960   4.180 -0.0330 -0.2594 -0.0472
 6539TIP3    H119623   1.059   1.915   4.232 -0.4146  1.3122  0.8591
 6539TIP3    H219624   1.195   1.981   4.242 -0.1485  0.9478 -0.3204
 6540TIP3   OH219625   4.105   0.866   0.920 -0.1911 -0.0900  0.0839
 6540TIP3    H119626   4.098   0.851   0.825  0.3186 -0.2861  0.0718
 6540TIP3    H219627   4.074   0.784   0.959  0.1221 -0.2194  0.0698
 6541TIP3   OH219628   4.591   3.996   4.551  0.1979  0.2809 -0.3228
 6541TIP3    H119629   4.641   3.971   4.629  1.3541  1.9659 -0.5097
 6541TIP3    H219630   4.597   3.920   4.493 -0.3590 -0.8411  1.0678
 6542TIP3   OH219631   1.707   5.657   1.130 -0.2789  0.2674  0.4089
 6542TIP3    H119632   1.668   5.597   1.067  0.1360  0.4305 -0.0028
 6542TIP3    H219633   1.769   5.710   1.079  0.6806 -0.1673  1.0965
 6543TIP3   OH219634   3.651   1.441   0.326 -0.3550 -0.1594 -0.4163
 6543TIP3    H119635   3.556   1.434   0.317 -0.4272  0.0092  0.2059
 6543TIP3    H219636   3.678   1.357   0.363 -0.4640  0.4120  0.9859
 6544TIP3   OH219637   4.776   3.777  -0.005  0.1697 -0.1048  1.0706
 6544TIP3    H119638   4.698   3.818   0.033 -0.2415 -1.1671  1.3775
 6544TIP3    H219639   4.817   3.730   0.068 -0.6160 -2.1371  0.2315
 6545TIP3   OH219640   0.646   5.717   0.700  0.4626 -0.1926 -0.3795
 6545TIP3    H119641   0.577   5.778   0.673  0.6071  0.2158  0.1448
 6545TIP3    H219642   0.599   5.638   0.727  0.2724 -0.3173 -1.0883
 6546TIP3   OH219643   4.354   4.147   4.948  0.0796  0.2403  0.0250
 6546TIP3    H119644   4.346   4.052   4.954 -1.6150  0.3982  0.5524
 6546TIP3    H219645   4.445   4.165   4.971 -0.2505 -1.0517  2.5184
 6547TIP3   OH219646   0.247   1.158   5.143  0.0386 -0.4468  0.1171
 6547TIP3    H119647   0.293   1.240   5.128 -1.6604  0.5507  0.2495
 6547TIP3    H219648   0.252   1.145   5.238 -3.7225  1.9734  0.7320
 6548TIP3   OH219649   4.663   5.301   4.471  0.4602 -0.2365  0.5492
 6548TIP3    H119650   4.573   5.334   4.467  0.0720 -1.0523  2.3942
 6548TIP3    H219651   4.696   5.331   4.556  1.5781 -0.8834  0.3549
 6549TIP3   OH219652   2.823   2.636   4.440  0.0302  0.0180  0.0833
 6549TIP3    H119653   2.847   2.656   4.350 -0.5845 -0.8758 -0.2767
 6549TIP3    H219654   2.898   2.667   4.492  1.0016 -0.7519 -0.8434
 6550TIP3   OH219655   4.089   2.344   3.409 -0.1692  0.2932 -0.1827
 6550TIP3    H119656   4.029   2.304   3.473  0.9907 -1.9284 -0.4201
 6550TIP3    H219657   4.056   2.314   3.324  0.4426  0.2284 -0.3974
 6551TIP3   OH219658   2.238   5.329   0.018 -0.3265  0.1078 -0.0791
 6551TIP3    H119659   2.289   5.333  -0.062  3.4285 -1.2144  2.1180
 6551TIP3    H219660   2.254   5.413   0.061 -2.7856  1.0423 -0.9227
 6552TIP3   OH219661   4.242   4.789   4.102 -0.0246 -0.7629  0.8377
 6552TIP3    H119662   4.164   4.745   4.068 -0.3620  0.4501  0.0056
 6552TIP3    H219663   4.248   4.762   4.193 -1.0102 -1.4382  0.7032
 6553TIP3   OH219664   0.654   0.082   4.872 -0.4889 -0.4770  0.4166
 6553TIP3    H119665   0.671   0.176   4.869 -2.4201 -0.1318 -1.2669
 6553TIP3    H219666   0.647   0.055   4.781  0.5872 -2.3760  0.8637
 6554TIP3   OH219667   0.695   0.972   5.158 -0.1557  0.2824  0.4413
 6554TIP3    H119668   0.617   0.991   5.106 -0.0480  1.9729  0.8757
 6554TIP3    H219669   0.692   0.877   5.172 -2.2337  0.3670  0.6450
 6555TIP3   OH219670   3.209   5.562   4.447  0.2595  0.2350  0.1151
 6555TIP3    H119671   3.281   5.586   4.388 -0.3989  0.4017 -0.6252
 6555TIP3    H219672   3.136   5.617   4.419  0.6236  2.1304  2.7012
 6556TIP3   OH219673   5.126   5.127   4.946 -0.1018 -0.5288  0.4092
 6556TIP3    H119674   5.210   5.167   4.967  0.2408 -0.6625 -0.6815
 6556TIP3    H219675   5.105   5.159   4.858 -2.1057  0.9846  1.4126
 6557TIP3   OH219676   3.226   4.572   5.168  0.3365 -0.1884 -0.0542
 6557TIP3    H119677   3.292   4.504   5.154 -0.0052 -0.6406  0.4681
 6557TIP3    H219678   3.271   4.654   5.149  1.3086 -0.4201  1.1689
 6558TIP3   OH219679   4.467   5.650   3.192  0.1775  1.0573 -0.8404
 6558TIP3    H119680   4.446   5.729   3.141 -3.6207  0.6884  0.0555
 6558TIP3    H219681   4.475   5.581   3.126 -0.4898  1.4037 -1.2884
 6559TIP3   OH219682   5.590   2.257   4.817  0.2550  0.8380  0.3496
 6559TIP3    H119683   5.681   2.238   4.842 -0.0083  1.0557  1.5168
 6559TIP3    H219684   5.598   2.315   4.742  1.1031  2.2874  1.5363
 6560TIP3   OH219685   3.952   1.592   1.291  0.1140  0.0547 -0.0119
 6560TIP3    H119686   3.913   1.540   1.220 -0.2924 -0.7199  0.7687
 6560TIP3    H219687   3.950   1.534   1.367  1.4106  0.5484  0.4100
 6561TIP3   OH219688   0.623   4.235   4.790  0.2889  0.2666 -0.0517
 6561TIP3    H119689   0.613   4.321   4.831  0.0578  0.3733 -0.3360
 6561TIP3    H219690   0.631   4.174   4.864  0.6698  0.5598  0.1455
 6562TIP3   OH219691   3.754   0.927   0.649  0.0211  0.3868  0.0318
 6562TIP3    H119692   3.720   1.016   0.659 -1.6190 -0.1867 -0.2825
 6562TIP3    H219693   3.768   0.918   0.555  0.9695  0.5821  0.1494
 6563TIP3   OH219694   1.725   5.581   0.463 -0.5442 -0.0457 -0.2309
 6563TIP3    H119695   1.658   5.513   0.468 -0.3813 -0.2230 -0.4798
 6563TIP3    H219696   1.730   5.617   0.552 -0.1813 -0.7811  0.0444
 6564TIP3   OH219697   2.054   0.235   0.873 -0.2587 -0.0825 -0.0430
 6564TIP3    H119698   2.026   0.270   0.789 -0.7237  1.5903  0.7708
 6564TIP3    H219699   2.143   0.269   0.885  0.3855 -1.5760 -0.5420
 6565TIP3   OH219700   1.108   2.204   0.734 -0.4984  0.1526  0.3614
 6565TIP3    H119701   1.019   2.169   0.740 -0.2380 -0.3488  1.4178
 6565TIP3    H219702   1.122   2.217   0.640 -0.5195 -2.8563 -0.1114
 6566TIP3   OH219703   5.943   5.173   3.228 -0.6937  0.2308 -0.2949
 6566TIP3    H119704   6.026   5.163   3.181 -0.3995  1.7315 -0.1230
 6566TIP3    H219705   5.968   5.203   3.315 -1.2496 -2.3412  0.7886
 6567TIP3   OH219706   1.962   1.983   1.301  0.1797 -0.0372  0.1094
 6567TIP3    H119707   2.038   1.924   1.307  0.6392  0.4888 -0.4810
 6567TIP3    H219708   1.989   2.051   1.239 -1.4588 -0.8846 -1.5950
 6568TIP3   OH219709   2.026   0.271   0.135  0.0395  0.4024  0.1917
 6568TIP3    H119710   2.028   0.182   0.170  2.8483  0.4779  0.2723
 6568TIP3    H219711   2.112   0.284   0.094 -0.2540  3.1308  0.3029
 6569TIP3   OH219712   5.800   4.362   4.738 -0.4757 -0.4757  0.1984
 6569TIP3    H119713   5.717   4.409   4.731 -0.0313  0.4248  0.8599
 6569TIP3    H219714   5.841   4.396   4.818 -0.2000 -2.0802  0.7681
 6570TIP3   OH219715   1.944   0.964   0.910  0.0846 -0.2489  0.0102
 6570TIP3    H119716   1.870   0.964   0.971  1.4262  0.5593  1.6664
 6570TIP3    H219717   2.016   0.924   0.959  1.2388  0.5878 -0.9753
 6571TIP3   OH219718   4.304   3.020   4.787 -0.0462  0.4656  0.0743
 6571TIP3    H119719   4.377   2.963   4.764 -0.1528  0.5647 -0.5063
 6571TIP3    H219720   4.226   2.969   4.764 -0.1593  0.3711  0.6678
 6572TIP3   OH219721   6.430   1.471   0.128 -0.3918  0.5986  0.0409
 6572TIP3    H119722   6.400   1.542   0.184  1.6012  1.1222  0.4659
 6572TIP3    H219723   6.432   1.394   0.185  0.0288  0.7782  0.2720
 6573TIP3   OH219724   3.185   1.538   1.884 -0.4764 -0.2249 -0.0198
 6573TIP3    H119725   3.250   1.536   1.814 -0.0674  0.0065  0.3526
 6573TIP3    H219726   3.205   1.461   1.936 -0.0213  0.2536  0.5228
 6574TIP3   OH219727   3.142   6.071   0.489 -0.3483 -0.4920  0.4253
 6574TIP3    H119728   3.203   6.130   0.445 -1.2020 -1.2050 -1.7809
 6574TIP3    H219729   3.146   5.990   0.438 -4.0224 -0.1519 -0.5301
 6575TIP3   OH219730   4.865   3.703   4.776 -0.2385  0.6772  0.0012
 6575TIP3    H119731   4.871   3.686   4.870 -2.3414  2.9811  0.6020
 6575TIP3    H219732   4.802   3.638   4.744  0.0886  0.2303  0.2508
 6576TIP3   OH219733   2.723   1.851   1.560 -0.0590  0.6090  0.0650
 6576TIP3    H119734   2.680   1.777   1.603  0.2954  0.2703 -0.1556
 6576TIP3    H219735   2.803   1.864   1.609 -0.2343  0.9956  0.2439
 6577TIP3   OH219736   4.448   2.225   1.418  0.7520  0.4496  1.1134
 6577TIP3    H119737   4.452   2.167   1.341 -2.0160  1.6633  0.0122
 6577TIP3    H219738   4.481   2.171   1.490 -0.9299 -2.2281 -0.0539
 6578TIP3   OH219739   3.621   4.154   0.019 -0.3651 -0.3127 -0.1534
 6578TIP3    H119740   3.536   4.139  -0.022 -1.2214  2.3967  0.5000
 6578TIP3    H219741   3.622   4.248   0.037  2.9815 -0.2116 -0.5899
 6579TIP3   OH219742   3.654   0.413   0.578  0.6615  0.3161 -0.2952
 6579TIP3    H119743   3.561   0.435   0.581  0.3738 -0.8293 -0.3831
 6579TIP3    H219744   3.670   0.393   0.486  0.7869 -0.3205 -0.1382
 6580TIP3   OH219745   5.233   5.416   3.623 -0.1712  0.1697  0.4207
 6580TIP3    H119746   5.317   5.446   3.587  0.4415 -1.2907  0.6013
 6580TIP3    H219747   5.211   5.339   3.570 -1.4149  0.5683  0.3529
 6581TIP3   OH219748   4.264   0.940   1.491  0.0054 -0.0126 -0.0528
 6581TIP3    H119749   4.252   0.930   1.585  0.3062 -0.1096 -0.0267
 6581TIP3    H219750   4.178   0.918   1.454  0.2876 -1.3919  0.0940
 6582TIP3   OH219751   5.914   4.499   3.901  0.2377  0.0877  0.5997
 6582TIP3    H119752   5.959   4.576   3.866  1.1200 -0.8923 -0.4677
 6582TIP3    H219753   5.977   4.457   3.959  0.4067 -0.7953 -0.2004
 6583TIP3   OH219754   3.320   0.425   0.910  0.4659 -0.4514  0.3709
 6583TIP3    H119755   3.289   0.342   0.945  1.7944 -0.6893  1.0117
 6583TIP3    H219756   3.273   0.492   0.960  0.8051 -0.8062  1.1638
 6584TIP3   OH219757   5.364   4.050   3.578  0.0043 -0.2083 -0.2590
 6584TIP3    H119758   5.459   4.060   3.578  0.0461 -0.5682 -0.9420
 6584TIP3    H219759   5.340   4.047   3.670  0.9721 -2.8463 -0.0332
 6585TIP3   OH219760   4.778   4.545   4.467 -0.4514  0.2594  0.2456
 6585TIP3    H119761   4.868   4.517   4.484  0.3681  2.9341  0.4196
 6585TIP3    H219762   4.745   4.482   4.402  1.2055 -1.3101  0.9038
 6586TIP3   OH219763   0.718   4.948   4.898 -0.5721 -0.0773 -0.3616
 6586TIP3    H119764   0.728   4.947   4.803 -0.4738 -1.8499 -0.3452
 6586TIP3    H219765   0.779   4.881   4.929 -0.7543  0.3455  0.9477
 6587TIP3   OH219766   2.484   5.103   4.002 -0.3621  0.1723 -0.0390
 6587TIP3    H119767   2.396   5.117   3.967  0.0216 -0.0543 -1.0941
 6587TIP3    H219768   2.498   5.177   4.062 -0.1552  1.7973 -2.0482
 6588TIP3   OH219769   6.198   4.133   0.706 -0.1215  0.6053 -0.2631
 6588TIP3    H119770   6.277   4.184   0.720 -0.1596  0.4740  0.4588
 6588TIP3    H219771   6.153   4.133   0.791 -0.2442 -0.4023 -0.3102
 6589TIP3   OH219772   2.293   4.917   4.444  0.6207 -0.1627  0.2660
 6589TIP3    H119773   2.315   5.002   4.408 -0.6617  0.7630  1.5841
 6589TIP3    H219774   2.197   4.917   4.450  0.6624 -1.2410  1.3323
 6590TIP3   OH219775   0.813   5.851   1.380 -0.1467 -0.1878 -0.5214
 6590TIP3    H119776   0.786   5.885   1.295  0.1727 -0.8070 -0.8759
 6590TIP3    H219777   0.802   5.925   1.440  0.0582  0.3890 -1.1825
 6591TIP3   OH219778   6.365   5.532   0.782  0.1488  0.1346 -0.1467
 6591TIP3    H119779   6.380   5.625   0.766  1.4183 -0.2356 -1.2225
 6591TIP3    H219780   6.312   5.529   0.861  0.0859  1.7726 -0.1150
 6592TIP3   OH219781   5.549   3.115   1.811  0.1155 -0.5477 -0.2672
 6592TIP3    H119782   5.561   3.206   1.837  0.9392 -0.1582 -1.9430
 6592TIP3    H219783   5.632   3.072   1.832  0.2901 -0.5442 -0.9328
 6593TIP3   OH219784   1.465   3.113   0.833 -0.0828 -0.4207 -0.4539
 6593TIP3    H119785   1.402   3.056   0.789  1.0085 -0.4451 -2.0609
 6593TIP3    H219786   1.422   3.199   0.835  0.0244 -0.3125 -2.0213
 6594TIP3   OH219787   2.437   0.867   3.797 -0.5994 -0.1545 -0.1581
 6594TIP3    H119788   2.455   0.851   3.704  0.5121 -0.0285  0.0266
 6594TIP3    H219789   2.501   0.814   3.843 -0.4164  0.6451  0.5261
 6595TIP3   OH219790   3.225   5.764   4.842 -0.2152 -0.0214 -0.0049
 6595TIP3    H119791   3.138   5.790   4.875  0.6645 -0.4886  2.7889
 6595TIP3    H219792   3.266   5.847   4.816 -0.2594  0.6180  1.8425
 6596TIP3   OH219793   5.129   3.503   0.249 -0.3347 -0.3697 -0.4313
 6596TIP3    H119794   5.151   3.592   0.222 -0.7279 -0.4108 -0.8814
 6596TIP3    H219795   5.066   3.473   0.184  0.5340 -1.3317 -0.8394
 6597TIP3   OH219796   6.394   2.536   0.679  0.0426 -0.3974  0.3278
 6597TIP3    H119797   6.486   2.510   0.678  0.8715  2.3546 -1.5922
 6597TIP3    H219798   6.387   2.596   0.754  0.3855  1.1900 -0.8862
 6598TIP3   OH219799   1.405   2.958   2.037  0.1481  0.1261 -0.1557
 6598TIP3    H119800   1.494   2.932   2.011  1.6546  3.9809  0.9057
 6598TIP3    H219801   1.353   2.948   1.957  2.0691  0.1895 -1.4394
 6599TIP3   OH219802   4.279   2.354   4.358  0.1448  0.1040  0.3026
 6599TIP3    H119803   4.333   2.406   4.417  1.0781 -1.3129  0.7465
 6599TIP3    H219804   4.341   2.293   4.317 -0.2305  1.8962 -3.1543
 6600TIP3   OH219805   2.421   4.682   4.557 -0.0583  0.0886 -0.0079
 6600TIP3    H119806   2.379   4.760   4.521 -0.3748  1.0843  2.4113
 6600TIP3    H219807   2.352   4.616   4.559 -0.2907  0.3223 -0.3431
 6601TIP3   OH219808   6.014   2.852   0.589 -0.2238 -0.2138 -0.4793
 6601TIP3    H119809   6.067   2.827   0.513  1.8103 -1.1076  1.2143
 6601TIP3    H219810   5.955   2.778   0.603  1.9799 -1.7299  1.0888
 6602TIP3   OH219811   0.225   0.952   0.082 -0.0264 -0.4226  0.2133
 6602TIP3    H119812   0.303   0.987   0.127  0.0025 -0.6347  0.3305
 6602TIP3    H219813   0.206   1.016   0.014  1.3951 -1.3258 -1.0698
 6603TIP3   OH219814   6.141   0.970   3.099 -0.3751  0.0641 -0.2767
 6603TIP3    H119815   6.070   0.954   3.037 -0.8994 -0.1296  0.3706
 6603TIP3    H219816   6.117   0.919   3.176  0.0676  0.6348  0.2363
 6604TIP3   OH219817   0.868   4.584   4.051 -0.1020  0.0951  0.2329
 6604TIP3    H119818   0.796   4.564   4.110  0.7554  1.6425  1.8789
 6604TIP3    H219819   0.833   4.649   3.990 -0.3848  0.0860  0.3888
 6605TIP3   OH219820   1.668   4.620   0.729  0.4865  0.1768  0.0124
 6605TIP3    H119821   1.752   4.574   0.726  0.6453  0.2367  2.7501
 6605TIP3    H219822   1.608   4.557   0.769 -0.1707  1.0104  0.3430
 6606TIP3   OH219823   0.502   4.180   0.796  0.2923  0.3880 -0.1719
 6606TIP3    H119824   0.580   4.166   0.850  0.6054 -0.2600 -0.7866
 6606TIP3    H219825   0.531   4.239   0.726 -0.2354  1.6155  0.6339
 6607TIP3   OH219826   4.398   1.626   2.123 -0.7631  0.1096  0.3971
 6607TIP3    H119827   4.345   1.553   2.156 -0.0719 -0.9970 -0.8788
 6607TIP3    H219828   4.340   1.674   2.064 -0.3438 -1.1421 -1.0554
 6608TIP3   OH219829   5.102   3.837   1.689  0.3161  0.3612  0.6832
 6608TIP3    H119830   5.037   3.904   1.708 -0.5468 -0.1195 -0.4718
 6608TIP3    H219831   5.148   3.870   1.612 -0.2306 -0.4289  0.0012
 6609TIP3   OH219832   1.339   4.751   5.211  0.6847 -0.1235 -0.3713
 6609TIP3    H119833   1.317   4.841   5.235  0.3641 -0.0379 -0.9866
 6609TIP3    H219834   1.432   4.743   5.231  0.4861  0.0197  0.6756
 6610TIP3   OH219835   6.180   5.993   1.898  0.0479 -0.0503  0.1640
 6610TIP3    H119836   6.126   5.933   1.950 -0.7267 -0.2378 -0.8485
 6610TIP3    H219837   6.118   6.060   1.869  0.5807  0.3129 -0.1287
 6611TIP3   OH219838   5.049   4.766   0.292  0.3149 -0.1309  0.5295
 6611TIP3    H119839   4.984   4.761   0.362 -1.5125  1.0737 -1.0411
 6611TIP3    H219840   5.028   4.693   0.234 -0.2883  0.8609 -0.5164
 6612TIP3   OH219841   0.181   3.462   0.399 -0.0399  0.3606  0.2857
 6612TIP3    H119842   0.159   3.532   0.461  0.4496  2.9525 -2.3315
 6612TIP3    H219843   0.276   3.452   0.408  0.3029  1.9827 -1.2213
 6613TIP3   OH219844   2.511   3.518   0.283  0.4666  0.7305 -0.0686
 6613TIP3    H119845   2.512   3.586   0.350  2.2839  1.6587 -1.0254
 6613TIP3    H219846   2.422   3.482   0.288 -0.1383  2.3252  1.2758
 6614TIP3   OH219847   6.406   0.409   5.013  0.1026 -0.6022 -0.4600
 6614TIP3    H119848   6.449   0.324   5.011 -1.7175 -1.5323 -1.2738
 6614TIP3    H219849   6.318   0.391   5.046 -0.6719  0.7635 -1.7145
 6615TIP3   OH219850   1.224   0.142   3.241 -0.1389 -0.7528 -0.6232
 6615TIP3    H119851   1.237   0.111   3.331  0.8738  0.4811 -0.3116
 6615TIP3    H219852   1.289   0.213   3.231  0.0818 -1.1866 -2.4766
 6616TIP3   OH219853   4.409   5.373   4.489 -0.1746 -0.1169 -0.3101
 6616TIP3    H119854   4.412   5.405   4.580  2.6683  3.2846 -1.4829
 6616TIP3    H219855   4.334   5.418   4.451  0.4534  0.8358 -0.4373
 6617TIP3   OH219856   5.744   3.693   0.674  0.0428  0.1658 -0.0665
 6617TIP3    H119857   5.801   3.758   0.714 -0.9967  0.7209  0.5491
 6617TIP3    H219858   5.730   3.724   0.584 -1.3424  1.4149  0.5539
 6618TIP3   OH219859   5.818   0.751   5.059  0.4903  0.1024 -0.3314
 6618TIP3    H119860   5.742   0.805   5.079  0.7432  0.4608 -0.3345
 6618TIP3    H219861   5.785   0.661   5.060 -0.2190  0.3392 -1.6565
 6619TIP3   OH219862   3.696   5.216   4.404  0.0629  0.4645  0.3187
 6619TIP3    H119863   3.611   5.249   4.430 -1.1631 -1.1067 -1.5811
 6619TIP3    H219864   3.732   5.284   4.348 -1.0038  0.0628 -0.8649
 6620TIP3   OH219865   5.539   2.776   2.099  0.2276 -0.6344 -0.0329
 6620TIP3    H119866   5.518   2.864   2.070 -0.8292 -0.5785  0.8503
 6620TIP3    H219867   5.621   2.784   2.146  1.3717 -0.5366 -1.9696
 6621TIP3   OH219868   1.416   2.389   1.273 -0.5131 -0.0260 -0.4149
 6621TIP3    H119869   1.421   2.483   1.292  0.0864 -0.2369  0.5007
 6621TIP3    H219870   1.399   2.348   1.358 -1.0195 -0.7288 -0.8487
 6622TIP3   OH219871   1.530   4.390   0.805 -0.4204  0.7012  0.1665
 6622TIP3    H119872   1.579   4.320   0.848 -2.2292  0.0888  1.2627
 6622TIP3    H219873   1.440   4.360   0.805 -0.6954  1.4012 -2.6859
 6623TIP3   OH219874   0.654   0.882   3.364  0.6199 -0.4810  0.1908
 6623TIP3    H119875   0.681   0.962   3.319 -0.4049  0.2002  0.7775
 6623TIP3    H219876   0.581   0.849   3.313  0.4818 -0.5737  0.4491
 6624TIP3   OH219877   1.412   5.119   1.158  0.1857 -0.0519  0.4929
 6624TIP3    H119878   1.419   5.050   1.224  0.9926 -0.3409  0.1103
 6624TIP3    H219879   1.416   5.073   1.075  0.8137  0.4695  0.2328
 6625TIP3   OH219880   4.292   3.630   1.154  0.3535 -0.2033 -0.2697
 6625TIP3    H119881   4.275   3.690   1.226  1.4737 -0.8978  0.5991
 6625TIP3    H219882   4.340   3.682   1.090  0.0839  0.2012 -0.1419
 6626TIP3   OH219883   5.240   2.417   2.175 -0.4730 -0.5434 -0.5063
 6626TIP3    H119884   5.317   2.435   2.120  1.1697 -1.0777  1.5526
 6626TIP3    H219885   5.188   2.497   2.170  1.3938  0.7447 -0.0701
 6627TIP3   OH219886   4.708   5.685   2.934  0.2166  0.2622 -0.2733
 6627TIP3    H119887   4.617   5.713   2.924  0.6551  1.6468 -0.5276
 6627TIP3    H219888   4.710   5.596   2.899 -0.5249  1.1064 -2.5538
 6628TIP3   OH219889   2.189   5.680   4.462 -0.2121 -0.2831  0.0629
 6628TIP3    H119890   2.172   5.676   4.556  1.5112  0.5215  0.4194
 6628TIP3    H219891   2.202   5.773   4.444 -3.1800 -0.0966 -1.4819
 6629TIP3   OH219892   4.892   3.989   0.218 -0.2142 -0.3417  0.6389
 6629TIP3    H119893   4.815   4.035   0.251 -1.1236 -0.6048 -1.0345
 6629TIP3    H219894   4.866   3.896   0.219 -0.1287 -0.3802 -0.4541
 6630TIP3   OH219895   4.355   0.706   4.804 -0.2428  0.4454 -0.4213
 6630TIP3    H119896   4.323   0.618   4.783  0.2943  0.1248  0.0785
 6630TIP3    H219897   4.380   0.701   4.896  0.0195  1.0555 -0.4569
 6631TIP3   OH219898   2.007   4.265   2.164 -0.6370  0.0297  0.1686
 6631TIP3    H119899   1.975   4.333   2.105 -1.1759 -0.3129  0.0526
 6631TIP3    H219900   2.090   4.237   2.126  0.4691  1.8467  1.1976
 6632TIP3   OH219901   0.799   0.521   3.863  0.0156 -1.1613  0.0486
 6632TIP3    H119902   0.736   0.452   3.842 -1.2438 -0.2432  0.7314
 6632TIP3    H219903   0.759   0.602   3.831  1.3316 -0.6951 -0.4656
 6633TIP3   OH219904   4.299   5.805   4.063  0.5783  0.2042 -0.5249
 6633TIP3    H119905   4.377   5.827   4.114  0.8128  0.3151 -0.9273
 6633TIP3    H219906   4.316   5.844   3.977  0.3333 -0.2749 -0.7858
 6634TIP3   OH219907   0.922   5.482   2.218  0.5734 -0.2250  0.1072
 6634TIP3    H119908   1.003   5.437   2.194  0.3471 -0.1095 -0.8729
 6634TIP3    H219909   0.852   5.421   2.194  0.2654  0.6255 -1.1993
 6635TIP3   OH219910   5.482   3.877   0.685 -0.2352  0.6344  0.4858
 6635TIP3    H119911   5.500   3.950   0.744  0.5348  0.5291  0.3953
 6635TIP3    H219912   5.467   3.802   0.742  2.5470  0.0637  0.5638
 6636TIP3   OH219913   5.112   0.202   4.657 -0.3581 -0.5710 -0.3351
 6636TIP3    H119914   5.171   0.276   4.672 -1.1644 -0.4187  2.3565
 6636TIP3    H219915   5.027   0.233   4.687 -0.8770 -2.3164  0.0368
 6637TIP3   OH219916   6.269   0.799   3.777 -0.9100  0.0632  0.2484
 6637TIP3    H119917   6.330   0.765   3.712 -1.7288  0.7811 -0.9091
 6637TIP3    H219918   6.182   0.776   3.744 -1.2583 -1.6960  2.3032
 6638TIP3   OH219919   1.143   3.498   1.398 -0.3477 -0.4101  0.5767
 6638TIP3    H119920   1.158   3.581   1.352 -0.5344  0.3456  1.8683
 6638TIP3    H219921   1.194   3.505   1.479 -0.4552 -1.5130  0.7505
 6639TIP3   OH219922   1.770   2.588   1.711 -0.5396  0.3395 -0.5057
 6639TIP3    H119923   1.852   2.582   1.662 -1.2757  0.1235 -1.7217
 6639TIP3    H219924   1.772   2.512   1.770  1.2415  1.6766  1.2029
 6640TIP3   OH219925   6.158   5.648   4.469  0.1409 -0.5060  0.3215
 6640TIP3    H119926   6.146   5.573   4.410  2.5944 -0.1796 -0.6621
 6640TIP3    H219927   6.107   5.626   4.546 -0.0339 -2.7327 -0.3817
 6641TIP3   OH219928   1.366   2.014   0.729  0.2899  0.1250 -0.1680
 6641TIP3    H119929   1.374   2.105   0.700 -0.3211  1.6732  4.2438
 6641TIP3    H219930   1.272   2.000   0.739  0.4918 -0.1925  1.4293
 6642TIP3   OH219931   1.640   3.607   2.463 -0.5210 -0.0987  0.0125
 6642TIP3    H119932   1.665   3.558   2.541 -1.4051  0.4223  0.6250
 6642TIP3    H219933   1.681   3.693   2.474  1.8945 -0.9827 -1.5476
 6643TIP3   OH219934   1.523   2.956   0.065  0.0703  0.3687 -0.1457
 6643TIP3    H119935   1.586   3.027   0.064 -2.2071  2.4910  1.5036
 6643TIP3    H219936   1.460   2.979  -0.003 -0.0206 -0.6922 -0.4279
 6644TIP3   OH219937   0.489   3.396   1.031 -0.1725  0.0866  0.1225
 6644TIP3    H119938   0.497   3.432   1.119 -0.5135  1.2523 -0.3199
 6644TIP3    H219939   0.495   3.301   1.044 -0.7478  0.2131  1.4639
 6645TIP3   OH219940   0.551   2.124   4.353  0.4719 -0.3309 -0.9492
 6645TIP3    H119941   0.507   2.091   4.275 -0.5899  0.7370 -0.8271
 6645TIP3    H219942   0.642   2.133   4.328 -0.1103  1.4983 -2.5881
   6.50000   6.12826   5.30723   0.00000   0.00000  -2.16667   0.00000  -2.16667  -3.06413
