Title
44350
    1GLY      N    1   2.107   4.002   4.816
    1GLY    HT1    2   2.016   3.980   4.772
    1GLY    HT2    3   2.135   4.099   4.789
    1GLY    HT3    4   2.097   4.000   4.919
    1GLY     CA    5   2.213   3.904   4.772
    1GLY    HA1    6   2.210   3.899   4.664
    1GLY    HA2    7   2.187   3.810   4.820
    1GLY      C    8   2.353   3.939   4.813
    1GLY      O    9   2.373   4.049   4.865
    2PRO      N   10   2.453   3.852   4.795
    2PRO     CD   11   2.435   3.719   4.734
    2PRO    HD1   12   2.424   3.732   4.624
    2PRO    HD2   13   2.348   3.664   4.776
    2PRO     CA   14   2.595   3.881   4.814
    2PRO     HA   15   2.609   3.892   4.921
    2PRO     CB   16   2.669   3.758   4.758
    2PRO    HB1   17   2.761   3.734   4.816
    2PRO    HB2   18   2.697   3.773   4.652
    2PRO     CG   19   2.565   3.646   4.766
    2PRO    HG1   20   2.587   3.563   4.695
    2PRO    HG2   21   2.561   3.605   4.869
    2PRO      C   22   2.646   4.010   4.751
    2PRO      O   23   2.597   4.050   4.646
    3GLY      N   24   2.745   4.075   4.814
    3GLY     HN   25   2.779   4.040   4.901
    3GLY     CA   26   2.819   4.185   4.753
    3GLY    HA1   27   2.892   4.218   4.825
    3GLY    HA2   28   2.748   4.262   4.726
    3GLY      C   29   2.894   4.146   4.628
    3GLY      O   30   2.922   4.029   4.603
    4ASP      N   31   2.932   4.244   4.545
    4ASP     HN   32   2.905   4.339   4.559
    4ASP     CA   33   3.018   4.219   4.431
    4ASP     HA   34   2.977   4.134   4.380
    4ASP     CB   35   3.014   4.339   4.332
    4ASP    HB1   36   3.086   4.325   4.249
    4ASP    HB2   37   3.041   4.433   4.386
    4ASP     CG   38   2.875   4.357   4.271
    4ASP    OD1   39   2.784   4.273   4.290
    4ASP    OD2   40   2.853   4.458   4.199
    4ASP      C   41   3.160   4.179   4.477
    4ASP      O   42   3.201   4.222   4.585
    5PRO      N   43   3.236   4.093   4.407
    5PRO     CD   44   3.196   4.031   4.280
    5PRO    HD1   45   3.203   4.108   4.200
    5PRO    HD2   46   3.093   3.989   4.284
    5PRO     CA   47   3.373   4.054   4.443
    5PRO     HA   48   3.364   3.991   4.531
    5PRO     CB   49   3.425   3.977   4.321
    5PRO    HB1   50   3.496   3.896   4.351
    5PRO    HB2   51   3.476   4.045   4.250
    5PRO     CG   52   3.299   3.921   4.256
    5PRO    HG1   53   3.313   3.898   4.148
    5PRO    HG2   54   3.267   3.828   4.309
    5PRO      C   55   3.467   4.167   4.483
    5PRO      O   56   3.451   4.280   4.437
    6GLY      N   57   3.567   4.140   4.570
    6GLY     HN   58   3.580   4.047   4.603
    6GLY     CA   59   3.675   4.235   4.595
    6GLY    HA1   60   3.743   4.189   4.665
    6GLY    HA2   61   3.633   4.327   4.632
    6GLY      C   62   3.755   4.267   4.471
    6GLY      O   63   3.765   4.186   4.379
    7SER      N   64   3.820   4.386   4.464
    7SER     HN   65   3.812   4.455   4.536
    7SER     CA   66   3.913   4.415   4.355
    7SER     HA   67   3.859   4.397   4.263
    7SER     CB   68   3.964   4.561   4.350
    7SER    HB1   69   4.050   4.572   4.281
    7SER    HB2   70   3.999   4.591   4.452
    7SER     OG   71   3.861   4.650   4.306
    7SER    HG1   72   3.850   4.634   4.212
    7SER      C   73   4.032   4.321   4.352
    7SER      O   74   4.080   4.276   4.456
    8GLY      N   75   4.081   4.289   4.231
    8GLY     HN   76   4.036   4.324   4.149
    8GLY     CA   77   4.198   4.205   4.208
    8GLY    HA1   78   4.221   4.210   4.103
    8GLY    HA2   79   4.172   4.105   4.241
    8GLY      C   80   4.323   4.247   4.282
    8GLY      O   81   4.338   4.359   4.330
    9ASN      N   82   4.420   4.154   4.293
    9ASN     HN   83   4.406   4.063   4.254
    9ASN     CA   84   4.549   4.182   4.353
    9ASN     HA   85   4.526   4.224   4.450
    9ASN     CB   86   4.629   4.049   4.367
    9ASN    HB1   87   4.687   4.027   4.275
    9ASN    HB2   88   4.557   3.966   4.383
    9ASN     CG   89   4.719   4.052   4.491
    9ASN    OD1   90   4.692   4.119   4.589
    9ASN    ND2   91   4.833   3.980   4.485
    9ASN   HD21   92   4.889   3.978   4.567
    9ASN   HD22   93   4.853   3.924   4.405
    9ASN      C   94   4.627   4.285   4.270
    9ASN      O   95   4.619   4.277   4.147
   10PRO      N   96   4.701   4.383   4.324
   10PRO     CD   97   4.717   4.408   4.467
   10PRO    HD1   98   4.787   4.332   4.508
   10PRO    HD2   99   4.620   4.405   4.521
   10PRO     CA  100   4.789   4.469   4.245
   10PRO     HA  101   4.725   4.528   4.181
   10PRO     CB  102   4.865   4.555   4.347
   10PRO    HB1  103   4.874   4.660   4.310
   10PRO    HB2  104   4.966   4.515   4.367
   10PRO     CG  105   4.782   4.546   4.476
   10PRO    HG1  106   4.844   4.557   4.567
   10PRO    HG2  107   4.703   4.624   4.475
   10PRO      C  108   4.884   4.392   4.155
   10PRO      O  109   4.945   4.296   4.200
   11GLY      N  110   4.897   4.435   4.028
   11GLY     HN  111   4.845   4.514   3.998
   11GLY     CA  112   4.992   4.377   3.933
   11GLY    HA1  113   4.989   4.437   3.843
   11GLY    HA2  114   4.963   4.274   3.916
   11GLY      C  115   5.135   4.377   3.980
   11GLY      O  116   5.177   4.463   4.057
   12SER      N  117   5.214   4.281   3.931
   12SER     HN  118   5.179   4.208   3.873
   12SER     CA  119   5.356   4.268   3.958
   12SER     HA  120   5.368   4.252   4.064
   12SER     CB  121   5.416   4.147   3.881
   12SER    HB1  122   5.524   4.135   3.902
   12SER    HB2  123   5.405   4.164   3.772
   12SER     OG  124   5.346   4.028   3.916
   12SER    HG1  125   5.388   3.993   3.996
   12SER      C  126   5.437   4.391   3.921
   12SER      O  127   5.406   4.461   3.824
   13GLY      N  128   5.541   4.424   3.999
   13GLY     HN  129   5.563   4.369   4.080
   13GLY     CA  130   5.634   4.532   3.968
   13GLY    HA1  131   5.709   4.535   4.046
   13GLY    HA2  132   5.576   4.624   3.964
   13GLY      C  133   5.708   4.520   3.837
   13GLY      O  134   5.704   4.418   3.767
   14ASP      N  135   5.782   4.626   3.800
   14ASP     HN  136   5.790   4.706   3.859
   14ASP     CA  137   5.878   4.620   3.691
   14ASP     HA  138   5.824   4.587   3.604
   14ASP     CB  139   5.940   4.760   3.662
   14ASP    HB1  140   6.017   4.749   3.583
   14ASP    HB2  141   5.988   4.800   3.754
   14ASP     CG  142   5.839   4.860   3.609
   14ASP    OD1  143   5.761   4.825   3.517
   14ASP    OD2  144   5.851   4.979   3.651
   14ASP      C  145   5.993   4.524   3.724
   14ASP      O  146   6.037   4.521   3.840
   15PRO      N  147   6.046   4.448   3.629
   15PRO     CD  148   5.972   4.400   3.512
   15PRO    HD1  149   5.987   4.474   3.430
   15PRO    HD2  150   5.864   4.387   3.533
   15PRO     CA  151   6.175   4.382   3.644
   15PRO     HA  152   6.174   4.324   3.735
   15PRO     CB  153   6.184   4.292   3.518
   15PRO    HB1  154   6.240   4.199   3.540
   15PRO    HB2  155   6.235   4.347   3.436
   15PRO     CG  156   6.038   4.267   3.479
   15PRO    HG1  157   6.027   4.238   3.372
   15PRO    HG2  158   5.996   4.187   3.544
   15PRO      C  159   6.291   4.480   3.651
   15PRO    OT1  160   6.307   4.567   3.560
   15PRO    OT2  161   6.372   4.471   3.748
   16LIT    LIT  162   7.887   0.523   6.301
   17LIT    LIT  163   6.379   2.629   1.429
   18LIT    LIT  164   5.059   7.623   4.845
   19LIT    LIT  165   7.340   1.949   0.301
   20LIT    LIT  166   5.516   2.002   0.718
   21LIT    LIT  167   5.962   5.081   3.747
   22LIT    LIT  168   7.637   5.688   2.775
   23LIT    LIT  169   5.586   4.501   5.758
   24LIT    LIT  170   5.949   5.152   3.115
   25LIT    LIT  171   3.415   6.580   1.567
   26LIT    LIT  172   7.379   4.105   4.706
   27LIT    LIT  173   6.282   7.252   4.971
   28LIT    LIT  174   2.883   1.345   4.337
   29LIT    LIT  175   2.848   0.520   6.289
   30LIT    LIT  176   4.017   5.140   0.283
   31LIT    LIT  177   5.259   1.865   1.708
   32LIT    LIT  178   1.061   7.439   6.051
   33LIT    LIT  179   2.102   2.372   3.912
   34LIT    LIT  180   3.567   2.238   3.043
   35LIT    LIT  181   0.792   2.416   3.816
   36LIT    LIT  182   8.228   2.047   1.153
   37LIT    LIT  183   7.822   6.613   2.707
   38LIT    LIT  184   1.089   5.141   6.453
   39LIT    LIT  185   7.808   3.481   3.162
   40LIT    LIT  186   0.413   2.323   4.937
   41LIT    LIT  187   2.277   2.161   3.029
   42LIT    LIT  188   2.948   1.929   5.281
   43LIT    LIT  189   7.119   0.507   5.212
   44LIT    LIT  190   6.662   0.138   2.880
   45LIT    LIT  191   4.314   1.963   0.305
   46LIT    LIT  192   2.964   0.841   2.730
   47LIT    LIT  193   7.328   3.999   1.404
   48LIT    LIT  194   6.466   6.836   6.362
   49LIT    LIT  195   7.725   5.302   6.713
   50LIT    LIT  196   7.684   6.446   5.736
   51LIT    LIT  197   3.717   3.547   3.452
   52LIT    LIT  198   1.310   6.794   4.977
   53LIT    LIT  199   6.928   3.664   4.632
   54LIT    LIT  200   4.436   4.239   2.698
   55LIT    LIT  201   8.159   4.638   1.649
   56LIT    LIT  202   8.214   4.991   0.271
   57LIT    LIT  203   2.622   4.341   4.242
   58LIT    LIT  204   0.966   6.507   5.724
   59LIT    LIT  205   1.521   1.035   4.994
   60CLA    CLA  206   1.152   5.124   6.112
   61CLA    CLA  207   6.700   6.717   0.410
   62CLA    CLA  208   5.652   7.773   5.328
   63CLA    CLA  209   3.606   1.095   4.342
   64CLA    CLA  210   1.004   2.541   5.180
   65CLA    CLA  211   2.563   1.374   4.610
   66CLA    CLA  212   8.339   6.468   4.412
   67CLA    CLA  213   0.298   0.030   2.937
   68CLA    CLA  214   0.026   6.084   2.408
   69CLA    CLA  215   5.930   6.630   4.293
   70CLA    CLA  216   6.623   3.373   6.625
   71CLA    CLA  217   5.249   7.981   4.512
   72CLA    CLA  218   4.626   5.613   5.916
   73CLA    CLA  219   4.113   6.154   2.909
   74CLA    CLA  220   7.778   5.600   3.841
   75CLA    CLA  221   3.595   3.811   6.191
   76CLA    CLA  222   7.662   6.087   5.647
   77CLA    CLA  223   3.678   1.595   3.107
   78CLA    CLA  224   2.838   2.513   3.674
   79CLA    CLA  225   8.190   3.796   4.102
   80CLA    CLA  226   5.336   1.771   1.284
   81CLA    CLA  227   1.415   2.725   4.062
   82CLA    CLA  228   2.767   7.312   3.732
   83CLA    CLA  229   5.912   2.285   2.365
   84CLA    CLA  230   0.233   2.316   4.795
   85CLA    CLA  231   2.711   2.698   2.357
   86CLA    CLA  232   3.909   3.618   3.555
   87CLA    CLA  233   7.329   5.637   6.655
   88CLA    CLA  234   0.027   2.319   4.022
   89CLA    CLA  235   6.438   7.094   4.957
   90CLA    CLA  236   6.196   5.713   0.777
   91CLA    CLA  237   7.153   3.679   4.617
   92CLA    CLA  238   0.402   5.727   1.704
   93CLA    CLA  239   7.896   6.690   3.069
   94CLA    CLA  240   8.168   2.329   1.245
   95CLA    CLA  241   7.279   2.161   0.226
   96CLA    CLA  242   3.010   3.235   4.970
   97CLA    CLA  243   2.386   1.982   3.844
   98CLA    CLA  244   1.927   2.156   2.123
   99CLA    CLA  245   6.319   6.774   6.538
  100CLA    CLA  246   1.488   3.710   5.577
  101CLA    CLA  247   1.885   5.139   3.540
  102TIP3   OH2  248   3.286   0.350   2.256
  102TIP3    H1  249   3.284   0.254   2.263
  102TIP3    H2  250   3.198   0.378   2.284
  103TIP3   OH2  251   2.974   0.699   2.345
  103TIP3    H1  252   2.964   0.712   2.251
  103TIP3    H2  253   3.057   0.743   2.366
  104TIP3   OH2  254   3.265   0.073   2.263
  104TIP3    H1  255   3.190   0.061   2.322
  104TIP3    H2  256   3.230   0.058   2.176
  105TIP3   OH2  257   2.711   0.315   2.584
  105TIP3    H1  258   2.718   0.232   2.631
  105TIP3    H2  259   2.800   0.349   2.582
  106TIP3   OH2  260   3.065   0.469   2.018
  106TIP3    H1  261   3.073   0.443   2.110
  106TIP3    H2  262   3.140   0.426   1.975
  107TIP3   OH2  263   3.164   0.181   2.559
  107TIP3    H1  264   3.102   0.183   2.632
  107TIP3    H2  265   3.209   0.265   2.563
  108TIP3   OH2  266   0.364   7.847   2.399
  108TIP3    H1  267   0.401   7.760   2.415
  108TIP3    H2  268   0.413   7.881   2.325
  109TIP3   OH2  269   0.514   7.635   2.469
  109TIP3    H1  270   0.538   7.542   2.469
  109TIP3    H2  271   0.594   7.680   2.496
  110TIP3   OH2  272   2.542   0.660   2.334
  110TIP3    H1  273   2.571   0.586   2.281
  110TIP3    H2  274   2.618   0.684   2.386
  111TIP3   OH2  275   3.027   0.429   2.303
  111TIP3    H1  276   2.947   0.382   2.326
  111TIP3    H2  277   3.008   0.521   2.322
  112TIP3   OH2  278   1.406   7.847   1.519
  112TIP3    H1  279   1.460   7.852   1.598
  112TIP3    H2  280   1.453   7.788   1.461
  113TIP3   OH2  281   4.588   0.104   1.347
  113TIP3    H1  282   4.493   0.105   1.338
  113TIP3    H2  283   4.614   0.195   1.334
  114TIP3   OH2  284   4.168   0.600   1.264
  114TIP3    H1  285   4.168   0.616   1.170
  114TIP3    H2  286   4.117   0.520   1.275
  115TIP3   OH2  287   4.126   0.082   1.543
  115TIP3    H1  288   4.158  -0.004   1.515
  115TIP3    H2  289   4.203   0.125   1.581
  116TIP3   OH2  290   3.962   0.007   1.768
  116TIP3    H1  291   3.888   0.058   1.801
  116TIP3    H2  292   4.000   0.061   1.699
  117TIP3   OH2  293   3.765   0.190   1.868
  117TIP3    H1  294   3.730   0.279   1.867
  117TIP3    H2  295   3.694   0.136   1.902
  118TIP3   OH2  296   4.625   0.380   1.302
  118TIP3    H1  297   4.555   0.390   1.367
  118TIP3    H2  298   4.642   0.470   1.272
  119TIP3   OH2  299   4.288   0.383   1.062
  119TIP3    H1  300   4.369   0.334   1.079
  119TIP3    H2  301   4.317   0.472   1.047
  120TIP3   OH2  302   4.834   0.298   1.702
  120TIP3    H1  303   4.825   0.225   1.641
  120TIP3    H2  304   4.819   0.376   1.648
  121TIP3   OH2  305   1.888   7.828   1.804
  121TIP3    H1  306   1.828   7.887   1.850
  121TIP3    H2  307   1.835   7.753   1.780
  122TIP3   OH2  308   3.830   0.206   1.355
  122TIP3    H1  309   3.758   0.187   1.415
  122TIP3    H2  310   3.881   0.126   1.352
  123TIP3   OH2  311   4.448   0.364   1.507
  123TIP3    H1  312   4.417   0.438   1.559
  123TIP3    H2  313   4.422   0.287   1.557
  124TIP3   OH2  314   3.972   0.282   2.023
  124TIP3    H1  315   3.918   0.341   2.075
  124TIP3    H2  316   3.910   0.229   1.974
  125TIP3   OH2  317   0.896   7.898   2.095
  125TIP3    H1  318   0.907   7.983   2.137
  125TIP3    H2  319   0.843   7.848   2.157
  126TIP3   OH2  320   4.069   0.323   1.208
  126TIP3    H1  321   4.146   0.343   1.156
  126TIP3    H2  322   4.012   0.274   1.149
  127TIP3   OH2  323   3.773   0.439   2.129
  127TIP3    H1  324   3.737   0.453   2.041
  127TIP3    H2  325   3.697   0.422   2.184
  128TIP3   OH2  326   5.070   0.629   1.753
  128TIP3    H1  327   5.075   0.534   1.766
  128TIP3    H2  328   4.992   0.656   1.802
  129TIP3   OH2  329   4.178   0.406   1.895
  129TIP3    H1  330   4.168   0.500   1.911
  129TIP3    H2  331   4.108   0.366   1.946
  130TIP3   OH2  332   4.259   0.468   0.755
  130TIP3    H1  333   4.213   0.481   0.838
  130TIP3    H2  334   4.227   0.383   0.723
  131TIP3   OH2  335   2.125   7.735   1.908
  131TIP3    H1  336   2.056   7.794   1.876
  131TIP3    H2  337   2.096   7.648   1.882
  132TIP3   OH2  338   3.536   0.143   2.023
  132TIP3    H1  339   3.593   0.161   2.097
  132TIP3    H2  340   3.526   0.048   2.023
  133TIP3   OH2  341   1.989   7.504   1.872
  133TIP3    H1  342   1.921   7.498   1.939
  133TIP3    H2  343   1.941   7.518   1.791
  134TIP3   OH2  344   1.581   7.810   2.107
  134TIP3    H1  345   1.559   7.732   2.158
  134TIP3    H2  346   1.675   7.820   2.116
  135TIP3   OH2  347   1.568   7.824   1.735
  135TIP3    H1  348   1.639   7.828   1.670
  135TIP3    H2  349   1.581   7.739   1.778
  136TIP3   OH2  350   4.782   0.982   1.833
  136TIP3    H1  351   4.778   0.994   1.738
  136TIP3    H2  352   4.861   1.029   1.860
  137TIP3   OH2  353   3.721   0.122   2.236
  137TIP3    H1  354   3.803   0.134   2.284
  137TIP3    H2  355   3.653   0.120   2.304
  138TIP3   OH2  356   1.308   7.428   1.916
  138TIP3    H1  357   1.274   7.404   1.830
  138TIP3    H2  358   1.373   7.496   1.897
  139TIP3   OH2  359   4.809   0.109   1.509
  139TIP3    H1  360   4.875   0.138   1.445
  139TIP3    H2  361   4.728   0.105   1.459
  140TIP3   OH2  362   4.303   0.148   1.914
  140TIP3    H1  363   4.354   0.138   1.994
  140TIP3    H2  364   4.268   0.237   1.919
  141TIP3   OH2  365   1.343   7.924   2.186
  141TIP3    H1  366   1.274   7.868   2.150
  141TIP3    H2  367   1.422   7.896   2.141
  142TIP3   OH2  368   4.439   0.418   1.804
  142TIP3    H1  369   4.344   0.414   1.813
  142TIP3    H2  370   4.468   0.472   1.878
  143TIP3   OH2  371   5.090   0.355   1.769
  143TIP3    H1  372   4.995   0.340   1.773
  143TIP3    H2  373   5.116   0.322   1.683
  144TIP3   OH2  374   1.745   7.911   1.540
  144TIP3    H1  375   1.742   7.971   1.465
  144TIP3    H2  376   1.833   7.921   1.575
  145TIP3   OH2  377   3.931   0.526   1.781
  145TIP3    H1  378   3.977   0.595   1.733
  145TIP3    H2  379   3.995   0.456   1.790
  146TIP3   OH2  380   4.375   0.130   1.647
  146TIP3    H1  381   4.354   0.139   1.740
  146TIP3    H2  382   4.441   0.061   1.644
  147TIP3   OH2  383   4.625   0.681   1.662
  147TIP3    H1  384   4.538   0.641   1.669
  147TIP3    H2  385   4.614   0.751   1.598
  148TIP3   OH2  386   3.341   0.299   1.875
  148TIP3    H1  387   3.410   0.261   1.930
  148TIP3    H2  388   3.379   0.381   1.842
  149TIP3   OH2  389   1.513   7.611   1.915
  149TIP3    H1  390   1.486   7.692   1.957
  149TIP3    H2  391   1.582   7.576   1.971
  150TIP3   OH2  392   4.704   0.631   1.224
  150TIP3    H1  393   4.657   0.703   1.182
  150TIP3    H2  394   4.790   0.666   1.244
  151TIP3   OH2  395   3.415   0.688   2.258
  151TIP3    H1  396   3.487   0.694   2.321
  151TIP3    H2  397   3.422   0.600   2.222
  152TIP3   OH2  398   3.854   0.642   2.299
  152TIP3    H1  399   3.949   0.641   2.310
  152TIP3    H2  400   3.836   0.570   2.238
  153TIP3   OH2  401   4.500   0.550   2.037
  153TIP3    H1  402   4.514   0.480   2.100
  153TIP3    H2  403   4.574   0.609   2.051
  154TIP3   OH2  404   3.511   0.088   2.416
  154TIP3    H1  405   3.546  -0.001   2.420
  154TIP3    H2  406   3.427   0.078   2.370
  155TIP3   OH2  407   4.138   0.180   2.213
  155TIP3    H1  408   4.091   0.204   2.133
  155TIP3    H2  409   4.165   0.090   2.199
  156TIP3   OH2  410   4.610   0.204   1.828
  156TIP3    H1  411   4.688   0.245   1.790
  156TIP3    H2  412   4.541   0.269   1.816
  157TIP3   OH2  413   0.825   7.855   2.366
  157TIP3    H1  414   0.920   7.848   2.377
  157TIP3    H2  415   0.788   7.804   2.439
  158TIP3   OH2  416   1.139   7.763   2.064
  158TIP3    H1  417   1.058   7.814   2.056
  158TIP3    H2  418   1.188   7.785   1.984
  159TIP3   OH2  419   4.477   0.108   2.151
  159TIP3    H1  420   4.553   0.076   2.102
  159TIP3    H2  421   4.474   0.052   2.229
  160TIP3   OH2  422   1.253   7.530   2.158
  160TIP3    H1  423   1.264   7.478   2.078
  160TIP3    H2  424   1.221   7.615   2.127
  161TIP3   OH2  425   1.314   7.845   1.870
  161TIP3    H1  426   1.400   7.865   1.834
  161TIP3    H2  427   1.257   7.916   1.838
  162TIP3   OH2  428   1.850   7.771   2.168
  162TIP3    H1  429   1.847   7.766   2.263
  162TIP3    H2  430   1.909   7.843   2.149
  163TIP3   OH2  431   4.728   0.041   2.004
  163TIP3    H1  432   4.678   0.098   1.946
  163TIP3    H2  433   4.815   0.037   1.964
  164TIP3   OH2  434   1.119   7.693   2.413
  164TIP3    H1  435   1.068   7.649   2.482
  164TIP3    H2  436   1.188   7.630   2.391
  165TIP3   OH2  437   1.520   7.580   2.229
  165TIP3    H1  438   1.543   7.556   2.319
  165TIP3    H2  439   1.429   7.551   2.219
  166TIP3   OH2  440   4.945   0.745   1.261
  166TIP3    H1  441   4.960   0.741   1.356
  166TIP3    H2  442   4.937   0.838   1.242
  167TIP3   OH2  443   4.935   0.729   1.533
  167TIP3    H1  444   4.880   0.651   1.527
  167TIP3    H2  445   4.998   0.709   1.603
  168TIP3   OH2  446   4.956   0.439   2.072
  168TIP3    H1  447   4.884   0.446   2.134
  168TIP3    H2  448   5.003   0.522   2.080
  169TIP3   OH2  449   4.975   0.212   1.315
  169TIP3    H1  450   4.943   0.180   1.230
  169TIP3    H2  451   4.988   0.306   1.302
  170TIP3   OH2  452   4.778   0.501   1.525
  170TIP3    H1  453   4.711   0.551   1.571
  170TIP3    H2  454   4.732   0.460   1.452
  171TIP3   OH2  455   4.988   0.062   1.893
  171TIP3    H1  456   5.059  -0.001   1.885
  171TIP3    H2  457   4.996   0.118   1.816
  172TIP3   OH2  458   2.354   7.885   1.898
  172TIP3    H1  459   2.290   7.814   1.901
  172TIP3    H2  460   2.438   7.842   1.917
  173TIP3   OH2  461   0.604   7.385   2.531
  173TIP3    H1  462   0.653   7.326   2.473
  173TIP3    H2  463   0.670   7.420   2.591
  174TIP3   OH2  464   4.511   0.536   1.023
  174TIP3    H1  465   4.581   0.491   0.975
  174TIP3    H2  466   4.496   0.616   0.974
  175TIP3   OH2  467   3.546   0.414   2.276
  175TIP3    H1  468   3.456   0.385   2.260
  175TIP3    H2  469   3.558   0.405   2.370
  176TIP3   OH2  470   3.685   0.454   1.870
  176TIP3    H1  471   3.620   0.491   1.810
  176TIP3    H2  472   3.767   0.495   1.843
  177TIP3   OH2  473   4.161   0.678   1.949
  177TIP3    H1  474   4.203   0.675   2.035
  177TIP3    H2  475   4.218   0.733   1.896
  178TIP3   OH2  476   4.340   0.838   1.817
  178TIP3    H1  477   4.388   0.784   1.754
  178TIP3    H2  478   4.407   0.887   1.863
  179TIP3   OH2  479   3.445   0.745   1.868
  179TIP3    H1  480   3.349   0.753   1.871
  179TIP3    H2  481   3.475   0.802   1.938
  180TIP3   OH2  482   3.675   0.725   1.712
  180TIP3    H1  483   3.596   0.727   1.765
  180TIP3    H2  484   3.673   0.639   1.669
  181TIP3   OH2  485   4.102   0.610   1.580
  181TIP3    H1  486   4.101   0.526   1.534
  181TIP3    H2  487   4.037   0.664   1.534
  182TIP3   OH2  488   4.368   0.638   1.599
  182TIP3    H1  489   4.273   0.630   1.606
  182TIP3    H2  490   4.384   0.645   1.505
  183TIP3   OH2  491   4.573   0.855   1.453
  183TIP3    H1  492   4.549   0.937   1.411
  183TIP3    H2  493   4.526   0.788   1.404
  184TIP3   OH2  494   3.247   0.399   1.512
  184TIP3    H1  495   3.260   0.465   1.580
  184TIP3    H2  496   3.335   0.369   1.489
  185TIP3   OH2  497   3.863   0.487   1.351
  185TIP3    H1  498   3.899   0.399   1.355
  185TIP3    H2  499   3.817   0.499   1.434
  186TIP3   OH2  500   4.826   0.710   1.847
  186TIP3    H1  501   4.756   0.683   1.789
  186TIP3    H2  502   4.815   0.805   1.855
  187TIP3   OH2  503   5.566   0.448   1.327
  187TIP3    H1  504   5.549   0.536   1.291
  187TIP3    H2  505   5.489   0.429   1.380
  188TIP3   OH2  506   5.771   0.534   1.492
  188TIP3    H1  507   5.706   0.594   1.529
  188TIP3    H2  508   5.722   0.484   1.426
  189TIP3   OH2  509   5.563   0.703   1.560
  189TIP3    H1  510   5.543   0.714   1.467
  189TIP3    H2  511   5.478   0.689   1.601
  190TIP3   OH2  512   5.157   0.242   1.529
  190TIP3    H1  513   5.103   0.213   1.456
  190TIP3    H2  514   5.190   0.161   1.568
  191TIP3   OH2  515   5.002   0.476   1.229
  191TIP3    H1  516   5.093   0.495   1.254
  191TIP3    H2  517   4.957   0.559   1.237
  192TIP3   OH2  518   5.926   0.708   1.326
  192TIP3    H1  519   5.933   0.791   1.372
  192TIP3    H2  520   5.887   0.648   1.390
  193TIP3   OH2  521   5.348   0.441   1.497
  193TIP3    H1  522   5.402   0.436   1.575
  193TIP3    H2  523   5.283   0.371   1.509
  194TIP3   OH2  524   6.517   1.223   1.363
  194TIP3    H1  525   6.543   1.185   1.279
  194TIP3    H2  526   6.599   1.256   1.401
  195TIP3   OH2  527   5.502   0.408   1.730
  195TIP3    H1  528   5.588   0.399   1.770
  195TIP3    H2  529   5.440   0.396   1.802
  196TIP3   OH2  530   5.253   0.046   1.695
  196TIP3    H1  531   5.320   0.089   1.749
  196TIP3    H2  532   5.227  -0.030   1.747
  197TIP3   OH2  533   5.749   0.761   1.125
  197TIP3    H1  534   5.788   0.820   1.060
  197TIP3    H2  535   5.822   0.739   1.183
  198TIP3   OH2  536   5.225   0.617   1.318
  198TIP3    H1  537   5.272   0.559   1.377
  198TIP3    H2  538   5.247   0.705   1.348
  199TIP3   OH2  539   5.216   0.954   1.724
  199TIP3    H1  540   5.294   0.969   1.777
  199TIP3    H2  541   5.218   0.861   1.704
  200TIP3   OH2  542   5.667   0.854   1.765
  200TIP3    H1  543   5.760   0.833   1.769
  200TIP3    H2  544   5.634   0.806   1.689
  201TIP3   OH2  545   6.281   0.829   1.540
  201TIP3    H1  546   6.284   0.742   1.581
  201TIP3    H2  547   6.369   0.864   1.551
  202TIP3   OH2  548   5.309   0.372   1.928
  202TIP3    H1  549   5.338   0.281   1.926
  202TIP3    H2  550   5.223   0.371   1.885
  203TIP3   OH2  551   5.934   0.446   1.688
  203TIP3    H1  552   5.879   0.473   1.615
  203TIP3    H2  553   5.984   0.372   1.654
  204TIP3   OH2  554   5.437   0.127   1.891
  204TIP3    H1  555   5.516   0.085   1.859
  204TIP3    H2  556   5.453   0.144   1.984
  205TIP3   OH2  557   4.760   0.764   0.833
  205TIP3    H1  558   4.818   0.745   0.759
  205TIP3    H2  559   4.791   0.707   0.904
  206TIP3   OH2  560   4.936   0.567   0.953
  206TIP3    H1  561   4.937   0.496   1.017
  206TIP3    H2  562   5.004   0.627   0.984
  207TIP3   OH2  563   5.332   0.690   1.717
  207TIP3    H1  564   5.242   0.657   1.724
  207TIP3    H2  565   5.376   0.659   1.796
  208TIP3   OH2  566   5.532   0.724   1.283
  208TIP3    H1  567   5.485   0.802   1.253
  208TIP3    H2  568   5.613   0.724   1.232
  209TIP3   OH2  569   5.942   0.963   1.440
  209TIP3    H1  570   5.984   0.955   1.525
  209TIP3    H2  571   6.006   1.008   1.385
  210TIP3   OH2  572   6.128   1.105   1.294
  210TIP3    H1  573   6.200   1.056   1.254
  210TIP3    H2  574   6.170   1.159   1.361
  211TIP3   OH2  575   5.199   0.965   1.322
  211TIP3    H1  576   5.106   0.980   1.305
  211TIP3    H2  577   5.221   1.026   1.392
  212TIP3   OH2  578   5.429   0.954   1.174
  212TIP3    H1  579   5.345   0.960   1.220
  212TIP3    H2  580   5.409   0.977   1.084
  213TIP3   OH2  581   5.842   0.963   0.953
  213TIP3    H1  582   5.761   1.002   0.920
  213TIP3    H2  583   5.881   1.031   1.008
  214TIP3   OH2  584   5.151   0.720   1.046
  214TIP3    H1  585   5.134   0.714   1.140
  214TIP3    H2  586   5.240   0.685   1.035
  215TIP3   OH2  587   0.822   2.293   2.502
  215TIP3    H1  588   0.830   2.322   2.411
  215TIP3    H2  589   0.908   2.311   2.540
  216TIP3   OH2  590   1.061   1.700   2.782
  216TIP3    H1  591   0.977   1.695   2.829
  216TIP3    H2  592   1.080   1.793   2.777
  217TIP3   OH2  593   2.412   1.651   1.424
  217TIP3    H1  594   2.317   1.642   1.435
  217TIP3    H2  595   2.439   1.708   1.496
  218TIP3   OH2  596   2.005   2.009   1.419
  218TIP3    H1  597   2.001   1.939   1.353
  218TIP3    H2  598   2.074   1.981   1.479
  219TIP3   OH2  599   2.974   0.926   1.762
  219TIP3    H1  600   2.997   1.009   1.804
  219TIP3    H2  601   3.033   0.921   1.687
  220TIP3   OH2  602   3.038   1.162   1.893
  220TIP3    H1  603   2.951   1.201   1.888
  220TIP3    H2  604   3.081   1.206   1.967
  221TIP3   OH2  605   2.448   1.879   1.581
  221TIP3    H1  606   2.357   1.895   1.604
  221TIP3    H2  607   2.462   1.928   1.501
  222TIP3   OH2  608   2.685   1.864   1.893
  222TIP3    H1  609   2.685   1.796   1.825
  222TIP3    H2  610   2.660   1.944   1.846
  223TIP3   OH2  611   2.889   1.475   1.707
  223TIP3    H1  612   2.827   1.546   1.721
  223TIP3    H2  613   2.892   1.464   1.612
  224TIP3   OH2  614   2.571   1.354   2.017
  224TIP3    H1  615   2.558   1.440   2.057
  224TIP3    H2  616   2.489   1.337   1.970
  225TIP3   OH2  617   2.183   1.942   1.622
  225TIP3    H1  618   2.172   2.025   1.667
  225TIP3    H2  619   2.153   1.876   1.686
  226TIP3   OH2  620   1.878   1.852   2.160
  226TIP3    H1  621   1.906   1.944   2.151
  226TIP3    H2  622   1.783   1.856   2.167
  227TIP3   OH2  623   1.578   1.989   2.251
  227TIP3    H1  624   1.576   1.996   2.155
  227TIP3    H2  625   1.485   1.986   2.276
  228TIP3   OH2  626   2.921   2.218   1.898
  228TIP3    H1  627   2.928   2.123   1.906
  228TIP3    H2  628   2.842   2.241   1.947
  229TIP3   OH2  629   2.796   1.306   2.173
  229TIP3    H1  630   2.718   1.323   2.120
  229TIP3    H2  631   2.799   1.211   2.182
  230TIP3   OH2  632   2.586   1.078   2.069
  230TIP3    H1  633   2.532   1.058   2.145
  230TIP3    H2  634   2.561   1.167   2.045
  231TIP3   OH2  635   2.294   1.309   2.313
  231TIP3    H1  636   2.272   1.241   2.376
  231TIP3    H2  637   2.388   1.323   2.325
  232TIP3   OH2  638   2.341   1.271   1.906
  232TIP3    H1  639   2.305   1.275   1.818
  232TIP3    H2  640   2.269   1.240   1.960
  233TIP3   OH2  641   2.611   2.546   1.977
  233TIP3    H1  642   2.616   2.565   1.884
  233TIP3    H2  643   2.691   2.584   2.014
  234TIP3   OH2  644   1.581   1.597   2.457
  234TIP3    H1  645   1.659   1.642   2.490
  234TIP3    H2  646   1.509   1.656   2.479
  235TIP3   OH2  647   2.708   1.675   1.705
  235TIP3    H1  648   2.717   1.715   1.619
  235TIP3    H2  649   2.637   1.612   1.696
  236TIP3   OH2  650   2.113   1.725   2.077
  236TIP3    H1  651   2.168   1.729   2.155
  236TIP3    H2  652   2.032   1.771   2.102
  237TIP3   OH2  653   2.053   1.442   2.320
  237TIP3    H1  654   2.004   1.407   2.245
  237TIP3    H2  655   2.142   1.408   2.308
  238TIP3   OH2  656   2.278   1.992   1.931
  238TIP3    H1  657   2.185   1.973   1.937
  238TIP3    H2  658   2.302   2.023   2.019
  239TIP3   OH2  659   2.944   1.942   1.915
  239TIP3    H1  660   2.852   1.921   1.933
  239TIP3    H2  661   2.963   1.898   1.832
  240TIP3   OH2  662   2.538   1.471   1.687
  240TIP3    H1  663   2.447   1.498   1.694
  240TIP3    H2  664   2.534   1.376   1.671
  241TIP3   OH2  665   2.131   1.735   1.803
  241TIP3    H1  666   2.124   1.727   1.898
  241TIP3    H2  667   2.192   1.666   1.777
  242TIP3   OH2  668   2.437   2.215   1.857
  242TIP3    H1  669   2.370   2.150   1.878
  242TIP3    H2  670   2.387   2.292   1.828
  243TIP3   OH2  671   2.181   1.169   2.106
  243TIP3    H1  672   2.222   1.224   2.173
  243TIP3    H2  673   2.219   1.082   2.119
  244TIP3   OH2  674   2.825   0.955   2.021
  244TIP3    H1  675   2.740   0.993   2.044
  244TIP3    H2  676   2.840   0.982   1.931
  245TIP3   OH2  677   2.488   2.255   1.503
  245TIP3    H1  678   2.464   2.320   1.436
  245TIP3    H2  679   2.578   2.232   1.483
  246TIP3   OH2  680   1.269   2.244   2.379
  246TIP3    H1  681   1.347   2.261   2.431
  246TIP3    H2  682   1.266   2.149   2.371
  247TIP3   OH2  683   1.726   2.169   2.396
  247TIP3    H1  684   1.807   2.181   2.347
  247TIP3    H2  685   1.679   2.101   2.348
  248TIP3   OH2  686   2.357   2.085   2.171
  248TIP3    H1  687   2.356   2.029   2.248
  248TIP3    H2  688   2.419   2.155   2.192
  249TIP3   OH2  689   1.329   1.643   2.606
  249TIP3    H1  690   1.357   1.551   2.597
  249TIP3    H2  691   1.237   1.637   2.634
  250TIP3   OH2  692   1.964   1.701   2.375
  250TIP3    H1  693   1.939   1.750   2.297
  250TIP3    H2  694   2.000   1.618   2.342
  251TIP3   OH2  695   2.439   1.765   1.977
  251TIP3    H1  696   2.519   1.812   1.953
  251TIP3    H2  697   2.368   1.825   1.952
  252TIP3   OH2  698   1.480   1.388   2.600
  252TIP3    H1  699   1.524   1.440   2.534
  252TIP3    H2  700   1.518   1.417   2.683
  253TIP3   OH2  701   2.329   1.661   2.333
  253TIP3    H1  702   2.389   1.623   2.269
  253TIP3    H2  703   2.325   1.596   2.403
  254TIP3   OH2  704   2.558   1.345   2.403
  254TIP3    H1  705   2.615   1.271   2.382
  254TIP3    H2  706   2.615   1.422   2.397
  255TIP3   OH2  707   2.565   1.601   2.148
  255TIP3    H1  708   2.508   1.656   2.094
  255TIP3    H2  709   2.653   1.618   2.116
  256TIP3   OH2  710   1.804   1.128   2.638
  256TIP3    H1  711   1.734   1.136   2.704
  256TIP3    H2  712   1.759   1.138   2.554
  257TIP3   OH2  713   2.232   1.096   2.477
  257TIP3    H1  714   2.278   1.088   2.561
  257TIP3    H2  715   2.141   1.076   2.498
  258TIP3   OH2  716   2.449   1.042   2.303
  258TIP3    H1  717   2.372   1.046   2.360
  258TIP3    H2  718   2.520   1.014   2.360
  259TIP3   OH2  719   2.676   1.000   2.470
  259TIP3    H1  720   2.689   0.906   2.483
  259TIP3    H2  721   2.663   1.035   2.558
  260TIP3   OH2  722   2.226   0.799   2.643
  260TIP3    H1  723   2.213   0.753   2.560
  260TIP3    H2  724   2.151   0.858   2.650
  261TIP3   OH2  725   2.753   2.277   1.414
  261TIP3    H1  726   2.774   2.281   1.507
  261TIP3    H2  727   2.762   2.368   1.384
  262TIP3   OH2  728   2.755   2.296   1.685
  262TIP3    H1  729   2.702   2.218   1.697
  262TIP3    H2  730   2.827   2.286   1.748
  263TIP3   OH2  731   2.809   1.989   2.239
  263TIP3    H1  732   2.732   2.007   2.293
  263TIP3    H2  733   2.854   2.073   2.234
  264TIP3   OH2  734   2.810   1.784   1.473
  264TIP3    H1  735   2.798   1.713   1.410
  264TIP3    H2  736   2.872   1.844   1.431
  265TIP3   OH2  737   2.612   2.062   1.722
  265TIP3    H1  738   2.545   2.116   1.764
  265TIP3    H2  739   2.561   2.003   1.666
  266TIP3   OH2  740   2.819   1.639   2.047
  266TIP3    H1  741   2.888   1.578   2.023
  266TIP3    H2  742   2.811   1.697   1.972
  267TIP3   OH2  743   3.003   1.433   2.042
  267TIP3    H1  744   2.932   1.390   2.088
  267TIP3    H2  745   3.083   1.393   2.076
  268TIP3   OH2  746   2.747   1.039   1.565
  268TIP3    H1  747   2.823   1.091   1.594
  268TIP3    H2  748   2.713   1.000   1.645
  269TIP3   OH2  749   2.786   1.267   1.856
  269TIP3    H1  750   2.704   1.286   1.901
  269TIP3    H2  751   2.807   1.348   1.809
  270TIP3   OH2  752   3.209   0.838   2.365
  270TIP3    H1  753   3.285   0.788   2.335
  270TIP3    H2  754   3.187   0.895   2.291
  271TIP3   OH2  755   3.082   0.999   2.178
  271TIP3    H1  756   3.016   1.035   2.236
  271TIP3    H2  757   3.032   0.948   2.113
  272TIP3   OH2  758   2.227   2.131   0.996
  272TIP3    H1  759   2.272   2.214   0.983
  272TIP3    H2  760   2.153   2.152   1.053
  273TIP3   OH2  761   1.333   1.967   2.402
  273TIP3    H1  762   1.304   1.876   2.395
  273TIP3    H2  763   1.364   1.974   2.492
  274TIP3   OH2  764   1.626   2.020   1.976
  274TIP3    H1  765   1.585   2.074   1.909
  274TIP3    H2  766   1.710   2.062   1.993
  275TIP3   OH2  767   2.203   2.366   1.997
  275TIP3    H1  768   2.177   2.297   2.058
  275TIP3    H2  769   2.268   2.417   2.044
  276TIP3   OH2  770   2.971   0.729   2.076
  276TIP3    H1  771   2.903   0.785   2.038
  276TIP3    H2  772   2.963   0.646   2.029
  277TIP3   OH2  773   1.257   2.292   1.969
  277TIP3    H1  774   1.201   2.225   2.008
  277TIP3    H2  775   1.274   2.353   2.041
  278TIP3   OH2  776   1.487   2.254   1.822
  278TIP3    H1  777   1.412   2.261   1.882
  278TIP3    H2  778   1.450   2.278   1.736
  279TIP3   OH2  779   1.796   2.179   1.696
  279TIP3    H1  780   1.859   2.218   1.637
  279TIP3    H2  781   1.791   2.239   1.770
  280TIP3   OH2  782   2.154   2.196   1.730
  280TIP3    H1  783   2.116   2.215   1.816
  280TIP3    H2  784   2.210   2.272   1.711
  281TIP3   OH2  785   2.328   2.404   1.671
  281TIP3    H1  786   2.330   2.491   1.632
  281TIP3    H2  787   2.383   2.351   1.613
  282TIP3   OH2  788   2.758   0.735   2.506
  282TIP3    H1  789   2.771   0.667   2.571
  282TIP3    H2  790   2.830   0.724   2.444
  283TIP3   OH2  791   2.670   2.278   1.995
  283TIP3    H1  792   2.591   2.241   1.954
  283TIP3    H2  793   2.654   2.372   1.996
  284TIP3   OH2  794   3.957   1.749   0.855
  284TIP3    H1  795   3.914   1.827   0.820
  284TIP3    H2  796   3.886   1.686   0.867
  285TIP3   OH2  797   3.892   1.626   1.187
  285TIP3    H1  798   3.972   1.641   1.237
  285TIP3    H2  799   3.848   1.555   1.233
  286TIP3   OH2  800   3.259   1.577   1.544
  286TIP3    H1  801   3.283   1.521   1.618
  286TIP3    H2  802   3.341   1.591   1.497
  287TIP3   OH2  803   4.218   1.964   0.826
  287TIP3    H1  804   4.199   1.902   0.897
  287TIP3    H2  805   4.232   2.048   0.871
  288TIP3   OH2  806   3.171   1.970   1.296
  288TIP3    H1  807   3.138   1.895   1.346
  288TIP3    H2  808   3.256   1.942   1.263
  289TIP3   OH2  809   2.993   1.349   1.113
  289TIP3    H1  810   3.049   1.409   1.163
  289TIP3    H2  811   2.965   1.400   1.037
  290TIP3   OH2  812   3.834   2.364   0.811
  290TIP3    H1  813   3.911   2.313   0.786
  290TIP3    H2  814   3.818   2.343   0.903
  291TIP3   OH2  815   3.751   1.868   1.161
  291TIP3    H1  816   3.784   1.778   1.154
  291TIP3    H2  817   3.827   1.920   1.186
  292TIP3   OH2  818   4.765   1.194   1.166
  292TIP3    H1  819   4.786   1.274   1.214
  292TIP3    H2  820   4.794   1.212   1.076
  293TIP3   OH2  821   4.173   1.378   1.186
  293TIP3    H1  822   4.195   1.288   1.210
  293TIP3    H2  823   4.120   1.369   1.106
  294TIP3   OH2  824   3.531   1.078   1.118
  294TIP3    H1  825   3.535   1.149   1.055
  294TIP3    H2  826   3.447   1.035   1.101
  295TIP3   OH2  827   4.256   1.158   0.824
  295TIP3    H1  828   4.311   1.147   0.901
  295TIP3    H2  829   4.313   1.197   0.758
  296TIP3   OH2  830   3.166   1.149   1.271
  296TIP3    H1  831   3.159   1.244   1.271
  296TIP3    H2  832   3.097   1.119   1.211
  297TIP3   OH2  833   3.598   1.494   1.163
  297TIP3    H1  834   3.672   1.447   1.202
  297TIP3    H2  835   3.539   1.425   1.132
  298TIP3   OH2  836   4.829   1.405   1.341
  298TIP3    H1  837   4.740   1.440   1.339
  298TIP3    H2  838   4.864   1.433   1.425
  299TIP3   OH2  839   3.478   1.003   1.642
  299TIP3    H1  840   3.426   0.928   1.614
  299TIP3    H2  841   3.420   1.050   1.702
  300TIP3   OH2  842   3.854   1.925   0.622
  300TIP3    H1  843   3.857   1.893   0.532
  300TIP3    H2  844   3.824   2.016   0.614
  301TIP3   OH2  845   3.618   1.826   1.406
  301TIP3    H1  846   3.546   1.886   1.424
  301TIP3    H2  847   3.655   1.857   1.323
  302TIP3   OH2  848   4.394   1.137   1.049
  302TIP3    H1  849   4.341   1.124   1.128
  302TIP3    H2  850   4.442   1.218   1.066
  303TIP3   OH2  851   3.373   0.982   1.349
  303TIP3    H1  852   3.306   1.046   1.327
  303TIP3    H2  853   3.456   1.030   1.345
  304TIP3   OH2  854   3.417   1.998   1.483
  304TIP3    H1  855   3.408   2.091   1.460
  304TIP3    H2  856   3.337   1.979   1.533
  305TIP3   OH2  857   4.236   2.206   0.961
  305TIP3    H1  858   4.148   2.193   0.997
  305TIP3    H2  859   4.229   2.288   0.912
  306TIP3   OH2  860   4.553   1.111   1.341
  306TIP3    H1  861   4.465   1.124   1.307
  306TIP3    H2  862   4.610   1.127   1.266
  307TIP3   OH2  863   3.892   0.716   1.208
  307TIP3    H1  864   3.883   0.627   1.241
  307TIP3    H2  865   3.803   0.741   1.183
  308TIP3   OH2  866   4.036   2.223   0.700
  308TIP3    H1  867   4.067   2.137   0.671
  308TIP3    H2  868   4.077   2.285   0.638
  309TIP3   OH2  869   4.123   1.973   0.576
  309TIP3    H1  870   4.035   1.943   0.596
  309TIP3    H2  871   4.172   1.964   0.658
  310TIP3   OH2  872   4.478   2.088   1.308
  310TIP3    H1  873   4.459   2.013   1.251
  310TIP3    H2  874   4.460   2.165   1.253
  311TIP3   OH2  875   3.751   1.603   0.572
  311TIP3    H1  876   3.657   1.621   0.569
  311TIP3    H2  877   3.760   1.513   0.540
  312TIP3   OH2  878   4.636   1.727   1.140
  312TIP3    H1  879   4.554   1.776   1.141
  312TIP3    H2  880   4.674   1.747   1.055
  313TIP3   OH2  881   4.158   1.468   0.615
  313TIP3    H1  882   4.106   1.546   0.602
  313TIP3    H2  883   4.248   1.500   0.622
  314TIP3   OH2  884   4.361   1.615   1.479
  314TIP3    H1  885   4.356   1.696   1.530
  314TIP3    H2  886   4.281   1.615   1.426
  315TIP3   OH2  887   3.308   1.538   0.914
  315TIP3    H1  888   3.281   1.513   0.826
  315TIP3    H2  889   3.322   1.455   0.959
  316TIP3   OH2  890   3.542   2.023   1.061
  316TIP3    H1  891   3.473   1.980   1.112
  316TIP3    H2  892   3.622   1.977   1.086
  317TIP3   OH2  893   3.484   1.590   1.393
  317TIP3    H1  894   3.519   1.551   1.313
  317TIP3    H2  895   3.532   1.673   1.403
  318TIP3   OH2  896   3.998   2.182   1.090
  318TIP3    H1  897   3.987   2.264   1.139
  318TIP3    H2  898   3.990   2.113   1.155
  319TIP3   OH2  899   3.622   2.091   1.642
  319TIP3    H1  900   3.563   2.149   1.689
  319TIP3    H2  901   3.565   2.035   1.589
  320TIP3   OH2  902   3.984   1.502   0.359
  320TIP3    H1  903   4.068   1.513   0.404
  320TIP3    H2  904   4.007   1.474   0.271
  321TIP3   OH2  905   3.385   1.654   1.821
  321TIP3    H1  906   3.389   1.749   1.828
  321TIP3    H2  907   3.293   1.634   1.804
  322TIP3   OH2  908   3.749   2.171   0.594
  322TIP3    H1  909   3.777   2.242   0.652
  322TIP3    H2  910   3.657   2.156   0.618
  323TIP3   OH2  911   3.414   2.248   1.729
  323TIP3    H1  912   3.384   2.261   1.639
  323TIP3    H2  913   3.335   2.229   1.779
  324TIP3   OH2  914   7.166   6.096   6.948
  324TIP3    H1  915   7.145   6.166   6.886
  324TIP3    H2  916   7.213   6.031   6.896
  325TIP3   OH2  917   3.009   1.804   1.687
  325TIP3    H1  918   2.951   1.778   1.616
  325TIP3    H2  919   3.051   1.722   1.714
  326TIP3   OH2  920   2.912   2.034   1.346
  326TIP3    H1  921   2.996   2.011   1.306
  326TIP3    H2  922   2.933   2.108   1.403
  327TIP3   OH2  923   4.714   2.485   1.386
  327TIP3    H1  924   4.716   2.390   1.381
  327TIP3    H2  925   4.629   2.505   1.426
  328TIP3   OH2  926   3.813   2.228   1.504
  328TIP3    H1  927   3.807   2.319   1.533
  328TIP3    H2  928   3.746   2.182   1.553
  329TIP3   OH2  929   3.681   2.431   0.457
  329TIP3    H1  930   3.619   2.384   0.403
  329TIP3    H2  931   3.629   2.499   0.501
  330TIP3   OH2  932   3.002   2.242   0.787
  330TIP3    H1  933   3.025   2.194   0.866
  330TIP3    H2  934   2.911   2.216   0.769
  331TIP3   OH2  935   3.787   2.312   0.120
  331TIP3    H1  936   3.843   2.248   0.076
  331TIP3    H2  937   3.812   2.307   0.212
  332TIP3   OH2  938   3.912   2.319   0.372
  332TIP3    H1  939   3.834   2.341   0.423
  332TIP3    H2  940   3.985   2.335   0.432
  333TIP3   OH2  941   4.613   1.574   1.631
  333TIP3    H1  942   4.528   1.586   1.587
  333TIP3    H2  943   4.627   1.479   1.629
  334TIP3   OH2  944   3.195   2.005   1.650
  334TIP3    H1  945   3.244   1.998   1.732
  334TIP3    H2  946   3.127   1.938   1.657
  335TIP3   OH2  947   3.650   0.819   1.463
  335TIP3    H1  948   3.563   0.783   1.449
  335TIP3    H2  949   3.665   0.812   1.557
  336TIP3   OH2  950   4.138   0.928   1.652
  336TIP3    H1  951   4.202   0.897   1.716
  336TIP3    H2  952   4.053   0.902   1.688
  337TIP3   OH2  953   4.357   1.350   1.575
  337TIP3    H1  954   4.316   1.347   1.661
  337TIP3    H2  955   4.339   1.439   1.543
  338TIP3   OH2  956   4.142   1.501   0.108
  338TIP3    H1  957   4.052   1.523   0.083
  338TIP3    H2  958   4.196   1.552   0.048
  339TIP3   OH2  959   3.586   1.406   1.576
  339TIP3    H1  960   3.505   1.383   1.621
  339TIP3    H2  961   3.558   1.458   1.501
  340TIP3   OH2  962   3.404   1.202   0.910
  340TIP3    H1  963   3.330   1.147   0.882
  340TIP3    H2  964   3.474   1.181   0.847
  341TIP3   OH2  965   3.905   1.389   0.753
  341TIP3    H1  966   3.825   1.414   0.706
  341TIP3    H2  967   3.964   1.356   0.684
  342TIP3   OH2  968   4.084   1.567   1.813
  342TIP3    H1  969   4.051   1.495   1.868
  342TIP3    H2  970   4.177   1.573   1.836
  343TIP3   OH2  971   4.174   1.410   0.880
  343TIP3    H1  972   4.147   1.437   0.792
  343TIP3    H2  973   4.190   1.316   0.872
  344TIP3   OH2  974   3.355   1.374   1.717
  344TIP3    H1  975   3.361   1.418   1.802
  344TIP3    H2  976   3.332   1.283   1.738
  345TIP3   OH2  977   4.115   1.584   1.351
  345TIP3    H1  978   4.140   1.515   1.289
  345TIP3    H2  979   4.083   1.536   1.428
  346TIP3   OH2  980   3.830   1.080   1.092
  346TIP3    H1  981   3.756   1.054   1.148
  346TIP3    H2  982   3.907   1.041   1.135
  347TIP3   OH2  983   4.227   1.119   1.265
  347TIP3    H1  984   4.206   1.135   1.357
  347TIP3    H2  985   4.170   1.045   1.241
  348TIP3   OH2  986   4.413   2.797   1.462
  348TIP3    H1  987   4.410   2.813   1.368
  348TIP3    H2  988   4.491   2.843   1.491
  349TIP3   OH2  989   3.359   1.920   1.882
  349TIP3    H1  990   3.441   1.939   1.929
  349TIP3    H2  991   3.291   1.926   1.949
  350TIP3   OH2  992   3.807   1.367   1.270
  350TIP3    H1  993   3.863   1.317   1.210
  350TIP3    H2  994   3.818   1.323   1.355
  351TIP3   OH2  995   3.830   1.299   1.534
  351TIP3    H1  996   3.749   1.349   1.545
  351TIP3    H2  997   3.899   1.364   1.547
  352TIP3   OH2  998   3.483   1.606   0.526
  352TIP3    H1  999   3.409   1.617   0.466
  352TIP3    H2 1000   3.453   1.641   0.609
  353TIP3   OH2 1001   4.418   1.894   1.126
  353TIP3    H1 1002   4.454   1.940   1.050
  353TIP3    H2 1003   4.333   1.862   1.096
  354TIP3   OH2 1004   3.940   1.959   1.535
  354TIP3    H1 1005   3.982   1.948   1.620
  354TIP3    H2 1006   3.894   2.042   1.542
  355TIP3   OH2 1007   4.010   1.219   0.563
  355TIP3    H1 1008   4.089   1.241   0.514
  355TIP3    H2 1009   3.938   1.251   0.508
  356TIP3   OH2 1010   3.228   1.609   1.174
  356TIP3    H1 1011   3.202   1.652   1.092
  356TIP3    H2 1012   3.282   1.535   1.146
  357TIP3   OH2 1013   3.646   1.668   0.272
  357TIP3    H1 1014   3.591   1.746   0.264
  357TIP3    H2 1015   3.610   1.620   0.346
  358TIP3   OH2 1016   3.117   1.582   1.823
  358TIP3    H1 1017   3.121   1.565   1.917
  358TIP3    H2 1018   3.046   1.526   1.791
  359TIP3   OH2 1019   3.866   1.738   1.831
  359TIP3    H1 1020   3.792   1.683   1.809
  359TIP3    H2 1021   3.943   1.684   1.811
  360TIP3   OH2 1022   4.081   2.250   1.419
  360TIP3    H1 1023   3.987   2.233   1.425
  360TIP3    H2 1024   4.104   2.286   1.504
  361TIP3   OH2 1025   4.457   1.349   0.292
  361TIP3    H1 1026   4.388   1.307   0.240
  361TIP3    H2 1027   4.478   1.428   0.244
  362TIP3   OH2 1028   4.715   2.217   1.367
  362TIP3    H1 1029   4.627   2.181   1.376
  362TIP3    H2 1030   4.755   2.166   1.296
  363TIP3   OH2 1031   4.192   2.095   0.234
  363TIP3    H1 1032   4.097   2.097   0.225
  363TIP3    H2 1033   4.225   2.099   0.145
  364TIP3   OH2 1034   4.180   1.780   1.031
  364TIP3    H1 1035   4.097   1.756   0.990
  364TIP3    H2 1036   4.235   1.702   1.021
  365TIP3   OH2 1037   3.283   1.956   0.837
  365TIP3    H1 1038   3.289   2.051   0.824
  365TIP3    H2 1039   3.237   1.946   0.920
  366TIP3   OH2 1040   3.472   1.784   0.754
  366TIP3    H1 1041   3.400   1.840   0.782
  366TIP3    H2 1042   3.503   1.743   0.835
  367TIP3   OH2 1043   3.639   2.313   1.303
  367TIP3    H1 1044   3.677   2.390   1.260
  367TIP3    H2 1045   3.711   2.278   1.356
  368TIP3   OH2 1046   3.279   2.227   0.778
  368TIP3    H1 1047   3.185   2.242   0.763
  368TIP3    H2 1048   3.320   2.310   0.756
  369TIP3   OH2 1049   3.989   1.962   1.262
  369TIP3    H1 1050   3.978   1.956   1.357
  369TIP3    H2 1051   4.066   1.908   1.244
  370TIP3   OH2 1052   4.041   1.864   0.098
  370TIP3    H1 1053   4.048   1.818   0.182
  370TIP3    H2 1054   3.949   1.857   0.075
  371TIP3   OH2 1055   4.232   2.464   1.306
  371TIP3    H1 1056   4.163   2.400   1.323
  371TIP3    H2 1057   4.198   2.518   1.234
  372TIP3   OH2 1058   7.125   6.351   6.858
  372TIP3    H1 1059   7.183   6.427   6.862
  372TIP3    H2 1060   7.042   6.382   6.896
  373TIP3   OH2 1061   3.309   1.117   1.831
  373TIP3    H1 1062   3.214   1.123   1.842
  373TIP3    H2 1063   3.339   1.072   1.910
  374TIP3   OH2 1064   3.051   2.217   1.501
  374TIP3    H1 1065   3.104   2.156   1.552
  374TIP3    H2 1066   3.073   2.303   1.537
  375TIP3   OH2 1067   3.286   1.710   0.373
  375TIP3    H1 1068   3.262   1.767   0.447
  375TIP3    H2 1069   3.336   1.767   0.315
  376TIP3   OH2 1070   4.151   1.166   1.525
  376TIP3    H1 1071   4.234   1.206   1.551
  376TIP3    H2 1072   4.146   1.085   1.575
  377TIP3   OH2 1073   4.002   0.818   0.623
  377TIP3    H1 1074   3.961   0.812   0.537
  377TIP3    H2 1075   4.060   0.894   0.616
  378TIP3   OH2 1076   3.554   2.157   0.302
  378TIP3    H1 1077   3.536   2.159   0.396
  378TIP3    H2 1078   3.645   2.125   0.296
  379TIP3   OH2 1079   3.623   1.113   0.759
  379TIP3    H1 1080   3.714   1.144   0.759
  379TIP3    H2 1081   3.625   1.033   0.811
  380TIP3   OH2 1082   4.061   1.437   1.573
  380TIP3    H1 1083   4.070   1.477   1.659
  380TIP3    H2 1084   4.093   1.348   1.584
  381TIP3   OH2 1085   3.902   0.817   0.888
  381TIP3    H1 1086   3.830   0.876   0.908
  381TIP3    H2 1087   3.914   0.824   0.793
  382TIP3   OH2 1088   3.236   2.079   0.385
  382TIP3    H1 1089   3.235   2.163   0.338
  382TIP3    H2 1090   3.165   2.087   0.449
  383TIP3   OH2 1091   4.618   1.289   1.552
  383TIP3    H1 1092   4.526   1.305   1.570
  383TIP3    H2 1093   4.619   1.226   1.480
  384TIP3   OH2 1094   4.360   1.570   0.984
  384TIP3    H1 1095   4.287   1.514   0.959
  384TIP3    H2 1096   4.417   1.513   1.035
  385TIP3   OH2 1097   4.250   2.469   0.871
  385TIP3    H1 1098   4.208   2.517   0.799
  385TIP3    H2 1099   4.344   2.480   0.855
  386TIP3   OH2 1100   3.105   0.645   1.582
  386TIP3    H1 1101   3.110   0.661   1.487
  386TIP3    H2 1102   3.146   0.723   1.620
  387TIP3   OH2 1103   2.960   1.913   0.781
  387TIP3    H1 1104   2.904   1.947   0.851
  387TIP3    H2 1105   2.909   1.841   0.744
  388TIP3   OH2 1106   3.051   2.490   1.849
  388TIP3    H1 1107   3.129   2.493   1.904
  388TIP3    H2 1108   3.015   2.403   1.863
  389TIP3   OH2 1109   3.514   2.416   1.922
  389TIP3    H1 1110   3.605   2.390   1.932
  389TIP3    H2 1111   3.480   2.361   1.852
  390TIP3   OH2 1112   6.326   5.862   6.932
  390TIP3    H1 1113   6.290   5.893   7.015
  390TIP3    H2 1114   6.266   5.896   6.866
  391TIP3   OH2 1115   4.135   2.350   1.667
  391TIP3    H1 1116   4.146   2.281   1.733
  391TIP3    H2 1117   4.207   2.410   1.683
  392TIP3   OH2 1118   6.809   6.146   6.955
  392TIP3    H1 1119   6.800   6.052   6.973
  392TIP3    H2 1120   6.804   6.153   6.859
  393TIP3   OH2 1121   3.162   1.898   2.076
  393TIP3    H1 1122   3.169   1.803   2.088
  393TIP3    H2 1123   3.079   1.910   2.030
  394TIP3   OH2 1124   3.779   1.999   1.847
  394TIP3    H1 1125   3.731   2.012   1.765
  394TIP3    H2 1126   3.819   1.912   1.837
  395TIP3   OH2 1127   3.624   1.624  -0.010
  395TIP3    H1 1128   3.616   1.599   0.082
  395TIP3    H2 1129   3.566   1.700  -0.019
  396TIP3   OH2 1130   4.251   2.026   1.456
  396TIP3    H1 1131   4.328   2.057   1.409
  396TIP3    H2 1132   4.184   2.092   1.439
  397TIP3   OH2 1133   3.260   1.626   2.079
  397TIP3    H1 1134   3.334   1.628   2.018
  397TIP3    H2 1135   3.296   1.653   2.163
  398TIP3   OH2 1136   3.651   1.584   1.773
  398TIP3    H1 1137   3.561   1.608   1.793
  398TIP3    H2 1138   3.649   1.555   1.682
  399TIP3   OH2 1139   4.135   1.908   1.817
  399TIP3    H1 1140   4.198   1.861   1.763
  399TIP3    H2 1141   4.123   1.851   1.894
  400TIP3   OH2 1142   7.133   5.663   6.888
  400TIP3    H1 1143   7.191   5.639   6.817
  400TIP3    H2 1144   7.084   5.739   6.855
  401TIP3   OH2 1145   3.732   1.324   1.861
  401TIP3    H1 1146   3.728   1.246   1.805
  401TIP3    H2 1147   3.706   1.396   1.804
  402TIP3   OH2 1148   3.729   1.101   1.697
  402TIP3    H1 1149   3.757   1.154   1.623
  402TIP3    H2 1150   3.640   1.072   1.675
  403TIP3   OH2 1151   3.792   1.632   1.501
  403TIP3    H1 1152   3.877   1.675   1.518
  403TIP3    H2 1153   3.734   1.704   1.476
  404TIP3   OH2 1154   4.349   1.585   1.902
  404TIP3    H1 1155   4.393   1.501   1.909
  404TIP3    H2 1156   4.419   1.649   1.891
  405TIP3   OH2 1157   4.378   1.853   1.622
  405TIP3    H1 1158   4.322   1.913   1.573
  405TIP3    H2 1159   4.466   1.870   1.590
  406TIP3   OH2 1160   3.612   1.400   2.095
  406TIP3    H1 1161   3.546   1.332   2.110
  406TIP3    H2 1162   3.645   1.381   2.007
  407TIP3   OH2 1163   3.887   0.889   1.759
  407TIP3    H1 1164   3.840   0.971   1.744
  407TIP3    H2 1165   3.821   0.821   1.743
  408TIP3   OH2 1166   3.995   1.345   1.947
  408TIP3    H1 1167   3.991   1.329   2.041
  408TIP3    H2 1168   3.905   1.330   1.916
  409TIP3   OH2 1169   4.234   1.302   1.809
  409TIP3    H1 1170   4.155   1.299   1.863
  409TIP3    H2 1171   4.304   1.271   1.866
  410TIP3   OH2 1172   4.469   1.255   1.955
  410TIP3    H1 1173   4.483   1.160   1.961
  410TIP3    H2 1174   4.465   1.284   2.046
  411TIP3   OH2 1175   3.456   1.172   2.149
  411TIP3    H1 1176   3.464   1.082   2.117
  411TIP3    H2 1177   3.497   1.170   2.236
  412TIP3   OH2 1178   3.946   0.841   2.017
  412TIP3    H1 1179   4.012   0.771   2.010
  412TIP3    H2 1180   3.924   0.861   1.926
  413TIP3   OH2 1181   4.029   1.067   2.148
  413TIP3    H1 1182   4.002   0.991   2.096
  413TIP3    H2 1183   3.952   1.125   2.148
  414TIP3   OH2 1184   3.237   2.307   0.240
  414TIP3    H1 1185   3.277   2.305   0.153
  414TIP3    H2 1186   3.149   2.343   0.225
  415TIP3   OH2 1187   2.453   2.229   0.817
  415TIP3    H1 1188   2.405   2.155   0.779
  415TIP3    H2 1189   2.531   2.189   0.855
  416TIP3   OH2 1190   2.774   2.226   1.130
  416TIP3    H1 1191   2.761   2.188   1.217
  416TIP3    H2 1192   2.856   2.276   1.137
  417TIP3   OH2 1193   4.523   2.513   0.864
  417TIP3    H1 1194   4.540   2.538   0.955
  417TIP3    H2 1195   4.574   2.575   0.812
  418TIP3   OH2 1196   4.542   2.547   1.145
  418TIP3    H1 1197   4.497   2.463   1.145
  418TIP3    H2 1198   4.613   2.537   1.208
  419TIP3   OH2 1199   4.592   2.242   1.724
  419TIP3    H1 1200   4.519   2.250   1.786
  419TIP3    H2 1201   4.634   2.328   1.726
  420TIP3   OH2 1202   4.554   1.646   0.495
  420TIP3    H1 1203   4.491   1.617   0.562
  420TIP3    H2 1204   4.624   1.688   0.545
  421TIP3   OH2 1205   4.601   2.019   0.956
  421TIP3    H1 1206   4.653   1.952   0.912
  421TIP3    H2 1207   4.600   2.093   0.895
  422TIP3   OH2 1208   4.405   2.306   1.155
  422TIP3    H1 1209   4.338   2.350   1.207
  422TIP3    H2 1210   4.356   2.267   1.082
  423TIP3   OH2 1211   4.491   1.577   0.145
  423TIP3    H1 1212   4.433   1.603   0.074
  423TIP3    H2 1213   4.473   1.640   0.215
  424TIP3   OH2 1214   4.277   1.261   0.107
  424TIP3    H1 1215   4.218   1.337   0.101
  424TIP3    H2 1216   4.250   1.204   0.035
  425TIP3   OH2 1217   4.413   1.533   0.702
  425TIP3    H1 1218   4.423   1.438   0.699
  425TIP3    H2 1219   4.409   1.553   0.796
  426TIP3   OH2 1220   3.086   1.728   1.391
  426TIP3    H1 1221   3.103   1.681   1.309
  426TIP3    H2 1222   3.138   1.682   1.457
  427TIP3   OH2 1223   4.632   1.903   1.520
  427TIP3    H1 1224   4.709   1.849   1.500
  427TIP3    H2 1225   4.627   1.965   1.448
  428TIP3   OH2 1226   4.835   1.699   1.528
  428TIP3    H1 1227   4.755   1.663   1.567
  428TIP3    H2 1228   4.901   1.631   1.544
  429TIP3   OH2 1229   4.403   1.263   0.621
  429TIP3    H1 1230   4.485   1.220   0.599
  429TIP3    H2 1231   4.349   1.254   0.543
  430TIP3   OH2 1232   4.517   1.372   1.101
  430TIP3    H1 1233   4.599   1.385   1.054
  430TIP3    H2 1234   4.533   1.409   1.188
  431TIP3   OH2 1235   4.578   1.526   1.318
  431TIP3    H1 1236   4.502   1.553   1.369
  431TIP3    H2 1237   4.596   1.600   1.260
  432TIP3   OH2 1238   3.194   1.244   2.113
  432TIP3    H1 1239   3.289   1.238   2.125
  432TIP3    H2 1240   3.161   1.161   2.148
  433TIP3   OH2 1241   5.029   1.120   1.838
  433TIP3    H1 1242   5.094   1.061   1.800
  433TIP3    H2 1243   4.991   1.165   1.763
  434TIP3   OH2 1244   4.451   0.946   0.675
  434TIP3    H1 1245   4.505   0.978   0.748
  434TIP3    H2 1246   4.412   0.865   0.708
  435TIP3   OH2 1247   3.181   0.913   1.583
  435TIP3    H1 1248   3.174   0.881   1.493
  435TIP3    H2 1249   3.209   1.004   1.575
  436TIP3   OH2 1250   2.953   1.215   1.603
  436TIP3    H1 1251   2.922   1.270   1.531
  436TIP3    H2 1252   2.940   1.269   1.681
  437TIP3   OH2 1253   4.877   1.226   1.637
  437TIP3    H1 1254   4.791   1.266   1.652
  437TIP3    H2 1255   4.858   1.146   1.589
  438TIP3   OH2 1256   4.132   2.399   0.515
  438TIP3    H1 1257   4.182   2.410   0.434
  438TIP3    H2 1258   4.144   2.482   0.562
  439TIP3   OH2 1259   3.177   0.768   1.886
  439TIP3    H1 1260   3.129   0.736   1.963
  439TIP3    H2 1261   3.111   0.811   1.832
  440TIP3   OH2 1262   3.199   2.207   1.897
  440TIP3    H1 1263   3.104   2.205   1.887
  440TIP3    H2 1264   3.213   2.207   1.992
  441TIP3   OH2 1265   3.405   2.270   1.444
  441TIP3    H1 1266   3.355   2.348   1.421
  441TIP3    H2 1267   3.491   2.284   1.405
  442TIP3   OH2 1268   3.794   2.496   1.574
  442TIP3    H1 1269   3.829   2.490   1.662
  442TIP3    H2 1270   3.856   2.552   1.526
  443TIP3   OH2 1271   3.986   2.653   1.452
  443TIP3    H1 1272   4.050   2.599   1.406
  443TIP3    H2 1273   4.038   2.712   1.506
  444TIP3   OH2 1274   4.806   0.973   1.544
  444TIP3    H1 1275   4.719   0.946   1.515
  444TIP3    H2 1276   4.857   0.892   1.547
  445TIP3   OH2 1277   3.057   2.514   1.495
  445TIP3    H1 1278   2.966   2.525   1.467
  445TIP3    H2 1279   3.072   2.584   1.558
  446TIP3   OH2 1280   3.295   2.505   1.359
  446TIP3    H1 1281   3.209   2.510   1.401
  446TIP3    H2 1282   3.280   2.537   1.270
  447TIP3   OH2 1283   3.714   2.522   1.132
  447TIP3    H1 1284   3.641   2.535   1.071
  447TIP3    H2 1285   3.725   2.607   1.175
  448TIP3   OH2 1286   3.972   2.446   1.174
  448TIP3    H1 1287   3.880   2.469   1.158
  448TIP3    H2 1288   4.022   2.515   1.131
  449TIP3   OH2 1289   4.165   2.624   1.080
  449TIP3    H1 1290   4.161   2.712   1.042
  449TIP3    H2 1291   4.194   2.568   1.008
  450TIP3   OH2 1292   2.994   2.348   1.243
  450TIP3    H1 1293   2.985   2.322   1.335
  450TIP3    H2 1294   3.083   2.321   1.219
  451TIP3   OH2 1295   3.236   2.235   1.205
  451TIP3    H1 1296   3.248   2.174   1.277
  451TIP3    H2 1297   3.325   2.261   1.181
  452TIP3   OH2 1298   3.479   2.290   1.084
  452TIP3    H1 1299   3.496   2.201   1.051
  452TIP3    H2 1300   3.537   2.299   1.159
  453TIP3   OH2 1301   4.050   0.929   1.159
  453TIP3    H1 1302   4.001   0.851   1.185
  453TIP3    H2 1303   4.068   0.916   1.066
  454TIP3   OH2 1304   4.603   0.867   1.127
  454TIP3    H1 1305   4.620   0.935   1.062
  454TIP3    H2 1306   4.509   0.870   1.141
  455TIP3   OH2 1307   4.628   0.995   0.879
  455TIP3    H1 1308   4.690   0.925   0.857
  455TIP3    H2 1309   4.670   1.075   0.847
  456TIP3   OH2 1310   3.743   0.594   0.997
  456TIP3    H1 1311   3.648   0.609   1.000
  456TIP3    H2 1312   3.780   0.677   0.968
  457TIP3   OH2 1313   4.334   0.856   1.146
  457TIP3    H1 1314   4.262   0.893   1.095
  457TIP3    H2 1315   4.301   0.852   1.235
  458TIP3   OH2 1316   4.273   0.725   0.649
  458TIP3    H1 1317   4.181   0.749   0.635
  458TIP3    H2 1318   4.270   0.648   0.706
  459TIP3   OH2 1319   3.511   2.361   0.126
  459TIP3    H1 1320   3.607   2.363   0.115
  459TIP3    H2 1321   3.496   2.287   0.185
  460TIP3   OH2 1322   4.238   2.377   0.259
  460TIP3    H1 1323   4.225   2.282   0.254
  460TIP3    H2 1324   4.190   2.412   0.183
  461TIP3   OH2 1325   3.482   0.903   2.091
  461TIP3    H1 1326   3.440   0.836   2.145
  461TIP3    H2 1327   3.574   0.901   2.118
  462TIP3   OH2 1328   3.737   0.874   2.191
  462TIP3    H1 1329   3.804   0.879   2.123
  462TIP3    H2 1330   3.760   0.798   2.243
  463TIP3   OH2 1331   4.535   0.983   1.961
  463TIP3    H1 1332   4.550   0.956   2.052
  463TIP3    H2 1333   4.622   0.979   1.921
  464TIP3   OH2 1334   4.454   2.524   1.466
  464TIP3    H1 1335   4.380   2.490   1.416
  464TIP3    H2 1336   4.435   2.618   1.476
  465TIP3   OH2 1337   5.649   1.954   0.335
  465TIP3    H1 1338   5.653   2.016   0.262
  465TIP3    H2 1339   5.613   1.874   0.296
  466TIP3   OH2 1340   5.654   1.875   0.686
  466TIP3    H1 1341   5.738   1.871   0.732
  466TIP3    H2 1342   5.645   1.789   0.646
  467TIP3   OH2 1343   5.046   1.791   0.960
  467TIP3    H1 1344   5.078   1.712   1.005
  467TIP3    H2 1345   5.069   1.863   1.019
  468TIP3   OH2 1346   6.007   2.217   0.314
  468TIP3    H1 1347   5.997   2.153   0.384
  468TIP3    H2 1348   6.025   2.299   0.361
  469TIP3   OH2 1349   5.014   2.192   0.668
  469TIP3    H1 1350   4.996   2.099   0.682
  469TIP3    H2 1351   5.109   2.197   0.655
  470TIP3   OH2 1352   4.712   1.429   0.436
  470TIP3    H1 1353   4.657   1.506   0.449
  470TIP3    H2 1354   4.658   1.356   0.466
  471TIP3   OH2 1355   4.780   1.713   0.646
  471TIP3    H1 1356   4.822   1.632   0.674
  471TIP3    H2 1357   4.852   1.773   0.629
  472TIP3   OH2 1358   5.634   2.646   0.335
  472TIP3    H1 1359   5.663   2.578   0.275
  472TIP3    H2 1360   5.646   2.609   0.422
  473TIP3   OH2 1361   5.542   2.138   0.583
  473TIP3    H1 1362   5.572   2.117   0.495
  473TIP3    H2 1363   5.615   2.189   0.621
  474TIP3   OH2 1364   5.930   1.607   0.655
  474TIP3    H1 1365   5.951   1.522   0.694
  474TIP3    H2 1366   5.872   1.586   0.582
  475TIP3   OH2 1367   5.279   1.324   0.688
  475TIP3    H1 1368   5.257   1.373   0.609
  475TIP3    H2 1369   5.241   1.237   0.674
  476TIP3   OH2 1370   4.901   1.486   0.749
  476TIP3    H1 1371   4.976   1.464   0.803
  476TIP3    H2 1372   4.897   1.417   0.683
  477TIP3   OH2 1373   5.343   1.686   0.576
  477TIP3    H1 1374   5.434   1.665   0.597
  477TIP3    H2 1375   5.304   1.601   0.552
  478TIP3   OH2 1376   6.519   1.623   0.823
  478TIP3    H1 1377   6.440   1.677   0.827
  478TIP3    H2 1378   6.574   1.654   0.895
  479TIP3   OH2 1379   5.256   1.264   1.090
  479TIP3    H1 1380   5.203   1.314   1.028
  479TIP3    H2 1381   5.211   1.276   1.174
  480TIP3   OH2 1382   5.622   2.118   0.117
  480TIP3    H1 1383   5.589   2.082   0.034
  480TIP3    H2 1384   5.568   2.194   0.134
  481TIP3   OH2 1385   5.387   2.027   0.858
  481TIP3    H1 1386   5.382   1.974   0.937
  481TIP3    H2 1387   5.327   2.100   0.874
  482TIP3   OH2 1388   5.121   1.411   0.900
  482TIP3    H1 1389   5.143   1.485   0.958
  482TIP3    H2 1390   5.193   1.408   0.837
  483TIP3   OH2 1391   5.211   2.233   0.950
  483TIP3    H1 1392   5.201   2.320   0.913
  483TIP3    H2 1393   5.131   2.219   1.001
  484TIP3   OH2 1394   4.492   1.971   0.231
  484TIP3    H1 1395   4.505   1.956   0.137
  484TIP3    H2 1396   4.557   2.036   0.255
  485TIP3   OH2 1397   6.023   2.464   0.455
  485TIP3    H1 1398   5.937   2.444   0.491
  485TIP3    H2 1399   6.010   2.544   0.404
  486TIP3   OH2 1400   5.722   2.488   0.131
  486TIP3    H1 1401   5.774   2.408   0.120
  486TIP3    H2 1402   5.772   2.555   0.085
  487TIP3   OH2 1403   5.860   2.261   0.086
  487TIP3    H1 1404   5.794   2.192   0.089
  487TIP3    H2 1405   5.923   2.237   0.154
  488TIP3   OH2 1406   6.235   2.352   0.814
  488TIP3    H1 1407   6.241   2.277   0.755
  488TIP3    H2 1408   6.226   2.427   0.756
  489TIP3   OH2 1409   6.397   1.962   0.629
  489TIP3    H1 1410   6.328   2.028   0.631
  489TIP3    H2 1411   6.420   1.954   0.537
  490TIP3   OH2 1412   6.104   1.874   0.987
  490TIP3    H1 1413   6.094   1.950   1.044
  490TIP3    H2 1414   6.025   1.874   0.933
  491TIP3   OH2 1415   5.130   1.813   0.460
  491TIP3    H1 1416   5.096   1.753   0.393
  491TIP3    H2 1417   5.208   1.769   0.494
  492TIP3   OH2 1418   5.272   2.242   0.562
  492TIP3    H1 1419   5.240   2.229   0.472
  492TIP3    H2 1420   5.363   2.213   0.560
  493TIP3   OH2 1421   5.784   2.426   0.582
  493TIP3    H1 1422   5.774   2.513   0.621
  493TIP3    H2 1423   5.781   2.366   0.656
  494TIP3   OH2 1424   5.408   2.344   1.114
  494TIP3    H1 1425   5.350   2.404   1.161
  494TIP3    H2 1426   5.350   2.290   1.061
  495TIP3   OH2 1427   5.479   2.355   0.132
  495TIP3    H1 1428   5.557   2.412   0.138
  495TIP3    H2 1429   5.425   2.396   0.064
  496TIP3   OH2 1430   5.204   2.515   1.191
  496TIP3    H1 1431   5.185   2.519   1.097
  496TIP3    H2 1432   5.123   2.484   1.231
  497TIP3   OH2 1433   5.002   1.657   0.247
  497TIP3    H1 1434   4.942   1.724   0.215
  497TIP3    H2 1435   4.947   1.579   0.260
  498TIP3   OH2 1436   4.799   2.067   1.152
  498TIP3    H1 1437   4.728   2.046   1.092
  498TIP3    H2 1438   4.820   1.983   1.194
  499TIP3   OH2 1439   4.635   2.259   0.805
  499TIP3    H1 1440   4.725   2.283   0.826
  499TIP3    H2 1441   4.582   2.333   0.835
  500TIP3   OH2 1442   6.498   2.747   0.873
  500TIP3    H1 1443   6.485   2.654   0.892
  500TIP3    H2 1444   6.424   2.771   0.818
  501TIP3   OH2 1445   5.595   2.496   0.981
  501TIP3    H1 1446   5.593   2.584   1.019
  501TIP3    H2 1447   5.529   2.447   1.032
  502TIP3   OH2 1448   8.190   6.599   6.875
  502TIP3    H1 1449   8.109   6.575   6.831
  502TIP3    H2 1450   8.171   6.684   6.916
  503TIP3   OH2 1451   4.813   2.438   0.314
  503TIP3    H1 1452   4.860   2.434   0.398
  503TIP3    H2 1453   4.767   2.355   0.309
  504TIP3   OH2 1454   8.453   6.565   6.789
  504TIP3    H1 1455   8.361   6.576   6.813
  504TIP3    H2 1456   8.479   6.482   6.830
  505TIP3   OH2 1457   6.344   1.824   1.176
  505TIP3    H1 1458   6.281   1.817   1.104
  505TIP3    H2 1459   6.378   1.735   1.186
  506TIP3   OH2 1460   4.975   2.270   1.100
  506TIP3    H1 1461   4.983   2.312   1.186
  506TIP3    H2 1462   4.916   2.196   1.114
  507TIP3   OH2 1463   5.345   1.060   0.932
  507TIP3    H1 1464   5.263   1.019   0.906
  507TIP3    H2 1465   5.319   1.134   0.987
  508TIP3   OH2 1466   5.913   1.166   1.129
  508TIP3    H1 1467   5.985   1.146   1.189
  508TIP3    H2 1468   5.834   1.145   1.178
  509TIP3   OH2 1469   6.131   1.600   1.047
  509TIP3    H1 1470   6.091   1.589   1.133
  509TIP3    H2 1471   6.105   1.688   1.019
  510TIP3   OH2 1472   5.201   1.472   0.469
  510TIP3    H1 1473   5.112   1.438   0.482
  510TIP3    H2 1474   5.209   1.485   0.375
  511TIP3   OH2 1475   5.853   1.819   1.281
  511TIP3    H1 1476   5.831   1.748   1.341
  511TIP3    H2 1477   5.945   1.838   1.298
  512TIP3   OH2 1478   5.784   1.540   0.428
  512TIP3    H1 1479   5.818   1.584   0.350
  512TIP3    H2 1480   5.790   1.447   0.408
  513TIP3   OH2 1481   5.155   1.580   1.117
  513TIP3    H1 1482   5.214   1.641   1.161
  513TIP3    H2 1483   5.132   1.517   1.185
  514TIP3   OH2 1484   4.752   1.206   0.740
  514TIP3    H1 1485   4.819   1.209   0.808
  514TIP3    H2 1486   4.778   1.134   0.683
  515TIP3   OH2 1487   4.856   1.132   0.356
  515TIP3    H1 1488   4.841   1.180   0.275
  515TIP3    H2 1489   4.774   1.140   0.405
  516TIP3   OH2 1490   5.881   1.817   0.826
  516TIP3    H1 1491   5.908   1.745   0.769
  516TIP3    H2 1492   5.845   1.774   0.903
  517TIP3   OH2 1493   5.555   1.337   0.677
  517TIP3    H1 1494   5.460   1.327   0.688
  517TIP3    H2 1495   5.589   1.248   0.684
  518TIP3   OH2 1496   4.961   1.348   0.499
  518TIP3    H1 1497   4.877   1.389   0.481
  518TIP3    H2 1498   4.952   1.259   0.464
  519TIP3   OH2 1499   5.954   1.347   0.739
  519TIP3    H1 1500   5.931   1.368   0.829
  519TIP3    H2 1501   6.000   1.263   0.744
  520TIP3   OH2 1502   6.197   3.062   0.969
  520TIP3    H1 1503   6.197   3.056   0.873
  520TIP3    H2 1504   6.285   3.093   0.990
  521TIP3   OH2 1505   5.603   1.606   0.623
  521TIP3    H1 1506   5.661   1.587   0.550
  521TIP3    H2 1507   5.593   1.522   0.669
  522TIP3   OH2 1508   5.257   1.933  -0.001
  522TIP3    H1 1509   5.223   1.844  -0.011
  522TIP3    H2 1510   5.265   1.946   0.093
  523TIP3   OH2 1511   6.207   2.158   0.619
  523TIP3    H1 1512   6.240   2.204   0.542
  523TIP3    H2 1513   6.122   2.123   0.591
  524TIP3   OH2 1514   5.710   2.223   1.021
  524TIP3    H1 1515   5.743   2.194   1.106
  524TIP3    H2 1516   5.671   2.309   1.038
  525TIP3   OH2 1517   5.004   1.905   0.690
  525TIP3    H1 1518   5.057   1.877   0.615
  525TIP3    H2 1519   5.044   1.861   0.765
  526TIP3   OH2 1520   8.317   6.061   6.833
  526TIP3    H1 1521   8.280   6.143   6.801
  526TIP3    H2 1522   8.241   6.008   6.856
  527TIP3   OH2 1523   4.840   1.833   1.289
  527TIP3    H1 1524   4.858   1.781   1.368
  527TIP3    H2 1525   4.775   1.781   1.241
  528TIP3   OH2 1526   5.604   1.965   1.325
  528TIP3    H1 1527   5.528   1.909   1.307
  528TIP3    H2 1528   5.679   1.915   1.291
  529TIP3   OH2 1529   5.854   2.485   0.876
  529TIP3    H1 1530   5.762   2.483   0.903
  529TIP3    H2 1531   5.900   2.525   0.950
  530TIP3   OH2 1532   6.466   2.468   0.908
  530TIP3    H1 1533   6.377   2.432   0.914
  530TIP3    H2 1534   6.501   2.432   0.827
  531TIP3   OH2 1535   5.974   2.037   0.526
  531TIP3    H1 1536   5.881   2.016   0.523
  531TIP3    H2 1537   6.017   1.952   0.519
  532TIP3   OH2 1538   5.136   2.232   0.319
  532TIP3    H1 1539   5.139   2.307   0.260
  532TIP3    H2 1540   5.043   2.216   0.334
  533TIP3   OH2 1541   4.777   1.550   0.029
  533TIP3    H1 1542   4.785   1.642   0.053
  533TIP3    H2 1543   4.683   1.532   0.034
  534TIP3   OH2 1544   5.245   1.981   0.268
  534TIP3    H1 1545   5.219   2.072   0.281
  534TIP3    H2 1546   5.205   1.933   0.340
  535TIP3   OH2 1547   5.419   2.559   0.773
  535TIP3    H1 1548   5.454   2.634   0.725
  535TIP3    H2 1549   5.490   2.531   0.829
  536TIP3   OH2 1550   5.048   2.459   0.169
  536TIP3    H1 1551   4.960   2.463   0.208
  536TIP3    H2 1552   5.083   2.548   0.181
  537TIP3   OH2 1553   5.758   2.194   0.753
  537TIP3    H1 1554   5.740   2.204   0.846
  537TIP3    H2 1555   5.849   2.165   0.749
  538TIP3   OH2 1556   5.990   2.735   0.788
  538TIP3    H1 1557   5.919   2.671   0.783
  538TIP3    H2 1558   5.978   2.791   0.711
  539TIP3   OH2 1559   5.100   1.341   1.300
  539TIP3    H1 1560   5.006   1.356   1.310
  539TIP3    H2 1561   5.125   1.296   1.381
  540TIP3   OH2 1562   4.840   2.454   0.926
  540TIP3    H1 1563   4.893   2.391   0.975
  540TIP3    H2 1564   4.857   2.538   0.968
  541TIP3   OH2 1565   7.934   5.981   6.587
  541TIP3    H1 1566   7.912   6.049   6.523
  541TIP3    H2 1567   7.926   6.024   6.672
  542TIP3   OH2 1568   7.890   6.098   6.834
  542TIP3    H1 1569   7.963   6.052   6.876
  542TIP3    H2 1570   7.907   6.190   6.849
  543TIP3   OH2 1571   4.799   1.805   0.132
  543TIP3    H1 1572   4.715   1.831   0.171
  543TIP3    H2 1573   4.810   1.864   0.058
  544TIP3   OH2 1574   5.920   1.411   1.003
  544TIP3    H1 1575   6.002   1.453   1.026
  544TIP3    H2 1576   5.919   1.330   1.055
  545TIP3   OH2 1577   8.187   6.293   6.764
  545TIP3    H1 1578   8.103   6.314   6.804
  545TIP3    H2 1579   8.188   6.343   6.683
  546TIP3   OH2 1580   5.806   1.676   1.041
  546TIP3    H1 1581   5.814   1.713   1.130
  546TIP3    H2 1582   5.827   1.583   1.052
  547TIP3   OH2 1583   7.942   6.366   6.863
  547TIP3    H1 1584   7.915   6.435   6.802
  547TIP3    H2 1585   7.917   6.399   6.949
  548TIP3   OH2 1586   6.399   1.554   1.077
  548TIP3    H1 1587   6.303   1.553   1.072
  548TIP3    H2 1588   6.428   1.526   0.990
  549TIP3   OH2 1589   6.085   1.787   0.519
  549TIP3    H1 1590   6.030   1.727   0.569
  549TIP3    H2 1591   6.170   1.744   0.516
  550TIP3   OH2 1592   7.641   5.969   6.847
  550TIP3    H1 1593   7.711   6.034   6.846
  550TIP3    H2 1594   7.671   5.902   6.786
  551TIP3   OH2 1595   6.010   2.721   0.347
  551TIP3    H1 1596   5.972   2.777   0.280
  551TIP3    H2 1597   6.104   2.737   0.342
  552TIP3   OH2 1598   5.093   0.946   0.891
  552TIP3    H1 1599   5.051   0.906   0.816
  552TIP3    H2 1600   5.109   0.874   0.952
  553TIP3   OH2 1601   4.636   2.203   0.311
  553TIP3    H1 1602   4.607   2.252   0.389
  553TIP3    H2 1603   4.597   2.250   0.238
  554TIP3   OH2 1604   4.828   2.749   1.355
  554TIP3    H1 1605   4.910   2.747   1.403
  554TIP3    H2 1606   4.795   2.659   1.361
  555TIP3   OH2 1607   5.296   2.662   1.404
  555TIP3    H1 1608   5.385   2.630   1.419
  555TIP3    H2 1609   5.268   2.618   1.324
  556TIP3   OH2 1610   5.959   2.588   1.103
  556TIP3    H1 1611   5.956   2.536   1.183
  556TIP3    H2 1612   5.998   2.671   1.130
  557TIP3   OH2 1613   7.790   5.780   6.713
  557TIP3    H1 1614   7.861   5.772   6.777
  557TIP3    H2 1615   7.829   5.826   6.639
  558TIP3   OH2 1616   5.588   2.253   1.307
  558TIP3    H1 1617   5.522   2.260   1.238
  558TIP3    H2 1618   5.596   2.159   1.323
  559TIP3   OH2 1619   6.012   2.256   0.934
  559TIP3    H1 1620   6.092   2.291   0.894
  559TIP3    H2 1621   5.946   2.323   0.919
  560TIP3   OH2 1622   5.171   1.859   1.534
  560TIP3    H1 1623   5.221   1.842   1.454
  560TIP3    H2 1624   5.080   1.866   1.504
  561TIP3   OH2 1625   5.123   1.688  -0.012
  561TIP3    H1 1626   5.091   1.674   0.076
  561TIP3    H2 1627   5.111   1.604  -0.057
  562TIP3   OH2 1628   5.926   2.189   1.317
  562TIP3    H1 1629   5.989   2.147   1.258
  562TIP3    H2 1630   5.917   2.127   1.389
  563TIP3   OH2 1631   5.562   1.554   1.306
  563TIP3    H1 1632   5.540   1.479   1.251
  563TIP3    H2 1633   5.493   1.618   1.287
  564TIP3   OH2 1634   5.517   1.338   1.134
  564TIP3    H1 1635   5.547   1.366   1.048
  564TIP3    H2 1636   5.426   1.311   1.120
  565TIP3   OH2 1637   6.131   1.827   1.374
  565TIP3    H1 1638   6.147   1.737   1.404
  565TIP3    H2 1639   6.205   1.847   1.317
  566TIP3   OH2 1640   6.127   2.114   1.136
  566TIP3    H1 1641   6.079   2.165   1.070
  566TIP3    H2 1642   6.219   2.121   1.109
  567TIP3   OH2 1643   5.393   1.635   1.568
  567TIP3    H1 1644   5.331   1.562   1.577
  567TIP3    H2 1645   5.381   1.667   1.479
  568TIP3   OH2 1646   5.654   1.114   1.222
  568TIP3    H1 1647   5.608   1.195   1.198
  568TIP3    H2 1648   5.591   1.044   1.206
  569TIP3   OH2 1649   5.795   1.600   1.431
  569TIP3    H1 1650   5.777   1.587   1.524
  569TIP3    H2 1651   5.713   1.578   1.387
  570TIP3   OH2 1652   6.021   1.546   1.284
  570TIP3    H1 1653   5.943   1.553   1.340
  570TIP3    H2 1654   6.091   1.520   1.343
  571TIP3   OH2 1655   6.237   1.510   1.449
  571TIP3    H1 1656   6.246   1.415   1.460
  571TIP3    H2 1657   6.239   1.544   1.539
  572TIP3   OH2 1658   5.242   1.412   1.635
  572TIP3    H1 1659   5.250   1.326   1.593
  572TIP3    H2 1660   5.288   1.401   1.719
  573TIP3   OH2 1661   5.712   1.107   1.489
  573TIP3    H1 1662   5.786   1.046   1.488
  573TIP3    H2 1663   5.686   1.113   1.397
  574TIP3   OH2 1664   5.811   1.320   1.633
  574TIP3    H1 1665   5.782   1.249   1.576
  574TIP3    H2 1666   5.741   1.385   1.627
  575TIP3   OH2 1667   7.927   6.572   6.681
  575TIP3    H1 1668   7.939   6.559   6.587
  575TIP3    H2 1669   7.864   6.643   6.687
  576TIP3   OH2 1670   7.374   5.904   6.897
  576TIP3    H1 1671   7.459   5.938   6.867
  576TIP3    H2 1672   7.353   5.835   6.835
  577TIP3   OH2 1673   4.441   2.528   0.369
  577TIP3    H1 1674   4.381   2.475   0.317
  577TIP3    H2 1675   4.484   2.466   0.428
  578TIP3   OH2 1676   4.586   2.361   0.540
  578TIP3    H1 1677   4.580   2.297   0.612
  578TIP3    H2 1678   4.636   2.434   0.577
  579TIP3   OH2 1679   6.270   2.786   0.356
  579TIP3    H1 1680   6.296   2.819   0.442
  579TIP3    H2 1681   6.338   2.819   0.296
  580TIP3   OH2 1682   6.330   2.799   0.642
  580TIP3    H1 1683   6.275   2.721   0.649
  580TIP3    H2 1684   6.410   2.769   0.599
  581TIP3   OH2 1685   6.351   2.278   0.422
  581TIP3    H1 1686   6.386   2.206   0.369
  581TIP3    H2 1687   6.349   2.353   0.363
  582TIP3   OH2 1688   6.180   2.572   0.657
  582TIP3    H1 1689   6.112   2.613   0.710
  582TIP3    H2 1690   6.132   2.531   0.585
  583TIP3   OH2 1691   4.769   1.797   0.909
  583TIP3    H1 1692   4.757   1.769   0.819
  583TIP3    H2 1693   4.863   1.801   0.921
  584TIP3   OH2 1694   6.393   2.145   1.076
  584TIP3    H1 1695   6.459   2.077   1.092
  584TIP3    H2 1696   6.403   2.166   0.984
  585TIP3   OH2 1697   6.583   1.941   1.105
  585TIP3    H1 1698   6.500   1.902   1.135
  585TIP3    H2 1699   6.638   1.866   1.083
  586TIP3   OH2 1700   6.309   1.632   0.580
  586TIP3    H1 1701   6.356   1.553   0.605
  586TIP3    H2 1702   6.301   1.682   0.662
  587TIP3   OH2 1703   6.306   1.788   0.817
  587TIP3    H1 1704   6.234   1.823   0.869
  587TIP3    H2 1705   6.333   1.861   0.761
  588TIP3   OH2 1706   4.983   1.473   1.575
  588TIP3    H1 1707   5.077   1.467   1.590
  588TIP3    H2 1708   4.948   1.391   1.611
  589TIP3   OH2 1709   6.789   1.319   1.363
  589TIP3    H1 1710   6.878   1.336   1.331
  589TIP3    H2 1711   6.732   1.367   1.303
  590TIP3   OH2 1712   4.947   1.187   0.928
  590TIP3    H1 1713   5.000   1.108   0.928
  590TIP3    H2 1714   5.011   1.259   0.929
  591TIP3   OH2 1715   4.751   1.451   0.986
  591TIP3    H1 1716   4.783   1.452   0.896
  591TIP3    H2 1717   4.774   1.538   1.021
  592TIP3   OH2 1718   6.634   1.466   1.201
  592TIP3    H1 1719   6.548   1.503   1.180
  592TIP3    H2 1720   6.666   1.431   1.118
  593TIP3   OH2 1721   4.828   0.985   0.598
  593TIP3    H1 1722   4.760   0.923   0.572
  593TIP3    H2 1723   4.878   1.001   0.519
  594TIP3   OH2 1724   0.194   6.688   6.935
  594TIP3    H1 1725   0.192   6.653   6.846
  594TIP3    H2 1726   0.283   6.719   6.947
  595TIP3   OH2 1727   4.929   1.017   1.294
  595TIP3    H1 1728   4.884   1.015   1.378
  595TIP3    H2 1729   4.874   1.072   1.238
  596TIP3   OH2 1730   4.987   2.422   1.335
  596TIP3    H1 1731   4.896   2.445   1.356
  596TIP3    H2 1732   5.026   2.401   1.420
  597TIP3   OH2 1733   5.188   2.512   0.913
  597TIP3    H1 1734   5.137   2.588   0.883
  597TIP3    H2 1735   5.273   2.523   0.871
  598TIP3   OH2 1736   5.602   2.757   1.078
  598TIP3    H1 1737   5.648   2.733   1.158
  598TIP3    H2 1738   5.666   2.807   1.027
  599TIP3   OH2 1739   5.796   2.900   0.941
  599TIP3    H1 1740   5.864   2.850   0.896
  599TIP3    H2 1741   5.844   2.961   0.997
  600TIP3   OH2 1742   4.849   2.763   0.970
  600TIP3    H1 1743   4.757   2.778   0.946
  600TIP3    H2 1744   4.868   2.829   1.036
  601TIP3   OH2 1745   5.081   2.750   0.821
  601TIP3    H1 1746   4.999   2.756   0.870
  601TIP3    H2 1747   5.058   2.777   0.733
  602TIP3   OH2 1748   5.490   2.775   0.616
  602TIP3    H1 1749   5.417   2.789   0.556
  602TIP3    H2 1750   5.502   2.860   0.659
  603TIP3   OH2 1751   5.751   2.696   0.636
  603TIP3    H1 1752   5.659   2.723   0.630
  603TIP3    H2 1753   5.800   2.770   0.601
  604TIP3   OH2 1754   5.953   2.887   0.561
  604TIP3    H1 1755   5.951   2.975   0.524
  604TIP3    H2 1756   5.973   2.830   0.486
  605TIP3   OH2 1757   4.756   2.544   0.678
  605TIP3    H1 1758   4.776   2.518   0.768
  605TIP3    H2 1759   4.829   2.512   0.627
  606TIP3   OH2 1760   4.963   2.431   0.545
  606TIP3    H1 1761   4.973   2.347   0.591
  606TIP3    H2 1762   5.049   2.472   0.551
  607TIP3   OH2 1763   5.230   2.519   0.572
  607TIP3    H1 1764   5.246   2.426   0.557
  607TIP3    H2 1765   5.286   2.541   0.647
  608TIP3   OH2 1766   4.521   2.327   0.101
  608TIP3    H1 1767   4.453   2.276   0.058
  608TIP3    H2 1768   4.511   2.416   0.067
  609TIP3   OH2 1769   5.252   1.150   1.531
  609TIP3    H1 1770   5.220   1.084   1.593
  609TIP3    H2 1771   5.345   1.158   1.551
  610TIP3   OH2 1772   5.497   1.159   1.658
  610TIP3    H1 1773   5.575   1.140   1.605
  610TIP3    H2 1774   5.496   1.090   1.725
  611TIP3   OH2 1775   7.493   6.416   6.673
  611TIP3    H1 1776   7.471   6.370   6.754
  611TIP3    H2 1777   7.489   6.348   6.605
  612TIP3   OH2 1778   6.278   1.240   1.483
  612TIP3    H1 1779   6.297   1.207   1.571
  612TIP3    H2 1780   6.361   1.235   1.436
  613TIP3   OH2 1781   6.988   2.084   0.439
  613TIP3    H1 1782   6.971   2.129   0.522
  613TIP3    H2 1783   6.963   2.148   0.372
  614TIP3   OH2 1784   6.812   2.518   0.162
  614TIP3    H1 1785   6.733   2.464   0.169
  614TIP3    H2 1786   6.854   2.511   0.247
  615TIP3   OH2 1787   7.193   2.462   0.214
  615TIP3    H1 1788   7.106   2.454   0.254
  615TIP3    H2 1789   7.223   2.372   0.203
  616TIP3   OH2 1790   6.952   2.481   0.399
  616TIP3    H1 1791   6.991   2.565   0.375
  616TIP3    H2 1792   6.997   2.455   0.479
  617TIP3   OH2 1793   7.199   2.496   0.537
  617TIP3    H1 1794   7.169   2.569   0.592
  617TIP3    H2 1795   7.258   2.536   0.474
  618TIP3   OH2 1796   6.924   2.367   0.655
  618TIP3    H1 1797   6.994   2.378   0.719
  618TIP3    H2 1798   6.886   2.281   0.676
  619TIP3   OH2 1799   6.916   2.907   0.755
  619TIP3    H1 1800   6.872   2.895   0.670
  619TIP3    H2 1801   6.863   2.857   0.817
  620TIP3   OH2 1802   6.506   2.381   0.632
  620TIP3    H1 1803   6.435   2.375   0.568
  620TIP3    H2 1804   6.553   2.298   0.624
  621TIP3   OH2 1805   6.400   2.529   0.308
  621TIP3    H1 1806   6.454   2.568   0.376
  621TIP3    H2 1807   6.324   2.587   0.302
  622TIP3   OH2 1808   7.417   2.775   0.591
  622TIP3    H1 1809   7.404   2.869   0.588
  622TIP3    H2 1810   7.349   2.739   0.534
  623TIP3   OH2 1811   6.689   2.555   0.715
  623TIP3    H1 1812   6.758   2.510   0.764
  623TIP3    H2 1813   6.627   2.486   0.692
  624TIP3   OH2 1814   6.973   1.868   0.628
  624TIP3    H1 1815   6.960   1.952   0.673
  624TIP3    H2 1816   6.948   1.802   0.693
  625TIP3   OH2 1817   6.888   2.515   0.918
  625TIP3    H1 1818   6.982   2.532   0.912
  625TIP3    H2 1819   6.849   2.602   0.932
  626TIP3   OH2 1820   7.557   2.522   0.568
  626TIP3    H1 1821   7.518   2.609   0.574
  626TIP3    H2 1822   7.521   2.485   0.487
  627TIP3   OH2 1823   6.687   1.949   0.816
  627TIP3    H1 1824   6.680   1.952   0.912
  627TIP3    H2 1825   6.598   1.969   0.785
  628TIP3   OH2 1826   7.408   2.246   0.747
  628TIP3    H1 1827   7.405   2.157   0.782
  628TIP3    H2 1828   7.370   2.238   0.659
  629TIP3   OH2 1829   7.203   2.909   0.289
  629TIP3    H1 1830   7.188   2.956   0.207
  629TIP3    H2 1831   7.298   2.912   0.301
  630TIP3   OH2 1832   6.536   2.677   0.507
  630TIP3    H1 1833   6.586   2.634   0.576
  630TIP3    H2 1834   6.601   2.728   0.459
  631TIP3   OH2 1835   6.630   3.012   0.848
  631TIP3    H1 1836   6.708   3.013   0.903
  631TIP3    H2 1837   6.599   2.921   0.853
  632TIP3   OH2 1838   7.094   2.969   0.952
  632TIP3    H1 1839   7.186   2.948   0.934
  632TIP3    H2 1840   7.048   2.949   0.870
  633TIP3   OH2 1841   6.652   2.466   1.122
  633TIP3    H1 1842   6.725   2.404   1.118
  633TIP3    H2 1843   6.606   2.456   1.039
  634TIP3   OH2 1844   7.361   2.508   0.801
  634TIP3    H1 1845   7.431   2.572   0.792
  634TIP3    H2 1846   7.397   2.427   0.766
  635TIP3   OH2 1847   6.859   2.126   1.039
  635TIP3    H1 1848   6.899   2.040   1.048
  635TIP3    H2 1849   6.860   2.163   1.127
  636TIP3   OH2 1850   7.207   2.034   0.705
  636TIP3    H1 1851   7.205   2.116   0.656
  636TIP3    H2 1852   7.212   1.966   0.638
  637TIP3   OH2 1853   7.010   1.903   1.039
  637TIP3    H1 1854   7.042   1.830   1.093
  637TIP3    H2 1855   7.087   1.956   1.021
  638TIP3   OH2 1856   6.979   1.574   1.044
  638TIP3    H1 1857   7.015   1.492   1.009
  638TIP3    H2 1858   7.054   1.616   1.088
  639TIP3   OH2 1859   6.373   2.665   0.022
  639TIP3    H1 1860   6.372   2.577   0.057
  639TIP3    H2 1861   6.408   2.719   0.093
  640TIP3   OH2 1862   6.499   2.030   0.366
  640TIP3    H1 1863   6.479   2.038   0.273
  640TIP3    H2 1864   6.585   1.987   0.369
  641TIP3   OH2 1865   6.696   1.708   1.010
  641TIP3    H1 1866   6.784   1.704   0.973
  641TIP3    H2 1867   6.708   1.688   1.103
  642TIP3   OH2 1868   6.765   2.760   0.934
  642TIP3    H1 1869   6.676   2.738   0.906
  642TIP3    H2 1870   6.755   2.783   1.027
  643TIP3   OH2 1871   7.005   2.723   0.308
  643TIP3    H1 1872   6.981   2.788   0.374
  643TIP3    H2 1873   7.074   2.766   0.257
  644TIP3   OH2 1874   7.401   3.058   0.565
  644TIP3    H1 1875   7.446   3.062   0.650
  644TIP3    H2 1876   7.469   3.080   0.501
  645TIP3   OH2 1877   7.592   3.133   0.367
  645TIP3    H1 1878   7.666   3.149   0.309
  645TIP3    H2 1879   7.554   3.220   0.383
  646TIP3   OH2 1880   6.642   3.102   0.450
  646TIP3    H1 1881   6.547   3.091   0.448
  646TIP3    H2 1882   6.659   3.144   0.534
  647TIP3   OH2 1883   6.829   3.097   0.260
  647TIP3    H1 1884   6.768   3.099   0.333
  647TIP3    H2 1885   6.813   3.179   0.212
  648TIP3   OH2 1886   6.488   2.847   0.205
  648TIP3    H1 1887   6.561   2.834   0.265
  648TIP3    H2 1888   6.526   2.893   0.130
  649TIP3   OH2 1889   1.283   6.583   6.874
  649TIP3    H1 1890   1.242   6.567   6.960
  649TIP3    H2 1891   1.209   6.603   6.816
  650TIP3   OH2 1892   0.897   2.690   2.083
  650TIP3    H1 1893   0.821   2.735   2.048
  650TIP3    H2 1894   0.939   2.754   2.141
  651TIP3   OH2 1895   0.314   3.492   1.660
  651TIP3    H1 1896   0.223   3.464   1.661
  651TIP3    H2 1897   0.341   3.484   1.569
  652TIP3   OH2 1898   0.515   3.399   1.991
  652TIP3    H1 1899   0.518   3.329   1.926
  652TIP3    H2 1900   0.499   3.479   1.940
  653TIP3   OH2 1901   0.725   3.018   1.829
  653TIP3    H1 1902   0.658   3.086   1.825
  653TIP3    H2 1903   0.729   2.983   1.740
  654TIP3   OH2 1904   0.445   2.915   2.137
  654TIP3    H1 1905   0.428   2.998   2.182
  654TIP3    H2 1906   0.359   2.886   2.106
  655TIP3   OH2 1907   0.753   3.764   2.042
  655TIP3    H1 1908   0.759   3.669   2.054
  655TIP3    H2 1909   0.670   3.788   2.083
  656TIP3   OH2 1910   8.349   3.500   2.168
  656TIP3    H1 1911   8.363   3.594   2.178
  656TIP3    H2 1912   8.258   3.486   2.195
  657TIP3   OH2 1913   0.642   2.870   2.328
  657TIP3    H1 1914   0.570   2.888   2.268
  657TIP3    H2 1915   0.649   2.774   2.328
  658TIP3   OH2 1916   0.101   2.838   2.525
  658TIP3    H1 1917   0.091   2.743   2.518
  658TIP3    H2 1918   0.196   2.852   2.532
  659TIP3   OH2 1919   0.467   4.100   2.130
  659TIP3    H1 1920   0.462   4.116   2.036
  659TIP3    H2 1921   0.547   4.144   2.158
  660TIP3   OH2 1922   0.519   3.205   1.792
  660TIP3    H1 1923   0.536   3.255   1.712
  660TIP3    H2 1924   0.431   3.170   1.780
  661TIP3   OH2 1925   0.049   3.319   2.218
  661TIP3    H1 1926   0.046   3.314   2.314
  661TIP3    H2 1927  -0.025   3.375   2.195
  662TIP3   OH2 1928   0.124   3.584   2.059
  662TIP3    H1 1929   0.039   3.539   2.062
  662TIP3    H2 1930   0.146   3.601   2.150
  663TIP3   OH2 1931   0.763   3.486   2.072
  663TIP3    H1 1932   0.669   3.468   2.076
  663TIP3    H2 1933   0.790   3.450   1.988
  664TIP3   OH2 1934   0.270   3.791   1.962
  664TIP3    H1 1935   0.209   3.720   1.980
  664TIP3    H2 1936   0.239   3.831   1.881
  665TIP3   OH2 1937   0.623   2.601   2.264
  665TIP3    H1 1938   0.573   2.539   2.317
  665TIP3    H2 1939   0.624   2.563   2.176
  666TIP3   OH2 1940   8.158   3.760   2.531
  666TIP3    H1 1941   8.217   3.822   2.575
  666TIP3    H2 1942   8.212   3.682   2.517
  667TIP3   OH2 1943   0.188   3.653   2.318
  667TIP3    H1 1944   0.189   3.578   2.377
  667TIP3    H2 1945   0.267   3.702   2.341
  668TIP3   OH2 1946   8.378   3.260   2.477
  668TIP3    H1 1947   8.342   3.187   2.427
  668TIP3    H2 1948   8.467   3.233   2.500
  669TIP3   OH2 1949   0.285   3.252   2.093
  669TIP3    H1 1950   0.331   3.330   2.064
  669TIP3    H2 1951   0.199   3.284   2.122
  670TIP3   OH2 1952   0.147   3.189   2.498
  670TIP3    H1 1953   0.208   3.156   2.432
  670TIP3    H2 1954   0.167   3.139   2.577
  671TIP3   OH2 1955   0.383   2.855   2.564
  671TIP3    H1 1956   0.425   2.771   2.580
  671TIP3    H2 1957   0.451   2.908   2.522
  672TIP3   OH2 1958   0.428   3.147   2.295
  672TIP3    H1 1959   0.371   3.189   2.231
  672TIP3    H2 1960   0.517   3.169   2.266
  673TIP3   OH2 1961   0.536   2.593   2.618
  673TIP3    H1 1962   0.543   2.498   2.624
  673TIP3    H2 1963   0.524   2.621   2.709
  674TIP3   OH2 1964   0.569   3.820   1.542
  674TIP3    H1 1965   0.588   3.841   1.634
  674TIP3    H2 1966   0.595   3.899   1.494
  675TIP3   OH2 1967   0.599   3.863   1.818
  675TIP3    H1 1968   0.554   3.779   1.823
  675TIP3    H2 1969   0.677   3.852   1.873
  676TIP3   OH2 1970   0.629   3.545   2.389
  676TIP3    H1 1971   0.562   3.554   2.456
  676TIP3    H2 1972   0.678   3.627   2.393
  677TIP3   OH2 1973   0.606   3.336   1.564
  677TIP3    H1 1974   0.692   3.301   1.586
  677TIP3    H2 1975   0.623   3.424   1.530
  678TIP3   OH2 1976   0.461   3.627   1.844
  678TIP3    H1 1977   0.392   3.675   1.891
  678TIP3    H2 1978   0.416   3.582   1.773
  679TIP3   OH2 1979   0.678   3.200   2.193
  679TIP3    H1 1980   0.744   3.133   2.176
  679TIP3    H2 1981   0.683   3.258   2.117
  680TIP3   OH2 1982   0.852   2.988   2.195
  680TIP3    H1 1983   0.780   2.946   2.242
  680TIP3    H2 1984   0.931   2.951   2.235
  681TIP3   OH2 1985   0.659   2.804   1.992
  681TIP3    H1 1986   0.585   2.840   2.042
  681TIP3    H2 1987   0.684   2.875   1.932
  682TIP3   OH2 1988   1.086   2.413   2.500
  682TIP3    H1 1989   1.147   2.352   2.459
  682TIP3    H2 1990   1.039   2.453   2.427
  683TIP3   OH2 1991   0.918   2.530   2.317
  683TIP3    H1 1992   0.856   2.570   2.378
  683TIP3    H2 1993   0.897   2.569   2.233
  684TIP3   OH2 1994   8.393   3.764   2.213
  684TIP3    H1 1995   8.420   3.767   2.305
  684TIP3    H2 1996   8.461   3.812   2.166
  685TIP3   OH2 1997   0.076   3.941   2.109
  685TIP3    H1 1998   0.149   3.895   2.067
  685TIP3    H2 1999   0.118   4.002   2.169
  686TIP3   OH2 2000  -0.006   3.813   1.794
  686TIP3    H1 2001  -0.059   3.880   1.836
  686TIP3    H2 2002   0.069   3.860   1.757
  687TIP3   OH2 2003   0.235   3.935   1.717
  687TIP3    H1 2004   0.221   4.025   1.687
  687TIP3    H2 2005   0.283   3.893   1.646
  688TIP3   OH2 2006   0.591   2.327   2.652
  688TIP3    H1 2007   0.597   2.274   2.732
  688TIP3    H2 2008   0.668   2.300   2.601
  689TIP3   OH2 2009   0.498   3.826   2.131
  689TIP3    H1 2010   0.422   3.800   2.079
  689TIP3    H2 2011   0.489   3.920   2.143
  690TIP3   OH2 2012   1.806   3.320   1.003
  690TIP3    H1 2013   1.854   3.403   0.998
  690TIP3    H2 2014   1.715   3.344   0.985
  691TIP3   OH2 2015   1.836   3.238   1.330
  691TIP3    H1 2016   1.874   3.205   1.411
  691TIP3    H2 2017   1.816   3.160   1.279
  692TIP3   OH2 2018   1.066   3.085   1.706
  692TIP3    H1 2019   1.089   3.014   1.766
  692TIP3    H2 2020   1.148   3.109   1.663
  693TIP3   OH2 2021   1.987   3.532   0.993
  693TIP3    H1 2022   2.022   3.465   1.051
  693TIP3    H2 2023   2.031   3.613   1.021
  694TIP3   OH2 2024   1.001   3.534   1.383
  694TIP3    H1 2025   0.982   3.441   1.374
  694TIP3    H2 2026   1.096   3.538   1.395
  695TIP3   OH2 2027   1.688   3.938   0.997
  695TIP3    H1 2028   1.746   3.876   0.953
  695TIP3    H2 2029   1.703   3.925   1.090
  696TIP3   OH2 2030   1.554   3.562   1.347
  696TIP3    H1 2031   1.555   3.531   1.256
  696TIP3    H2 2032   1.645   3.560   1.375
  697TIP3   OH2 2033   2.632   2.757   1.339
  697TIP3    H1 2034   2.644   2.839   1.387
  697TIP3    H2 2035   2.662   2.776   1.251
  698TIP3   OH2 2036   2.038   3.001   1.300
  698TIP3    H1 2037   2.097   2.944   1.349
  698TIP3    H2 2038   1.986   2.942   1.246
  699TIP3   OH2 2039   2.092   2.618   0.981
  699TIP3    H1 2040   2.162   2.572   1.026
  699TIP3    H2 2041   2.136   2.685   0.929
  700TIP3   OH2 2042   1.394   2.942   1.198
  700TIP3    H1 2043   1.460   2.911   1.260
  700TIP3    H2 2044   1.401   2.881   1.124
  701TIP3   OH2 2045   2.673   2.973   1.500
  701TIP3    H1 2046   2.584   3.009   1.498
  701TIP3    H2 2047   2.706   2.996   1.587
  702TIP3   OH2 2048   1.329   2.557   1.803
  702TIP3    H1 2049   1.309   2.465   1.786
  702TIP3    H2 2050   1.269   2.582   1.874
  703TIP3   OH2 2051   1.743   3.488   0.729
  703TIP3    H1 2052   1.676   3.448   0.675
  703TIP3    H2 2053   1.703   3.493   0.816
  704TIP3   OH2 2054   1.430   3.381   1.547
  704TIP3    H1 2055   1.362   3.443   1.573
  704TIP3    H2 2056   1.474   3.422   1.473
  705TIP3   OH2 2057   2.295   2.678   1.203
  705TIP3    H1 2058   2.227   2.627   1.245
  705TIP3    H2 2059   2.310   2.752   1.262
  706TIP3   OH2 2060   1.146   2.635   1.604
  706TIP3    H1 2061   1.223   2.616   1.658
  706TIP3    H2 2062   1.122   2.551   1.565
  707TIP3   OH2 2063   1.241   3.558   1.626
  707TIP3    H1 2064   1.232   3.647   1.592
  707TIP3    H2 2065   1.165   3.547   1.683
  708TIP3   OH2 2066   2.075   3.768   1.110
  708TIP3    H1 2067   1.986   3.759   1.146
  708TIP3    H2 2068   2.074   3.853   1.066
  709TIP3   OH2 2069   2.449   2.642   1.514
  709TIP3    H1 2070   2.414   2.576   1.455
  709TIP3    H2 2071   2.505   2.697   1.458
  710TIP3   OH2 2072   1.847   3.767   0.857
  710TIP3    H1 2073   1.893   3.684   0.844
  710TIP3    H2 2074   1.898   3.830   0.806
  711TIP3   OH2 2075   1.998   3.573   0.704
  711TIP3    H1 2076   1.913   3.531   0.709
  711TIP3    H2 2077   2.050   3.532   0.773
  712TIP3   OH2 2078   2.312   3.660   1.467
  712TIP3    H1 2079   2.299   3.584   1.411
  712TIP3    H2 2080   2.296   3.735   1.410
  713TIP3   OH2 2081   2.499   3.311   1.320
  713TIP3    H1 2082   2.416   3.359   1.323
  713TIP3    H2 2083   2.526   3.316   1.228
  714TIP3   OH2 2084   1.933   2.995   0.688
  714TIP3    H1 2085   1.877   3.070   0.670
  714TIP3    H2 2086   2.009   3.031   0.733
  715TIP3   OH2 2087   2.195   3.177   1.633
  715TIP3    H1 2088   2.192   3.259   1.682
  715TIP3    H2 2089   2.108   3.169   1.594
  716TIP3   OH2 2090   1.283   3.605   1.321
  716TIP3    H1 2091   1.262   3.517   1.291
  716TIP3    H2 2092   1.377   3.602   1.341
  717TIP3   OH2 2093   1.278   3.147   1.536
  717TIP3    H1 2094   1.341   3.098   1.483
  717TIP3    H2 2095   1.318   3.233   1.549
  718TIP3   OH2 2096   1.828   3.744   1.227
  718TIP3    H1 2097   1.821   3.826   1.276
  718TIP3    H2 2098   1.830   3.676   1.294
  719TIP3   OH2 2099   1.456   3.646   1.784
  719TIP3    H1 2100   1.400   3.706   1.833
  719TIP3    H2 2101   1.396   3.596   1.729
  720TIP3   OH2 2102   1.222   3.204   1.952
  720TIP3    H1 2103   1.222   3.299   1.964
  720TIP3    H2 2104   1.130   3.181   1.936
  721TIP3   OH2 2105   1.597   3.737   0.721
  721TIP3    H1 2106   1.671   3.714   0.777
  721TIP3    H2 2107   1.525   3.683   0.753
  722TIP3   OH2 2108   1.250   3.807   1.872
  722TIP3    H1 2109   1.223   3.820   1.781
  722TIP3    H2 2110   1.168   3.792   1.920
  723TIP3   OH2 2111   2.079   3.593   0.184
  723TIP3    H1 2112   2.143   3.659   0.157
  723TIP3    H2 2113   2.049   3.553   0.103
  724TIP3   OH2 2114   0.853   3.360   1.848
  724TIP3    H1 2115   0.836   3.326   1.760
  724TIP3    H2 2116   0.892   3.286   1.896
  725TIP3   OH2 2117   0.692   3.580   1.467
  725TIP3    H1 2118   0.786   3.598   1.477
  725TIP3    H2 2119   0.649   3.659   1.499
  726TIP3   OH2 2120   2.544   4.011   1.521
  726TIP3    H1 2121   2.551   3.916   1.533
  726TIP3    H2 2122   2.464   4.036   1.567
  727TIP3   OH2 2123   1.649   3.785   1.645
  727TIP3    H1 2124   1.639   3.876   1.673
  727TIP3    H2 2125   1.581   3.738   1.693
  728TIP3   OH2 2126   1.290   3.872   0.614
  728TIP3    H1 2127   1.347   3.912   0.548
  728TIP3    H2 2128   1.322   3.907   0.697
  729TIP3   OH2 2129   0.842   3.760   1.008
  729TIP3    H1 2130   0.901   3.758   1.084
  729TIP3    H2 2131   0.759   3.727   1.041
  730TIP3   OH2 2132   1.549   3.669   0.275
  730TIP3    H1 2133   1.616   3.699   0.214
  730TIP3    H2 2134   1.595   3.656   0.358
  731TIP3   OH2 2135   1.726   3.944   0.591
  731TIP3    H1 2136   1.679   3.866   0.620
  731TIP3    H2 2137   1.814   3.933   0.628
  732TIP3   OH2 2138   2.441   3.127   1.803
  732TIP3    H1 2139   2.362   3.125   1.749
  732TIP3    H2 2140   2.463   3.035   1.817
  733TIP3   OH2 2141   1.033   3.564   1.803
  733TIP3    H1 2142   1.087   3.556   1.882
  733TIP3    H2 2143   0.964   3.499   1.815
  734TIP3   OH2 2144   1.994   2.439   1.839
  734TIP3    H1 2145   2.066   2.421   1.899
  734TIP3    H2 2146   1.916   2.409   1.886
  735TIP3   OH2 2147   2.198   2.913   1.706
  735TIP3    H1 2148   2.158   2.898   1.791
  735TIP3    H2 2149   2.181   3.005   1.686
  736TIP3   OH2 2150   1.373   2.929   1.702
  736TIP3    H1 2151   1.303   2.907   1.764
  736TIP3    H2 2152   1.330   2.983   1.636
  737TIP3   OH2 2153   1.790   2.864   0.875
  737TIP3    H1 2154   1.708   2.892   0.832
  737TIP3    H2 2155   1.859   2.899   0.819
  738TIP3   OH2 2156   1.921   3.118   1.955
  738TIP3    H1 2157   1.895   3.050   2.016
  738TIP3    H2 2158   2.014   3.131   1.971
  739TIP3   OH2 2159   1.959   2.819   1.107
  739TIP3    H1 2160   1.924   2.878   1.040
  739TIP3    H2 2161   2.002   2.750   1.056
  740TIP3   OH2 2162   1.170   2.892   1.883
  740TIP3    H1 2163   1.189   2.944   1.961
  740TIP3    H2 2164   1.164   2.802   1.916
  741TIP3   OH2 2165   1.940   3.102   1.547
  741TIP3    H1 2166   1.956   3.039   1.477
  741TIP3    H2 2167   1.892   3.053   1.613
  742TIP3   OH2 2168   2.051   2.608   1.491
  742TIP3    H1 2169   2.026   2.651   1.573
  742TIP3    H2 2170   2.026   2.516   1.503
  743TIP3   OH2 2171   2.255   4.351   1.614
  743TIP3    H1 2172   2.254   4.368   1.520
  743TIP3    H2 2173   2.334   4.396   1.645
  744TIP3   OH2 2174   1.195   3.472   2.029
  744TIP3    H1 2175   1.276   3.491   2.075
  744TIP3    H2 2176   1.127   3.476   2.096
  745TIP3   OH2 2177   1.608   2.826   1.338
  745TIP3    H1 2178   1.674   2.883   1.298
  745TIP3    H2 2179   1.651   2.792   1.417
  746TIP3   OH2 2180   1.616   2.836   1.637
  746TIP3    H1 2181   1.530   2.869   1.665
  746TIP3    H2 2182   1.679   2.889   1.683
  747TIP3   OH2 2183   2.274   3.461   1.289
  747TIP3    H1 2184   2.311   3.508   1.214
  747TIP3    H2 2185   2.191   3.426   1.256
  748TIP3   OH2 2186   1.775   3.509   1.689
  748TIP3    H1 2187   1.831   3.505   1.766
  748TIP3    H2 2188   1.734   3.595   1.694
  749TIP3   OH2 2189   1.034   3.201   1.413
  749TIP3    H1 2190   1.042   3.139   1.341
  749TIP3    H2 2191   1.099   3.171   1.477
  750TIP3   OH2 2192   0.940   3.136   1.975
  750TIP3    H1 2193   0.940   3.101   2.064
  750TIP3    H2 2194   0.881   3.078   1.927
  751TIP3   OH2 2195   1.692   3.279   1.984
  751TIP3    H1 2196   1.623   3.216   1.965
  751TIP3    H2 2197   1.773   3.233   1.961
  752TIP3   OH2 2198   1.915   3.816   1.566
  752TIP3    H1 2199   1.822   3.797   1.573
  752TIP3    H2 2200   1.940   3.849   1.652
  753TIP3   OH2 2201   2.297   2.846   0.449
  753TIP3    H1 2202   2.234   2.778   0.427
  753TIP3    H2 2203   2.272   2.921   0.394
  754TIP3   OH2 2204   2.563   3.732   1.544
  754TIP3    H1 2205   2.468   3.718   1.544
  754TIP3    H2 2206   2.592   3.699   1.460
  755TIP3   OH2 2207   2.046   3.675   0.453
  755TIP3    H1 2208   2.037   3.628   0.536
  755TIP3    H2 2209   2.053   3.606   0.387
  756TIP3   OH2 2210   2.054   3.343   1.181
  756TIP3    H1 2211   1.974   3.306   1.219
  756TIP3    H2 2212   2.101   3.267   1.147
  757TIP3   OH2 2213   1.158   3.544   1.034
  757TIP3    H1 2214   1.137   3.634   1.010
  757TIP3    H2 2215   1.073   3.500   1.037
  758TIP3   OH2 2216   1.275   3.322   0.834
  758TIP3    H1 2217   1.363   3.359   0.845
  758TIP3    H2 2218   1.256   3.279   0.917
  759TIP3   OH2 2219   1.460   3.878   1.446
  759TIP3    H1 2220   1.502   3.947   1.395
  759TIP3    H2 2221   1.532   3.830   1.485
  760TIP3   OH2 2222   1.106   3.808   0.920
  760TIP3    H1 2223   1.020   3.827   0.956
  760TIP3    H2 2224   1.141   3.894   0.896
  761TIP3   OH2 2225   1.820   3.528   1.411
  761TIP3    H1 2226   1.819   3.519   1.506
  761TIP3    H2 2227   1.859   3.447   1.379
  762TIP3   OH2 2228   1.803   3.444   0.218
  762TIP3    H1 2229   1.879   3.430   0.273
  762TIP3    H2 2230   1.729   3.410   0.269
  763TIP3   OH2 2231   2.068   4.023   1.454
  763TIP3    H1 2232   2.001   3.958   1.473
  763TIP3    H2 2233   2.031   4.076   1.383
  764TIP3   OH2 2234   2.131   3.876   0.148
  764TIP3    H1 2235   2.159   3.955   0.195
  764TIP3    H2 2236   2.054   3.845   0.196
  765TIP3   OH2 2237   1.158   2.632   2.004
  765TIP3    H1 2238   1.064   2.638   2.022
  765TIP3    H2 2239   1.193   2.583   2.078
  766TIP3   OH2 2240   1.993   3.391   0.406
  766TIP3    H1 2241   1.954   3.353   0.485
  766TIP3    H2 2242   2.087   3.393   0.424
  767TIP3   OH2 2243   0.888   3.771   1.610
  767TIP3    H1 2244   0.938   3.711   1.665
  767TIP3    H2 2245   0.907   3.858   1.646
  768TIP3   OH2 2246   1.971   2.693   1.741
  768TIP3    H1 2247   2.026   2.741   1.802
  768TIP3    H2 2248   1.972   2.603   1.773
  769TIP3   OH2 2249   1.258   3.605   0.442
  769TIP3    H1 2250   1.332   3.573   0.493
  769TIP3    H2 2251   1.284   3.693   0.413
  770TIP3   OH2 2252   1.833   2.950   1.755
  770TIP3    H1 2253   1.862   3.009   1.824
  770TIP3    H2 2254   1.883   2.869   1.771
  771TIP3   OH2 2255   2.460   2.845   1.705
  771TIP3    H1 2256   2.367   2.864   1.716
  771TIP3    H2 2257   2.463   2.774   1.641
  772TIP3   OH2 2258   2.203   3.117   1.119
  772TIP3    H1 2259   2.136   3.086   1.180
  772TIP3    H2 2260   2.284   3.077   1.151
  773TIP3   OH2 2261   2.099   4.030   1.028
  773TIP3    H1 2262   2.060   4.083   0.959
  773TIP3    H2 2263   2.193   4.038   1.015
  774TIP3   OH2 2264   0.887   4.056   2.023
  774TIP3    H1 2265   0.971   4.060   2.069
  774TIP3    H2 2266   0.865   3.963   2.021
  775TIP3   OH2 2267   1.354   3.973   2.065
  775TIP3    H1 2268   1.445   3.946   2.077
  775TIP3    H2 2269   1.321   3.918   1.994
  776TIP3   OH2 2270   1.975   3.909   1.816
  776TIP3    H1 2271   1.986   3.839   1.881
  776TIP3    H2 2272   2.049   3.968   1.832
  777TIP3   OH2 2273   1.767   3.698   0.117
  777TIP3    H1 2274   1.788   3.610   0.146
  777TIP3    H2 2275   1.785   3.697   0.023
  778TIP3   OH2 2276   0.995   3.455   2.221
  778TIP3    H1 2277   1.009   3.361   2.232
  778TIP3    H2 2278   0.907   3.461   2.182
  779TIP3   OH2 2279   1.612   3.548   1.992
  779TIP3    H1 2280   1.568   3.564   1.908
  779TIP3    H2 2281   1.651   3.462   1.982
  780TIP3   OH2 2282   2.086   3.592   1.611
  780TIP3    H1 2283   2.166   3.621   1.567
  780TIP3    H2 2284   2.020   3.657   1.588
  781TIP3   OH2 2285   1.107   3.193   2.226
  781TIP3    H1 2286   1.180   3.189   2.165
  781TIP3    H2 2287   1.147   3.218   2.310
  782TIP3   OH2 2288   1.485   3.108   1.913
  782TIP3    H1 2289   1.395   3.138   1.925
  782TIP3    H2 2290   1.506   3.130   1.822
  783TIP3   OH2 2291   1.968   3.461   1.957
  783TIP3    H1 2292   2.043   3.427   1.908
  783TIP3    H2 2293   1.965   3.408   2.036
  784TIP3   OH2 2294   1.579   2.862   2.006
  784TIP3    H1 2295   1.579   2.786   1.947
  784TIP3    H2 2296   1.547   2.934   1.953
  785TIP3   OH2 2297   1.588   2.640   1.834
  785TIP3    H1 2298   1.612   2.679   1.750
  785TIP3    H2 2299   1.497   2.612   1.822
  786TIP3   OH2 2300   1.604   3.218   1.683
  786TIP3    H1 2301   1.684   3.267   1.701
  786TIP3    H2 2302   1.545   3.282   1.643
  787TIP3   OH2 2303   2.182   3.139   2.048
  787TIP3    H1 2304   2.210   3.075   2.114
  787TIP3    H2 2305   2.264   3.178   2.017
  788TIP3   OH2 2306   2.211   3.416   1.777
  788TIP3    H1 2307   2.158   3.478   1.727
  788TIP3    H2 2308   2.300   3.429   1.745
  789TIP3   OH2 2309   1.458   2.949   2.240
  789TIP3    H1 2310   1.391   2.883   2.260
  789TIP3    H2 2311   1.489   2.925   2.153
  790TIP3   OH2 2312   1.714   2.396   1.874
  790TIP3    H1 2313   1.681   2.485   1.861
  790TIP3    H2 2314   1.639   2.340   1.857
  791TIP3   OH2 2315   1.843   2.897   2.093
  791TIP3    H1 2316   1.838   2.883   2.188
  791TIP3    H2 2317   1.755   2.878   2.062
  792TIP3   OH2 2318   2.082   2.839   1.945
  792TIP3    H1 2319   2.012   2.851   2.010
  792TIP3    H2 2320   2.159   2.817   1.997
  793TIP3   OH2 2321   2.315   2.782   2.092
  793TIP3    H1 2322   2.336   2.696   2.129
  793TIP3    H2 2323   2.303   2.838   2.168
  794TIP3   OH2 2324   1.299   2.723   2.304
  794TIP3    H1 2325   1.306   2.636   2.265
  794TIP3    H2 2326   1.341   2.715   2.389
  795TIP3   OH2 2327   1.757   2.409   2.148
  795TIP3    H1 2328   1.813   2.332   2.161
  795TIP3    H2 2329   1.737   2.410   2.055
  796TIP3   OH2 2330   1.868   2.618   2.289
  796TIP3    H1 2331   1.836   2.548   2.232
  796TIP3    H2 2332   1.796   2.681   2.292
  797TIP3   OH2 2333   0.663   3.690   1.204
  797TIP3    H1 2334   0.656   3.619   1.268
  797TIP3    H2 2335   0.684   3.767   1.256
  798TIP3   OH2 2336   2.371   4.072   1.020
  798TIP3    H1 2337   2.389   4.097   1.111
  798TIP3    H2 2338   2.423   4.133   0.968
  799TIP3   OH2 2339   2.390   4.104   1.298
  799TIP3    H1 2340   2.341   4.022   1.295
  799TIP3    H2 2341   2.458   4.088   1.363
  800TIP3   OH2 2342   2.435   3.804   1.863
  800TIP3    H1 2343   2.364   3.810   1.927
  800TIP3    H2 2344   2.482   3.887   1.870
  801TIP3   OH2 2345   2.251   3.420   0.516
  801TIP3    H1 2346   2.309   3.479   0.468
  801TIP3    H2 2347   2.292   3.334   0.507
  802TIP3   OH2 2348   2.403   3.194   0.737
  802TIP3    H1 2349   2.396   3.108   0.781
  802TIP3    H2 2350   2.483   3.233   0.774
  803TIP3   OH2 2351   2.439   3.585   1.110
  803TIP3    H1 2352   2.491   3.516   1.069
  803TIP3    H2 2353   2.441   3.658   1.049
  804TIP3   OH2 2354   2.245   3.869   1.303
  804TIP3    H1 2355   2.177   3.913   1.355
  804TIP3    H2 2356   2.198   3.827   1.232
  805TIP3   OH2 2357   2.287   3.040   0.256
  805TIP3    H1 2358   2.198   3.014   0.232
  805TIP3    H2 2359   2.283   3.136   0.261
  806TIP3   OH2 2360   2.152   3.067   0.843
  806TIP3    H1 2361   2.176   2.975   0.832
  806TIP3    H2 2362   2.192   3.092   0.926
  807TIP3   OH2 2363   0.849   3.222   1.610
  807TIP3    H1 2364   0.889   3.228   1.524
  807TIP3    H2 2365   0.907   3.165   1.660
  808TIP3   OH2 2366   2.467   3.454   1.676
  808TIP3    H1 2367   2.534   3.387   1.663
  808TIP3    H2 2368   2.484   3.519   1.607
  809TIP3   OH2 2369   2.649   3.248   1.671
  809TIP3    H1 2370   2.575   3.206   1.716
  809TIP3    H2 2371   2.724   3.193   1.693
  810TIP3   OH2 2372   2.151   2.814   0.721
  810TIP3    H1 2373   2.162   2.719   0.713
  810TIP3    H2 2374   2.075   2.834   0.665
  811TIP3   OH2 2375   2.392   2.959   1.237
  811TIP3    H1 2376   2.477   2.985   1.203
  811TIP3    H2 2377   2.394   2.981   1.330
  812TIP3   OH2 2378   2.420   3.094   1.476
  812TIP3    H1 2379   2.341   3.122   1.522
  812TIP3    H2 2380   2.448   3.172   1.427
  813TIP3   OH2 2381   1.042   2.814   2.290
  813TIP3    H1 2382   1.136   2.794   2.289
  813TIP3    H2 2383   1.007   2.759   2.360
  814TIP3   OH2 2384   2.870   2.634   1.999
  814TIP3    H1 2385   2.933   2.605   1.932
  814TIP3    H2 2386   2.853   2.726   1.978
  815TIP3   OH2 2387   2.170   2.542   0.711
  815TIP3    H1 2388   2.241   2.543   0.775
  815TIP3    H2 2389   2.172   2.453   0.675
  816TIP3   OH2 2390   2.732   2.805   1.806
  816TIP3    H1 2391   2.655   2.838   1.852
  816TIP3    H2 2392   2.701   2.728   1.759
  817TIP3   OH2 2393   1.973   3.954   0.707
  817TIP3    H1 2394   2.042   3.944   0.642
  817TIP3    H2 2395   1.989   4.040   0.747
  818TIP3   OH2 2396   1.031   3.777   2.042
  818TIP3    H1 2397   0.936   3.762   2.035
  818TIP3    H2 2398   1.048   3.771   2.136
  819TIP3   OH2 2399   1.231   3.833   1.592
  819TIP3    H1 2400   1.180   3.906   1.558
  819TIP3    H2 2401   1.316   3.841   1.549
  820TIP3   OH2 2402   1.634   4.054   1.723
  820TIP3    H1 2403   1.669   4.046   1.811
  820TIP3    H2 2404   1.697   4.108   1.676
  821TIP3   OH2 2405   1.829   4.209   1.601
  821TIP3    H1 2406   1.896   4.154   1.561
  821TIP3    H2 2407   1.878   4.270   1.656
  822TIP3   OH2 2408   2.648   2.556   1.696
  822TIP3    H1 2409   2.564   2.559   1.650
  822TIP3    H2 2410   2.672   2.463   1.695
  823TIP3   OH2 2411   0.894   4.064   1.636
  823TIP3    H1 2412   0.802   4.078   1.612
  823TIP3    H2 2413   0.912   4.132   1.701
  824TIP3   OH2 2414   1.123   4.060   1.481
  824TIP3    H1 2415   1.040   4.065   1.528
  824TIP3    H2 2416   1.101   4.083   1.391
  825TIP3   OH2 2417   1.543   4.082   1.273
  825TIP3    H1 2418   1.469   4.097   1.214
  825TIP3    H2 2419   1.554   4.166   1.319
  826TIP3   OH2 2420   1.805   4.008   1.306
  826TIP3    H1 2421   1.713   4.036   1.300
  826TIP3    H2 2422   1.855   4.083   1.276
  827TIP3   OH2 2423   2.004   4.189   1.231
  827TIP3    H1 2424   2.002   4.276   1.192
  827TIP3    H2 2425   2.037   4.132   1.162
  828TIP3   OH2 2426   0.804   3.877   1.363
  828TIP3    H1 2427   0.818   3.850   1.453
  828TIP3    H2 2428   0.878   3.839   1.315
  829TIP3   OH2 2429   1.006   3.761   1.224
  829TIP3    H1 2430   1.011   3.680   1.275
  829TIP3    H2 2431   1.094   3.799   1.230
  830TIP3   OH2 2432   1.269   3.862   1.242
  830TIP3    H1 2433   1.276   3.767   1.243
  830TIP3    H2 2434   1.318   3.890   1.319
  831TIP3   OH2 2435   1.784   2.371   1.313
  831TIP3    H1 2436   1.801   2.465   1.314
  831TIP3    H2 2437   1.810   2.344   1.225
  832TIP3   OH2 2438   2.408   2.446   1.333
  832TIP3    H1 2439   2.465   2.471   1.261
  832TIP3    H2 2440   2.320   2.450   1.297
  833TIP3   OH2 2441   2.598   2.477   1.126
  833TIP3    H1 2442   2.673   2.426   1.095
  833TIP3    H2 2443   2.600   2.556   1.072
  834TIP3   OH2 2444   2.128   2.453   1.244
  834TIP3    H1 2445   2.046   2.444   1.196
  834TIP3    H2 2446   2.125   2.383   1.310
  835TIP3   OH2 2447   1.329   3.830   0.304
  835TIP3    H1 2448   1.413   3.787   0.293
  835TIP3    H2 2449   1.315   3.878   0.223
  836TIP3   OH2 2450   2.141   3.923   0.492
  836TIP3    H1 2451   2.119   3.831   0.478
  836TIP3    H2 2452   2.101   3.969   0.417
  837TIP3   OH2 2453   1.298   2.456   2.197
  837TIP3    H1 2454   1.266   2.388   2.258
  837TIP3    H2 2455   1.391   2.465   2.218
  838TIP3   OH2 2456   1.544   2.459   2.319
  838TIP3    H1 2457   1.621   2.444   2.265
  838TIP3    H2 2458   1.546   2.388   2.384
  839TIP3   OH2 2459   2.400   2.507   2.148
  839TIP3    H1 2460   2.446   2.452   2.212
  839TIP3    H2 2461   2.467   2.533   2.086
  840TIP3   OH2 2462   2.293   4.077   1.615
  840TIP3    H1 2463   2.217   4.047   1.565
  840TIP3    H2 2464   2.278   4.171   1.626
  841TIP3   OH2 2465   3.567   3.455   0.354
  841TIP3    H1 2466   3.543   3.544   0.328
  841TIP3    H2 2467   3.498   3.400   0.316
  842TIP3   OH2 2468   3.577   3.458   0.782
  842TIP3    H1 2469   3.627   3.441   0.862
  842TIP3    H2 2470   3.534   3.375   0.762
  843TIP3   OH2 2471   2.865   3.313   1.131
  843TIP3    H1 2472   2.904   3.266   1.205
  843TIP3    H2 2473   2.940   3.345   1.081
  844TIP3   OH2 2474   3.838   3.769   0.452
  844TIP3    H1 2475   3.825   3.702   0.519
  844TIP3    H2 2476   3.859   3.848   0.502
  845TIP3   OH2 2477   2.861   3.748   0.817
  845TIP3    H1 2478   2.842   3.655   0.827
  845TIP3    H2 2479   2.956   3.753   0.806
  846TIP3   OH2 2480   2.617   3.005   0.635
  846TIP3    H1 2481   2.636   3.098   0.649
  846TIP3    H2 2482   2.555   2.982   0.704
  847TIP3   OH2 2483   2.653   3.271   0.813
  847TIP3    H1 2484   2.706   3.203   0.854
  847TIP3    H2 2485   2.713   3.344   0.799
  848TIP3   OH2 2486   3.483   4.206   0.462
  848TIP3    H1 2487   3.523   4.139   0.406
  848TIP3    H2 2488   3.470   4.162   0.546
  849TIP3   OH2 2489   3.374   3.679   0.784
  849TIP3    H1 2490   3.416   3.599   0.753
  849TIP3    H2 2491   3.446   3.734   0.816
  850TIP3   OH2 2492   4.407   2.998   0.805
  850TIP3    H1 2493   4.424   3.081   0.849
  850TIP3    H2 2494   4.426   3.014   0.713
  851TIP3   OH2 2495   3.791   3.166   0.826
  851TIP3    H1 2496   3.825   3.080   0.852
  851TIP3    H2 2497   3.749   3.151   0.742
  852TIP3   OH2 2498   3.186   2.872   0.824
  852TIP3    H1 2499   3.164   2.949   0.771
  852TIP3    H2 2500   3.139   2.800   0.783
  853TIP3   OH2 2501   3.837   2.937   0.417
  853TIP3    H1 2502   3.900   2.924   0.489
  853TIP3    H2 2503   3.891   2.970   0.345
  854TIP3   OH2 2504   2.789   3.067   0.927
  854TIP3    H1 2505   2.867   3.055   0.981
  854TIP3    H2 2506   2.802   3.008   0.853
  855TIP3   OH2 2507   3.208   3.279   0.741
  855TIP3    H1 2508   3.302   3.262   0.747
  855TIP3    H2 2509   3.170   3.196   0.712
  856TIP3   OH2 2510   4.464   3.219   0.967
  856TIP3    H1 2511   4.374   3.252   0.963
  856TIP3    H2 2512   4.498   3.254   1.049
  857TIP3   OH2 2513   3.115   2.819   1.249
  857TIP3    H1 2514   3.067   2.858   1.176
  857TIP3    H2 2515   3.059   2.834   1.325
  858TIP3   OH2 2516   3.489   3.683   0.217
  858TIP3    H1 2517   3.451   3.657   0.133
  858TIP3    H2 2518   3.433   3.754   0.248
  859TIP3   OH2 2519   3.216   3.612   1.002
  859TIP3    H1 2520   3.161   3.683   1.035
  859TIP3    H2 2521   3.262   3.649   0.927
  860TIP3   OH2 2522   3.998   2.944   0.639
  860TIP3    H1 2523   3.957   2.921   0.722
  860TIP3    H2 2524   4.052   3.020   0.659
  861TIP3   OH2 2525   3.019   2.953   1.031
  861TIP3    H1 2526   3.074   3.027   1.060
  861TIP3    H2 2527   3.069   2.913   0.960
  862TIP3   OH2 2528   3.053   3.808   1.104
  862TIP3    H1 2529   3.038   3.898   1.075
  862TIP3    H2 2530   2.976   3.786   1.156
  863TIP3   OH2 2531   2.431   3.557   0.350
  863TIP3    H1 2532   2.417   3.599   0.266
  863TIP3    H2 2533   2.471   3.625   0.405
  864TIP3   OH2 2534   3.876   4.021   0.586
  864TIP3    H1 2535   3.790   4.011   0.628
  864TIP3    H2 2536   3.872   4.106   0.543
  865TIP3   OH2 2537   4.204   2.888   0.972
  865TIP3    H1 2538   4.118   2.907   0.935
  865TIP3    H2 2539   4.266   2.916   0.905
  866TIP3   OH2 2540   3.486   2.542   0.969
  866TIP3    H1 2541   3.476   2.450   0.996
  866TIP3    H2 2542   3.417   2.588   1.017
  867TIP3   OH2 2543   3.597   4.056   0.260
  867TIP3    H1 2544   3.644   3.973   0.249
  867TIP3    H2 2545   3.660   4.123   0.234
  868TIP3   OH2 2546   3.731   3.824   0.202
  868TIP3    H1 2547   3.658   3.761   0.198
  868TIP3    H2 2548   3.779   3.799   0.281
  869TIP3   OH2 2549   4.105   3.899   0.939
  869TIP3    H1 2550   4.087   3.823   0.883
  869TIP3    H2 2551   4.090   3.975   0.883
  870TIP3   OH2 2552   3.395   3.292   0.195
  870TIP3    H1 2553   3.325   3.356   0.188
  870TIP3    H2 2554   3.388   3.240   0.115
  871TIP3   OH2 2555   6.227   7.131   6.903
  871TIP3    H1 2556   6.311   7.174   6.892
  871TIP3    H2 2557   6.242   7.041   6.874
  872TIP3   OH2 2558   4.287   3.558   0.807
  872TIP3    H1 2559   4.203   3.602   0.807
  872TIP3    H2 2560   4.322   3.571   0.719
  873TIP3   OH2 2561   3.758   3.386   0.172
  873TIP3    H1 2562   3.698   3.410   0.243
  873TIP3    H2 2563   3.840   3.364   0.215
  874TIP3   OH2 2564   3.985   3.421   1.116
  874TIP3    H1 2565   3.982   3.504   1.162
  874TIP3    H2 2566   3.903   3.417   1.067
  875TIP3   OH2 2567   2.998   3.395   0.592
  875TIP3    H1 2568   2.947   3.324   0.551
  875TIP3    H2 2569   3.075   3.351   0.629
  876TIP3   OH2 2570   3.122   3.796   0.716
  876TIP3    H1 2571   3.095   3.780   0.625
  876TIP3    H2 2572   3.208   3.756   0.724
  877TIP3   OH2 2573   3.083   3.378   0.964
  877TIP3    H1 2574   3.126   3.344   0.885
  877TIP3    H2 2575   3.129   3.460   0.983
  878TIP3   OH2 2576   3.645   4.003   0.727
  878TIP3    H1 2577   3.627   4.083   0.776
  878TIP3    H2 2578   3.626   3.933   0.789
  879TIP3   OH2 2579   3.253   3.902   1.272
  879TIP3    H1 2580   3.193   3.959   1.320
  879TIP3    H2 2581   3.197   3.851   1.215
  880TIP3   OH2 2582   6.478   7.244   6.905
  880TIP3    H1 2583   6.510   7.309   6.967
  880TIP3    H2 2584   6.501   7.280   6.819
  881TIP3   OH2 2585   3.008   3.453   1.407
  881TIP3    H1 2586   3.013   3.545   1.432
  881TIP3    H2 2587   2.915   3.432   1.407
  882TIP3   OH2 2588   3.347   3.914   0.268
  882TIP3    H1 2589   3.417   3.978   0.275
  882TIP3    H2 2590   3.284   3.953   0.209
  883TIP3   OH2 2591   3.043   4.060   1.359
  883TIP3    H1 2592   3.016   4.071   1.268
  883TIP3    H2 2593   2.962   4.045   1.407
  884TIP3   OH2 2594   4.093   2.494   0.043
  884TIP3    H1 2595   4.019   2.518   0.100
  884TIP3    H2 2596   4.123   2.577   0.007
  885TIP3   OH2 2597   2.837   3.208   0.473
  885TIP3    H1 2598   2.782   3.253   0.409
  885TIP3    H2 2599   2.844   3.119   0.438
  886TIP3   OH2 2600   2.637   3.616   1.309
  886TIP3    H1 2601   2.568   3.600   1.245
  886TIP3    H2 2602   2.671   3.530   1.332
  887TIP3   OH2 2603   2.483   3.818   0.964
  887TIP3    H1 2604   2.574   3.841   0.984
  887TIP3    H2 2605   2.432   3.894   0.994
  888TIP3   OH2 2606   4.338   4.259   1.007
  888TIP3    H1 2607   4.342   4.165   1.023
  888TIP3    H2 2608   4.259   4.288   1.052
  889TIP3   OH2 2609   3.441   4.047   1.134
  889TIP3    H1 2610   3.434   4.137   1.164
  889TIP3    H2 2611   3.374   4.000   1.184
  890TIP3   OH2 2612   3.210   4.154   0.084
  890TIP3    H1 2613   3.162   4.129   0.005
  890TIP3    H2 2614   3.170   4.236   0.111
  891TIP3   OH2 2615   2.669   4.016   0.478
  891TIP3    H1 2616   2.715   4.009   0.562
  891TIP3    H2 2617   2.619   3.935   0.472
  892TIP3   OH2 2618   0.585   0.043   6.704
  892TIP3    H1 2619   0.651  -0.019   6.673
  892TIP3    H2 2620   0.612   0.065   6.793
  893TIP3   OH2 2621   3.470   4.122   0.022
  893TIP3    H1 2622   3.379   4.125   0.049
  893TIP3    H2 2623   3.517   4.089   0.098
  894TIP3   OH2 2624   4.230   3.372   1.274
  894TIP3    H1 2625   4.146   3.384   1.229
  894TIP3    H2 2626   4.246   3.278   1.269
  895TIP3   OH2 2627   2.836   3.804   1.275
  895TIP3    H1 2628   2.887   3.793   1.355
  895TIP3    H2 2629   2.764   3.741   1.283
  896TIP3   OH2 2630   3.269   2.631   1.115
  896TIP3    H1 2631   3.217   2.569   1.064
  896TIP3    H2 2632   3.205   2.692   1.150
  897TIP3   OH2 2633   3.769   2.738   1.294
  897TIP3    H1 2634   3.836   2.713   1.357
  897TIP3    H2 2635   3.686   2.724   1.339
  898TIP3   OH2 2636   3.988   3.158   1.211
  898TIP3    H1 2637   3.945   3.153   1.296
  898TIP3    H2 2638   3.969   3.247   1.179
  899TIP3   OH2 2639   6.528   7.345   6.649
  899TIP3    H1 2640   6.482   7.322   6.568
  899TIP3    H2 2641   6.511   7.438   6.661
  900TIP3   OH2 2642   3.223   2.644   0.062
  900TIP3    H1 2643   3.275   2.638   0.143
  900TIP3    H2 2644   3.270   2.588   0.000
  901TIP3   OH2 2645   3.173   3.162   1.116
  901TIP3    H1 2646   3.126   3.168   1.199
  901TIP3    H2 2647   3.151   3.243   1.070
  902TIP3   OH2 2648   3.087   3.059   0.651
  902TIP3    H1 2649   2.998   3.025   0.665
  902TIP3    H2 2650   3.105   3.038   0.559
  903TIP3   OH2 2651   3.552   3.111   0.334
  903TIP3    H1 2652   3.498   3.179   0.293
  903TIP3    H2 2653   3.607   3.079   0.263
  904TIP3   OH2 2654   3.703   3.364   1.421
  904TIP3    H1 2655   3.676   3.296   1.483
  904TIP3    H2 2656   3.795   3.380   1.442
  905TIP3   OH2 2657   3.693   3.118   0.574
  905TIP3    H1 2658   3.633   3.149   0.507
  905TIP3    H2 2659   3.739   3.045   0.533
  906TIP3   OH2 2660   2.995   3.159   1.326
  906TIP3    H1 2661   3.001   3.221   1.398
  906TIP3    H2 2662   2.976   3.075   1.368
  907TIP3   OH2 2663   5.792   6.617   6.923
  907TIP3    H1 2664   5.882   6.639   6.946
  907TIP3    H2 2665   5.757   6.697   6.883
  908TIP3   OH2 2666   2.618   2.691   0.936
  908TIP3    H1 2667   2.667   2.747   0.996
  908TIP3    H2 2668   2.657   2.707   0.850
  909TIP3   OH2 2669   2.494   2.681   0.349
  909TIP3    H1 2670   2.569   2.713   0.400
  909TIP3    H2 2671   2.420   2.731   0.382
  910TIP3   OH2 2672   3.734   3.367   0.998
  910TIP3    H1 2673   3.759   3.300   0.935
  910TIP3    H2 2674   3.689   3.318   1.067
  911TIP3   OH2 2675   3.448   2.865   0.717
  911TIP3    H1 2676   3.369   2.867   0.770
  911TIP3    H2 2677   3.517   2.836   0.778
  912TIP3   OH2 2678   2.863   2.916   0.717
  912TIP3    H1 2679   2.792   2.932   0.655
  912TIP3    H2 2680   2.903   2.834   0.687
  913TIP3   OH2 2681   3.173   2.976   0.402
  913TIP3    H1 2682   3.257   2.950   0.439
  913TIP3    H2 2683   3.184   2.965   0.307
  914TIP3   OH2 2684   3.868   2.904   0.885
  914TIP3    H1 2685   3.848   2.925   0.976
  914TIP3    H2 2686   3.800   2.841   0.860
  915TIP3   OH2 2687   2.933   2.856   0.144
  915TIP3    H1 2688   2.840   2.836   0.132
  915TIP3    H2 2689   2.944   2.941   0.101
  916TIP3   OH2 2690   4.050   4.609   1.096
  916TIP3    H1 2691   4.047   4.620   1.001
  916TIP3    H2 2692   4.129   4.656   1.123
  917TIP3   OH2 2693   2.995   3.718   1.506
  917TIP3    H1 2694   3.075   3.736   1.555
  917TIP3    H2 2695   2.925   3.724   1.572
  918TIP3   OH2 2696   3.468   3.192   0.780
  918TIP3    H1 2697   3.523   3.132   0.729
  918TIP3    H2 2698   3.460   3.151   0.866
  919TIP3   OH2 2699   3.026   2.700   0.685
  919TIP3    H1 2700   2.985   2.636   0.743
  919TIP3    H2 2701   3.076   2.647   0.622
  920TIP3   OH2 2702   3.430   3.092   1.040
  920TIP3    H1 2703   3.344   3.124   1.068
  920TIP3    H2 2704   3.492   3.139   1.095
  921TIP3   OH2 2705   3.188   3.471   0.167
  921TIP3    H1 2706   3.102   3.436   0.144
  921TIP3    H2 2707   3.174   3.514   0.252
  922TIP3   OH2 2708   4.051   3.695   0.761
  922TIP3    H1 2709   4.086   3.744   0.687
  922TIP3    H2 2710   3.971   3.654   0.728
  923TIP3   OH2 2711   6.596   6.801   6.906
  923TIP3    H1 2712   6.528   6.740   6.935
  923TIP3    H2 2713   6.576   6.883   6.952
  924TIP3   OH2 2714   3.569   3.781   1.171
  924TIP3    H1 2715   3.616   3.770   1.254
  924TIP3    H2 2716   3.525   3.866   1.179
  925TIP3   OH2 2717   3.714   3.023   0.122
  925TIP3    H1 2718   3.806   3.038   0.143
  925TIP3    H2 2719   3.692   3.094   0.062
  926TIP3   OH2 2720   2.857   3.463   0.816
  926TIP3    H1 2721   2.898   3.452   0.730
  926TIP3    H2 2722   2.923   3.435   0.879
  927TIP3   OH2 2723   3.338   3.618  -0.009
  927TIP3    H1 2724   3.293   3.703  -0.005
  927TIP3    H2 2725   3.285   3.561   0.046
  928TIP3   OH2 2726   2.738   3.383   1.438
  928TIP3    H1 2727   2.739   3.358   1.531
  928TIP3    H2 2728   2.661   3.339   1.403
  929TIP3   OH2 2729   3.472   3.520   1.461
  929TIP3    H1 2730   3.401   3.461   1.435
  929TIP3    H2 2731   3.552   3.477   1.432
  930TIP3   OH2 2732   3.712   4.068   1.056
  930TIP3    H1 2733   3.618   4.052   1.062
  930TIP3    H2 2734   3.736   4.102   1.143
  931TIP3   OH2 2735   6.943   7.129   6.897
  931TIP3    H1 2736   6.892   7.087   6.827
  931TIP3    H2 2737   6.946   7.221   6.873
  932TIP3   OH2 2738   4.350   3.979   1.033
  932TIP3    H1 2739   4.255   3.966   1.027
  932TIP3    H2 2740   4.383   3.948   0.948
  933TIP3   OH2 2741   6.639   7.899   6.848
  933TIP3    H1 2742   6.624   7.867   6.937
  933TIP3    H2 2743   6.627   7.821   6.793
  934TIP3   OH2 2744   3.823   3.563   0.656
  934TIP3    H1 2745   3.733   3.541   0.683
  934TIP3    H2 2746   3.858   3.482   0.620
  935TIP3   OH2 2747   2.966   3.802   0.477
  935TIP3    H1 2748   2.961   3.878   0.420
  935TIP3    H2 2749   2.876   3.790   0.508
  936TIP3   OH2 2750   2.530   3.124   0.095
  936TIP3    H1 2751   2.529   3.219   0.101
  936TIP3    H2 2752   2.463   3.095   0.157
  937TIP3   OH2 2753   3.087   3.570   0.398
  937TIP3    H1 2754   3.052   3.655   0.422
  937TIP3    H2 2755   3.056   3.510   0.466
  938TIP3   OH2 2756   3.259   4.120   0.929
  938TIP3    H1 2757   3.296   4.193   0.879
  938TIP3    H2 2758   3.332   4.086   0.980
  939TIP3   OH2 2759   2.895   4.027   0.325
  939TIP3    H1 2760   2.808   4.031   0.367
  939TIP3    H2 2761   2.929   4.116   0.332
  940TIP3   OH2 2762   3.608   3.782   0.897
  940TIP3    H1 2763   3.596   3.779   0.992
  940TIP3    H2 2764   3.681   3.722   0.881
  941TIP3   OH2 2765   6.444   7.602   6.698
  941TIP3    H1 2766   6.481   7.608   6.786
  941TIP3    H2 2767   6.350   7.599   6.712
  942TIP3   OH2 2768   3.867   4.275   0.941
  942TIP3    H1 2769   3.799   4.211   0.962
  942TIP3    H2 2770   3.829   4.329   0.872
  943TIP3   OH2 2771   2.942   2.909   1.448
  943TIP3    H1 2772   2.847   2.924   1.457
  943TIP3    H2 2773   2.966   2.866   1.530
  944TIP3   OH2 2774   3.768   3.589  -0.017
  944TIP3    H1 2775   3.750   3.529   0.055
  944TIP3    H2 2776   3.864   3.590  -0.023
  945TIP3   OH2 2777   2.689   4.003   1.094
  945TIP3    H1 2778   2.740   3.940   1.145
  945TIP3    H2 2779   2.703   4.086   1.139
  946TIP3   OH2 2780   5.871   7.594   6.753
  946TIP3    H1 2781   5.790   7.582   6.704
  946TIP3    H2 2782   5.842   7.613   6.842
  947TIP3   OH2 2783   2.929   3.665   0.058
  947TIP3    H1 2784   2.957   3.626   0.141
  947TIP3    H2 2785   2.938   3.760   0.072
  948TIP3   OH2 2786   2.684   3.361   0.300
  948TIP3    H1 2787   2.617   3.380   0.366
  948TIP3    H2 2788   2.641   3.382   0.216
  949TIP3   OH2 2789   3.800   2.965   1.142
  949TIP3    H1 2790   3.876   3.011   1.179
  949TIP3    H2 2791   3.789   2.888   1.199
  950TIP3   OH2 2792   3.682   2.717   0.325
  950TIP3    H1 2793   3.634   2.723   0.242
  950TIP3    H2 2794   3.720   2.804   0.337
  951TIP3   OH2 2795   6.031   7.857   6.936
  951TIP3    H1 2796   5.948   7.890   6.971
  951TIP3    H2 2797   6.024   7.872   6.842
  952TIP3   OH2 2798   3.429   2.895   0.447
  952TIP3    H1 2799   3.478   2.969   0.411
  952TIP3    H2 2800   3.443   2.902   0.542
  953TIP3   OH2 2801   3.635   3.202   1.195
  953TIP3    H1 2802   3.656   3.245   1.277
  953TIP3    H2 2803   3.684   3.120   1.198
  954TIP3   OH2 2804   3.550   2.647   0.560
  954TIP3    H1 2805   3.513   2.724   0.603
  954TIP3    H2 2806   3.591   2.681   0.481
  955TIP3   OH2 2807   2.947   3.937   0.074
  955TIP3    H1 2808   2.913   4.004   0.014
  955TIP3    H2 2809   2.928   3.971   0.161
  956TIP3   OH2 2810   3.065   2.689   0.312
  956TIP3    H1 2811   3.028   2.752   0.250
  956TIP3    H2 2812   3.159   2.704   0.309
  957TIP3   OH2 2813   4.249   3.096   1.181
  957TIP3    H1 2814   4.155   3.109   1.196
  957TIP3    H2 2815   4.253   3.035   1.106
  958TIP3   OH2 2816   3.915   3.304   0.574
  958TIP3    H1 2817   3.837   3.250   0.587
  958TIP3    H2 2818   3.982   3.263   0.630
  959TIP3   OH2 2819   5.523   7.616   6.875
  959TIP3    H1 2820   5.596   7.655   6.923
  959TIP3    H2 2821   5.552   7.528   6.853
  960TIP3   OH2 2822   2.668   2.833   0.171
  960TIP3    H1 2823   2.628   2.886   0.240
  960TIP3    H2 2824   2.653   2.742   0.199
  961TIP3   OH2 2825   3.898   4.298   0.512
  961TIP3    H1 2826   3.850   4.350   0.447
  961TIP3    H2 2827   3.989   4.323   0.500
  962TIP3   OH2 2828   2.927   2.574   1.107
  962TIP3    H1 2829   2.951   2.543   1.019
  962TIP3    H2 2830   2.950   2.502   1.165
  963TIP3   OH2 2831   2.505   3.793   0.476
  963TIP3    H1 2832   2.458   3.833   0.549
  963TIP3    H2 2833   2.466   3.833   0.398
  964TIP3   OH2 2834   2.682   4.314   1.510
  964TIP3    H1 2835   2.764   4.318   1.558
  964TIP3    H2 2836   2.661   4.221   1.503
  965TIP3   OH2 2837   3.149   4.227   1.552
  965TIP3    H1 2838   3.240   4.200   1.561
  965TIP3    H2 2839   3.115   4.172   1.481
  966TIP3   OH2 2840   5.988   7.825   6.659
  966TIP3    H1 2841   5.941   7.746   6.688
  966TIP3    H2 2842   6.060   7.791   6.605
  967TIP3   OH2 2843   3.771   4.165   1.306
  967TIP3    H1 2844   3.784   4.096   1.371
  967TIP3    H2 2845   3.844   4.225   1.319
  968TIP3   OH2 2846   2.791   3.719   1.697
  968TIP3    H1 2847   2.811   3.625   1.708
  968TIP3    H2 2848   2.704   3.720   1.658
  969TIP3   OH2 2849   5.645   7.374   6.851
  969TIP3    H1 2850   5.697   7.381   6.931
  969TIP3    H2 2851   5.702   7.328   6.789
  970TIP3   OH2 2852   3.408   3.797   1.475
  970TIP3    H1 2853   3.362   3.817   1.394
  970TIP3    H2 2854   3.441   3.708   1.463
  971TIP3   OH2 2855   6.143   7.545   6.670
  971TIP3    H1 2856   6.158   7.568   6.762
  971TIP3    H2 2857   6.049   7.528   6.665
  972TIP3   OH2 2858   3.883   3.842   1.095
  972TIP3    H1 2859   3.959   3.870   1.045
  972TIP3    H2 2860   3.817   3.909   1.077
  973TIP3   OH2 2861   2.905   3.465   1.705
  973TIP3    H1 2862   2.982   3.430   1.660
  973TIP3    H2 2863   2.935   3.481   1.794
  974TIP3   OH2 2864   2.928   3.376   0.161
  974TIP3    H1 2865   2.852   3.383   0.219
  974TIP3    H2 2866   2.954   3.284   0.166
  975TIP3   OH2 2867   3.266   3.348   1.365
  975TIP3    H1 2868   3.179   3.387   1.373
  975TIP3    H2 2869   3.297   3.375   1.279
  976TIP3   OH2 2870   5.954   7.107   6.821
  976TIP3    H1 2871   5.961   7.018   6.785
  976TIP3    H2 2872   6.044   7.136   6.829
  977TIP3   OH2 2873   3.763   3.720   1.449
  977TIP3    H1 2874   3.829   3.678   1.393
  977TIP3    H2 2875   3.758   3.663   1.526
  978TIP3   OH2 2876   3.369   3.114   1.467
  978TIP3    H1 2877   3.369   3.043   1.403
  978TIP3    H2 2878   3.333   3.189   1.421
  979TIP3   OH2 2879   3.374   2.914   1.268
  979TIP3    H1 2880   3.397   2.946   1.181
  979TIP3    H2 2881   3.285   2.879   1.259
  980TIP3   OH2 2882   3.382   3.440   1.137
  980TIP3    H1 2883   3.472   3.469   1.124
  980TIP3    H2 2884   3.328   3.504   1.091
  981TIP3   OH2 2885   3.972   3.399   1.518
  981TIP3    H1 2886   4.015   3.314   1.524
  981TIP3    H2 2887   4.043   3.462   1.507
  982TIP3   OH2 2888   4.006   3.663   1.258
  982TIP3    H1 2889   3.952   3.725   1.209
  982TIP3    H2 2890   4.095   3.679   1.226
  983TIP3   OH2 2891   3.257   3.198   1.713
  983TIP3    H1 2892   3.187   3.137   1.735
  983TIP3    H2 2893   3.283   3.173   1.624
  984TIP3   OH2 2894   3.506   2.689   1.372
  984TIP3    H1 2895   3.463   2.767   1.337
  984TIP3    H2 2896   3.440   2.620   1.366
  985TIP3   OH2 2897   3.622   3.150   1.573
  985TIP3    H1 2898   3.609   3.137   1.667
  985TIP3    H2 2899   3.537   3.131   1.534
  986TIP3   OH2 2900   3.868   3.107   1.446
  986TIP3    H1 2901   3.788   3.107   1.499
  986TIP3    H2 2902   3.937   3.082   1.507
  987TIP3   OH2 2903   4.107   3.074   1.592
  987TIP3    H1 2904   4.120   2.979   1.599
  987TIP3    H2 2905   4.102   3.104   1.683
  988TIP3   OH2 2906   3.091   2.980   1.774
  988TIP3    H1 2907   3.091   2.890   1.742
  988TIP3    H2 2908   3.126   2.973   1.863
  989TIP3   OH2 2909   3.568   2.656   1.638
  989TIP3    H1 2910   3.635   2.589   1.629
  989TIP3    H2 2911   3.538   2.673   1.548
  990TIP3   OH2 2912   3.661   2.873   1.781
  990TIP3    H1 2913   3.629   2.800   1.727
  990TIP3    H2 2914   3.588   2.935   1.782
  991TIP3   OH2 2915   0.056   0.123   6.825
  991TIP3    H1 2916   0.143   0.119   6.787
  991TIP3    H2 2917  -0.003   0.134   6.751
  992TIP3   OH2 2918   2.545   3.419   0.073
  992TIP3    H1 2919   2.583   3.496   0.032
  992TIP3    H2 2920   2.456   3.414   0.037
  993TIP3   OH2 2921   2.313   4.121   0.549
  993TIP3    H1 2922   2.249   4.063   0.508
  993TIP3    H2 2923   2.359   4.065   0.611
  994TIP3   OH2 2924   2.437   3.937   0.710
  994TIP3    H1 2925   2.421   3.866   0.772
  994TIP3    H2 2926   2.493   3.998   0.757
  995TIP3   OH2 2927   4.157   4.399   0.504
  995TIP3    H1 2928   4.185   4.379   0.594
  995TIP3    H2 2929   4.235   4.385   0.451
  996TIP3   OH2 2930   4.199   4.341   0.774
  996TIP3    H1 2931   4.148   4.260   0.772
  996TIP3    H2 2932   4.264   4.327   0.843
  997TIP3   OH2 2933   4.238   4.059   1.353
  997TIP3    H1 2934   4.164   4.068   1.414
  997TIP3    H2 2935   4.283   4.143   1.357
  998TIP3   OH2 2936   6.877   7.569   6.918
  998TIP3    H1 2937   6.934   7.638   6.885
  998TIP3    H2 2938   6.927   7.529   6.989
  999TIP3   OH2 2939   4.190   3.424   0.170
  999TIP3    H1 2940   4.122   3.390   0.228
  999TIP3    H2 2941   4.253   3.466   0.229
 1000TIP3   OH2 2942   4.232   3.832   0.596
 1000TIP3    H1 2943   4.284   3.759   0.562
 1000TIP3    H2 2944   4.247   3.903   0.535
 1001TIP3   OH2 2945   4.040   4.118   0.788
 1001TIP3    H1 2946   3.973   4.163   0.840
 1001TIP3    H2 2947   3.991   4.080   0.715
 1002TIP3   OH2 2948   6.906   7.359   6.746
 1002TIP3    H1 2949   6.822   7.338   6.706
 1002TIP3    H2 2950   6.888   7.436   6.800
 1003TIP3   OH2 2951   6.808   7.042   6.679
 1003TIP3    H1 2952   6.746   7.065   6.610
 1003TIP3    H2 2953   6.802   6.946   6.684
 1004TIP3   OH2 2954   3.985   3.294   0.307
 1004TIP3    H1 2955   3.990   3.200   0.292
 1004TIP3    H2 2956   3.965   3.303   0.400
 1005TIP3   OH2 2957   2.606   3.370   1.069
 1005TIP3    H1 2958   2.601   3.335   0.980
 1005TIP3    H2 2959   2.699   3.363   1.092
 1006TIP3   OH2 2960   4.264   3.710   1.164
 1006TIP3    H1 2961   4.330   3.643   1.148
 1006TIP3    H2 2962   4.281   3.777   1.098
 1007TIP3   OH2 2963   4.441   3.499   1.155
 1007TIP3    H1 2964   4.367   3.456   1.198
 1007TIP3    H2 2965   4.516   3.443   1.176
 1008TIP3   OH2 2966   6.783   6.772   6.711
 1008TIP3    H1 2967   6.861   6.733   6.750
 1008TIP3    H2 2968   6.717   6.772   6.781
 1009TIP3   OH2 2969   3.990   3.026   0.194
 1009TIP3    H1 2970   4.033   2.941   0.204
 1009TIP3    H2 2971   4.032   3.064   0.117
 1010TIP3   OH2 2972   4.129   3.178   0.713
 1010TIP3    H1 2973   4.210   3.197   0.666
 1010TIP3    H2 2974   4.142   3.218   0.799
 1011TIP3   OH2 2975   4.202   3.329   0.939
 1011TIP3    H1 2976   4.130   3.357   0.995
 1011TIP3    H2 2977   4.233   3.410   0.898
 1012TIP3   OH2 2978   2.829   3.048   1.730
 1012TIP3    H1 2979   2.923   3.042   1.744
 1012TIP3    H2 2980   2.794   2.968   1.771
 1013TIP3   OH2 2981   4.666   2.932   1.478
 1013TIP3    H1 2982   4.726   2.871   1.435
 1013TIP3    H2 2983   4.627   2.982   1.406
 1014TIP3   OH2 2984   4.100   2.773   0.234
 1014TIP3    H1 2985   4.142   2.757   0.318
 1014TIP3    H2 2986   4.030   2.707   0.229
 1015TIP3   OH2 2987   2.791   2.804   1.112
 1015TIP3    H1 2988   2.837   2.721   1.121
 1015TIP3    H2 2989   2.859   2.867   1.089
 1016TIP3   OH2 2990   2.622   3.068   1.149
 1016TIP3    H1 2991   2.668   3.052   1.066
 1016TIP3    H2 2992   2.667   3.144   1.187
 1017TIP3   OH2 2993   4.515   3.049   1.284
 1017TIP3    H1 2994   4.438   3.089   1.325
 1017TIP3    H2 2995   4.480   2.981   1.227
 1018TIP3   OH2 2996   7.028   6.687   6.803
 1018TIP3    H1 2997   7.102   6.635   6.772
 1018TIP3    H2 2998   7.064   6.774   6.818
 1019TIP3   OH2 2999   2.672   2.556   0.636
 1019TIP3    H1 3000   2.585   2.597   0.631
 1019TIP3    H2 3001   2.722   2.599   0.567
 1020TIP3   OH2 3002   3.756   4.246   0.146
 1020TIP3    H1 3003   3.785   4.204   0.065
 1020TIP3    H2 3004   3.782   4.337   0.137
 1021TIP3   OH2 3005   2.787   2.555   1.447
 1021TIP3    H1 3006   2.750   2.567   1.535
 1021TIP3    H2 3007   2.738   2.617   1.393
 1022TIP3   OH2 3008   2.821   4.031   1.525
 1022TIP3    H1 3009   2.727   4.014   1.516
 1022TIP3    H2 3010   2.838   4.019   1.618
 1023TIP3   OH2 3011   3.028   4.082   1.076
 1023TIP3    H1 3012   2.977   4.157   1.044
 1023TIP3    H2 3013   3.113   4.092   1.033
 1024TIP3   OH2 3014   3.429   4.314   1.212
 1024TIP3    H1 3015   3.465   4.305   1.300
 1024TIP3    H2 3016   3.493   4.368   1.165
 1025TIP3   OH2 3017   3.622   4.468   1.087
 1025TIP3    H1 3018   3.687   4.412   1.044
 1025TIP3    H2 3019   3.674   4.528   1.141
 1026TIP3   OH2 3020   4.424   2.801   1.171
 1026TIP3    H1 3021   4.337   2.799   1.131
 1026TIP3    H2 3022   4.455   2.711   1.166
 1027TIP3   OH2 3023   2.690   4.327   1.120
 1027TIP3    H1 3024   2.598   4.342   1.098
 1027TIP3    H2 3025   2.709   4.393   1.187
 1028TIP3   OH2 3026   2.920   4.313   0.972
 1028TIP3    H1 3027   2.837   4.319   1.020
 1028TIP3    H2 3028   2.898   4.338   0.882
 1029TIP3   OH2 3029   3.337   4.329   0.761
 1029TIP3    H1 3030   3.262   4.340   0.703
 1029TIP3    H2 3031   3.346   4.413   0.805
 1030TIP3   OH2 3032   3.601   4.266   0.807
 1030TIP3    H1 3033   3.509   4.285   0.790
 1030TIP3    H2 3034   3.649   4.339   0.767
 1031TIP3   OH2 3035   3.807   4.447   0.726
 1031TIP3    H1 3036   3.787   4.531   0.686
 1031TIP3    H2 3037   3.837   4.392   0.653
 1032TIP3   OH2 3038   2.610   4.107   0.847
 1032TIP3    H1 3039   2.631   4.081   0.937
 1032TIP3    H2 3040   2.683   4.075   0.795
 1033TIP3   OH2 3041   2.812   3.993   0.709
 1033TIP3    H1 3042   2.821   3.907   0.751
 1033TIP3    H2 3043   2.900   4.030   0.712
 1034TIP3   OH2 3044   3.079   4.073   0.722
 1034TIP3    H1 3045   3.097   3.981   0.706
 1034TIP3    H2 3046   3.131   4.095   0.799
 1035TIP3   OH2 3047   3.658   2.727   0.838
 1035TIP3    H1 3048   3.606   2.659   0.882
 1035TIP3    H2 3049   3.710   2.679   0.773
 1036TIP3   OH2 3050   4.123   2.624   0.683
 1036TIP3    H1 3051   4.158   2.681   0.615
 1036TIP3    H2 3052   4.029   2.640   0.682
 1037TIP3   OH2 3053   4.251   2.712   0.456
 1037TIP3    H1 3054   4.321   2.652   0.429
 1037TIP3    H2 3055   4.290   2.799   0.447
 1038TIP3   OH2 3056   2.926   2.496   0.832
 1038TIP3    H1 3057   2.833   2.483   0.852
 1038TIP3    H2 3058   2.952   2.417   0.785
 1039TIP3   OH2 3059   2.804   2.302   0.584
 1039TIP3    H1 3060   2.815   2.286   0.490
 1039TIP3    H2 3061   2.750   2.381   0.588
 1040TIP3   OH2 3062   3.382   2.477   0.714
 1040TIP3    H1 3063   3.440   2.520   0.651
 1040TIP3    H2 3064   3.413   2.507   0.799
 1041TIP3   OH2 3065   3.841   2.598   0.668
 1041TIP3    H1 3066   3.802   2.576   0.584
 1041TIP3    H2 3067   3.840   2.516   0.718
 1042TIP3   OH2 3068   3.912   2.572   0.244
 1042TIP3    H1 3069   3.829   2.611   0.268
 1042TIP3    H2 3070   3.909   2.483   0.281
 1043TIP3   OH2 3071   2.420   3.894   0.240
 1043TIP3    H1 3072   2.381   3.823   0.190
 1043TIP3    H2 3073   2.385   3.974   0.200
 1044TIP3   OH2 3074   2.738   2.563   0.221
 1044TIP3    H1 3075   2.800   2.554   0.149
 1044TIP3    H2 3076   2.793   2.558   0.300
 1045TIP3   OH2 3077   3.336   2.661   0.323
 1045TIP3    H1 3078   3.385   2.586   0.356
 1045TIP3    H2 3079   3.381   2.737   0.360
 1046TIP3   OH2 3080   0.311   0.074   6.737
 1046TIP3    H1 3081   0.403   0.094   6.719
 1046TIP3    H2 3082   0.296  -0.011   6.696
 1047TIP3   OH2 3083   1.027   0.154   6.842
 1047TIP3    H1 3084   1.016   0.059   6.840
 1047TIP3    H2 3085   0.979   0.184   6.764
 1048TIP3   OH2 3086   3.099   2.711   1.691
 1048TIP3    H1 3087   3.065   2.641   1.745
 1048TIP3    H2 3088   3.191   2.719   1.717
 1049TIP3   OH2 3089   3.347   2.710   1.814
 1049TIP3    H1 3090   3.425   2.684   1.765
 1049TIP3    H2 3091   3.335   2.641   1.879
 1050TIP3   OH2 3092   5.358   7.992   6.834
 1050TIP3    H1 3093   5.388   7.942   6.910
 1050TIP3    H2 3094   5.361   7.929   6.761
 1051TIP3   OH2 3095   4.170   2.803   1.600
 1051TIP3    H1 3096   4.187   2.773   1.690
 1051TIP3    H2 3097   4.256   2.798   1.558
 1052TIP3   OH2 3098   4.090   4.335   1.101
 1052TIP3    H1 3099   4.014   4.304   1.051
 1052TIP3    H2 3100   4.077   4.429   1.109
 1053TIP3   OH2 3101   5.345   3.709   0.281
 1053TIP3    H1 3102   5.390   3.696   0.365
 1053TIP3    H2 3103   5.297   3.627   0.267
 1054TIP3   OH2 3104   4.661   3.580   0.617
 1054TIP3    H1 3105   4.698   3.526   0.687
 1054TIP3    H2 3106   4.737   3.607   0.565
 1055TIP3   OH2 3107   4.619   3.984   0.331
 1055TIP3    H1 3108   4.603   3.890   0.324
 1055TIP3    H2 3109   4.714   3.993   0.327
 1056TIP3   OH2 3110   4.351   3.213   0.082
 1056TIP3    H1 3111   4.308   3.293   0.114
 1056TIP3    H2 3112   4.280   3.161   0.045
 1057TIP3   OH2 3113   4.415   3.516   0.309
 1057TIP3    H1 3114   4.465   3.438   0.335
 1057TIP3    H2 3115   4.482   3.582   0.289
 1058TIP3   OH2 3116   5.157   3.935   0.277
 1058TIP3    H1 3117   5.225   3.868   0.267
 1058TIP3    H2 3118   5.205   4.018   0.273
 1059TIP3   OH2 3119   6.189   3.248   0.315
 1059TIP3    H1 3120   6.213   3.327   0.362
 1059TIP3    H2 3121   6.212   3.266   0.224
 1060TIP3   OH2 3122   5.582   3.417   0.352
 1060TIP3    H1 3123   5.615   3.331   0.378
 1060TIP3    H2 3124   5.545   3.404   0.265
 1061TIP3   OH2 3125   4.932   3.075   0.271
 1061TIP3    H1 3126   4.907   3.149   0.217
 1061TIP3    H2 3127   4.878   3.002   0.240
 1062TIP3   OH2 3128   8.441   7.191   6.902
 1062TIP3    H1 3129   8.518   7.179   6.958
 1062TIP3    H2 3130   8.465   7.148   6.820
 1063TIP3   OH2 3131   4.555   3.296   0.404
 1063TIP3    H1 3132   4.639   3.280   0.448
 1063TIP3    H2 3133   4.559   3.242   0.325
 1064TIP3   OH2 3134   4.976   3.491   0.223
 1064TIP3    H1 3135   5.070   3.475   0.231
 1064TIP3    H2 3136   4.941   3.409   0.189
 1065TIP3   OH2 3137   6.254   3.469   0.462
 1065TIP3    H1 3138   6.167   3.508   0.459
 1065TIP3    H2 3139   6.295   3.507   0.540
 1066TIP3   OH2 3140   4.913   3.085   0.722
 1066TIP3    H1 3141   4.863   3.121   0.649
 1066TIP3    H2 3142   4.858   3.101   0.799
 1067TIP3   OH2 3143   5.015   3.854   0.499
 1067TIP3    H1 3144   4.954   3.920   0.529
 1067TIP3    H2 3145   5.059   3.894   0.424
 1068TIP3   OH2 3146   5.821   3.180   0.142
 1068TIP3    H1 3147   5.765   3.168   0.219
 1068TIP3    H2 3148   5.863   3.265   0.156
 1069TIP3   OH2 3149   4.804   3.191   0.491
 1069TIP3    H1 3150   4.859   3.267   0.513
 1069TIP3    H2 3151   4.850   3.147   0.420
 1070TIP3   OH2 3152   4.838   4.036   0.601
 1070TIP3    H1 3153   4.829   4.125   0.566
 1070TIP3    H2 3154   4.758   4.023   0.653
 1071TIP3   OH2 3155   7.038   7.757   6.804
 1071TIP3    H1 3156   7.012   7.788   6.717
 1071TIP3    H2 3157   7.067   7.836   6.849
 1072TIP3   OH2 3158   5.979   3.147   0.465
 1072TIP3    H1 3159   5.896   3.171   0.424
 1072TIP3    H2 3160   6.046   3.174   0.402
 1073TIP3   OH2 3161   5.253   2.777   0.456
 1073TIP3    H1 3162   5.246   2.686   0.483
 1073TIP3    H2 3163   5.177   2.819   0.495
 1074TIP3   OH2 3164   5.937   4.068   0.460
 1074TIP3    H1 3165   5.910   4.033   0.375
 1074TIP3    H2 3166   5.917   4.162   0.455
 1075TIP3   OH2 3167   6.059   3.807   0.300
 1075TIP3    H1 3168   5.980   3.856   0.275
 1075TIP3    H2 3169   6.131   3.855   0.259
 1076TIP3   OH2 3170   5.768   3.669   0.605
 1076TIP3    H1 3171   5.763   3.747   0.660
 1076TIP3    H2 3172   5.687   3.671   0.553
 1077TIP3   OH2 3173   4.769   3.620   0.082
 1077TIP3    H1 3174   4.719   3.550   0.038
 1077TIP3    H2 3175   4.845   3.575   0.119
 1078TIP3   OH2 3176   4.883   3.990   0.249
 1078TIP3    H1 3177   4.864   4.006   0.157
 1078TIP3    H2 3178   4.977   3.974   0.252
 1079TIP3   OH2 3179   4.873   3.628   0.442
 1079TIP3    H1 3180   4.911   3.592   0.361
 1079TIP3    H2 3181   4.923   3.708   0.458
 1080TIP3   OH2 3182   5.290   4.183   0.297
 1080TIP3    H1 3183   5.342   4.252   0.255
 1080TIP3    H2 3184   5.355   4.125   0.336
 1081TIP3   OH2 3185   5.031   4.136   0.773
 1081TIP3    H1 3186   4.972   4.200   0.813
 1081TIP3    H2 3187   4.976   4.086   0.713
 1082TIP3   OH2 3188   4.805   3.704   0.900
 1082TIP3    H1 3189   4.810   3.798   0.919
 1082TIP3    H2 3190   4.711   3.686   0.894
 1083TIP3   OH2 3191   4.835   4.316   0.848
 1083TIP3    H1 3192   4.810   4.321   0.756
 1083TIP3    H2 3193   4.752   4.304   0.895
 1084TIP3   OH2 3194   7.421   7.450   6.901
 1084TIP3    H1 3195   7.359   7.515   6.867
 1084TIP3    H2 3196   7.374   7.367   6.897
 1085TIP3   OH2 3197   4.428   3.869   0.797
 1085TIP3    H1 3198   4.360   3.851   0.733
 1085TIP3    H2 3199   4.464   3.783   0.819
 1086TIP3   OH2 3200   4.347   4.038   0.436
 1086TIP3    H1 3201   4.432   4.016   0.397
 1086TIP3    H2 3202   4.368   4.106   0.500
 1087TIP3   OH2 3203   6.115   4.469   0.464
 1087TIP3    H1 3204   6.203   4.453   0.497
 1087TIP3    H2 3205   6.071   4.518   0.534
 1088TIP3   OH2 3206   5.261   4.259   0.691
 1088TIP3    H1 3207   5.249   4.348   0.723
 1088TIP3    H2 3208   5.177   4.216   0.708
 1089TIP3   OH2 3209   4.415   4.235  -0.003
 1089TIP3    H1 3210   4.494   4.244   0.049
 1089TIP3    H2 3211   4.346   4.218   0.060
 1090TIP3   OH2 3212   6.014   3.614   0.776
 1090TIP3    H1 3213   5.935   3.625   0.723
 1090TIP3    H2 3214   6.034   3.521   0.769
 1091TIP3   OH2 3215   4.619   4.063   0.768
 1091TIP3    H1 3216   4.673   4.053   0.847
 1091TIP3    H2 3217   4.551   3.996   0.777
 1092TIP3   OH2 3218   5.017   2.869   0.580
 1092TIP3    H1 3219   4.934   2.836   0.546
 1092TIP3    H2 3220   4.995   2.949   0.627
 1093TIP3   OH2 3221   5.567   2.982   0.785
 1093TIP3    H1 3222   5.637   2.956   0.845
 1093TIP3    H2 3223   5.486   2.967   0.835
 1094TIP3   OH2 3224   5.772   3.406   0.691
 1094TIP3    H1 3225   5.734   3.403   0.779
 1094TIP3    H2 3226   5.755   3.496   0.660
 1095TIP3   OH2 3227   4.956   3.403   0.584
 1095TIP3    H1 3228   4.910   3.410   0.668
 1095TIP3    H2 3229   4.933   3.484   0.538
 1096TIP3   OH2 3230   4.837   3.277   0.115
 1096TIP3    H1 3231   4.747   3.262   0.142
 1096TIP3    H2 3232   4.842   3.243   0.025
 1097TIP3   OH2 3233   5.503   3.621   0.908
 1097TIP3    H1 3234   5.478   3.554   0.972
 1097TIP3    H2 3235   5.595   3.639   0.928
 1098TIP3   OH2 3236   5.481   3.384   0.098
 1098TIP3    H1 3237   5.440   3.437   0.030
 1098TIP3    H2 3238   5.517   3.309   0.052
 1099TIP3   OH2 3239   4.793   3.417   0.805
 1099TIP3    H1 3240   4.805   3.482   0.875
 1099TIP3    H2 3241   4.774   3.335   0.852
 1100TIP3   OH2 3242   4.383   2.936   0.387
 1100TIP3    H1 3243   4.455   2.973   0.440
 1100TIP3    H2 3244   4.423   2.917   0.302
 1101TIP3   OH2 3245   7.136   6.935   6.846
 1101TIP3    H1 3246   7.184   6.967   6.770
 1101TIP3    H2 3247   7.070   7.002   6.864
 1102TIP3   OH2 3248   5.504   3.629   0.500
 1102TIP3    H1 3249   5.537   3.561   0.442
 1102TIP3    H2 3250   5.461   3.582   0.571
 1103TIP3   OH2 3251   5.200   3.071   0.171
 1103TIP3    H1 3252   5.119   3.071   0.223
 1103TIP3    H2 3253   5.270   3.068   0.236
 1104TIP3   OH2 3254   4.600   3.149   0.178
 1104TIP3    H1 3255   4.515   3.156   0.136
 1104TIP3    H2 3256   4.630   3.060   0.156
 1105TIP3   OH2 3257   7.696   7.153   6.810
 1105TIP3    H1 3258   7.791   7.150   6.819
 1105TIP3    H2 3259   7.681   7.203   6.730
 1106TIP3   OH2 3260   5.658   3.145   0.360
 1106TIP3    H1 3261   5.642   3.156   0.454
 1106TIP3    H2 3262   5.586   3.088   0.331
 1107TIP3   OH2 3263   5.943   4.840   0.507
 1107TIP3    H1 3264   5.860   4.858   0.464
 1107TIP3    H2 3265   5.952   4.909   0.573
 1108TIP3   OH2 3266   4.787   3.971   0.995
 1108TIP3    H1 3267   4.868   3.993   1.041
 1108TIP3    H2 3268   4.719   3.980   1.061
 1109TIP3   OH2 3269   5.248   3.435   0.272
 1109TIP3    H1 3270   5.325   3.397   0.230
 1109TIP3    H2 3271   5.245   3.396   0.359
 1110TIP3   OH2 3272   4.743   2.903   0.146
 1110TIP3    H1 3273   4.716   2.825   0.194
 1110TIP3    H2 3274   4.757   2.873   0.056
 1111TIP3   OH2 3275   5.223   3.343   0.536
 1111TIP3    H1 3276   5.135   3.376   0.557
 1111TIP3    H2 3277   5.282   3.394   0.590
 1112TIP3   OH2 3278   5.839   3.958   0.229
 1112TIP3    H1 3279   5.831   4.007   0.147
 1112TIP3    H2 3280   5.757   3.908   0.235
 1113TIP3   OH2 3281   5.380   4.000   0.688
 1113TIP3    H1 3282   5.429   3.991   0.770
 1113TIP3    H2 3283   5.337   4.085   0.695
 1114TIP3   OH2 3284   4.630   3.702   0.304
 1114TIP3    H1 3285   4.671   3.689   0.219
 1114TIP3    H2 3286   4.698   3.681   0.368
 1115TIP3   OH2 3287   4.531   3.639   0.925
 1115TIP3    H1 3288   4.534   3.616   1.018
 1115TIP3    H2 3289   4.455   3.590   0.891
 1116TIP3   OH2 3290   5.270   3.774   0.949
 1116TIP3    H1 3291   5.201   3.715   0.918
 1116TIP3    H2 3292   5.351   3.735   0.918
 1117TIP3   OH2 3293   5.504   4.294   0.560
 1117TIP3    H1 3294   5.418   4.263   0.586
 1117TIP3    H2 3295   5.538   4.338   0.638
 1118TIP3   OH2 3296   6.164   4.190   0.571
 1118TIP3    H1 3297   6.088   4.135   0.551
 1118TIP3    H2 3298   6.199   4.215   0.485
 1119TIP3   OH2 3299   5.613   3.803   0.236
 1119TIP3    H1 3300   5.518   3.789   0.235
 1119TIP3    H2 3301   5.649   3.727   0.190
 1120TIP3   OH2 3302   1.938   0.044   6.940
 1120TIP3    H1 3303   1.962   0.130   6.906
 1120TIP3    H2 3304   1.848   0.055   6.972
 1121TIP3   OH2 3305   7.164   7.337   6.648
 1121TIP3    H1 3306   7.173   7.419   6.600
 1121TIP3    H2 3307   7.075   7.341   6.685
 1122TIP3   OH2 3308   7.712   7.818   6.848
 1122TIP3    H1 3309   7.676   7.902   6.876
 1122TIP3    H2 3310   7.674   7.753   6.908
 1123TIP3   OH2 3311   5.021   4.271   0.383
 1123TIP3    H1 3312   5.031   4.366   0.386
 1123TIP3    H2 3313   5.110   4.238   0.373
 1124TIP3   OH2 3314   5.449   3.995   0.415
 1124TIP3    H1 3315   5.431   3.987   0.509
 1124TIP3    H2 3316   5.523   3.936   0.400
 1125TIP3   OH2 3317   5.621   4.504   0.421
 1125TIP3    H1 3318   5.611   4.431   0.482
 1125TIP3    H2 3319   5.547   4.495   0.361
 1126TIP3   OH2 3320   4.739   3.164   0.926
 1126TIP3    H1 3321   4.644   3.174   0.929
 1126TIP3    H2 3322   4.761   3.115   1.005
 1127TIP3   OH2 3323   4.469   4.243   0.596
 1127TIP3    H1 3324   4.527   4.186   0.646
 1127TIP3    H2 3325   4.475   4.328   0.641
 1128TIP3   OH2 3326   5.604   3.199   0.618
 1128TIP3    H1 3327   5.671   3.257   0.655
 1128TIP3    H2 3328   5.594   3.129   0.684
 1129TIP3   OH2 3329   7.969   7.147   6.851
 1129TIP3    H1 3330   8.031   7.215   6.826
 1129TIP3    H2 3331   7.988   7.130   6.944
 1130TIP3   OH2 3332   5.423   3.453   0.697
 1130TIP3    H1 3333   5.447   3.506   0.773
 1130TIP3    H2 3334   5.477   3.374   0.704
 1131TIP3   OH2 3335   5.303   2.862   0.020
 1131TIP3    H1 3336   5.269   2.938   0.068
 1131TIP3    H2 3337   5.395   2.883   0.004
 1132TIP3   OH2 3338   7.632   6.873   6.801
 1132TIP3    H1 3339   7.620   6.968   6.798
 1132TIP3    H2 3340   7.726   6.860   6.789
 1133TIP3   OH2 3341   6.034   3.344   0.672
 1133TIP3    H1 3342   5.940   3.359   0.683
 1133TIP3    H2 3343   6.041   3.279   0.602
 1134TIP3   OH2 3344   5.701   3.572   0.112
 1134TIP3    H1 3345   5.631   3.506   0.112
 1134TIP3    H2 3346   5.778   3.524   0.143
 1135TIP3   OH2 3347   7.219   7.069   6.625
 1135TIP3    H1 3348   7.209   7.163   6.636
 1135TIP3    H2 3349   7.201   7.053   6.532
 1136TIP3   OH2 3350   4.758   2.782   0.531
 1136TIP3    H1 3351   4.728   2.751   0.446
 1136TIP3    H2 3352   4.747   2.707   0.590
 1137TIP3   OH2 3353   1.436  -0.010   6.902
 1137TIP3    H1 3354   1.397   0.026   6.981
 1137TIP3    H2 3355   1.499   0.056   6.874
 1138TIP3   OH2 3356   4.480   4.577   0.993
 1138TIP3    H1 3357   4.559   4.580   1.046
 1138TIP3    H2 3358   4.461   4.484   0.983
 1139TIP3   OH2 3359   4.940   4.475   1.048
 1139TIP3    H1 3360   5.031   4.447   1.057
 1139TIP3    H2 3361   4.906   4.423   0.975
 1140TIP3   OH2 3362   5.600   4.420   0.780
 1140TIP3    H1 3363   5.589   4.353   0.847
 1140TIP3    H2 3364   5.668   4.477   0.814
 1141TIP3   OH2 3365   4.582   3.971   1.185
 1141TIP3    H1 3366   4.601   3.878   1.196
 1141TIP3    H2 3367   4.495   3.974   1.146
 1142TIP3   OH2 3368   5.205   4.050   0.968
 1142TIP3    H1 3369   5.152   4.069   0.890
 1142TIP3    H2 3370   5.240   3.963   0.953
 1143TIP3   OH2 3371   5.680   4.073   0.594
 1143TIP3    H1 3372   5.756   4.097   0.541
 1143TIP3    H2 3373   5.615   4.140   0.573
 1144TIP3   OH2 3374   4.698   3.716   1.193
 1144TIP3    H1 3375   4.774   3.700   1.137
 1144TIP3    H2 3376   4.735   3.736   1.279
 1145TIP3   OH2 3377   5.065   3.600   0.847
 1145TIP3    H1 3378   4.980   3.642   0.854
 1145TIP3    H2 3379   5.100   3.630   0.763
 1146TIP3   OH2 3380   5.547   3.969   0.927
 1146TIP3    H1 3381   5.622   3.935   0.878
 1146TIP3    H2 3382   5.546   3.918   1.008
 1147TIP3   OH2 3383   5.165   3.369   0.958
 1147TIP3    H1 3384   5.168   3.298   0.894
 1147TIP3    H2 3385   5.132   3.444   0.909
 1148TIP3   OH2 3386   5.174   3.165   0.758
 1148TIP3    H1 3387   5.200   3.205   0.675
 1148TIP3    H2 3388   5.083   3.140   0.745
 1149TIP3   OH2 3389   5.196   3.699   0.629
 1149TIP3    H1 3390   5.279   3.748   0.626
 1149TIP3    H2 3391   5.134   3.754   0.581
 1150TIP3   OH2 3392   5.771   3.656   1.006
 1150TIP3    H1 3393   5.816   3.571   1.010
 1150TIP3    H2 3394   5.840   3.719   0.986
 1151TIP3   OH2 3395   5.778   3.897   0.769
 1151TIP3    H1 3396   5.733   3.959   0.713
 1151TIP3    H2 3397   5.870   3.903   0.743
 1152TIP3   OH2 3398   5.049   3.451   1.201
 1152TIP3    H1 3399   4.978   3.389   1.220
 1152TIP3    H2 3400   5.077   3.428   1.112
 1153TIP3   OH2 3401   5.297   2.932   0.860
 1153TIP3    H1 3402   5.257   3.013   0.827
 1153TIP3    H2 3403   5.230   2.866   0.846
 1154TIP3   OH2 3404   5.420   3.409   1.062
 1154TIP3    H1 3405   5.408   3.395   1.156
 1154TIP3    H2 3406   5.335   3.389   1.024
 1155TIP3   OH2 3407   5.665   3.360   0.933
 1155TIP3    H1 3408   5.587   3.363   0.988
 1155TIP3    H2 3409   5.736   3.335   0.992
 1156TIP3   OH2 3410   5.903   3.321   1.081
 1156TIP3    H1 3411   5.916   3.227   1.094
 1156TIP3    H2 3412   5.898   3.356   1.170
 1157TIP3   OH2 3413   4.880   3.230   1.263
 1157TIP3    H1 3414   4.886   3.141   1.228
 1157TIP3    H2 3415   4.919   3.224   1.350
 1158TIP3   OH2 3416   5.367   2.911   1.125
 1158TIP3    H1 3417   5.439   2.848   1.121
 1158TIP3    H2 3418   5.337   2.919   1.035
 1159TIP3   OH2 3419   5.456   3.128   1.271
 1159TIP3    H1 3420   5.426   3.056   1.215
 1159TIP3    H2 3421   5.383   3.191   1.269
 1160TIP3   OH2 3422   4.060   4.314   0.016
 1160TIP3    H1 3423   4.000   4.258  -0.032
 1160TIP3    H2 3424   4.103   4.256   0.079
 1161TIP3   OH2 3425   4.227   4.171   0.198
 1161TIP3    H1 3426   4.218   4.098   0.258
 1161TIP3    H2 3427   4.270   4.240   0.249
 1162TIP3   OH2 3428   5.940   4.650   0.300
 1162TIP3    H1 3429   6.006   4.599   0.253
 1162TIP3    H2 3430   5.988   4.691   0.372
 1163TIP3   OH2 3431   5.973   4.203   0.943
 1163TIP3    H1 3432   5.917   4.254   1.003
 1163TIP3    H2 3433   5.999   4.266   0.876
 1164TIP3   OH2 3434   5.753   4.515   0.136
 1164TIP3    H1 3435   5.788   4.551   0.218
 1164TIP3    H2 3436   5.718   4.430   0.161
 1165TIP3   OH2 3437   4.397   3.613   0.564
 1165TIP3    H1 3438   4.388   3.580   0.475
 1165TIP3    H2 3439   4.491   3.611   0.581
 1166TIP3   OH2 3440   6.030   3.922   0.669
 1166TIP3    H1 3441   6.099   3.862   0.642
 1166TIP3    H2 3442   6.001   3.963   0.587
 1167TIP3   OH2 3443   6.221   3.729   0.640
 1167TIP3    H1 3444   6.154   3.688   0.694
 1167TIP3    H2 3445   6.302   3.683   0.663
 1168TIP3   OH2 3446   5.930   3.430   0.200
 1168TIP3    H1 3447   5.995   3.473   0.146
 1168TIP3    H2 3448   5.943   3.468   0.287
 1169TIP3   OH2 3449   5.990   3.578   0.427
 1169TIP3    H1 3450   5.917   3.604   0.483
 1169TIP3    H2 3451   6.019   3.660   0.387
 1170TIP3   OH2 3452   4.617   3.291   1.202
 1170TIP3    H1 3453   4.711   3.288   1.221
 1170TIP3    H2 3454   4.583   3.211   1.240
 1171TIP3   OH2 3455   6.458   3.179   0.972
 1171TIP3    H1 3456   6.523   3.125   0.926
 1171TIP3    H2 3457   6.416   3.229   0.902
 1172TIP3   OH2 3458   4.595   3.007   0.552
 1172TIP3    H1 3459   4.649   2.928   0.557
 1172TIP3    H2 3460   4.657   3.078   0.535
 1173TIP3   OH2 3461   4.373   3.266   0.618
 1173TIP3    H1 3462   4.425   3.261   0.538
 1173TIP3    H2 3463   4.399   3.349   0.658
 1174TIP3   OH2 3464   6.305   3.302   0.783
 1174TIP3    H1 3465   6.236   3.346   0.833
 1174TIP3    H2 3466   6.260   3.236   0.732
 1175TIP3   OH2 3467   4.365   2.783   0.129
 1175TIP3    H1 3468   4.277   2.779   0.166
 1175TIP3    H2 3469   4.356   2.840   0.053
 1176TIP3   OH2 3470   4.583   2.826   0.935
 1176TIP3    H1 3471   4.536   2.826   1.018
 1176TIP3    H2 3472   4.529   2.879   0.877
 1177TIP3   OH2 3473   4.612   4.291   1.014
 1177TIP3    H1 3474   4.519   4.271   1.006
 1177TIP3    H2 3475   4.630   4.283   1.108
 1178TIP3   OH2 3476   4.808   4.309   0.565
 1178TIP3    H1 3477   4.751   4.375   0.526
 1178TIP3    H2 3478   4.883   4.303   0.506
 1179TIP3   OH2 3479   5.237   4.546   0.736
 1179TIP3    H1 3480   5.282   4.539   0.820
 1179TIP3    H2 3481   5.283   4.615   0.688
 1180TIP3   OH2 3482   5.389   4.721   0.594
 1180TIP3    H1 3483   5.478   4.704   0.626
 1180TIP3    H2 3484   5.370   4.810   0.623
 1181TIP3   OH2 3485   6.205   3.044   0.684
 1181TIP3    H1 3486   6.115   3.029   0.653
 1181TIP3    H2 3487   6.247   2.958   0.678
 1182TIP3   OH2 3488   4.441   4.590   0.611
 1182TIP3    H1 3489   4.356   4.626   0.587
 1182TIP3    H2 3490   4.478   4.655   0.671
 1183TIP3   OH2 3491   4.654   4.510   0.459
 1183TIP3    H1 3492   4.574   4.539   0.503
 1183TIP3    H2 3493   4.641   4.535   0.367
 1184TIP3   OH2 3494   5.172   4.556   0.176
 1184TIP3    H1 3495   5.079   4.545   0.155
 1184TIP3    H2 3496   5.173   4.617   0.250
 1185TIP3   OH2 3497   5.416   4.446   0.235
 1185TIP3    H1 3498   5.322   4.461   0.221
 1185TIP3    H2 3499   5.459   4.521   0.194
 1186TIP3   OH2 3500   4.394   4.340   0.346
 1186TIP3    H1 3501   4.424   4.314   0.433
 1186TIP3    H2 3502   4.469   4.321   0.288
 1187TIP3   OH2 3503   4.602   4.230   0.197
 1187TIP3    H1 3504   4.614   4.151   0.250
 1187TIP3    H2 3505   4.690   4.267   0.189
 1188TIP3   OH2 3506   4.863   4.312   0.155
 1188TIP3    H1 3507   4.926   4.315   0.083
 1188TIP3    H2 3508   4.915   4.286   0.231
 1189TIP3   OH2 3509   5.445   2.967   0.289
 1189TIP3    H1 3510   5.404   2.900   0.343
 1189TIP3    H2 3511   5.508   2.920   0.234
 1190TIP3   OH2 3512   5.908   2.915   0.181
 1190TIP3    H1 3513   5.909   3.007   0.155
 1190TIP3    H2 3514   5.819   2.885   0.164
 1191TIP3   OH2 3515   4.668   2.676   0.292
 1191TIP3    H1 3516   4.578   2.645   0.302
 1191TIP3    H2 3517   4.721   2.596   0.285
 1192TIP3   OH2 3518   7.281   6.571   6.918
 1192TIP3    H1 3519   7.333   6.613   6.849
 1192TIP3    H2 3520   7.261   6.642   6.979
 1193TIP3   OH2 3521   5.149   2.711   0.201
 1193TIP3    H1 3522   5.199   2.763   0.138
 1193TIP3    H2 3523   5.183   2.738   0.286
 1194TIP3   OH2 3524   5.638   2.828   0.134
 1194TIP3    H1 3525   5.679   2.779   0.062
 1194TIP3    H2 3526   5.636   2.767   0.207
 1195TIP3   OH2 3527   7.422   6.691   6.721
 1195TIP3    H1 3528   7.462   6.613   6.682
 1195TIP3    H2 3529   7.495   6.752   6.732
 1196TIP3   OH2 3530   7.908   6.879   6.781
 1196TIP3    H1 3531   7.979   6.840   6.832
 1196TIP3    H2 3532   7.926   6.973   6.783
 1197TIP3   OH2 3533   4.893   2.957   1.179
 1197TIP3    H1 3534   4.856   2.889   1.236
 1197TIP3    H2 3535   4.984   2.963   1.205
 1198TIP3   OH2 3536   5.144   2.960   1.296
 1198TIP3    H1 3537   5.222   2.941   1.245
 1198TIP3    H2 3538   5.138   2.887   1.358
 1199TIP3   OH2 3539   5.965   3.048   1.111
 1199TIP3    H1 3540   5.990   3.014   1.197
 1199TIP3    H2 3541   6.048   3.051   1.062
 1200TIP3   OH2 3542   5.879   4.585   0.603
 1200TIP3    H1 3543   5.809   4.574   0.538
 1200TIP3    H2 3544   5.901   4.678   0.600
 1201TIP3   OH2 3545   6.673   3.333   0.201
 1201TIP3    H1 3546   6.644   3.419   0.169
 1201TIP3    H2 3547   6.629   3.324   0.285
 1202TIP3   OH2 3548   6.613   3.945   0.402
 1202TIP3    H1 3549   6.619   4.038   0.427
 1202TIP3    H2 3550   6.519   3.927   0.400
 1203TIP3   OH2 3551   6.252   3.976   0.202
 1203TIP3    H1 3552   6.260   4.067   0.174
 1203TIP3    H2 3553   6.298   3.973   0.286
 1204TIP3   OH2 3554   6.479   4.253   0.259
 1204TIP3    H1 3555   6.525   4.243   0.342
 1204TIP3    H2 3556   6.386   4.251   0.282
 1205TIP3   OH2 3557   7.291   3.188   0.250
 1205TIP3    H1 3558   7.357   3.236   0.301
 1205TIP3    H2 3559   7.216   3.181   0.307
 1206TIP3   OH2 3560   7.263   3.876   0.392
 1206TIP3    H1 3561   7.252   3.799   0.447
 1206TIP3    H2 3562   7.348   3.865   0.350
 1207TIP3   OH2 3563   6.615   3.613   0.277
 1207TIP3    H1 3564   6.598   3.700   0.314
 1207TIP3    H2 3565   6.586   3.552   0.345
 1208TIP3   OH2 3566   6.592   4.199   0.509
 1208TIP3    H1 3567   6.673   4.223   0.554
 1208TIP3    H2 3568   6.523   4.213   0.574
 1209TIP3   OH2 3569   6.347   3.907   0.459
 1209TIP3    H1 3570   6.385   3.919   0.546
 1209TIP3    H2 3571   6.279   3.841   0.472
 1210TIP3   OH2 3572   7.036   4.008   0.467
 1210TIP3    H1 3573   6.974   3.954   0.418
 1210TIP3    H2 3574   7.122   3.983   0.433
 1211TIP3   OH2 3575   6.534   3.397   0.436
 1211TIP3    H1 3576   6.439   3.411   0.446
 1211TIP3    H2 3577   6.561   3.355   0.517
 1212TIP3   OH2 3578   6.217   4.736   0.430
 1212TIP3    H1 3579   6.310   4.761   0.428
 1212TIP3    H2 3580   6.218   4.642   0.410
 1213TIP3   OH2 3581   6.711   4.655   0.542
 1213TIP3    H1 3582   6.747   4.722   0.599
 1213TIP3    H2 3583   6.788   4.607   0.510
 1214TIP3   OH2 3584   6.396   4.184   0.711
 1214TIP3    H1 3585   6.409   4.091   0.727
 1214TIP3    H2 3586   6.312   4.190   0.666
 1215TIP3   OH2 3587   6.988   4.284   0.415
 1215TIP3    H1 3588   6.950   4.264   0.330
 1215TIP3    H2 3589   7.051   4.214   0.430
 1216TIP3   OH2 3590   6.517   3.925   0.690
 1216TIP3    H1 3591   6.593   3.923   0.632
 1216TIP3    H2 3592   6.551   3.962   0.772
 1217TIP3   OH2 3593   6.856   3.858   0.319
 1217TIP3    H1 3594   6.772   3.888   0.354
 1217TIP3    H2 3595   6.846   3.866   0.224
 1218TIP3   OH2 3596   7.263   4.202   0.461
 1218TIP3    H1 3597   7.312   4.285   0.457
 1218TIP3    H2 3598   7.310   4.150   0.526
 1219TIP3   OH2 3599   6.956   3.638   0.452
 1219TIP3    H1 3600   6.946   3.564   0.392
 1219TIP3    H2 3601   6.927   3.714   0.400
 1220TIP3   OH2 3602   6.928   3.427   0.272
 1220TIP3    H1 3603   6.978   3.391   0.199
 1220TIP3    H2 3604   6.837   3.408   0.250
 1221TIP3   OH2 3605   7.590   3.896   0.562
 1221TIP3    H1 3606   7.550   3.820   0.521
 1221TIP3    H2 3607   7.655   3.926   0.499
 1222TIP3   OH2 3608   6.841   3.714   0.695
 1222TIP3    H1 3609   6.772   3.649   0.714
 1222TIP3    H2 3610   6.870   3.694   0.606
 1223TIP3   OH2 3611   7.058   3.213   0.392
 1223TIP3    H1 3612   7.016   3.296   0.366
 1223TIP3    H2 3613   6.994   3.146   0.368
 1224TIP3   OH2 3614   7.221   3.645   0.544
 1224TIP3    H1 3615   7.208   3.641   0.639
 1224TIP3    H2 3616   7.133   3.636   0.507
 1225TIP3   OH2 3617   7.479   3.677   0.444
 1225TIP3    H1 3618   7.395   3.653   0.484
 1225TIP3    H2 3619   7.542   3.616   0.483
 1226TIP3   OH2 3620   7.669   3.534   0.578
 1226TIP3    H1 3621   7.712   3.452   0.603
 1226TIP3    H2 3622   7.683   3.592   0.653
 1227TIP3   OH2 3623   6.675   3.498   0.764
 1227TIP3    H1 3624   6.681   3.407   0.732
 1227TIP3    H2 3625   6.713   3.495   0.852
 1228TIP3   OH2 3626   7.158   3.162   0.638
 1228TIP3    H1 3627   7.241   3.119   0.619
 1228TIP3    H2 3628   7.120   3.181   0.552
 1229TIP3   OH2 3629   7.252   3.389   0.761
 1229TIP3    H1 3630   7.219   3.312   0.714
 1229TIP3    H2 3631   7.180   3.451   0.761
 1230TIP3   OH2 3632   6.412   3.537   0.688
 1230TIP3    H1 3633   6.505   3.540   0.712
 1230TIP3    H2 3634   6.379   3.457   0.730
 1231TIP3   OH2 3635   6.369   3.096   0.463
 1231TIP3    H1 3636   6.318   3.085   0.543
 1231TIP3    H2 3637   6.308   3.135   0.400
 1232TIP3   OH2 3638   6.382   4.442   0.509
 1232TIP3    H1 3639   6.435   4.468   0.433
 1232TIP3    H2 3640   6.428   4.481   0.583
 1233TIP3   OH2 3641   6.689   3.230   0.689
 1233TIP3    H1 3642   6.655   3.157   0.740
 1233TIP3    H2 3643   6.781   3.235   0.712
 1234TIP3   OH2 3644   6.939   3.225   0.802
 1234TIP3    H1 3645   7.016   3.201   0.751
 1234TIP3    H2 3646   6.926   3.152   0.862
 1235TIP3   OH2 3647   0.454   4.297   1.473
 1235TIP3    H1 3648   0.472   4.379   1.518
 1235TIP3    H2 3649   0.492   4.309   1.385
 1236TIP3   OH2 3650   8.429   4.463   1.452
 1236TIP3    H1 3651   8.436   4.372   1.478
 1236TIP3    H2 3652   8.508   4.480   1.400
 1237TIP3   OH2 3653   0.515   4.509   1.643
 1237TIP3    H1 3654   0.435   4.559   1.626
 1237TIP3    H2 3655   0.556   4.554   1.717
 1238TIP3   OH2 3656   0.066   4.227   1.274
 1238TIP3    H1 3657   0.133   4.169   1.238
 1238TIP3    H2 3658   0.114   4.305   1.302
 1239TIP3   OH2 3659   0.236   4.191   1.622
 1239TIP3    H1 3660   0.148   4.210   1.590
 1239TIP3    H2 3661   0.294   4.227   1.555
 1240TIP3   OH2 3662   0.098   5.230   1.601
 1240TIP3    H1 3663   0.142   5.166   1.545
 1240TIP3    H2 3664   0.157   5.305   1.603
 1241TIP3   OH2 3665   0.355   4.860   1.476
 1241TIP3    H1 3666   0.270   4.903   1.484
 1241TIP3    H2 3667   0.376   4.866   1.383
 1242TIP3   OH2 3668   0.073   4.729   1.794
 1242TIP3    H1 3669   0.062   4.808   1.847
 1242TIP3    H2 3670  -0.002   4.729   1.735
 1243TIP3   OH2 3671   0.272   5.443   1.629
 1243TIP3    H1 3672   0.330   5.514   1.601
 1243TIP3    H2 3673   0.217   5.482   1.697
 1244TIP3   OH2 3674   0.290   4.678   1.964
 1244TIP3    H1 3675   0.213   4.698   1.912
 1244TIP3    H2 3676   0.304   4.584   1.950
 1245TIP3   OH2 3677   8.380   4.032   1.931
 1245TIP3    H1 3678   8.442   4.009   2.000
 1245TIP3    H2 3679   8.300   4.056   1.977
 1246TIP3   OH2 3680   0.020   4.458   1.828
 1246TIP3    H1 3681   0.008   4.436   1.920
 1246TIP3    H2 3682   0.052   4.548   1.829
 1247TIP3   OH2 3683   8.355   4.683   2.078
 1247TIP3    H1 3684   8.298   4.681   2.155
 1247TIP3    H2 3685   8.444   4.690   2.114
 1248TIP3   OH2 3686   8.352   4.616   1.656
 1248TIP3    H1 3687   8.382   4.576   1.574
 1248TIP3    H2 3688   8.380   4.555   1.724
 1249TIP3   OH2 3689   8.465   4.208   1.556
 1249TIP3    H1 3690   8.397   4.205   1.623
 1249TIP3    H2 3691   8.431   4.153   1.485
 1250TIP3   OH2 3692   8.119   4.434   1.662
 1250TIP3    H1 3693   8.043   4.414   1.717
 1250TIP3    H2 3694   8.186   4.372   1.690
 1251TIP3   OH2 3695   0.101   4.967   1.485
 1251TIP3    H1 3696   0.060   4.977   1.399
 1251TIP3    H2 3697   0.028   4.975   1.547
 1252TIP3   OH2 3698   8.040   4.858   2.156
 1252TIP3    H1 3699   7.948   4.878   2.140
 1252TIP3    H2 3700   8.088   4.921   2.102
 1253TIP3   OH2 3701   0.418   5.226   1.710
 1253TIP3    H1 3702   0.369   5.307   1.700
 1253TIP3    H2 3703   0.442   5.200   1.621
 1254TIP3   OH2 3704   8.322   4.269   1.783
 1254TIP3    H1 3705   8.404   4.316   1.796
 1254TIP3    H2 3706   8.330   4.190   1.837
 1255TIP3   OH2 3707   8.226   4.525   1.907
 1255TIP3    H1 3708   8.283   4.580   1.961
 1255TIP3    H2 3709   8.266   4.438   1.909
 1256TIP3   OH2 3710   0.300   4.424   1.847
 1256TIP3    H1 3711   0.210   4.397   1.827
 1256TIP3    H2 3712   0.348   4.409   1.766
 1257TIP3   OH2 3713   8.329   5.533   2.007
 1257TIP3    H1 3714   8.277   5.555   2.084
 1257TIP3    H2 3715   8.411   5.583   2.019
 1258TIP3   OH2 3716   8.419   5.070   1.732
 1258TIP3    H1 3717   8.484   5.128   1.694
 1258TIP3    H2 3718   8.353   5.128   1.769
 1259TIP3   OH2 3719   8.388   5.033   2.222
 1259TIP3    H1 3720   8.378   5.022   2.128
 1259TIP3    H2 3721   8.365   4.947   2.259
 1260TIP3   OH2 3722   7.901   4.137   1.842
 1260TIP3    H1 3723   7.907   4.231   1.826
 1260TIP3    H2 3724   7.811   4.124   1.872
 1261TIP3   OH2 3725   0.098   4.696   2.207
 1261TIP3    H1 3726   0.160   4.624   2.195
 1261TIP3    H2 3727   0.150   4.775   2.194
 1262TIP3   OH2 3728   0.066   4.962   1.945
 1262TIP3    H1 3729   0.005   5.013   1.892
 1262TIP3    H2 3730   0.152   4.984   1.909
 1263TIP3   OH2 3731   8.031   3.877   2.023
 1263TIP3    H1 3732   8.082   3.943   1.976
 1263TIP3    H2 3733   7.965   3.927   2.071
 1264TIP3   OH2 3734   8.204   4.408   2.202
 1264TIP3    H1 3735   8.254   4.425   2.281
 1264TIP3    H2 3736   8.163   4.492   2.181
 1265TIP3   OH2 3737   8.456   4.379   2.075
 1265TIP3    H1 3738   8.375   4.373   2.126
 1265TIP3    H2 3739   8.526   4.372   2.139
 1266TIP3   OH2 3740   0.170   4.367   2.252
 1266TIP3    H1 3741   0.181   4.272   2.265
 1266TIP3    H2 3742   0.160   4.402   2.341
 1267TIP3   OH2 3743   8.244   3.989   2.207
 1267TIP3    H1 3744   8.293   3.906   2.208
 1267TIP3    H2 3745   8.162   3.967   2.163
 1268TIP3   OH2 3746   8.275   4.174   2.399
 1268TIP3    H1 3747   8.279   4.113   2.325
 1268TIP3    H2 3748   8.181   4.183   2.417
 1269TIP3   OH2 3749   0.239   5.356   2.029
 1269TIP3    H1 3750   0.195   5.378   2.111
 1269TIP3    H2 3751   0.296   5.430   2.011
 1270TIP3   OH2 3752   0.312   5.008   1.835
 1270TIP3    H1 3753   0.376   4.940   1.814
 1270TIP3    H2 3754   0.340   5.084   1.783
 1271TIP3   OH2 3755   0.490   4.798   1.823
 1271TIP3    H1 3756   0.422   4.758   1.877
 1271TIP3    H2 3757   0.568   4.745   1.841
 1272TIP3   OH2 3758   0.194   4.466   1.380
 1272TIP3    H1 3759   0.268   4.494   1.325
 1272TIP3    H2 3760   0.210   4.508   1.464
 1273TIP3   OH2 3761   0.268   4.630   1.603
 1273TIP3    H1 3762   0.205   4.663   1.667
 1273TIP3    H2 3763   0.299   4.708   1.557
 1274TIP3   OH2 3764   0.716   4.233   2.140
 1274TIP3    H1 3765   0.778   4.173   2.100
 1274TIP3    H2 3766   0.680   4.283   2.066
 1275TIP3   OH2 3767   0.565   4.354   1.948
 1275TIP3    H1 3768   0.491   4.393   1.994
 1275TIP3    H2 3769   0.526   4.283   1.896
 1276TIP3   OH2 3770   0.471   4.109   1.842
 1276TIP3    H1 3771   0.384   4.101   1.803
 1276TIP3    H2 3772   0.508   4.021   1.837
 1277TIP3   OH2 3773   0.270   4.071   1.170
 1277TIP3    H1 3774   0.288   3.987   1.129
 1277TIP3    H2 3775   0.334   4.131   1.131
 1278TIP3   OH2 3776   0.231   4.100   2.274
 1278TIP3    H1 3777   0.250   4.070   2.363
 1278TIP3    H2 3778   0.316   4.098   2.229
 1279TIP3   OH2 3779   0.139   5.608   1.809
 1279TIP3    H1 3780   0.075   5.664   1.764
 1279TIP3    H2 3781   0.224   5.648   1.790
 1280TIP3   OH2 3782   1.416   4.968   0.532
 1280TIP3    H1 3783   1.396   5.062   0.535
 1280TIP3    H2 3784   1.340   4.929   0.489
 1281TIP3   OH2 3785   1.419   5.005   0.929
 1281TIP3    H1 3786   1.465   4.991   1.011
 1281TIP3    H2 3787   1.371   4.923   0.913
 1282TIP3   OH2 3788   0.717   4.873   1.267
 1282TIP3    H1 3789   0.743   4.824   1.345
 1282TIP3    H2 3790   0.800   4.895   1.223
 1283TIP3   OH2 3791   1.687   5.317   0.624
 1283TIP3    H1 3792   1.673   5.248   0.689
 1283TIP3    H2 3793   1.706   5.395   0.676
 1284TIP3   OH2 3794   0.732   5.328   1.036
 1284TIP3    H1 3795   0.721   5.233   1.039
 1284TIP3    H2 3796   0.822   5.340   1.004
 1285TIP3   OH2 3797   0.518   4.795   0.956
 1285TIP3    H1 3798   0.541   4.711   0.996
 1285TIP3    H2 3799   0.597   4.821   0.908
 1286TIP3   OH2 3800   1.435   5.752   0.695
 1286TIP3    H1 3801   1.473   5.714   0.616
 1286TIP3    H2 3802   1.444   5.683   0.761
 1287TIP3   OH2 3803   1.237   5.226   0.942
 1287TIP3    H1 3804   1.279   5.143   0.917
 1287TIP3    H2 3805   1.309   5.280   0.974
 1288TIP3   OH2 3806   2.246   4.556   0.955
 1288TIP3    H1 3807   2.264   4.639   1.000
 1288TIP3    H2 3808   2.264   4.574   0.863
 1289TIP3   OH2 3809   1.635   4.722   0.982
 1289TIP3    H1 3810   1.666   4.635   1.008
 1289TIP3    H2 3811   1.590   4.708   0.899
 1290TIP3   OH2 3812   0.990   4.396   0.954
 1290TIP3    H1 3813   0.964   4.467   0.894
 1290TIP3    H2 3814   0.947   4.318   0.919
 1291TIP3   OH2 3815   1.692   4.525   0.578
 1291TIP3    H1 3816   1.754   4.503   0.647
 1291TIP3    H2 3817   1.746   4.546   0.503
 1292TIP3   OH2 3818   0.604   4.560   1.063
 1292TIP3    H1 3819   0.688   4.547   1.108
 1292TIP3    H2 3820   0.611   4.508   0.983
 1293TIP3   OH2 3821   1.028   4.809   0.873
 1293TIP3    H1 3822   1.122   4.790   0.880
 1293TIP3    H2 3823   0.989   4.725   0.848
 1294TIP3   OH2 3824   2.305   4.777   1.117
 1294TIP3    H1 3825   2.215   4.810   1.115
 1294TIP3    H2 3826   2.340   4.809   1.200
 1295TIP3   OH2 3827   0.964   4.381   1.396
 1295TIP3    H1 3828   0.913   4.419   1.324
 1295TIP3    H2 3829   0.911   4.397   1.474
 1296TIP3   OH2 3830   1.345   5.224   0.460
 1296TIP3    H1 3831   1.324   5.216   0.366
 1296TIP3    H2 3832   1.409   5.295   0.463
 1297TIP3   OH2 3833   1.065   5.154   1.159
 1297TIP3    H1 3834   1.011   5.219   1.204
 1297TIP3    H2 3835   1.102   5.200   1.084
 1298TIP3   OH2 3836   1.849   4.500   0.798
 1298TIP3    H1 3837   1.803   4.477   0.879
 1298TIP3    H2 3838   1.900   4.578   0.821
 1299TIP3   OH2 3839   0.849   4.489   1.170
 1299TIP3    H1 3840   0.902   4.566   1.195
 1299TIP3    H2 3841   0.899   4.448   1.100
 1300TIP3   OH2 3842   0.911   5.333   1.296
 1300TIP3    H1 3843   0.892   5.418   1.256
 1300TIP3    H2 3844   0.834   5.313   1.348
 1301TIP3   OH2 3845   1.717   5.562   0.756
 1301TIP3    H1 3846   1.634   5.560   0.803
 1301TIP3    H2 3847   1.719   5.648   0.714
 1302TIP3   OH2 3848   2.042   4.449   1.122
 1302TIP3    H1 3849   1.956   4.468   1.083
 1302TIP3    H2 3850   2.105   4.475   1.055
 1303TIP3   OH2 3851   1.305   4.103   1.114
 1303TIP3    H1 3852   1.296   4.011   1.140
 1303TIP3    H2 3853   1.228   4.146   1.150
 1304TIP3   OH2 3854   1.544   5.650   0.460
 1304TIP3    H1 3855   1.539   5.558   0.436
 1304TIP3    H2 3856   1.637   5.668   0.468
 1305TIP3   OH2 3857   1.563   5.386   0.396
 1305TIP3    H1 3858   1.596   5.333   0.323
 1305TIP3    H2 3859   1.613   5.357   0.472
 1306TIP3   OH2 3860   1.956   5.451   1.093
 1306TIP3    H1 3861   1.934   5.377   1.036
 1306TIP3    H2 3862   1.942   5.528   1.038
 1307TIP3   OH2 3863   1.236   4.845   0.344
 1307TIP3    H1 3864   1.187   4.786   0.287
 1307TIP3    H2 3865   1.300   4.887   0.286
 1308TIP3   OH2 3866   1.130   4.660   0.173
 1308TIP3    H1 3867   1.162   4.586   0.225
 1308TIP3    H2 3868   1.081   4.618   0.102
 1309TIP3   OH2 3869   2.130   5.117   0.955
 1309TIP3    H1 3870   2.045   5.161   0.955
 1309TIP3    H2 3871   2.164   5.130   0.867
 1310TIP3   OH2 3872   1.635   4.988   0.366
 1310TIP3    H1 3873   1.570   4.979   0.437
 1310TIP3    H2 3874   1.714   4.947   0.401
 1311TIP3   OH2 3875   1.827   4.979   1.266
 1311TIP3    H1 3876   1.823   5.061   1.314
 1311TIP3    H2 3877   1.744   4.975   1.218
 1312TIP3   OH2 3878   0.804   4.935   0.764
 1312TIP3    H1 3879   0.796   4.892   0.679
 1312TIP3    H2 3880   0.889   4.907   0.797
 1313TIP3   OH2 3881   0.980   5.328   0.921
 1313TIP3    H1 3882   0.962   5.378   0.842
 1313TIP3    H2 3883   1.071   5.298   0.910
 1314TIP3   OH2 3884   0.942   4.916   1.113
 1314TIP3    H1 3885   0.975   4.888   1.028
 1314TIP3    H2 3886   0.986   5.000   1.129
 1315TIP3   OH2 3887   1.487   5.567   0.900
 1315TIP3    H1 3888   1.474   5.638   0.963
 1315TIP3    H2 3889   1.471   5.487   0.951
 1316TIP3   OH2 3890   1.100   5.471   1.440
 1316TIP3    H1 3891   1.041   5.536   1.480
 1316TIP3    H2 3892   1.042   5.413   1.391
 1317TIP3   OH2 3893   1.434   4.954   0.185
 1317TIP3    H1 3894   1.509   4.960   0.243
 1317TIP3    H2 3895   1.470   4.969   0.097
 1318TIP3   OH2 3896   0.865   5.001   1.566
 1318TIP3    H1 3897   0.870   5.093   1.594
 1318TIP3    H2 3898   0.771   4.982   1.563
 1319TIP3   OH2 3899   0.881   5.642   1.514
 1319TIP3    H1 3900   0.860   5.622   1.423
 1319TIP3    H2 3901   0.805   5.611   1.564
 1320TIP3   OH2 3902   2.048   4.097   0.302
 1320TIP3    H1 3903   1.960   4.065   0.319
 1320TIP3    H2 3904   2.035   4.173   0.245
 1321TIP3   OH2 3905   0.470   5.161   1.452
 1321TIP3    H1 3906   0.420   5.191   1.376
 1321TIP3    H2 3907   0.493   5.071   1.432
 1322TIP3   OH2 3908   2.184   5.826   1.162
 1322TIP3    H1 3909   2.189   5.731   1.171
 1322TIP3    H2 3910   2.107   5.851   1.212
 1323TIP3   OH2 3911   1.280   5.593   1.273
 1323TIP3    H1 3912   1.278   5.686   1.297
 1323TIP3    H2 3913   1.213   5.553   1.328
 1324TIP3   OH2 3914   2.073   4.930   1.422
 1324TIP3    H1 3915   1.988   4.940   1.379
 1324TIP3    H2 3916   2.090   4.835   1.420
 1325TIP3   OH2 3917   0.696   5.320   1.465
 1325TIP3    H1 3918   0.740   5.308   1.549
 1325TIP3    H2 3919   0.618   5.264   1.470
 1326TIP3   OH2 3920   1.063   4.178   1.236
 1326TIP3    H1 3921   0.979   4.147   1.202
 1326TIP3    H2 3922   1.040   4.253   1.291
 1327TIP3   OH2 3923   1.608   4.289   1.444
 1327TIP3    H1 3924   1.677   4.265   1.506
 1327TIP3    H2 3925   1.526   4.273   1.492
 1328TIP3   OH2 3926   1.828   4.715   1.359
 1328TIP3    H1 3927   1.786   4.710   1.444
 1328TIP3    H2 3928   1.810   4.804   1.328
 1329TIP3   OH2 3929   1.100   4.218   0.196
 1329TIP3    H1 3930   1.120   4.207   0.289
 1329TIP3    H2 3931   1.124   4.135   0.157
 1330TIP3   OH2 3932   1.010   4.695   1.261
 1330TIP3    H1 3933   0.963   4.705   1.344
 1330TIP3    H2 3934   0.994   4.776   1.213
 1331TIP3   OH2 3935   0.872   4.589   0.795
 1331TIP3    H1 3936   0.785   4.553   0.808
 1331TIP3    H2 3937   0.890   4.575   0.702
 1332TIP3   OH2 3938   1.358   4.657   0.505
 1332TIP3    H1 3939   1.304   4.727   0.467
 1332TIP3    H2 3940   1.439   4.658   0.453
 1333TIP3   OH2 3941   1.549   4.920   1.569
 1333TIP3    H1 3942   1.521   4.853   1.631
 1333TIP3    H2 3943   1.641   4.937   1.590
 1334TIP3   OH2 3944   1.528   4.684   0.734
 1334TIP3    H1 3945   1.462   4.713   0.672
 1334TIP3    H2 3946   1.579   4.619   0.685
 1335TIP3   OH2 3947   0.837   4.716   1.473
 1335TIP3    H1 3948   0.840   4.785   1.539
 1335TIP3    H2 3949   0.819   4.636   1.523
 1336TIP3   OH2 3950   0.457   4.237   1.057
 1336TIP3    H1 3951   0.512   4.266   1.130
 1336TIP3    H2 3952   0.482   4.294   0.984
 1337TIP3   OH2 3953   1.574   4.925   1.150
 1337TIP3    H1 3954   1.602   4.857   1.089
 1337TIP3    H2 3955   1.528   4.877   1.219
 1338TIP3   OH2 3956   1.262   4.420   0.883
 1338TIP3    H1 3957   1.181   4.408   0.932
 1338TIP3    H2 3958   1.331   4.395   0.945
 1339TIP3   OH2 3959   0.643   4.422   0.831
 1339TIP3    H1 3960   0.595   4.410   0.749
 1339TIP3    H2 3961   0.703   4.348   0.834
 1340TIP3   OH2 3962   0.925   4.521   0.539
 1340TIP3    H1 3963   1.018   4.507   0.555
 1340TIP3    H2 3964   0.902   4.455   0.473
 1341TIP3   OH2 3965   1.706   4.458   1.036
 1341TIP3    H1 3966   1.685   4.477   1.127
 1341TIP3    H2 3967   1.639   4.394   1.009
 1342TIP3   OH2 3968   1.898   6.167   1.250
 1342TIP3    H1 3969   1.894   6.181   1.156
 1342TIP3    H2 3970   1.978   6.212   1.278
 1343TIP3   OH2 3971   0.848   5.250   1.692
 1343TIP3    H1 3972   0.929   5.280   1.735
 1343TIP3    H2 3973   0.780   5.265   1.757
 1344TIP3   OH2 3974   1.297   4.743   0.927
 1344TIP3    H1 3975   1.359   4.689   0.880
 1344TIP3    H2 3976   1.291   4.704   1.014
 1345TIP3   OH2 3977   0.818   4.214   0.835
 1345TIP3    H1 3978   0.781   4.135   0.875
 1345TIP3    H2 3979   0.861   4.183   0.755
 1346TIP3   OH2 3980   1.273   4.643   1.190
 1346TIP3    H1 3981   1.186   4.672   1.218
 1346TIP3    H2 3982   1.334   4.694   1.243
 1347TIP3   OH2 3983   1.892   5.251   0.914
 1347TIP3    H1 3984   1.927   5.300   0.839
 1347TIP3    H2 3985   1.813   5.209   0.881
 1348TIP3   OH2 3986   1.513   4.417   0.235
 1348TIP3    H1 3987   1.439   4.410   0.175
 1348TIP3    H2 3988   1.517   4.510   0.257
 1349TIP3   OH2 3989   1.408   5.334   1.320
 1349TIP3    H1 3990   1.452   5.330   1.405
 1349TIP3    H2 3991   1.364   5.419   1.321
 1350TIP3   OH2 3992   1.557   4.674   0.317
 1350TIP3    H1 3993   1.652   4.667   0.314
 1350TIP3    H2 3994   1.534   4.717   0.234
 1351TIP3   OH2 3995   0.700   5.054   0.995
 1351TIP3    H1 3996   0.739   5.024   0.913
 1351TIP3    H2 3997   0.738   4.997   1.062
 1352TIP3   OH2 3998   0.604   4.920   1.593
 1352TIP3    H1 3999   0.598   4.908   1.688
 1352TIP3    H2 4000   0.520   4.888   1.560
 1353TIP3   OH2 4001   1.318   5.077   1.610
 1353TIP3    H1 4002   1.249   5.017   1.582
 1353TIP3    H2 4003   1.399   5.036   1.580
 1354TIP3   OH2 4004   1.557   5.615   1.212
 1354TIP3    H1 4005   1.462   5.605   1.214
 1354TIP3    H2 4006   1.579   5.656   1.296
 1355TIP3   OH2 4007   1.975   4.667   0.104
 1355TIP3    H1 4008   1.899   4.635   0.055
 1355TIP3    H2 4009   1.989   4.756   0.070
 1356TIP3   OH2 4010   2.198   5.548   1.179
 1356TIP3    H1 4011   2.105   5.528   1.180
 1356TIP3    H2 4012   2.229   5.514   1.095
 1357TIP3   OH2 4013   1.663   5.114   0.815
 1357TIP3    H1 4014   1.575   5.091   0.845
 1357TIP3    H2 4015   1.699   5.032   0.781
 1358TIP3   OH2 4016   1.067   5.692   1.066
 1358TIP3    H1 4017   1.115   5.764   1.027
 1358TIP3    H2 4018   1.132   5.643   1.116
 1359TIP3   OH2 4019   1.470   5.332   1.052
 1359TIP3    H1 4020   1.447   5.331   1.145
 1359TIP3    H2 4021   1.554   5.286   1.048
 1360TIP3   OH2 4022   1.725   5.827   1.098
 1360TIP3    H1 4023   1.648   5.774   1.121
 1360TIP3    H2 4024   1.694   5.885   1.028
 1361TIP3   OH2 4025   0.792   4.457   1.599
 1361TIP3    H1 4026   0.697   4.463   1.605
 1361TIP3    H2 4027   0.819   4.412   1.679
 1362TIP3   OH2 4028   1.670   5.214   0.211
 1362TIP3    H1 4029   1.649   5.140   0.268
 1362TIP3    H2 4030   1.750   5.187   0.165
 1363TIP3   OH2 4031   0.613   5.552   1.327
 1363TIP3    H1 4032   0.522   5.577   1.343
 1363TIP3    H2 4033   0.628   5.478   1.385
 1364TIP3   OH2 4034   1.640   4.519   1.294
 1364TIP3    H1 4035   1.716   4.566   1.330
 1364TIP3    H2 4036   1.629   4.443   1.351
 1365TIP3   OH2 4037   1.513   4.337   0.495
 1365TIP3    H1 4038   1.507   4.352   0.401
 1365TIP3    H2 4039   1.571   4.407   0.527
 1366TIP3   OH2 4040   1.183   4.482   0.628
 1366TIP3    H1 4041   1.247   4.549   0.601
 1366TIP3    H2 4042   1.204   4.465   0.720
 1367TIP3   OH2 4043   1.477   4.755   1.344
 1367TIP3    H1 4044   1.499   4.800   1.426
 1367TIP3    H2 4045   1.528   4.674   1.346
 1368TIP3   OH2 4046   1.353   4.237   0.693
 1368TIP3    H1 4047   1.330   4.299   0.761
 1368TIP3    H2 4048   1.409   4.286   0.633
 1369TIP3   OH2 4049   0.885   4.305   0.367
 1369TIP3    H1 4050   0.839   4.222   0.352
 1369TIP3    H2 4051   0.946   4.313   0.294
 1370TIP3   OH2 4052   2.088   4.650   1.330
 1370TIP3    H1 4053   1.995   4.665   1.344
 1370TIP3    H2 4054   2.092   4.587   1.258
 1371TIP3   OH2 4055   1.758   4.860   0.731
 1371TIP3    H1 4056   1.678   4.809   0.745
 1371TIP3    H2 4057   1.823   4.819   0.788
 1372TIP3   OH2 4058   1.761   5.816   0.656
 1372TIP3    H1 4059   1.742   5.864   0.575
 1372TIP3    H2 4060   1.855   5.827   0.669
 1373TIP3   OH2 4061   0.799   4.095   1.191
 1373TIP3    H1 4062   0.761   4.061   1.111
 1373TIP3    H2 4063   0.792   4.023   1.254
 1374TIP3   OH2 4064   0.607   5.935   1.611
 1374TIP3    H1 4065   0.665   5.926   1.686
 1374TIP3    H2 4066   0.540   5.868   1.625
 1375TIP3   OH2 4067   0.993   5.764   1.736
 1375TIP3    H1 4068   1.086   5.744   1.732
 1375TIP3    H2 4069   0.956   5.721   1.659
 1376TIP3   OH2 4070   1.613   5.724   1.457
 1376TIP3    H1 4071   1.626   5.655   1.522
 1376TIP3    H2 4072   1.686   5.785   1.473
 1377TIP3   OH2 4073   0.639   5.248   1.873
 1377TIP3    H1 4074   0.657   5.155   1.884
 1377TIP3    H2 4075   0.557   5.250   1.823
 1378TIP3   OH2 4076   1.258   5.354   1.633
 1378TIP3    H1 4077   1.210   5.380   1.554
 1378TIP3    H2 4078   1.287   5.265   1.615
 1379TIP3   OH2 4079   1.725   5.390   1.236
 1379TIP3    H1 4080   1.803   5.423   1.192
 1379TIP3    H2 4081   1.661   5.460   1.227
 1380TIP3   OH2 4082   0.759   4.988   1.864
 1380TIP3    H1 4083   0.831   4.992   1.801
 1380TIP3    H2 4084   0.796   5.022   1.946
 1381TIP3   OH2 4085   1.119   4.897   1.512
 1381TIP3    H1 4086   1.033   4.937   1.522
 1381TIP3    H2 4087   1.151   4.927   1.427
 1382TIP3   OH2 4088   1.605   5.276   1.599
 1382TIP3    H1 4089   1.672   5.235   1.544
 1382TIP3    H2 4090   1.600   5.221   1.677
 1383TIP3   OH2 4091   1.212   4.666   1.624
 1383TIP3    H1 4092   1.216   4.596   1.558
 1383TIP3    H2 4093   1.180   4.742   1.575
 1384TIP3   OH2 4094   1.224   4.469   1.419
 1384TIP3    H1 4095   1.248   4.507   1.335
 1384TIP3    H2 4096   1.132   4.443   1.408
 1385TIP3   OH2 4097   1.242   4.995   1.290
 1385TIP3    H1 4098   1.327   5.038   1.285
 1385TIP3    H2 4099   1.182   5.054   1.243
 1386TIP3   OH2 4100   1.815   4.957   1.670
 1386TIP3    H1 4101   1.861   4.874   1.680
 1386TIP3    H2 4102   1.885   5.022   1.661
 1387TIP3   OH2 4103   1.846   5.220   1.409
 1387TIP3    H1 4104   1.793   5.280   1.357
 1387TIP3    H2 4105   1.936   5.236   1.379
 1388TIP3   OH2 4106   1.094   4.753   1.865
 1388TIP3    H1 4107   1.025   4.690   1.885
 1388TIP3    H2 4108   1.123   4.729   1.776
 1389TIP3   OH2 4109   1.341   4.237   1.519
 1389TIP3    H1 4110   1.302   4.318   1.487
 1389TIP3    H2 4111   1.273   4.170   1.506
 1390TIP3   OH2 4112   1.466   4.710   1.725
 1390TIP3    H1 4113   1.457   4.698   1.819
 1390TIP3    H2 4114   1.380   4.688   1.689
 1391TIP3   OH2 4115   1.709   4.661   1.594
 1391TIP3    H1 4116   1.631   4.663   1.649
 1391TIP3    H2 4117   1.780   4.639   1.654
 1392TIP3   OH2 4118   1.948   4.631   1.742
 1392TIP3    H1 4119   1.961   4.537   1.750
 1392TIP3    H2 4120   1.942   4.662   1.832
 1393TIP3   OH2 4121   0.930   4.532   1.930
 1393TIP3    H1 4122   0.936   4.444   1.895
 1393TIP3    H2 4123   0.968   4.526   2.017
 1394TIP3   OH2 4124   1.407   4.215   1.785
 1394TIP3    H1 4125   1.475   4.147   1.780
 1394TIP3    H2 4126   1.377   4.226   1.695
 1395TIP3   OH2 4127   1.502   4.431   1.929
 1395TIP3    H1 4128   1.471   4.358   1.874
 1395TIP3    H2 4129   1.429   4.493   1.930
 1396TIP3   OH2 4130   2.025   5.882   0.674
 1396TIP3    H1 4131   2.037   5.908   0.766
 1396TIP3    H2 4132   2.064   5.954   0.624
 1397TIP3   OH2 4133   2.022   5.919   0.948
 1397TIP3    H1 4134   1.975   5.835   0.944
 1397TIP3    H2 4135   2.091   5.904   1.012
 1398TIP3   OH2 4136   2.076   5.616   1.500
 1398TIP3    H1 4137   2.003   5.624   1.562
 1398TIP3    H2 4138   2.122   5.700   1.507
 1399TIP3   OH2 4139   1.911   5.118   0.116
 1399TIP3    H1 4140   1.971   5.185   0.084
 1399TIP3    H2 4141   1.955   5.079   0.191
 1400TIP3   OH2 4142   2.039   4.985   0.320
 1400TIP3    H1 4143   1.976   4.948   0.382
 1400TIP3    H2 4144   2.105   5.027   0.375
 1401TIP3   OH2 4145   2.071   5.391   0.751
 1401TIP3    H1 4146   2.125   5.324   0.710
 1401TIP3    H2 4147   2.080   5.467   0.694
 1402TIP3   OH2 4148   1.891   5.672   0.944
 1402TIP3    H1 4149   1.825   5.715   0.999
 1402TIP3    H2 4150   1.840   5.630   0.875
 1403TIP3   OH2 4151   7.590   0.892   6.893
 1403TIP3    H1 4152   7.510   0.840   6.883
 1403TIP3    H2 4153   7.568   0.957   6.960
 1404TIP3   OH2 4154   7.427   0.644   6.870
 1404TIP3    H1 4155   7.384   0.668   6.788
 1404TIP3    H2 4156   7.431   0.549   6.869
 1405TIP3   OH2 4157   1.850   4.852   0.472
 1405TIP3    H1 4158   1.852   4.758   0.452
 1405TIP3    H2 4159   1.826   4.856   0.564
 1406TIP3   OH2 4160   0.448   4.875   1.216
 1406TIP3    H1 4161   0.450   4.861   1.122
 1406TIP3    H2 4162   0.540   4.886   1.241
 1407TIP3   OH2 4163   2.103   5.266   1.313
 1407TIP3    H1 4164   2.172   5.201   1.298
 1407TIP3    H2 4165   2.109   5.325   1.238
 1408TIP3   OH2 4166   2.284   5.057   1.304
 1408TIP3    H1 4167   2.209   5.015   1.346
 1408TIP3    H2 4168   2.358   5.001   1.324
 1409TIP3   OH2 4169   1.804   4.385  -0.012
 1409TIP3    H1 4170   1.870   4.341   0.043
 1409TIP3    H2 4171   1.723   4.337   0.006
 1410TIP3   OH2 4172   1.841   4.598   0.345
 1410TIP3    H1 4173   1.879   4.512   0.365
 1410TIP3    H2 4174   1.885   4.626   0.266
 1411TIP3   OH2 4175   1.973   4.738   0.866
 1411TIP3    H1 4176   2.054   4.756   0.817
 1411TIP3    H2 4177   1.987   4.779   0.952
 1412TIP3   OH2 4178   2.045   4.889   1.090
 1412TIP3    H1 4179   1.972   4.917   1.146
 1412TIP3    H2 4180   2.075   4.970   1.048
 1413TIP3   OH2 4181   0.670   4.594   1.865
 1413TIP3    H1 4182   0.763   4.592   1.885
 1413TIP3    H2 4183   0.635   4.514   1.904
 1414TIP3   OH2 4184   2.506   4.488   1.628
 1414TIP3    H1 4185   2.570   4.429   1.587
 1414TIP3    H2 4186   2.468   4.537   1.555
 1415TIP3   OH2 4187   1.951   4.357   0.407
 1415TIP3    H1 4188   2.002   4.339   0.486
 1415TIP3    H2 4189   1.879   4.294   0.410
 1416TIP3   OH2 4190   0.638   4.310   1.254
 1416TIP3    H1 4191   0.692   4.232   1.245
 1416TIP3    H2 4192   0.699   4.383   1.238
 1417TIP3   OH2 4193   0.418   4.582   1.270
 1417TIP3    H1 4194   0.478   4.559   1.199
 1417TIP3    H2 4195   0.425   4.677   1.278
 1418TIP3   OH2 4196   2.356   4.605   1.432
 1418TIP3    H1 4197   2.278   4.645   1.472
 1418TIP3    H2 4198   2.322   4.536   1.376
 1419TIP3   OH2 4199   2.033   4.271   0.081
 1419TIP3    H1 4200   2.063   4.197   0.028
 1419TIP3    H2 4201   2.100   4.339   0.068
 1420TIP3   OH2 4202   0.626   4.123   1.600
 1420TIP3    H1 4203   0.583   4.127   1.686
 1420TIP3    H2 4204   0.571   4.176   1.543
 1421TIP3   OH2 4205   0.678   5.578   1.690
 1421TIP3    H1 4206   0.591   5.617   1.683
 1421TIP3    H2 4207   0.697   5.576   1.783
 1422TIP3   OH2 4208   0.874   5.599   1.242
 1422TIP3    H1 4209   0.780   5.612   1.228
 1422TIP3    H2 4210   0.915   5.640   1.167
 1423TIP3   OH2 4211   1.281   5.854   1.355
 1423TIP3    H1 4212   1.311   5.850   1.445
 1423TIP3    H2 4213   1.342   5.914   1.311
 1424TIP3   OH2 4214   1.454   6.032   1.241
 1424TIP3    H1 4215   1.506   5.985   1.176
 1424TIP3    H2 4216   1.518   6.084   1.290
 1425TIP3   OH2 4217   2.268   4.354   1.325
 1425TIP3    H1 4218   2.179   4.343   1.290
 1425TIP3    H2 4219   2.306   4.266   1.320
 1426TIP3   OH2 4220   1.198   5.892   0.930
 1426TIP3    H1 4221   1.142   5.892   0.852
 1426TIP3    H2 4222   1.188   5.979   0.967
 1427TIP3   OH2 4223   1.455   5.830   0.999
 1427TIP3    H1 4224   1.363   5.845   0.977
 1427TIP3    H2 4225   1.504   5.880   0.934
 1428TIP3   OH2 4226   1.659   5.975   0.870
 1428TIP3    H1 4227   1.651   6.066   0.840
 1428TIP3    H2 4228   1.682   5.926   0.791
 1429TIP3   OH2 4229   1.488   4.281   0.982
 1429TIP3    H1 4230   1.435   4.212   1.021
 1429TIP3    H2 4231   1.546   4.236   0.921
 1430TIP3   OH2 4232   1.982   4.196   0.846
 1430TIP3    H1 4233   2.019   4.249   0.777
 1430TIP3    H2 4234   1.888   4.216   0.845
 1431TIP3   OH2 4235   2.109   4.293   0.626
 1431TIP3    H1 4236   2.181   4.234   0.602
 1431TIP3    H2 4237   2.144   4.381   0.610
 1432TIP3   OH2 4238   0.703   3.989   0.946
 1432TIP3    H1 4239   0.626   3.963   0.896
 1432TIP3    H2 4240   0.755   3.909   0.953
 1433TIP3   OH2 4241   1.199   4.058   0.856
 1433TIP3    H1 4242   1.253   4.101   0.790
 1433TIP3    H2 4243   1.244   4.077   0.939
 1434TIP3   OH2 4244   1.701   4.167   0.838
 1434TIP3    H1 4245   1.676   4.132   0.752
 1434TIP3    H2 4246   1.704   4.090   0.895
 1435TIP3   OH2 4247   1.749   4.184   0.465
 1435TIP3    H1 4248   1.661   4.222   0.473
 1435TIP3    H2 4249   1.741   4.097   0.505
 1436TIP3   OH2 4250   1.178   4.232   0.463
 1436TIP3    H1 4251   1.196   4.143   0.494
 1436TIP3    H2 4252   1.177   4.285   0.542
 1437TIP3   OH2 4253   0.938   4.261   1.840
 1437TIP3    H1 4254   0.904   4.194   1.899
 1437TIP3    H2 4255   1.030   4.269   1.862
 1438TIP3   OH2 4256   1.187   4.267   1.959
 1438TIP3    H1 4257   1.266   4.246   1.908
 1438TIP3    H2 4258   1.182   4.198   2.025
 1439TIP3   OH2 4259   2.011   4.360   1.751
 1439TIP3    H1 4260   2.027   4.330   1.841
 1439TIP3    H2 4261   2.096   4.354   1.709
 1440TIP3   OH2 4262   1.938   5.893   1.264
 1440TIP3    H1 4263   1.865   5.860   1.212
 1440TIP3    H2 4264   1.923   5.988   1.269
 1441TIP3   OH2 4265   3.227   5.288   0.063
 1441TIP3    H1 4266   3.201   5.371   0.024
 1441TIP3    H2 4267   3.152   5.231   0.050
 1442TIP3   OH2 4268   3.180   5.262   0.424
 1442TIP3    H1 4269   3.242   5.247   0.495
 1442TIP3    H2 4270   3.140   5.176   0.408
 1443TIP3   OH2 4271   2.501   5.132   0.764
 1443TIP3    H1 4272   2.538   5.080   0.835
 1443TIP3    H2 4273   2.577   5.158   0.712
 1444TIP3   OH2 4274   3.498   5.572   0.044
 1444TIP3    H1 4275   3.462   5.492   0.083
 1444TIP3    H2 4276   3.496   5.637   0.114
 1445TIP3   OH2 4277   2.497   5.555   0.446
 1445TIP3    H1 4278   2.478   5.462   0.459
 1445TIP3    H2 4279   2.593   5.560   0.448
 1446TIP3   OH2 4280   2.198   4.766   0.244
 1446TIP3    H1 4281   2.159   4.849   0.271
 1446TIP3    H2 4282   2.123   4.711   0.222
 1447TIP3   OH2 4283   2.265   5.076   0.454
 1447TIP3    H1 4284   2.315   5.000   0.484
 1447TIP3    H2 4285   2.331   5.143   0.436
 1448TIP3   OH2 4286   3.068   5.949   0.119
 1448TIP3    H1 4287   3.149   5.996   0.097
 1448TIP3    H2 4288   3.057   5.963   0.213
 1449TIP3   OH2 4289   3.007   5.486   0.421
 1449TIP3    H1 4290   3.049   5.403   0.399
 1449TIP3    H2 4291   3.079   5.542   0.450
 1450TIP3   OH2 4292   4.033   4.991   0.403
 1450TIP3    H1 4293   4.036   4.971   0.496
 1450TIP3    H2 4294   4.072   4.915   0.361
 1451TIP3   OH2 4295   3.442   4.972   0.455
 1451TIP3    H1 4296   3.474   4.887   0.486
 1451TIP3    H2 4297   3.387   4.950   0.379
 1452TIP3   OH2 4298   2.782   4.639   0.419
 1452TIP3    H1 4299   2.761   4.713   0.362
 1452TIP3    H2 4300   2.727   4.568   0.387
 1453TIP3   OH2 4301   3.448   4.748   0.053
 1453TIP3    H1 4302   3.513   4.735   0.122
 1453TIP3    H2 4303   3.498   4.784  -0.020
 1454TIP3   OH2 4304   2.401   4.855   0.551
 1454TIP3    H1 4305   2.483   4.838   0.597
 1454TIP3    H2 4306   2.407   4.803   0.471
 1455TIP3   OH2 4307   2.821   5.052   0.369
 1455TIP3    H1 4308   2.916   5.037   0.375
 1455TIP3    H2 4309   2.787   4.971   0.331
 1456TIP3   OH2 4310   2.755   4.642   0.871
 1456TIP3    H1 4311   2.705   4.677   0.798
 1456TIP3    H2 4312   2.700   4.656   0.948
 1457TIP3   OH2 4313   0.258   1.472   6.859
 1457TIP3    H1 4314   0.181   1.438   6.811
 1457TIP3    H2 4315   0.235   1.563   6.879
 1458TIP3   OH2 4316   2.846   5.417   0.635
 1458TIP3    H1 4317   2.793   5.489   0.670
 1458TIP3    H2 4318   2.895   5.456   0.563
 1459TIP3   OH2 4319   3.631   4.739   0.251
 1459TIP3    H1 4320   3.612   4.699   0.336
 1459TIP3    H2 4321   3.724   4.721   0.236
 1460TIP3   OH2 4322   2.649   4.748   0.639
 1460TIP3    H1 4323   2.703   4.824   0.663
 1460TIP3    H2 4324   2.696   4.706   0.568
 1461TIP3   OH2 4325   2.689   5.618   0.741
 1461TIP3    H1 4326   2.676   5.708   0.712
 1461TIP3    H2 4327   2.611   5.598   0.793
 1462TIP3   OH2 4328   7.742   1.295   6.939
 1462TIP3    H1 4329   7.735   1.301   6.844
 1462TIP3    H2 4330   7.747   1.386   6.968
 1463TIP3   OH2 4331   3.519   5.780   0.215
 1463TIP3    H1 4332   3.434   5.783   0.259
 1463TIP3    H2 4333   3.531   5.868   0.179
 1464TIP3   OH2 4334   3.775   4.685   0.586
 1464TIP3    H1 4335   3.682   4.707   0.575
 1464TIP3    H2 4336   3.799   4.641   0.504
 1465TIP3   OH2 4337   3.098   4.333   0.604
 1465TIP3    H1 4338   3.090   4.241   0.629
 1465TIP3    H2 4339   3.022   4.376   0.643
 1466TIP3   OH2 4340   3.693   5.667   0.633
 1466TIP3    H1 4341   3.671   5.593   0.577
 1466TIP3    H2 4342   3.740   5.728   0.575
 1467TIP3   OH2 4343   0.212   1.138   6.837
 1467TIP3    H1 4344   0.132   1.180   6.807
 1467TIP3    H2 4345   0.279   1.163   6.773
 1468TIP3   OH2 4346   0.520   1.100   6.834
 1468TIP3    H1 4347   0.491   1.173   6.888
 1468TIP3    H2 4348   0.615   1.106   6.834
 1469TIP3   OH2 4349   3.589   5.220   0.790
 1469TIP3    H1 4350   3.582   5.302   0.839
 1469TIP3    H2 4351   3.520   5.226   0.724
 1470TIP3   OH2 4352   2.622   5.185   0.225
 1470TIP3    H1 4353   2.585   5.124   0.162
 1470TIP3    H2 4354   2.696   5.138   0.263
 1471TIP3   OH2 4355   2.764   5.611   0.364
 1471TIP3    H1 4356   2.732   5.588   0.277
 1471TIP3    H2 4357   2.849   5.568   0.370
 1472TIP3   OH2 4358   2.716   5.181   0.590
 1472TIP3    H1 4359   2.756   5.145   0.511
 1472TIP3    H2 4360   2.764   5.262   0.606
 1473TIP3   OH2 4361   3.304   5.801   0.374
 1473TIP3    H1 4362   3.263   5.879   0.410
 1473TIP3    H2 4363   3.274   5.729   0.430
 1474TIP3   OH2 4364   2.882   5.711   0.917
 1474TIP3    H1 4365   2.821   5.769   0.963
 1474TIP3    H2 4366   2.828   5.660   0.857
 1475TIP3   OH2 4367   2.645   5.263   1.049
 1475TIP3    H1 4368   2.650   5.356   1.069
 1475TIP3    H2 4369   2.551   5.244   1.044
 1476TIP3   OH2 4370   0.154   1.723   6.911
 1476TIP3    H1 4371   0.190   1.796   6.961
 1476TIP3    H2 4372   0.059   1.734   6.916
 1477TIP3   OH2 4373   2.678   5.878   0.998
 1477TIP3    H1 4374   2.651   5.887   0.906
 1477TIP3    H2 4375   2.597   5.862   1.045
 1478TIP3   OH2 4376   2.493   5.021   0.040
 1478TIP3    H1 4377   2.419   5.065  -0.000
 1478TIP3    H2 4378   2.459   4.936   0.067
 1479TIP3   OH2 4379   2.275   5.431   0.945
 1479TIP3    H1 4380   2.204   5.412   0.884
 1479TIP3    H2 4381   2.309   5.345   0.970
 1480TIP3   OH2 4382   2.133   5.631   0.614
 1480TIP3    H1 4383   2.224   5.652   0.637
 1480TIP3    H2 4384   2.083   5.707   0.642
 1481TIP3   OH2 4385   3.949   5.996   0.737
 1481TIP3    H1 4386   3.932   5.926   0.799
 1481TIP3    H2 4387   3.867   6.046   0.734
 1482TIP3   OH2 4388   3.059   5.867   0.778
 1482TIP3    H1 4389   3.054   5.958   0.807
 1482TIP3    H2 4390   2.994   5.821   0.831
 1483TIP3   OH2 4391   2.267   5.780   0.142
 1483TIP3    H1 4392   2.342   5.789   0.201
 1483TIP3    H2 4393   2.197   5.743   0.197
 1484TIP3   OH2 4394   3.845   5.162   0.919
 1484TIP3    H1 4395   3.766   5.183   0.869
 1484TIP3    H2 4396   3.847   5.066   0.921
 1485TIP3   OH2 4397   2.472   5.621   0.913
 1485TIP3    H1 4398   2.523   5.608   0.993
 1485TIP3    H2 4399   2.401   5.557   0.920
 1486TIP3   OH2 4400   2.863   4.428   0.727
 1486TIP3    H1 4401   2.779   4.393   0.696
 1486TIP3    H2 4402   2.840   4.508   0.774
 1487TIP3   OH2 4403   3.401   4.542   0.927
 1487TIP3    H1 4404   3.470   4.519   0.989
 1487TIP3    H2 4405   3.320   4.527   0.976
 1488TIP3   OH2 4406   3.636   4.958   0.851
 1488TIP3    H1 4407   3.593   4.949   0.936
 1488TIP3    H2 4408   3.611   5.045   0.820
 1489TIP3   OH2 4409   0.171   0.479   6.643
 1489TIP3    H1 4410   0.145   0.462   6.734
 1489TIP3    H2 4411   0.092   0.465   6.592
 1490TIP3   OH2 4412   2.798   4.959   0.736
 1490TIP3    H1 4413   2.752   4.966   0.820
 1490TIP3    H2 4414   2.777   5.041   0.691
 1491TIP3   OH2 4415   2.689   4.838   0.256
 1491TIP3    H1 4416   2.600   4.813   0.283
 1491TIP3    H2 4417   2.697   4.804   0.167
 1492TIP3   OH2 4418   0.329   0.911   6.923
 1492TIP3    H1 4419   0.268   0.981   6.899
 1492TIP3    H2 4420   0.411   0.937   6.881
 1493TIP3   OH2 4421   3.340   5.176   1.055
 1493TIP3    H1 4422   3.314   5.109   1.118
 1493TIP3    H2 4423   3.432   5.193   1.075
 1494TIP3   OH2 4424   3.303   4.916   0.222
 1494TIP3    H1 4425   3.237   4.940   0.157
 1494TIP3    H2 4426   3.355   4.848   0.180
 1495TIP3   OH2 4427   2.633   4.973   0.956
 1495TIP3    H1 4428   2.645   5.037   1.026
 1495TIP3    H2 4429   2.615   4.891   1.001
 1496TIP3   OH2 4430   8.354   0.406   6.605
 1496TIP3    H1 4431   8.338   0.415   6.699
 1496TIP3    H2 4432   8.309   0.325   6.581
 1497TIP3   OH2 4433   2.229   4.515   0.530
 1497TIP3    H1 4434   2.304   4.542   0.584
 1497TIP3    H2 4435   2.269   4.478   0.451
 1498TIP3   OH2 4436   2.183   4.494   0.033
 1498TIP3    H1 4437   2.232   4.532  -0.041
 1498TIP3    H2 4438   2.118   4.560   0.055
 1499TIP3   OH2 4439   3.359   5.175   0.623
 1499TIP3    H1 4440   3.395   5.108   0.564
 1499TIP3    H2 4441   3.319   5.125   0.694
 1500TIP3   OH2 4442   3.047   4.633   0.309
 1500TIP3    H1 4443   2.968   4.632   0.364
 1500TIP3    H2 4444   3.119   4.626   0.371
 1501TIP3   OH2 4445   2.454   4.714   0.320
 1501TIP3    H1 4446   2.365   4.717   0.287
 1501TIP3    H2 4447   2.482   4.624   0.305
 1502TIP3   OH2 4448   8.369   0.704   6.951
 1502TIP3    H1 4449   8.464   0.715   6.944
 1502TIP3    H2 4450   8.335   0.737   6.867
 1503TIP3   OH2 4451   3.496   4.708   0.532
 1503TIP3    H1 4452   3.468   4.731   0.620
 1503TIP3    H2 4453   3.426   4.652   0.498
 1504TIP3   OH2 4454   8.228   0.751   6.715
 1504TIP3    H1 4455   8.135   0.729   6.724
 1504TIP3    H2 4456   8.257   0.698   6.641
 1505TIP3   OH2 4457   3.652   6.492   0.825
 1505TIP3    H1 4458   3.669   6.463   0.735
 1505TIP3    H2 4459   3.737   6.521   0.857
 1506TIP3   OH2 4460   2.630   5.530   1.144
 1506TIP3    H1 4461   2.711   5.550   1.192
 1506TIP3    H2 4462   2.561   5.538   1.209
 1507TIP3   OH2 4463   3.091   4.993   0.414
 1507TIP3    H1 4464   3.158   4.945   0.365
 1507TIP3    H2 4465   3.090   4.951   0.500
 1508TIP3   OH2 4466   2.593   4.471   0.293
 1508TIP3    H1 4467   2.565   4.396   0.346
 1508TIP3    H2 4468   2.621   4.432   0.210
 1509TIP3   OH2 4469   3.064   4.901   0.679
 1509TIP3    H1 4470   2.977   4.933   0.702
 1509TIP3    H2 4471   3.124   4.954   0.732
 1510TIP3   OH2 4472   8.492   1.267   6.748
 1510TIP3    H1 4473   8.426   1.202   6.725
 1510TIP3    H2 4474   8.459   1.308   6.828
 1511TIP3   OH2 4475   3.645   5.484   0.433
 1511TIP3    H1 4476   3.679   5.534   0.359
 1511TIP3    H2 4477   3.568   5.439   0.398
 1512TIP3   OH2 4478   3.171   5.572   0.801
 1512TIP3    H1 4479   3.240   5.565   0.866
 1512TIP3    H2 4480   3.126   5.654   0.821
 1513TIP3   OH2 4481   2.483   5.265   0.447
 1513TIP3    H1 4482   2.523   5.248   0.362
 1513TIP3    H2 4483   2.549   5.237   0.511
 1514TIP3   OH2 4484   2.371   5.199   1.074
 1514TIP3    H1 4485   2.374   5.174   1.167
 1514TIP3    H2 4486   2.296   5.151   1.039
 1515TIP3   OH2 4487   3.110   5.334   1.098
 1515TIP3    H1 4488   3.040   5.274   1.070
 1515TIP3    H2 4489   3.191   5.292   1.068
 1516TIP3   OH2 4490   3.327   5.853   0.735
 1516TIP3    H1 4491   3.232   5.853   0.730
 1516TIP3    H2 4492   3.347   5.897   0.817
 1517TIP3   OH2 4493   3.945   5.705   0.749
 1517TIP3    H1 4494   3.854   5.707   0.720
 1517TIP3    H2 4495   3.996   5.698   0.668
 1518TIP3   OH2 4496   3.434   5.365   0.298
 1518TIP3    H1 4497   3.340   5.351   0.301
 1518TIP3    H2 4498   3.470   5.286   0.258
 1519TIP3   OH2 4499   2.606   5.587   0.138
 1519TIP3    H1 4500   2.589   5.663   0.082
 1519TIP3    H2 4501   2.522   5.568   0.178
 1520TIP3   OH2 4502   7.846   0.875   6.781
 1520TIP3    H1 4503   7.887   0.960   6.796
 1520TIP3    H2 4504   7.756   0.887   6.813
 1521TIP3   OH2 4505   2.733   5.365   0.045
 1521TIP3    H1 4506   2.695   5.449   0.068
 1521TIP3    H2 4507   2.698   5.304   0.111
 1522TIP3   OH2 4508   2.891   5.938   0.567
 1522TIP3    H1 4509   2.928   6.012   0.518
 1522TIP3    H2 4510   2.964   5.907   0.621
 1523TIP3   OH2 4511   8.192   1.800   6.940
 1523TIP3    H1 4512   8.096   1.805   6.937
 1523TIP3    H2 4513   8.221   1.890   6.926
 1524TIP3   OH2 4514   3.241   5.584   0.534
 1524TIP3    H1 4515   3.219   5.579   0.627
 1524TIP3    H2 4516   3.312   5.522   0.522
 1525TIP3   OH2 4517   3.451   6.057   0.605
 1525TIP3    H1 4518   3.420   5.985   0.661
 1525TIP3    H2 4519   3.376   6.076   0.548
 1526TIP3   OH2 4520   2.581   4.720   1.075
 1526TIP3    H1 4521   2.485   4.729   1.080
 1526TIP3    H2 4522   2.604   4.671   1.154
 1527TIP3   OH2 4523   2.337   5.815   0.735
 1527TIP3    H1 4524   2.387   5.755   0.791
 1527TIP3    H2 4525   2.348   5.901   0.776
 1528TIP3   OH2 4526   7.947   1.128   6.849
 1528TIP3    H1 4527   7.882   1.179   6.897
 1528TIP3    H2 4528   7.969   1.182   6.773
 1529TIP3   OH2 4529   3.428   4.778   0.788
 1529TIP3    H1 4530   3.507   4.820   0.822
 1529TIP3    H2 4531   3.417   4.700   0.842
 1530TIP3   OH2 4532   0.457   0.531   6.901
 1530TIP3    H1 4533   0.418   0.559   6.819
 1530TIP3    H2 4534   0.507   0.607   6.931
 1531TIP3   OH2 4535   2.982   4.719   0.049
 1531TIP3    H1 4536   3.045   4.784   0.018
 1531TIP3    H2 4537   3.006   4.704   0.141
 1532TIP3   OH2 4538   3.270   5.016   0.829
 1532TIP3    H1 4539   3.294   5.063   0.909
 1532TIP3    H2 4540   3.320   4.934   0.834
 1533TIP3   OH2 4541   3.131   4.420   0.150
 1533TIP3    H1 4542   3.107   4.497   0.202
 1533TIP3    H2 4543   3.194   4.453   0.086
 1534TIP3   OH2 4544   8.316   0.429   6.887
 1534TIP3    H1 4545   8.306   0.520   6.915
 1534TIP3    H2 4546   8.409   0.412   6.894
 1535TIP3   OH2 4547   3.884   4.867   0.777
 1535TIP3    H1 4548   3.797   4.896   0.804
 1535TIP3    H2 4549   3.868   4.802   0.709
 1536TIP3   OH2 4550   3.526   5.108   0.223
 1536TIP3    H1 4551   3.445   5.065   0.196
 1536TIP3    H2 4552   3.540   5.077   0.313
 1537TIP3   OH2 4553   7.882   0.614   6.711
 1537TIP3    H1 4554   7.882   0.708   6.729
 1537TIP3    H2 4555   7.789   0.591   6.705
 1538TIP3   OH2 4556   3.569   6.026   0.119
 1538TIP3    H1 4557   3.507   6.069   0.060
 1538TIP3    H2 4558   3.649   6.077   0.112
 1539TIP3   OH2 4559   2.603   4.340   0.688
 1539TIP3    H1 4560   2.578   4.307   0.602
 1539TIP3    H2 4561   2.593   4.265   0.747
 1540TIP3   OH2 4562   2.082   5.571   0.041
 1540TIP3    H1 4563   2.011   5.630   0.065
 1540TIP3    H2 4564   2.152   5.630   0.011
 1541TIP3   OH2 4565   2.323   6.125   1.147
 1541TIP3    H1 4566   2.406   6.127   1.194
 1541TIP3    H2 4567   2.301   6.032   1.140
 1542TIP3   OH2 4568   2.792   6.038   1.190
 1542TIP3    H1 4569   2.881   6.005   1.198
 1542TIP3    H2 4570   2.753   5.987   1.119
 1543TIP3   OH2 4571   3.402   5.985   0.959
 1543TIP3    H1 4572   3.417   5.913   1.021
 1543TIP3    H2 4573   3.476   6.044   0.972
 1544TIP3   OH2 4574   2.427   5.531   1.334
 1544TIP3    H1 4575   2.444   5.437   1.346
 1544TIP3    H2 4576   2.340   5.534   1.295
 1545TIP3   OH2 4577   3.046   5.612   1.115
 1545TIP3    H1 4578   2.996   5.630   1.036
 1545TIP3    H2 4579   3.082   5.525   1.102
 1546TIP3   OH2 4580   3.469   5.622   0.774
 1546TIP3    H1 4581   3.548   5.645   0.724
 1546TIP3    H2 4582   3.408   5.694   0.757
 1547TIP3   OH2 4583   2.541   5.275   1.343
 1547TIP3    H1 4584   2.618   5.252   1.291
 1547TIP3    H2 4585   2.575   5.294   1.430
 1548TIP3   OH2 4586   8.306   1.054   6.743
 1548TIP3    H1 4587   8.266   1.051   6.830
 1548TIP3    H2 4588   8.294   0.966   6.708
 1549TIP3   OH2 4589   2.904   5.158   1.000
 1549TIP3    H1 4590   2.818   5.199   1.009
 1549TIP3    H2 4591   2.935   5.186   0.914
 1550TIP3   OH2 4592   3.393   5.526   1.102
 1550TIP3    H1 4593   3.462   5.490   1.045
 1550TIP3    H2 4594   3.394   5.469   1.179
 1551TIP3   OH2 4595   3.005   4.926   1.108
 1551TIP3    H1 4596   3.008   4.856   1.043
 1551TIP3    H2 4597   2.971   5.002   1.060
 1552TIP3   OH2 4598   3.015   4.726   0.906
 1552TIP3    H1 4599   3.041   4.765   0.822
 1552TIP3    H2 4600   2.924   4.700   0.893
 1553TIP3   OH2 4601   3.018   5.253   0.773
 1553TIP3    H1 4602   3.106   5.290   0.764
 1553TIP3    H2 4603   2.962   5.314   0.725
 1554TIP3   OH2 4604   3.607   5.205   1.156
 1554TIP3    H1 4605   3.649   5.120   1.167
 1554TIP3    H2 4606   3.677   5.261   1.123
 1555TIP3   OH2 4607   3.614   5.460   0.934
 1555TIP3    H1 4608   3.562   5.520   0.879
 1555TIP3    H2 4609   3.702   5.463   0.896
 1556TIP3   OH2 4610   2.891   5.010   1.352
 1556TIP3    H1 4611   2.820   4.949   1.373
 1556TIP3    H2 4612   2.918   4.985   1.263
 1557TIP3   OH2 4613   3.135   4.493   1.006
 1557TIP3    H1 4614   3.095   4.574   0.974
 1557TIP3    H2 4615   3.068   4.427   0.994
 1558TIP3   OH2 4616   3.261   4.964   1.210
 1558TIP3    H1 4617   3.251   4.952   1.305
 1558TIP3    H2 4618   3.175   4.944   1.174
 1559TIP3   OH2 4619   3.505   4.912   1.081
 1559TIP3    H1 4620   3.425   4.917   1.134
 1559TIP3    H2 4621   3.574   4.892   1.144
 1560TIP3   OH2 4622   3.742   4.888   1.230
 1560TIP3    H1 4623   3.757   4.794   1.236
 1560TIP3    H2 4624   3.737   4.918   1.321
 1561TIP3   OH2 4625   2.722   4.790   1.414
 1561TIP3    H1 4626   2.728   4.701   1.379
 1561TIP3    H2 4627   2.761   4.784   1.501
 1562TIP3   OH2 4628   3.202   4.472   1.272
 1562TIP3    H1 4629   3.271   4.406   1.266
 1562TIP3    H2 4630   3.171   4.483   1.182
 1563TIP3   OH2 4631   3.298   4.687   1.416
 1563TIP3    H1 4632   3.266   4.615   1.362
 1563TIP3    H2 4633   3.225   4.750   1.418
 1564TIP3   OH2 4634   7.742   1.282   6.667
 1564TIP3    H1 4635   7.789   1.319   6.592
 1564TIP3    H2 4636   7.686   1.215   6.628
 1565TIP3   OH2 4637   1.900   5.755   0.150
 1565TIP3    H1 4638   1.809   5.733   0.171
 1565TIP3    H2 4639   1.947   5.745   0.233
 1566TIP3   OH2 4640   2.084   5.741   0.357
 1566TIP3    H1 4641   2.089   5.672   0.423
 1566TIP3    H2 4642   2.123   5.818   0.399
 1567TIP3   OH2 4643   3.704   6.177   0.405
 1567TIP3    H1 4644   3.661   6.091   0.408
 1567TIP3    H2 4645   3.796   6.157   0.420
 1568TIP3   OH2 4646   3.862   5.882   0.992
 1568TIP3    H1 4647   3.790   5.882   1.055
 1568TIP3    H2 4648   3.910   5.963   1.010
 1569TIP3   OH2 4649   3.767   5.636   0.242
 1569TIP3    H1 4650   3.827   5.619   0.169
 1569TIP3    H2 4651   3.694   5.683   0.202
 1570TIP3   OH2 4652   3.615   5.919   0.436
 1570TIP3    H1 4653   3.547   5.951   0.496
 1570TIP3    H2 4654   3.567   5.867   0.372
 1571TIP3   OH2 4655   0.787   1.088   6.900
 1571TIP3    H1 4656   0.803   0.995   6.883
 1571TIP3    H2 4657   0.775   1.093   6.994
 1572TIP3   OH2 4658   2.238   5.173   0.710
 1572TIP3    H1 4659   2.230   5.140   0.620
 1572TIP3    H2 4660   2.332   5.168   0.728
 1573TIP3   OH2 4661   3.873   5.463   0.846
 1573TIP3    H1 4662   3.929   5.390   0.821
 1573TIP3    H2 4663   3.897   5.534   0.787
 1574TIP3   OH2 4664   4.059   5.267   0.786
 1574TIP3    H1 4665   3.994   5.215   0.833
 1574TIP3    H2 4666   4.140   5.216   0.794
 1575TIP3   OH2 4667   0.802   0.824   6.806
 1575TIP3    H1 4668   0.836   0.735   6.813
 1575TIP3    H2 4669   0.811   0.846   6.713
 1576TIP3   OH2 4670   2.459   4.849   1.352
 1576TIP3    H1 4671   2.553   4.847   1.372
 1576TIP3    H2 4672   2.425   4.768   1.390
 1577TIP3   OH2 4673   4.294   4.751   1.101
 1577TIP3    H1 4674   4.360   4.692   1.064
 1577TIP3    H2 4675   4.256   4.795   1.024
 1578TIP3   OH2 4676   0.877   0.565   6.835
 1578TIP3    H1 4677   0.939   0.539   6.904
 1578TIP3    H2 4678   0.809   0.497   6.837
 1579TIP3   OH2 4679   2.441   4.564   0.699
 1579TIP3    H1 4680   2.494   4.485   0.708
 1579TIP3    H2 4681   2.505   4.634   0.683
 1580TIP3   OH2 4682   2.216   4.823   0.765
 1580TIP3    H1 4683   2.267   4.817   0.684
 1580TIP3    H2 4684   2.247   4.903   0.807
 1581TIP3   OH2 4685   4.124   4.881   0.923
 1581TIP3    H1 4686   4.077   4.918   0.998
 1581TIP3    H2 4687   4.055   4.858   0.861
 1582TIP3   OH2 4688   2.235   4.369   0.283
 1582TIP3    H1 4689   2.145   4.358   0.315
 1582TIP3    H2 4690   2.226   4.422   0.204
 1583TIP3   OH2 4691   2.423   4.388   1.087
 1583TIP3    H1 4692   2.375   4.385   1.170
 1583TIP3    H2 4693   2.368   4.439   1.029
 1584TIP3   OH2 4694   2.460   5.845   1.166
 1584TIP3    H1 4695   2.366   5.828   1.156
 1584TIP3    H2 4696   2.476   5.832   1.260
 1585TIP3   OH2 4697   2.665   5.893   0.715
 1585TIP3    H1 4698   2.611   5.964   0.681
 1585TIP3    H2 4699   2.749   5.904   0.671
 1586TIP3   OH2 4700   3.072   6.134   0.849
 1586TIP3    H1 4701   3.111   6.129   0.936
 1586TIP3    H2 4702   3.133   6.187   0.797
 1587TIP3   OH2 4703   3.251   6.308   0.718
 1587TIP3    H1 4704   3.318   6.316   0.651
 1587TIP3    H2 4705   3.290   6.346   0.797
 1588TIP3   OH2 4706   4.051   4.573   0.815
 1588TIP3    H1 4707   3.963   4.539   0.798
 1588TIP3    H2 4708   4.108   4.496   0.805
 1589TIP3   OH2 4709   2.331   6.127   0.765
 1589TIP3    H1 4710   2.240   6.143   0.742
 1589TIP3    H2 4711   2.353   6.196   0.828
 1590TIP3   OH2 4712   2.554   6.118   0.606
 1590TIP3    H1 4713   2.472   6.124   0.655
 1590TIP3    H2 4714   2.532   6.149   0.518
 1591TIP3   OH2 4715   2.966   6.142   0.394
 1591TIP3    H1 4716   2.894   6.158   0.333
 1591TIP3    H2 4717   2.980   6.227   0.437
 1592TIP3   OH2 4718   3.215   6.048   0.448
 1592TIP3    H1 4719   3.127   6.082   0.434
 1592TIP3    H2 4720   3.271   6.105   0.395
 1593TIP3   OH2 4721   3.392   6.209   0.329
 1593TIP3    H1 4722   3.374   6.302   0.338
 1593TIP3    H2 4723   3.478   6.205   0.287
 1594TIP3   OH2 4724   2.256   5.923   0.488
 1594TIP3    H1 4725   2.276   5.893   0.577
 1594TIP3    H2 4726   2.328   5.888   0.435
 1595TIP3   OH2 4727   2.453   5.804   0.344
 1595TIP3    H1 4728   2.464   5.718   0.384
 1595TIP3    H2 4729   2.541   5.842   0.343
 1596TIP3   OH2 4730   2.719   5.885   0.359
 1596TIP3    H1 4731   2.738   5.792   0.347
 1596TIP3    H2 4732   2.770   5.910   0.436
 1597TIP3   OH2 4733   3.280   4.537   0.446
 1597TIP3    H1 4734   3.240   4.465   0.494
 1597TIP3    H2 4735   3.347   4.496   0.391
 1598TIP3   OH2 4736   3.766   4.500   0.366
 1598TIP3    H1 4737   3.807   4.497   0.280
 1598TIP3    H2 4738   3.675   4.474   0.350
 1599TIP3   OH2 4739   3.879   4.498   0.112
 1599TIP3    H1 4740   3.949   4.442   0.080
 1599TIP3    H2 4741   3.910   4.587   0.099
 1600TIP3   OH2 4742   2.528   4.247   0.437
 1600TIP3    H1 4743   2.440   4.216   0.458
 1600TIP3    H2 4744   2.581   4.168   0.434
 1601TIP3   OH2 4745   2.314   4.131   0.137
 1601TIP3    H1 4746   2.362   4.181   0.071
 1601TIP3    H2 4747   2.294   4.196   0.205
 1602TIP3   OH2 4748   2.986   4.283   0.347
 1602TIP3    H1 4749   3.036   4.327   0.279
 1602TIP3    H2 4750   3.027   4.309   0.429
 1603TIP3   OH2 4751   3.501   4.426   0.306
 1603TIP3    H1 4752   3.499   4.395   0.215
 1603TIP3    H2 4753   3.494   4.347   0.359
 1604TIP3   OH2 4754   0.690   0.374   6.884
 1604TIP3    H1 4755   0.602   0.410   6.880
 1604TIP3    H2 4756   0.676   0.280   6.900
 1605TIP3   OH2 4757   8.104   0.238   6.855
 1605TIP3    H1 4758   8.148   0.153   6.843
 1605TIP3    H2 4759   8.175   0.301   6.865
 1606TIP3   OH2 4760   0.088   0.456   6.907
 1606TIP3    H1 4761   0.147   0.406   6.963
 1606TIP3    H2 4762   0.107   0.548   6.928
 1607TIP3   OH2 4763   2.735   4.519   1.328
 1607TIP3    H1 4764   2.700   4.452   1.387
 1607TIP3    H2 4765   2.828   4.526   1.353
 1608TIP3   OH2 4766   2.984   4.524   1.450
 1608TIP3    H1 4767   3.062   4.501   1.400
 1608TIP3    H2 4768   2.976   4.455   1.516
 1609TIP3   OH2 4769   3.808   4.618   1.236
 1609TIP3    H1 4770   3.825   4.588   1.325
 1609TIP3    H2 4771   3.893   4.613   1.192
 1610TIP3   OH2 4772   3.702   6.124   0.753
 1610TIP3    H1 4773   3.622   6.096   0.708
 1610TIP3    H2 4774   3.713   6.215   0.729
 1611TIP3   OH2 4775   4.276   5.338   0.228
 1611TIP3    H1 4776   4.314   5.275   0.288
 1611TIP3    H2 4777   4.275   5.420   0.276
 1612TIP3   OH2 4778   4.106   5.080   0.124
 1612TIP3    H1 4779   4.192   5.037   0.123
 1612TIP3    H2 4780   4.112   5.146   0.055
 1613TIP3   OH2 4781   4.499   4.836   0.381
 1613TIP3    H1 4782   4.443   4.880   0.316
 1613TIP3    H2 4783   4.474   4.876   0.465
 1614TIP3   OH2 4784   4.365   4.980   0.176
 1614TIP3    H1 4785   4.398   5.060   0.216
 1614TIP3    H2 4786   4.422   4.964   0.101
 1615TIP3   OH2 4787   4.496   5.916   0.261
 1615TIP3    H1 4788   4.487   5.983   0.194
 1615TIP3    H2 4789   4.421   5.929   0.319
 1616TIP3   OH2 4790   4.896   4.595   0.114
 1616TIP3    H1 4791   4.858   4.510   0.136
 1616TIP3    H2 4792   4.845   4.659   0.164
 1617TIP3   OH2 4793   4.706   5.913   0.437
 1617TIP3    H1 4794   4.639   5.945   0.497
 1617TIP3    H2 4795   4.661   5.904   0.353
 1618TIP3   OH2 4796   4.449   5.511   0.616
 1618TIP3    H1 4797   4.438   5.606   0.611
 1618TIP3    H2 4798   4.360   5.476   0.618
 1619TIP3   OH2 4799   4.478   5.999   0.554
 1619TIP3    H1 4800   4.460   6.076   0.500
 1619TIP3    H2 4801   4.482   6.033   0.644
 1620TIP3   OH2 4802   4.108   5.770   0.306
 1620TIP3    H1 4803   4.049   5.777   0.231
 1620TIP3    H2 4804   4.126   5.676   0.313
 1621TIP3   OH2 4805   5.616   5.418   0.478
 1621TIP3    H1 4806   5.654   5.491   0.429
 1621TIP3    H2 4807   5.688   5.383   0.529
 1622TIP3   OH2 4808   4.248   5.994   0.359
 1622TIP3    H1 4809   4.254   6.005   0.454
 1622TIP3    H2 4810   4.199   5.912   0.347
 1623TIP3   OH2 4811   4.582   4.615   0.207
 1623TIP3    H1 4812   4.486   4.618   0.214
 1623TIP3    H2 4813   4.611   4.697   0.246
 1624TIP3   OH2 4814   5.208   4.766   0.396
 1624TIP3    H1 4815   5.265   4.731   0.464
 1624TIP3    H2 4816   5.138   4.811   0.444
 1625TIP3   OH2 4817   5.436   5.193   0.290
 1625TIP3    H1 4818   5.482   5.170   0.370
 1625TIP3    H2 4819   5.344   5.197   0.315
 1626TIP3   OH2 4820   4.531   5.196   0.218
 1626TIP3    H1 4821   4.550   5.263   0.283
 1626TIP3    H2 4822   4.510   5.244   0.138
 1627TIP3   OH2 4823   5.162   5.357   0.459
 1627TIP3    H1 4824   5.140   5.362   0.552
 1627TIP3    H2 4825   5.163   5.448   0.429
 1628TIP3   OH2 4826   4.349   5.182   0.447
 1628TIP3    H1 4827   4.424   5.239   0.463
 1628TIP3    H2 4828   4.365   5.105   0.502
 1629TIP3   OH2 4829   3.965   4.749   0.070
 1629TIP3    H1 4830   4.035   4.775   0.130
 1629TIP3    H2 4831   3.975   4.808  -0.005
 1630TIP3   OH2 4832   4.380   5.745   0.771
 1630TIP3    H1 4833   4.449   5.770   0.833
 1630TIP3    H2 4834   4.299   5.769   0.816
 1631TIP3   OH2 4835   4.825   5.063   0.150
 1631TIP3    H1 4836   4.825   5.144   0.099
 1631TIP3    H2 4837   4.907   5.067   0.200
 1632TIP3   OH2 4838   4.925   5.732   0.269
 1632TIP3    H1 4839   5.000   5.694   0.315
 1632TIP3    H2 4840   4.942   5.826   0.269
 1633TIP3   OH2 4841   4.179   5.482   0.668
 1633TIP3    H1 4842   4.225   5.494   0.752
 1633TIP3    H2 4843   4.118   5.410   0.685
 1634TIP3   OH2 4844   4.932   5.587   0.635
 1634TIP3    H1 4845   4.863   5.523   0.652
 1634TIP3    H2 4846   5.012   5.542   0.661
 1635TIP3   OH2 4847   4.404   4.958   0.619
 1635TIP3    H1 4848   4.348   5.008   0.679
 1635TIP3    H2 4849   4.450   4.896   0.675
 1636TIP3   OH2 4850   4.115   6.106   0.145
 1636TIP3    H1 4851   4.168   6.074   0.218
 1636TIP3    H2 4852   4.140   6.198   0.136
 1637TIP3   OH2 4853   5.257   5.008   0.203
 1637TIP3    H1 4854   5.345   5.040   0.224
 1637TIP3    H2 4855   5.246   4.930   0.257
 1638TIP3   OH2 4856   5.075   5.225   0.237
 1638TIP3    H1 4857   5.109   5.273   0.312
 1638TIP3    H2 4858   5.135   5.151   0.225
 1639TIP3   OH2 4859   4.308   4.574   0.218
 1639TIP3    H1 4860   4.298   4.548   0.127
 1639TIP3    H2 4861   4.331   4.493   0.264
 1640TIP3   OH2 4862   4.195   6.435   0.625
 1640TIP3    H1 4863   4.218   6.419   0.717
 1640TIP3    H2 4864   4.140   6.360   0.602
 1641TIP3   OH2 4865   4.453   6.214   0.726
 1641TIP3    H1 4866   4.536   6.258   0.745
 1641TIP3    H2 4867   4.432   6.241   0.636
 1642TIP3   OH2 4868   4.155   5.798   0.912
 1642TIP3    H1 4869   4.143   5.734   0.983
 1642TIP3    H2 4870   4.086   5.778   0.849
 1643TIP3   OH2 4871   4.945   5.840   0.539
 1643TIP3    H1 4872   4.856   5.862   0.512
 1643TIP3    H2 4873   4.940   5.748   0.565
 1644TIP3   OH2 4874   4.357   5.465   0.876
 1644TIP3    H1 4875   4.421   5.482   0.807
 1644TIP3    H2 4876   4.382   5.525   0.947
 1645TIP3   OH2 4877   4.569   5.385   0.406
 1645TIP3    H1 4878   4.537   5.425   0.487
 1645TIP3    H2 4879   4.631   5.448   0.371
 1646TIP3   OH2 4880   5.218   5.783   0.658
 1646TIP3    H1 4881   5.305   5.810   0.631
 1646TIP3    H2 4882   5.229   5.753   0.748
 1647TIP3   OH2 4883   4.728   5.100   0.713
 1647TIP3    H1 4884   4.783   5.022   0.708
 1647TIP3    H2 4885   4.681   5.101   0.630
 1648TIP3   OH2 4886   4.796   4.893   0.519
 1648TIP3    H1 4887   4.876   4.929   0.480
 1648TIP3    H2 4888   4.728   4.956   0.496
 1649TIP3   OH2 4889   4.870   5.444   0.280
 1649TIP3    H1 4890   4.958   5.466   0.249
 1649TIP3    H2 4891   4.824   5.527   0.284
 1650TIP3   OH2 4892   5.391   5.314   0.748
 1650TIP3    H1 4893   5.429   5.256   0.681
 1650TIP3    H2 4894   5.428   5.400   0.729
 1651TIP3   OH2 4895   4.643   5.288   0.888
 1651TIP3    H1 4896   4.570   5.275   0.949
 1651TIP3    H2 4897   4.646   5.208   0.836
 1652TIP3   OH2 4898   4.843   4.645   0.607
 1652TIP3    H1 4899   4.824   4.736   0.581
 1652TIP3    H2 4900   4.774   4.594   0.564
 1653TIP3   OH2 4901   5.064   5.151   0.706
 1653TIP3    H1 4902   5.109   5.183   0.784
 1653TIP3    H2 4903   4.976   5.189   0.712
 1654TIP3   OH2 4904   5.242   5.088   0.480
 1654TIP3    H1 4905   5.209   5.173   0.507
 1654TIP3    H2 4906   5.273   5.047   0.561
 1655TIP3   OH2 4907   5.644   5.120   0.834
 1655TIP3    H1 4908   5.551   5.097   0.837
 1655TIP3    H2 4909   5.661   5.165   0.916
 1656TIP3   OH2 4910   4.506   5.030   0.941
 1656TIP3    H1 4911   4.528   4.950   0.894
 1656TIP3    H2 4912   4.557   5.024   1.022
 1657TIP3   OH2 4913   5.007   4.700   0.813
 1657TIP3    H1 4914   5.077   4.635   0.813
 1657TIP3    H2 4915   4.948   4.672   0.743
 1658TIP3   OH2 4916   5.076   4.937   0.938
 1658TIP3    H1 4917   5.040   4.857   0.900
 1658TIP3    H2 4918   5.003   4.999   0.937
 1659TIP3   OH2 4919   4.001   5.330   0.246
 1659TIP3    H1 4920   3.954   5.380   0.179
 1659TIP3    H2 4921   4.093   5.355   0.235
 1660TIP3   OH2 4922   4.269   5.091   0.822
 1660TIP3    H1 4923   4.351   5.092   0.871
 1660TIP3    H2 4924   4.220   5.017   0.859
 1661TIP3   OH2 4925   5.979   5.079   0.639
 1661TIP3    H1 4926   6.051   5.071   0.700
 1661TIP3    H2 4927   6.016   5.128   0.565
 1662TIP3   OH2 4928   4.166   4.804   0.251
 1662TIP3    H1 4929   4.206   4.717   0.258
 1662TIP3    H2 4930   4.238   4.862   0.227
 1663TIP3   OH2 4931   5.817   5.124   0.350
 1663TIP3    H1 4932   5.774   5.095   0.430
 1663TIP3    H2 4933   5.817   5.046   0.293
 1664TIP3   OH2 4934   4.176   4.671   0.580
 1664TIP3    H1 4935   4.133   4.665   0.665
 1664TIP3    H2 4936   4.150   4.591   0.534
 1665TIP3   OH2 4937   4.199   6.110   0.675
 1665TIP3    H1 4938   4.137   6.045   0.708
 1665TIP3    H2 4939   4.270   6.109   0.738
 1666TIP3   OH2 4940   5.802   4.874   0.223
 1666TIP3    H1 4941   5.791   4.885   0.128
 1666TIP3    H2 4942   5.867   4.804   0.231
 1667TIP3   OH2 4943   4.203   6.353   0.236
 1667TIP3    H1 4944   4.152   6.416   0.186
 1667TIP3    H2 4945   4.273   6.405   0.276
 1668TIP3   OH2 4946   1.446   0.471   6.905
 1668TIP3    H1 4947   1.361   0.427   6.902
 1668TIP3    H2 4948   1.509   0.404   6.880
 1669TIP3   OH2 4949   4.533   4.777   0.806
 1669TIP3    H1 4950   4.498   4.711   0.866
 1669TIP3    H2 4951   4.625   4.783   0.829
 1670TIP3   OH2 4952   4.773   4.779   0.947
 1670TIP3    H1 4953   4.855   4.747   0.909
 1670TIP3    H2 4954   4.752   4.716   1.016
 1671TIP3   OH2 4955   5.597   4.776   0.773
 1671TIP3    H1 4956   5.590   4.755   0.866
 1671TIP3    H2 4957   5.691   4.786   0.759
 1672TIP3   OH2 4958   0.347   6.019   1.804
 1672TIP3    H1 4959   0.350   5.931   1.769
 1672TIP3    H2 4960   0.373   6.075   1.731
 1673TIP3   OH2 4961   1.870   6.328   0.600
 1673TIP3    H1 4962   1.867   6.420   0.574
 1673TIP3    H2 4963   1.864   6.280   0.517
 1674TIP3   OH2 4964   1.954   6.588   0.756
 1674TIP3    H1 4965   1.910   6.599   0.672
 1674TIP3    H2 4966   1.883   6.566   0.817
 1675TIP3   OH2 4967   1.690   6.246   0.789
 1675TIP3    H1 4968   1.608   6.292   0.769
 1675TIP3    H2 4969   1.750   6.272   0.720
 1676TIP3   OH2 4970   1.710   6.745   1.099
 1676TIP3    H1 4971   1.626   6.724   1.058
 1676TIP3    H2 4972   1.752   6.659   1.111
 1677TIP3   OH2 4973   1.217   6.115   1.111
 1677TIP3    H1 4974   1.283   6.087   1.173
 1677TIP3    H2 4975   1.136   6.075   1.142
 1678TIP3   OH2 4976   1.499   6.596   0.991
 1678TIP3    H1 4977   1.455   6.536   1.051
 1678TIP3    H2 4978   1.441   6.673   0.987
 1679TIP3   OH2 4979   1.195   6.794   1.290
 1679TIP3    H1 4980   1.189   6.702   1.316
 1679TIP3    H2 4981   1.287   6.817   1.303
 1680TIP3   OH2 4982   1.394   6.279   0.969
 1680TIP3    H1 4983   1.407   6.329   1.050
 1680TIP3    H2 4984   1.338   6.206   0.994
 1681TIP3   OH2 4985   1.747   6.491   0.923
 1681TIP3    H1 4986   1.660   6.531   0.935
 1681TIP3    H2 4987   1.728   6.403   0.890
 1682TIP3   OH2 4988   1.143   7.155   1.367
 1682TIP3    H1 4989   1.093   7.131   1.289
 1682TIP3    H2 4990   1.078   7.160   1.436
 1683TIP3   OH2 4991   1.482   6.732   1.339
 1683TIP3    H1 4992   1.513   6.641   1.345
 1683TIP3    H2 4993   1.550   6.777   1.289
 1684TIP3   OH2 4994   1.568   7.105   1.025
 1684TIP3    H1 4995   1.530   7.192   1.032
 1684TIP3    H2 4996   1.650   7.117   0.977
 1685TIP3   OH2 4997   0.961   5.999   1.125
 1685TIP3    H1 4998   0.884   6.053   1.109
 1685TIP3    H2 4999   0.927   5.920   1.167
 1686TIP3   OH2 5000   1.201   6.530   1.369
 1686TIP3    H1 5001   1.224   6.516   1.461
 1686TIP3    H2 5002   1.110   6.502   1.362
 1687TIP3   OH2 5003   1.396   6.440   1.194
 1687TIP3    H1 5004   1.321   6.467   1.246
 1687TIP3    H2 5005   1.467   6.430   1.258
 1688TIP3   OH2 5006   1.601   6.449   1.384
 1688TIP3    H1 5007   1.611   6.354   1.392
 1688TIP3    H2 5008   1.590   6.479   1.474
 1689TIP3   OH2 5009   1.090   6.050   1.395
 1689TIP3    H1 5010   1.147   5.974   1.381
 1689TIP3    H2 5011   1.001   6.014   1.397
 1690TIP3   OH2 5012   1.161   6.257   1.557
 1690TIP3    H1 5013   1.140   6.184   1.498
 1690TIP3    H2 5014   1.078   6.303   1.567
 1691TIP3   OH2 5015   1.706   7.412   1.124
 1691TIP3    H1 5016   1.644   7.386   1.191
 1691TIP3    H2 5017   1.701   7.508   1.121
 1692TIP3   OH2 5018   1.806   7.118   0.873
 1692TIP3    H1 5019   1.840   7.041   0.920
 1692TIP3    H2 5020   1.881   7.148   0.821
 1693TIP3   OH2 5021   1.914   6.885   0.973
 1693TIP3    H1 5022   1.840   6.840   1.014
 1693TIP3    H2 5023   1.990   6.830   0.992
 1694TIP3   OH2 5024   2.149   6.300   1.263
 1694TIP3    H1 5025   2.212   6.241   1.221
 1694TIP3    H2 5026   2.115   6.354   1.191
 1695TIP3   OH2 5027   2.008   6.438   1.071
 1695TIP3    H1 5028   1.936   6.475   1.123
 1695TIP3    H2 5029   1.965   6.378   1.010
 1696TIP3   OH2 5030   1.906   6.177   0.967
 1696TIP3    H1 5031   1.823   6.181   0.920
 1696TIP3    H2 5032   1.932   6.085   0.962
 1697TIP3   OH2 5033   1.738   5.966   0.431
 1697TIP3    H1 5034   1.784   6.047   0.408
 1697TIP3    H2 5035   1.646   5.989   0.425
 1698TIP3   OH2 5036   0.852   5.923   1.460
 1698TIP3    H1 5037   0.759   5.938   1.477
 1698TIP3    H2 5038   0.866   5.830   1.478
 1699TIP3   OH2 5039   0.896   6.115   1.668
 1699TIP3    H1 5040   0.901   6.071   1.582
 1699TIP3    H2 5041   0.866   6.046   1.728
 1700TIP3   OH2 5042   1.653   6.175   1.385
 1700TIP3    H1 5043   1.665   6.144   1.474
 1700TIP3    H2 5044   1.740   6.167   1.345
 1701TIP3   OH2 5045   2.223   6.983   0.459
 1701TIP3    H1 5046   2.216   6.897   0.501
 1701TIP3    H2 5047   2.272   7.037   0.521
 1702TIP3   OH2 5048   2.418   6.472   0.068
 1702TIP3    H1 5049   2.364   6.532   0.018
 1702TIP3    H2 5050   2.396   6.385   0.034
 1703TIP3   OH2 5051   3.702   6.783   0.165
 1703TIP3    H1 5052   3.692   6.868   0.122
 1703TIP3    H2 5053   3.705   6.802   0.258
 1704TIP3   OH2 5054   2.390   6.444   0.531
 1704TIP3    H1 5055   2.342   6.482   0.457
 1704TIP3    H2 5056   2.333   6.458   0.606
 1705TIP3   OH2 5057   2.522   7.259   0.333
 1705TIP3    H1 5058   2.432   7.239   0.308
 1705TIP3    H2 5059   2.552   7.322   0.268
 1706TIP3   OH2 5060   2.286   6.549   0.300
 1706TIP3    H1 5061   2.331   6.633   0.315
 1706TIP3    H2 5062   2.331   6.512   0.224
 1707TIP3   OH2 5063   3.331   6.480   0.339
 1707TIP3    H1 5064   3.241   6.479   0.305
 1707TIP3    H2 5065   3.385   6.504   0.263
 1708TIP3   OH2 5066   2.726   6.139   0.240
 1708TIP3    H1 5067   2.721   6.050   0.275
 1708TIP3    H2 5068   2.652   6.185   0.280
 1709TIP3   OH2 5069   3.149   7.087   0.409
 1709TIP3    H1 5070   3.143   7.183   0.405
 1709TIP3    H2 5071   3.072   7.056   0.361
 1710TIP3   OH2 5072   2.424   7.010   0.180
 1710TIP3    H1 5073   2.418   6.965   0.096
 1710TIP3    H2 5074   2.512   7.047   0.182
 1711TIP3   OH2 5075   2.571   7.455   0.522
 1711TIP3    H1 5076   2.499   7.517   0.509
 1711TIP3    H2 5077   2.553   7.384   0.459
 1712TIP3   OH2 5078   2.313   7.117   0.681
 1712TIP3    H1 5079   2.328   7.200   0.726
 1712TIP3    H2 5080   2.223   7.093   0.703
 1713TIP3   OH2 5081   3.479   6.966   0.555
 1713TIP3    H1 5082   3.471   7.025   0.480
 1713TIP3    H2 5083   3.503   6.882   0.516
 1714TIP3   OH2 5084   2.111   7.397   0.627
 1714TIP3    H1 5085   2.156   7.353   0.700
 1714TIP3    H2 5086   2.025   7.355   0.623
 1715TIP3   OH2 5087   2.501   6.246   0.367
 1715TIP3    H1 5088   2.416   6.214   0.335
 1715TIP3    H2 5089   2.480   6.323   0.418
 1716TIP3   OH2 5090   3.022   6.351   0.563
 1716TIP3    H1 5091   3.095   6.340   0.623
 1716TIP3    H2 5092   2.944   6.331   0.616
 1717TIP3   OH2 5093   3.207   6.792   0.445
 1717TIP3    H1 5094   3.193   6.768   0.537
 1717TIP3    H2 5095   3.193   6.887   0.442
 1718TIP3   OH2 5096   2.424   6.783   0.354
 1718TIP3    H1 5097   2.385   6.799   0.440
 1718TIP3    H2 5098   2.405   6.862   0.304
 1719TIP3   OH2 5099   2.967   6.971   0.705
 1719TIP3    H1 5100   2.957   6.902   0.770
 1719TIP3    H2 5101   3.062   6.982   0.696
 1720TIP3   OH2 5102   2.278   6.754   0.600
 1720TIP3    H1 5103   2.353   6.791   0.647
 1720TIP3    H2 5104   2.253   6.677   0.652
 1721TIP3   OH2 5105   2.952   6.962   0.268
 1721TIP3    H1 5106   2.915   6.911   0.196
 1721TIP3    H2 5107   2.926   6.915   0.347
 1722TIP3   OH2 5108   2.694   6.465   0.022
 1722TIP3    H1 5109   2.598   6.464   0.019
 1722TIP3    H2 5110   2.714   6.503   0.108
 1723TIP3   OH2 5111   3.101   6.485   0.192
 1723TIP3    H1 5112   3.045   6.534   0.252
 1723TIP3    H2 5113   3.042   6.421   0.152
 1724TIP3   OH2 5114   2.290   7.343   0.837
 1724TIP3    H1 5115   2.368   7.357   0.891
 1724TIP3    H2 5116   2.217   7.340   0.899
 1725TIP3   OH2 5117   2.821   6.779   0.116
 1725TIP3    H1 5118   2.789   6.743   0.033
 1725TIP3    H2 5119   2.772   6.733   0.183
 1726TIP3   OH2 5120   2.390   6.203   0.010
 1726TIP3    H1 5121   2.333   6.130   0.037
 1726TIP3    H2 5122   2.474   6.162  -0.011
 1727TIP3   OH2 5123   2.680   6.683   0.337
 1727TIP3    H1 5124   2.593   6.722   0.340
 1727TIP3    H2 5125   2.734   6.742   0.390
 1728TIP3   OH2 5126   2.857   7.408   0.495
 1728TIP3    H1 5127   2.877   7.403   0.589
 1728TIP3    H2 5128   2.768   7.443   0.492
 1729TIP3   OH2 5129   2.059   7.038   0.753
 1729TIP3    H1 5130   2.093   7.023   0.841
 1729TIP3    H2 5131   2.009   6.958   0.733
 1730TIP3   OH2 5132   2.754   7.139   0.731
 1730TIP3    H1 5133   2.711   7.123   0.648
 1730TIP3    H2 5134   2.838   7.092   0.725
 1731TIP3   OH2 5135   2.220   6.517   0.740
 1731TIP3    H1 5136   2.127   6.539   0.748
 1731TIP3    H2 5137   2.237   6.461   0.815
 1732TIP3   OH2 5138   3.006   6.593   0.432
 1732TIP3    H1 5139   3.090   6.636   0.442
 1732TIP3    H2 5140   3.014   6.511   0.481
 1733TIP3   OH2 5141   2.866   6.824   0.489
 1733TIP3    H1 5142   2.897   6.868   0.568
 1733TIP3    H2 5143   2.916   6.743   0.485
 1734TIP3   OH2 5144   3.506   6.708   0.442
 1734TIP3    H1 5145   3.437   6.652   0.476
 1734TIP3    H2 5146   3.477   6.732   0.353
 1735TIP3   OH2 5147   2.243   6.153   0.333
 1735TIP3    H1 5148   2.224   6.113   0.249
 1735TIP3    H2 5149   2.239   6.080   0.396
 1736TIP3   OH2 5150   2.072   7.285   0.994
 1736TIP3    H1 5151   2.115   7.200   0.978
 1736TIP3    H2 5152   1.997   7.263   1.051
 1737TIP3   OH2 5153   2.656   7.394   0.773
 1737TIP3    H1 5154   2.629   7.417   0.684
 1737TIP3    H2 5155   2.704   7.312   0.762
 1738TIP3   OH2 5156   3.109   7.362   0.396
 1738TIP3    H1 5157   3.155   7.445   0.388
 1738TIP3    H2 5158   3.017   7.387   0.411
 1739TIP3   OH2 5159   2.224   7.050   0.978
 1739TIP3    H1 5160   2.304   7.004   0.953
 1739TIP3    H2 5161   2.241   7.082   1.067
 1740TIP3   OH2 5162   2.503   6.925   0.627
 1740TIP3    H1 5163   2.445   6.996   0.656
 1740TIP3    H2 5164   2.565   6.968   0.567
 1741TIP3   OH2 5165   3.005   7.344   0.760
 1741TIP3    H1 5166   3.086   7.328   0.713
 1741TIP3    H2 5167   3.011   7.289   0.838
 1742TIP3   OH2 5168   2.646   6.731   0.755
 1742TIP3    H1 5169   2.650   6.655   0.697
 1742TIP3    H2 5170   2.605   6.799   0.701
 1743TIP3   OH2 5171   2.648   6.525   0.567
 1743TIP3    H1 5172   2.672   6.563   0.482
 1743TIP3    H2 5173   2.556   6.499   0.556
 1744TIP3   OH2 5174   2.672   7.078   0.473
 1744TIP3    H1 5175   2.752   7.064   0.423
 1744TIP3    H2 5176   2.623   7.144   0.424
 1745TIP3   OH2 5177   3.296   7.033   0.914
 1745TIP3    H1 5178   3.345   6.952   0.926
 1745TIP3    H2 5179   3.267   7.031   0.823
 1746TIP3   OH2 5180   3.250   7.308   0.620
 1746TIP3    H1 5181   3.195   7.341   0.549
 1746TIP3    H2 5182   3.327   7.272   0.575
 1747TIP3   OH2 5183   2.517   6.830   0.984
 1747TIP3    H1 5184   2.455   6.760   1.006
 1747TIP3    H2 5185   2.553   6.803   0.899
 1748TIP3   OH2 5186   2.766   6.293   0.659
 1748TIP3    H1 5187   2.727   6.375   0.628
 1748TIP3    H2 5188   2.700   6.226   0.641
 1749TIP3   OH2 5189   2.905   6.751   0.852
 1749TIP3    H1 5190   2.889   6.746   0.947
 1749TIP3    H2 5191   2.819   6.739   0.813
 1750TIP3   OH2 5192   3.138   6.707   0.697
 1750TIP3    H1 5193   3.060   6.706   0.754
 1750TIP3    H2 5194   3.212   6.701   0.757
 1751TIP3   OH2 5195   3.351   6.686   0.875
 1751TIP3    H1 5196   3.362   6.591   0.877
 1751TIP3    H2 5197   3.352   6.712   0.967
 1752TIP3   OH2 5198   2.371   6.602   1.048
 1752TIP3    H1 5199   2.369   6.514   1.009
 1752TIP3    H2 5200   2.406   6.589   1.136
 1753TIP3   OH2 5201   2.843   6.285   0.921
 1753TIP3    H1 5202   2.914   6.222   0.912
 1753TIP3    H2 5203   2.808   6.294   0.832
 1754TIP3   OH2 5204   2.928   6.500   1.074
 1754TIP3    H1 5205   2.902   6.428   1.015
 1754TIP3    H2 5206   2.856   6.563   1.067
 1755TIP3   OH2 5207   3.402   7.732   0.643
 1755TIP3    H1 5208   3.346   7.725   0.720
 1755TIP3    H2 5209   3.423   7.825   0.637
 1756TIP3   OH2 5210   3.438   7.220   0.439
 1756TIP3    H1 5211   3.533   7.225   0.446
 1756TIP3    H2 5212   3.418   7.257   0.352
 1757TIP3   OH2 5213   3.707   7.208   0.427
 1757TIP3    H1 5214   3.736   7.118   0.414
 1757TIP3    H2 5215   3.787   7.258   0.442
 1758TIP3   OH2 5216   2.115   6.703   1.046
 1758TIP3    H1 5217   2.207   6.680   1.042
 1758TIP3    H2 5218   2.069   6.619   1.044
 1759TIP3   OH2 5219   3.918   6.561   0.834
 1759TIP3    H1 5220   3.950   6.471   0.823
 1759TIP3    H2 5221   3.956   6.608   0.760
 1760TIP3   OH2 5222   2.067   6.365   0.343
 1760TIP3    H1 5223   2.124   6.288   0.346
 1760TIP3    H2 5224   2.126   6.439   0.354
 1761TIP3   OH2 5225   3.776   6.654   0.437
 1761TIP3    H1 5226   3.680   6.658   0.442
 1761TIP3    H2 5227   3.794   6.567   0.403
 1762TIP3   OH2 5228   2.069   6.193   0.735
 1762TIP3    H1 5229   2.026   6.195   0.820
 1762TIP3    H2 5230   2.013   6.247   0.679
 1763TIP3   OH2 5231   3.605   6.424   0.334
 1763TIP3    H1 5232   3.533   6.439   0.395
 1763TIP3    H2 5233   3.649   6.346   0.368
 1764TIP3   OH2 5234   2.908   6.308   0.098
 1764TIP3    H1 5235   2.852   6.244   0.143
 1764TIP3    H2 5236   2.847   6.358   0.043
 1765TIP3   OH2 5237   2.189   6.035   0.092
 1765TIP3    H1 5238   2.093   6.038   0.090
 1765TIP3    H2 5239   2.211   5.942   0.093
 1766TIP3   OH2 5240   8.297   2.060   6.927
 1766TIP3    H1 5241   8.370   2.063   6.865
 1766TIP3    H2 5242   8.335   2.086   7.011
 1767TIP3   OH2 5243   2.373   6.329   0.964
 1767TIP3    H1 5244   2.338   6.263   1.023
 1767TIP3    H2 5245   2.465   6.338   0.989
 1768TIP3   OH2 5246   2.620   6.337   1.089
 1768TIP3    H1 5247   2.699   6.315   1.039
 1768TIP3    H2 5248   2.612   6.267   1.154
 1769TIP3   OH2 5249   3.407   6.420   0.915
 1769TIP3    H1 5250   3.430   6.392   1.004
 1769TIP3    H2 5251   3.490   6.437   0.873
 1770TIP3   OH2 5252   3.910   7.538   0.334
 1770TIP3    H1 5253   3.947   7.611   0.384
 1770TIP3    H2 5254   3.841   7.577   0.281
 1771TIP3   OH2 5255   4.019   7.338   0.525
 1771TIP3    H1 5256   4.012   7.244   0.505
 1771TIP3    H2 5257   4.108   7.361   0.498
 1772TIP3   OH2 5258   4.342   7.010   0.350
 1772TIP3    H1 5259   4.333   7.060   0.432
 1772TIP3    H2 5260   4.435   6.989   0.346
 1773TIP3   OH2 5261   4.177   6.882   0.526
 1773TIP3    H1 5262   4.231   6.900   0.450
 1773TIP3    H2 5263   4.236   6.892   0.601
 1774TIP3   OH2 5264   4.690   6.784   0.489
 1774TIP3    H1 5265   4.708   6.716   0.424
 1774TIP3    H2 5266   4.611   6.827   0.456
 1775TIP3   OH2 5267   3.972   6.822   0.347
 1775TIP3    H1 5268   4.050   6.818   0.402
 1775TIP3    H2 5269   3.917   6.750   0.379
 1776TIP3   OH2 5270   3.751   6.518   0.121
 1776TIP3    H1 5271   3.695   6.487   0.192
 1776TIP3    H2 5272   3.738   6.612   0.119
 1777TIP3   OH2 5273   4.176   6.590   0.407
 1777TIP3    H1 5274   4.190   6.531   0.481
 1777TIP3    H2 5275   4.256   6.642   0.403
 1778TIP3   OH2 5276   4.439   6.577   0.733
 1778TIP3    H1 5277   4.500   6.523   0.682
 1778TIP3    H2 5278   4.389   6.514   0.786
 1779TIP3   OH2 5279   1.291   0.034   3.971
 1779TIP3    H1 5280   1.328  -0.029   4.033
 1779TIP3    H2 5281   1.367   0.078   3.934
 1780TIP3   OH2 5282   1.080   0.433   3.960
 1780TIP3    H1 5283   1.130   0.368   3.910
 1780TIP3    H2 5284   1.142   0.464   4.027
 1781TIP3   OH2 5285   7.764   7.581   4.456
 1781TIP3    H1 5286   7.698   7.515   4.479
 1781TIP3    H2 5287   7.808   7.600   4.539
 1782TIP3   OH2 5288   1.354   0.328   4.020
 1782TIP3    H1 5289   1.290   0.281   4.073
 1782TIP3    H2 5290   1.424   0.265   4.004
 1783TIP3   OH2 5291   1.792   0.167   4.554
 1783TIP3    H1 5292   1.828   0.122   4.478
 1783TIP3    H2 5293   1.703   0.191   4.528
 1784TIP3   OH2 5294   7.701   7.844   4.323
 1784TIP3    H1 5295   7.640   7.779   4.357
 1784TIP3    H2 5296   7.719   7.815   4.234
 1785TIP3   OH2 5297   1.183   0.231   4.209
 1785TIP3    H1 5298   1.106   0.278   4.241
 1785TIP3    H2 5299   1.212   0.180   4.284
 1786TIP3   OH2 5300   1.948   0.614   4.559
 1786TIP3    H1 5301   1.955   0.519   4.556
 1786TIP3    H2 5302   1.862   0.631   4.598
 1787TIP3   OH2 5303   1.020   0.290   4.667
 1787TIP3    H1 5304   0.985   0.355   4.606
 1787TIP3    H2 5305   0.993   0.206   4.631
 1788TIP3   OH2 5306   7.458   7.717   4.900
 1788TIP3    H1 5307   7.411   7.799   4.884
 1788TIP3    H2 5308   7.393   7.660   4.940
 1789TIP3   OH2 5309   7.295   7.908   4.363
 1789TIP3    H1 5310   7.364   7.975   4.361
 1789TIP3    H2 5311   7.213   7.957   4.364
 1790TIP3   OH2 5312   1.408   0.367   4.622
 1790TIP3    H1 5313   1.350   0.299   4.586
 1790TIP3    H2 5314   1.351   0.421   4.676
 1791TIP3   OH2 5315   1.996   0.345   4.559
 1791TIP3    H1 5316   1.914   0.298   4.573
 1791TIP3    H2 5317   2.030   0.311   4.477
 1792TIP3   OH2 5318   7.107   7.869   4.117
 1792TIP3    H1 5319   7.065   7.837   4.197
 1792TIP3    H2 5320   7.170   7.801   4.094
 1793TIP3   OH2 5321   0.929   0.493   4.519
 1793TIP3    H1 5322   0.881   0.575   4.503
 1793TIP3    H2 5323   0.943   0.456   4.432
 1794TIP3   OH2 5324   1.311   0.136   4.442
 1794TIP3    H1 5325   1.317   0.041   4.435
 1794TIP3    H2 5326   1.401   0.166   4.449
 1795TIP3   OH2 5327   1.507   0.643   4.453
 1795TIP3    H1 5328   1.440   0.576   4.467
 1795TIP3    H2 5329   1.466   0.706   4.393
 1796TIP3   OH2 5330   1.521   0.686   4.057
 1796TIP3    H1 5331   1.473   0.683   3.975
 1796TIP3    H2 5332   1.613   0.691   4.031
 1797TIP3   OH2 5333   1.384   0.417   4.940
 1797TIP3    H1 5334   1.439   0.343   4.965
 1797TIP3    H2 5335   1.446   0.485   4.913
 1798TIP3   OH2 5336   1.573   0.192   4.748
 1798TIP3    H1 5337   1.666   0.212   4.734
 1798TIP3    H2 5338   1.527   0.259   4.697
 1799TIP3   OH2 5339   7.324   7.946   4.822
 1799TIP3    H1 5340   7.267   8.019   4.797
 1799TIP3    H2 5341   7.407   7.964   4.778
 1800TIP3   OH2 5342   1.786   0.646   4.034
 1800TIP3    H1 5343   1.810   0.681   4.120
 1800TIP3    H2 5344   1.848   0.687   3.974
 1801TIP3   OH2 5345   1.814   0.710   4.307
 1801TIP3    H1 5346   1.789   0.623   4.338
 1801TIP3    H2 5347   1.896   0.729   4.353
 1802TIP3   OH2 5348   1.804   0.371   4.877
 1802TIP3    H1 5349   1.740   0.376   4.947
 1802TIP3    H2 5350   1.855   0.451   4.885
 1803TIP3   OH2 5351   1.757   0.168   4.114
 1803TIP3    H1 5352   1.817   0.133   4.048
 1803TIP3    H2 5353   1.746   0.260   4.089
 1804TIP3   OH2 5354   1.704   0.465   4.380
 1804TIP3    H1 5355   1.630   0.521   4.405
 1804TIP3    H2 5356   1.688   0.444   4.288
 1805TIP3   OH2 5357   1.905  -0.013   4.717
 1805TIP3    H1 5358   1.989  -0.038   4.677
 1805TIP3    H2 5359   1.868   0.051   4.657
 1806TIP3   OH2 5360   7.798   7.833   4.848
 1806TIP3    H1 5361   7.726   7.836   4.911
 1806TIP3    H2 5362   7.770   7.768   4.782
 1807TIP3   OH2 5363   7.342   7.453   4.253
 1807TIP3    H1 5364   7.356   7.466   4.159
 1807TIP3    H2 5365   7.303   7.536   4.283
 1808TIP3   OH2 5366   7.481   7.706   4.411
 1808TIP3    H1 5367   7.402   7.760   4.418
 1808TIP3    H2 5368   7.513   7.698   4.501
 1809TIP3   OH2 5369   1.266   0.562   3.601
 1809TIP3    H1 5370   1.317   0.495   3.554
 1809TIP3    H2 5371   1.320   0.585   3.676
 1810TIP3   OH2 5372   1.027   0.693   4.805
 1810TIP3    H1 5373   1.064   0.660   4.887
 1810TIP3    H2 5374   1.086   0.763   4.778
 1811TIP3   OH2 5375   1.231   0.843   4.675
 1811TIP3    H1 5376   1.264   0.771   4.621
 1811TIP3    H2 5377   1.161   0.882   4.623
 1812TIP3   OH2 5378   0.973   0.643   4.166
 1812TIP3    H1 5379   0.879   0.637   4.150
 1812TIP3    H2 5380   0.984   0.723   4.216
 1813TIP3   OH2 5381   1.234   0.584   4.140
 1813TIP3    H1 5382   1.143   0.611   4.150
 1813TIP3    H2 5383   1.285   0.658   4.172
 1814TIP3   OH2 5384   1.387   0.807   4.253
 1814TIP3    H1 5385   1.385   0.899   4.223
 1814TIP3    H2 5386   1.439   0.762   4.186
 1815TIP3   OH2 5387   1.696   0.693   4.648
 1815TIP3    H1 5388   1.628   0.662   4.587
 1815TIP3    H2 5389   1.698   0.788   4.634
 1816TIP3   OH2 5390   2.933   0.003   3.380
 1816TIP3    H1 5391   2.907   0.093   3.360
 1816TIP3    H2 5392   2.864  -0.051   3.343
 1817TIP3   OH2 5393   0.097   8.042   3.807
 1817TIP3    H1 5394   0.154   8.014   3.879
 1817TIP3    H2 5395   0.049   7.963   3.783
 1818TIP3   OH2 5396   7.931   7.950   4.150
 1818TIP3    H1 5397   7.963   7.896   4.222
 1818TIP3    H2 5398   8.006   7.959   4.091
 1819TIP3   OH2 5399   3.209   0.337   3.479
 1819TIP3    H1 5400   3.185   0.274   3.548
 1819TIP3    H2 5401   3.227   0.418   3.526
 1820TIP3   OH2 5402   2.241   0.315   3.841
 1820TIP3    H1 5403   2.227   0.220   3.843
 1820TIP3    H2 5404   2.335   0.325   3.826
 1821TIP3   OH2 5405   7.668   7.959   3.817
 1821TIP3    H1 5406   7.659   7.892   3.749
 1821TIP3    H2 5407   7.756   7.994   3.806
 1822TIP3   OH2 5408   2.877   0.748   3.495
 1822TIP3    H1 5409   2.898   0.685   3.426
 1822TIP3    H2 5410   2.889   0.699   3.577
 1823TIP3   OH2 5411   2.750   0.247   3.797
 1823TIP3    H1 5412   2.795   0.165   3.777
 1823TIP3    H2 5413   2.820   0.306   3.824
 1824TIP3   OH2 5414   0.357   7.732   3.858
 1824TIP3    H1 5415   0.430   7.670   3.854
 1824TIP3    H2 5416   0.306   7.714   3.779
 1825TIP3   OH2 5417   8.071   7.417   3.834
 1825TIP3    H1 5418   8.121   7.376   3.764
 1825TIP3    H2 5419   8.019   7.346   3.871
 1826TIP3   OH2 5420   0.294   7.529   3.498
 1826TIP3    H1 5421   0.370   7.470   3.501
 1826TIP3    H2 5422   0.281   7.546   3.404
 1827TIP3   OH2 5423   7.895   7.641   3.829
 1827TIP3    H1 5424   7.957   7.665   3.899
 1827TIP3    H2 5425   7.941   7.574   3.778
 1828TIP3   OH2 5426   8.209   7.798   3.749
 1828TIP3    H1 5427   8.304   7.788   3.756
 1828TIP3    H2 5428   8.179   7.719   3.703
 1829TIP3   OH2 5429   0.961   7.750   4.013
 1829TIP3    H1 5430   0.883   7.793   3.980
 1829TIP3    H2 5431   1.000   7.813   4.073
 1830TIP3   OH2 5432   2.838   0.228   3.257
 1830TIP3    H1 5433   2.805   0.209   3.169
 1830TIP3    H2 5434   2.791   0.306   3.284
 1831TIP3   OH2 5435   2.606   0.163   4.016
 1831TIP3    H1 5436   2.549   0.232   4.049
 1831TIP3    H2 5437   2.651   0.203   3.941
 1832TIP3   OH2 5438   8.089   7.619   4.016
 1832TIP3    H1 5439   8.167   7.621   4.072
 1832TIP3    H2 5440   8.105   7.548   3.955
 1833TIP3   OH2 5441   2.444   0.367   4.111
 1833TIP3    H1 5442   2.431   0.454   4.073
 1833TIP3    H2 5443   2.370   0.355   4.170
 1834TIP3   OH2 5444   3.234   0.583   3.617
 1834TIP3    H1 5445   3.147   0.578   3.656
 1834TIP3    H2 5446   3.236   0.667   3.571
 1835TIP3   OH2 5447   2.953   0.606   3.266
 1835TIP3    H1 5448   3.002   0.524   3.263
 1835TIP3    H2 5449   3.015   0.671   3.233
 1836TIP3   OH2 5450   3.109   0.389   3.227
 1836TIP3    H1 5451   3.082   0.307   3.186
 1836TIP3    H2 5452   3.149   0.362   3.310
 1837TIP3   OH2 5453   3.475   0.464   3.959
 1837TIP3    H1 5454   3.458   0.391   3.900
 1837TIP3    H2 5455   3.461   0.542   3.905
 1838TIP3   OH2 5456   8.428   7.873   3.215
 1838TIP3    H1 5457   8.348   7.916   3.185
 1838TIP3    H2 5458   8.478   7.857   3.136
 1839TIP3   OH2 5459   3.660   0.133   3.829
 1839TIP3    H1 5460   3.575   0.176   3.829
 1839TIP3    H2 5461   3.688   0.136   3.738
 1840TIP3   OH2 5462   0.293   7.974   3.192
 1840TIP3    H1 5463   0.230   7.989   3.262
 1840TIP3    H2 5464   0.378   7.971   3.236
 1841TIP3   OH2 5465   3.342   0.005   4.096
 1841TIP3    H1 5466   3.326   0.085   4.146
 1841TIP3    H2 5467   3.257  -0.017   4.058
 1842TIP3   OH2 5468   8.039   7.943   3.592
 1842TIP3    H1 5469   7.999   7.872   3.543
 1842TIP3    H2 5470   8.108   7.901   3.643
 1843TIP3   OH2 5471   2.495   0.358   3.727
 1843TIP3    H1 5472   2.470   0.338   3.637
 1843TIP3    H2 5473   2.582   0.319   3.737
 1844TIP3   OH2 5474   8.136   7.945   3.971
 1844TIP3    H1 5475   8.170   7.894   3.897
 1844TIP3    H2 5476   8.196   8.020   3.978
 1845TIP3   OH2 5477   2.992   0.584   3.744
 1845TIP3    H1 5478   2.986   0.658   3.804
 1845TIP3    H2 5479   2.986   0.507   3.801
 1846TIP3   OH2 5480   2.635   0.465   4.286
 1846TIP3    H1 5481   2.574   0.523   4.331
 1846TIP3    H2 5482   2.580   0.414   4.227
 1847TIP3   OH2 5483   0.128   7.823   3.023
 1847TIP3    H1 5484   0.190   7.874   3.074
 1847TIP3    H2 5485   0.151   7.841   2.932
 1848TIP3   OH2 5486   2.403   0.065   4.390
 1848TIP3    H1 5487   2.396   0.143   4.444
 1848TIP3    H2 5488   2.329   0.071   4.329
 1849TIP3   OH2 5489   2.708   0.470   3.287
 1849TIP3    H1 5490   2.782   0.530   3.290
 1849TIP3    H2 5491   2.648   0.508   3.223
 1850TIP3   OH2 5492   2.433   0.633   4.369
 1850TIP3    H1 5493   2.403   0.636   4.278
 1850TIP3    H2 5494   2.355   0.615   4.420
 1851TIP3   OH2 5495   3.283   0.429   2.569
 1851TIP3    H1 5496   3.299   0.515   2.530
 1851TIP3    H2 5497   3.371   0.391   2.578
 1852TIP3   OH2 5498   2.085   0.196   4.342
 1852TIP3    H1 5499   2.026   0.162   4.275
 1852TIP3    H2 5500   2.093   0.125   4.406
 1853TIP3   OH2 5501   1.882   0.383   3.951
 1853TIP3    H1 5502   1.974   0.391   3.975
 1853TIP3    H2 5503   1.840   0.458   3.992
 1854TIP3   OH2 5504   3.738   0.797   4.004
 1854TIP3    H1 5505   3.732   0.706   4.032
 1854TIP3    H2 5506   3.660   0.839   4.042
 1855TIP3   OH2 5507   2.822   0.608   4.148
 1855TIP3    H1 5508   2.818   0.699   4.177
 1855TIP3    H2 5509   2.753   0.564   4.198
 1856TIP3   OH2 5510   2.600   0.723   3.099
 1856TIP3    H1 5511   2.557   0.706   3.015
 1856TIP3    H2 5512   2.556   0.801   3.134
 1857TIP3   OH2 5513   2.040   0.587   3.487
 1857TIP3    H1 5514   2.089   0.576   3.569
 1857TIP3    H2 5515   1.996   0.503   3.474
 1858TIP3   OH2 5516   2.905   0.658   2.744
 1858TIP3    H1 5517   2.925   0.573   2.705
 1858TIP3    H2 5518   2.876   0.638   2.833
 1859TIP3   OH2 5519   2.847   0.658   3.011
 1859TIP3    H1 5520   2.757   0.671   3.041
 1859TIP3    H2 5521   2.893   0.621   3.086
 1860TIP3   OH2 5522   0.763   7.974   4.250
 1860TIP3    H1 5523   0.683   8.027   4.246
 1860TIP3    H2 5524   0.765   7.928   4.167
 1861TIP3   OH2 5525   2.243   0.408   4.295
 1861TIP3    H1 5526   2.289   0.408   4.378
 1861TIP3    H2 5527   2.181   0.336   4.302
 1862TIP3   OH2 5528   0.544   7.761   4.283
 1862TIP3    H1 5529   0.454   7.790   4.301
 1862TIP3    H2 5530   0.552   7.768   4.188
 1863TIP3   OH2 5531   0.199   7.872   2.761
 1863TIP3    H1 5532   0.167   7.856   2.672
 1863TIP3    H2 5533   0.290   7.898   2.749
 1864TIP3   OH2 5534   8.257   7.782   4.170
 1864TIP3    H1 5535   8.186   7.772   4.234
 1864TIP3    H2 5536   8.220   7.837   4.101
 1865TIP3   OH2 5537   8.092   7.605   3.574
 1865TIP3    H1 5538   8.028   7.545   3.534
 1865TIP3    H2 5539   8.177   7.575   3.540
 1866TIP3   OH2 5540   0.022   7.690   3.396
 1866TIP3    H1 5541  -0.022   7.753   3.339
 1866TIP3    H2 5542   0.102   7.666   3.348
 1867TIP3   OH2 5543   0.246   7.958   4.433
 1867TIP3    H1 5544   0.210   7.888   4.487
 1867TIP3    H2 5545   0.337   7.967   4.463
 1868TIP3   OH2 5546   0.191   7.739   3.625
 1868TIP3    H1 5547   0.128   7.768   3.559
 1868TIP3    H2 5548   0.227   7.657   3.589
 1869TIP3   OH2 5549   8.031   7.765   4.332
 1869TIP3    H1 5550   8.034   7.786   4.425
 1869TIP3    H2 5551   7.987   7.680   4.328
 1870TIP3   OH2 5552   0.256   7.930   4.011
 1870TIP3    H1 5553   0.293   7.865   3.952
 1870TIP3    H2 5554   0.222   7.879   4.085
 1871TIP3   OH2 5555   2.380   0.302   4.535
 1871TIP3    H1 5556   2.463   0.311   4.581
 1871TIP3    H2 5557   2.314   0.301   4.604
 1872TIP3   OH2 5558  -0.022   7.784   3.797
 1872TIP3    H1 5559   0.053   7.750   3.747
 1872TIP3    H2 5560  -0.014   7.743   3.883
 1873TIP3   OH2 5561   8.489   7.690   4.053
 1873TIP3    H1 5562   8.409   7.714   4.099
 1873TIP3    H2 5563   8.560   7.718   4.111
 1874TIP3   OH2 5564   2.527   0.014   3.158
 1874TIP3    H1 5565   2.445   0.034   3.114
 1874TIP3    H2 5566   2.513   0.041   3.249
 1875TIP3   OH2 5567   3.420   0.262   3.780
 1875TIP3    H1 5568   3.454   0.309   3.704
 1875TIP3    H2 5569   3.336   0.227   3.751
 1876TIP3   OH2 5570   2.944   0.340   4.177
 1876TIP3    H1 5571   2.988   0.327   4.261
 1876TIP3    H2 5572   2.898   0.423   4.187
 1877TIP3   OH2 5573   0.248   7.638   3.244
 1877TIP3    H1 5574   0.325   7.693   3.234
 1877TIP3    H2 5575   0.214   7.628   3.155
 1878TIP3   OH2 5576   2.259   0.036   3.818
 1878TIP3    H1 5577   2.293   0.012   3.732
 1878TIP3    H2 5578   2.324   0.003   3.880
 1879TIP3   OH2 5579   2.694   0.178   3.019
 1879TIP3    H1 5580   2.652   0.263   3.029
 1879TIP3    H2 5581   2.640   0.118   3.071
 1880TIP3   OH2 5582   7.784   8.011   4.532
 1880TIP3    H1 5583   7.868   8.001   4.576
 1880TIP3    H2 5584   7.779   7.937   4.471
 1881TIP3   OH2 5585   2.857   0.105   4.489
 1881TIP3    H1 5586   2.783   0.052   4.458
 1881TIP3    H2 5587   2.934   0.064   4.449
 1882TIP3   OH2 5588   3.091   0.626   4.070
 1882TIP3    H1 5589   2.997   0.610   4.080
 1882TIP3    H2 5590   3.116   0.667   4.153
 1883TIP3   OH2 5591   0.628   7.726   2.974
 1883TIP3    H1 5592   0.567   7.679   2.917
 1883TIP3    H2 5593   0.644   7.809   2.929
 1884TIP3   OH2 5594   3.724   0.516   4.053
 1884TIP3    H1 5595   3.630   0.518   4.038
 1884TIP3    H2 5596   3.763   0.493   3.969
 1885TIP3   OH2 5597   3.165   0.156   3.693
 1885TIP3    H1 5598   3.076   0.132   3.721
 1885TIP3    H2 5599   3.197   0.078   3.648
 1886TIP3   OH2 5600   2.335   0.353   3.485
 1886TIP3    H1 5601   2.333   0.430   3.428
 1886TIP3    H2 5602   2.245   0.344   3.515
 1887TIP3   OH2 5603   2.438   0.114   3.394
 1887TIP3    H1 5604   2.415   0.201   3.426
 1887TIP3    H2 5605   2.421   0.056   3.469
 1888TIP3   OH2 5606   2.640   0.687   3.940
 1888TIP3    H1 5607   2.675   0.761   3.890
 1888TIP3    H2 5608   2.716   0.651   3.986
 1889TIP3   OH2 5609   2.264   0.580   3.326
 1889TIP3    H1 5610   2.180   0.590   3.370
 1889TIP3    H2 5611   2.305   0.666   3.331
 1890TIP3   OH2 5612   2.987   0.352   3.903
 1890TIP3    H1 5613   2.976   0.342   3.998
 1890TIP3    H2 5614   3.065   0.299   3.883
 1891TIP3   OH2 5615   2.991   0.212   2.771
 1891TIP3    H1 5616   3.036   0.196   2.853
 1891TIP3    H2 5617   2.909   0.162   2.779
 1892TIP3   OH2 5618   3.248   0.843   3.955
 1892TIP3    H1 5619   3.176   0.785   3.978
 1892TIP3    H2 5620   3.211   0.903   3.891
 1893TIP3   OH2 5621   3.134   0.154   2.995
 1893TIP3    H1 5622   3.123   0.086   3.062
 1893TIP3    H2 5623   3.228   0.166   2.988
 1894TIP3   OH2 5624   2.088   0.584   4.108
 1894TIP3    H1 5625   2.145   0.530   4.162
 1894TIP3    H2 5626   2.095   0.672   4.145
 1895TIP3   OH2 5627   2.293   0.186   3.094
 1895TIP3    H1 5628   2.287   0.182   3.190
 1895TIP3    H2 5629   2.296   0.279   3.074
 1896TIP3   OH2 5630   2.558   0.413   3.020
 1896TIP3    H1 5631   2.471   0.433   3.054
 1896TIP3    H2 5632   2.549   0.421   2.925
 1897TIP3   OH2 5633   8.329   7.511   3.475
 1897TIP3    H1 5634   8.395   7.575   3.450
 1897TIP3    H2 5635   8.374   7.427   3.473
 1898TIP3   OH2 5636   0.185   7.779   4.233
 1898TIP3    H1 5637   0.190   7.854   4.292
 1898TIP3    H2 5638   0.183   7.703   4.291
 1899TIP3   OH2 5639   2.293   0.466   3.077
 1899TIP3    H1 5640   2.265   0.536   3.017
 1899TIP3    H2 5641   2.281   0.504   3.164
 1900TIP3   OH2 5642   0.400   7.926   3.586
 1900TIP3    H1 5643   0.330   7.863   3.606
 1900TIP3    H2 5644   0.474   7.898   3.641
 1901TIP3   OH2 5645   3.259   0.843   3.520
 1901TIP3    H1 5646   3.222   0.892   3.446
 1901TIP3    H2 5647   3.354   0.855   3.512
 1902TIP3   OH2 5648   1.935   0.342   3.438
 1902TIP3    H1 5649   1.845   0.365   3.415
 1902TIP3    H2 5650   1.964   0.286   3.366
 1903TIP3   OH2 5651   2.049   0.871   4.525
 1903TIP3    H1 5652   2.132   0.876   4.573
 1903TIP3    H2 5653   2.021   0.780   4.535
 1904TIP3   OH2 5654   2.513   0.798   4.573
 1904TIP3    H1 5655   2.607   0.786   4.585
 1904TIP3    H2 5656   2.491   0.742   4.499
 1905TIP3   OH2 5657   2.515   0.418   2.745
 1905TIP3    H1 5658   2.442   0.357   2.737
 1905TIP3    H2 5659   2.581   0.386   2.683
 1906TIP3   OH2 5660   3.143   0.747   4.312
 1906TIP3    H1 5661   3.152   0.675   4.375
 1906TIP3    H2 5662   3.218   0.803   4.328
 1907TIP3   OH2 5663   2.969   0.428   2.610
 1907TIP3    H1 5664   2.979   0.357   2.674
 1907TIP3    H2 5665   3.052   0.428   2.562
 1908TIP3   OH2 5666   2.191   0.275   4.741
 1908TIP3    H1 5667   2.206   0.181   4.735
 1908TIP3    H2 5668   2.115   0.290   4.685
 1909TIP3   OH2 5669   2.784   0.371   4.497
 1909TIP3    H1 5670   2.739   0.387   4.414
 1909TIP3    H2 5671   2.820   0.283   4.488
 1910TIP3   OH2 5672   2.734   0.102   2.761
 1910TIP3    H1 5673   2.718   0.130   2.851
 1910TIP3    H2 5674   2.713   0.008   2.761
 1911TIP3   OH2 5675   3.252   0.398   4.108
 1911TIP3    H1 5676   3.331   0.426   4.062
 1911TIP3    H2 5677   3.188   0.466   4.090
 1912TIP3   OH2 5678   2.340   0.015   4.699
 1912TIP3    H1 5679   2.427  -0.019   4.678
 1912TIP3    H2 5680   2.342   0.030   4.793
 1913TIP3   OH2 5681   8.319   7.961   4.396
 1913TIP3    H1 5682   8.232   8.000   4.392
 1913TIP3    H2 5683   8.354   7.969   4.308
 1914TIP3   OH2 5684   3.140   0.287   4.466
 1914TIP3    H1 5685   3.203   0.243   4.409
 1914TIP3    H2 5686   3.134   0.231   4.544
 1915TIP3   OH2 5687   0.437   7.956   2.639
 1915TIP3    H1 5688   0.417   7.908   2.559
 1915TIP3    H2 5689   0.413   8.047   2.619
 1916TIP3   OH2 5690   8.358   7.711   4.497
 1916TIP3    H1 5691   8.334   7.649   4.427
 1916TIP3    H2 5692   8.344   7.797   4.458
 1917TIP3   OH2 5693   2.789   0.023   4.169
 1917TIP3    H1 5694   2.873   0.038   4.125
 1917TIP3    H2 5695   2.727   0.075   4.119
 1918TIP3   OH2 5696   0.501   7.971   4.536
 1918TIP3    H1 5697   0.553   7.907   4.585
 1918TIP3    H2 5698   0.564   8.037   4.507
 1919TIP3   OH2 5699   3.370   0.227   4.282
 1919TIP3    H1 5700   3.314   0.287   4.232
 1919TIP3    H2 5701   3.458   0.243   4.248
 1920TIP3   OH2 5702   8.244   7.855   4.725
 1920TIP3    H1 5703   8.186   7.803   4.780
 1920TIP3    H2 5704   8.277   7.794   4.659
 1921TIP3   OH2 5705   0.130   7.740   4.550
 1921TIP3    H1 5706   0.145   7.689   4.630
 1921TIP3    H2 5707   0.037   7.732   4.532
 1922TIP3   OH2 5708   2.262   0.672   2.893
 1922TIP3    H1 5709   2.357   0.680   2.883
 1922TIP3    H2 5710   2.226   0.713   2.815
 1923TIP3   OH2 5711   1.653   0.643   3.517
 1923TIP3    H1 5712   1.661   0.579   3.446
 1923TIP3    H2 5713   1.695   0.601   3.592
 1924TIP3   OH2 5714   1.790   0.535   3.724
 1924TIP3    H1 5715   1.788   0.451   3.769
 1924TIP3    H2 5716   1.859   0.585   3.768
 1925TIP3   OH2 5717   3.531   0.887   3.514
 1925TIP3    H1 5718   3.550   0.906   3.606
 1925TIP3    H2 5719   3.581   0.953   3.465
 1926TIP3   OH2 5720   3.568   0.917   3.786
 1926TIP3    H1 5721   3.520   0.835   3.798
 1926TIP3    H2 5722   3.640   0.912   3.849
 1927TIP3   OH2 5723   3.596   0.597   4.400
 1927TIP3    H1 5724   3.518   0.623   4.449
 1927TIP3    H2 5725   3.649   0.677   4.394
 1928TIP3   OH2 5726   3.411   0.162   2.977
 1928TIP3    H1 5727   3.472   0.227   2.944
 1928TIP3    H2 5728   3.454   0.126   3.055
 1929TIP3   OH2 5729   3.545   0.044   3.184
 1929TIP3    H1 5730   3.482   0.016   3.250
 1929TIP3    H2 5731   3.616   0.084   3.234
 1930TIP3   OH2 5732   3.606   0.398   3.616
 1930TIP3    H1 5733   3.650   0.328   3.567
 1930TIP3    H2 5734   3.607   0.473   3.557
 1931TIP3   OH2 5735   3.416   0.683   3.807
 1931TIP3    H1 5736   3.356   0.734   3.861
 1931TIP3    H2 5737   3.360   0.646   3.738
 1932TIP3   OH2 5738   0.637   7.955   2.827
 1932TIP3    H1 5739   0.569   7.947   2.760
 1932TIP3    H2 5740   0.611   8.031   2.879
 1933TIP3   OH2 5741   0.457   7.634   2.773
 1933TIP3    H1 5742   0.470   7.669   2.684
 1933TIP3    H2 5743   0.427   7.544   2.759
 1934TIP3   OH2 5744   0.524   7.940   3.343
 1934TIP3    H1 5745   0.531   7.846   3.324
 1934TIP3    H2 5746   0.484   7.944   3.430
 1935TIP3   OH2 5747   2.008   0.035   4.082
 1935TIP3    H1 5748   1.994  -0.005   3.996
 1935TIP3    H2 5749   2.099   0.013   4.104
 1936TIP3   OH2 5750   3.620   0.274   4.178
 1936TIP3    H1 5751   3.690   0.214   4.155
 1936TIP3    H2 5752   3.636   0.352   4.126
 1937TIP3   OH2 5753   3.829   0.100   4.167
 1937TIP3    H1 5754   3.777   0.025   4.195
 1937TIP3    H2 5755   3.898   0.108   4.233
 1938TIP3   OH2 5756   0.529   7.689   3.226
 1938TIP3    H1 5757   0.509   7.596   3.212
 1938TIP3    H2 5758   0.567   7.718   3.143
 1939TIP3   OH2 5759   0.633   7.882   3.716
 1939TIP3    H1 5760   0.714   7.878   3.665
 1939TIP3    H2 5761   0.660   7.868   3.806
 1940TIP3   OH2 5762   0.741   7.927   3.975
 1940TIP3    H1 5763   0.655   7.958   4.002
 1940TIP3    H2 5764   0.778   8.000   3.926
 1941TIP3   OH2 5765   7.885   7.601   4.705
 1941TIP3    H1 5766   7.951   7.642   4.761
 1941TIP3    H2 5767   7.889   7.508   4.726
 1942TIP3   OH2 5768   7.644   7.553   4.211
 1942TIP3    H1 5769   7.672   7.622   4.150
 1942TIP3    H2 5770   7.688   7.575   4.293
 1943TIP3   OH2 5771   3.116   0.789   3.143
 1943TIP3    H1 5772   3.204   0.764   3.114
 1943TIP3    H2 5773   3.130   0.861   3.205
 1944TIP3   OH2 5774   2.228   0.592   4.549
 1944TIP3    H1 5775   2.132   0.590   4.547
 1944TIP3    H2 5776   2.250   0.587   4.642
 1945TIP3   OH2 5777   2.412   0.643   4.085
 1945TIP3    H1 5778   2.358   0.716   4.054
 1945TIP3    H2 5779   2.496   0.656   4.042
 1946TIP3   OH2 5780   2.861   0.883   4.204
 1946TIP3    H1 5781   2.876   0.879   4.299
 1946TIP3    H2 5782   2.949   0.875   4.166
 1947TIP3   OH2 5783   2.067   0.874   4.143
 1947TIP3    H1 5784   1.980   0.896   4.109
 1947TIP3    H2 5785   2.086   0.943   4.206
 1948TIP3   OH2 5786   2.294   0.872   3.986
 1948TIP3    H1 5787   2.212   0.875   4.035
 1948TIP3    H2 5788   2.271   0.898   3.897
 1949TIP3   OH2 5789   2.704   0.903   3.777
 1949TIP3    H1 5790   2.633   0.904   3.713
 1949TIP3    H2 5791   2.706   0.992   3.813
 1950TIP3   OH2 5792   2.961   0.839   3.853
 1950TIP3    H1 5793   2.875   0.860   3.818
 1950TIP3    H2 5794   3.021   0.899   3.807
 1951TIP3   OH2 5795   3.161   0.993   3.733
 1951TIP3    H1 5796   3.164   1.082   3.698
 1951TIP3    H2 5797   3.194   0.939   3.662
 1952TIP3   OH2 5798   2.002   0.671   3.859
 1952TIP3    H1 5799   2.033   0.643   3.946
 1952TIP3    H2 5800   2.067   0.635   3.798
 1953TIP3   OH2 5801   2.192   0.549   3.711
 1953TIP3    H1 5802   2.200   0.465   3.757
 1953TIP3    H2 5803   2.280   0.587   3.715
 1954TIP3   OH2 5804   2.458   0.634   3.735
 1954TIP3    H1 5805   2.476   0.542   3.720
 1954TIP3    H2 5806   2.512   0.657   3.811
 1955TIP3   OH2 5807   1.710   0.471   3.303
 1955TIP3    H1 5808   1.643   0.426   3.251
 1955TIP3    H2 5809   1.726   0.553   3.257
 1956TIP3   OH2 5810   2.529   0.680   2.827
 1956TIP3    H1 5811   2.546   0.730   2.747
 1956TIP3    H2 5812   2.528   0.589   2.799
 1957TIP3   OH2 5813   3.509   0.912   4.088
 1957TIP3    H1 5814   3.415   0.905   4.073
 1957TIP3    H2 5815   3.517   0.975   4.160
 1958TIP3   OH2 5816   4.724   0.266   2.886
 1958TIP3    H1 5817   4.708   0.359   2.870
 1958TIP3    H2 5818   4.653   0.221   2.840
 1959TIP3   OH2 5819   4.737   0.313   3.248
 1959TIP3    H1 5820   4.772   0.299   3.336
 1959TIP3    H2 5821   4.691   0.232   3.227
 1960TIP3   OH2 5822   4.024   0.175   3.611
 1960TIP3    H1 5823   4.060   0.127   3.685
 1960TIP3    H2 5824   4.100   0.212   3.567
 1961TIP3   OH2 5825   5.003   0.590   2.956
 1961TIP3    H1 5826   4.992   0.529   3.029
 1961TIP3    H2 5827   5.027   0.673   2.997
 1962TIP3   OH2 5828   4.026   0.570   3.311
 1962TIP3    H1 5829   4.006   0.476   3.317
 1962TIP3    H2 5830   4.122   0.573   3.308
 1963TIP3   OH2 5831   0.852   7.824   3.140
 1963TIP3    H1 5832   0.806   7.907   3.150
 1963TIP3    H2 5833   0.798   7.773   3.081
 1964TIP3   OH2 5834   3.778   0.129   3.302
 1964TIP3    H1 5835   3.841   0.059   3.321
 1964TIP3    H2 5836   3.832   0.205   3.283
 1965TIP3   OH2 5837   4.661   1.010   2.968
 1965TIP3    H1 5838   4.690   0.944   2.905
 1965TIP3    H2 5839   4.660   0.964   3.052
 1966TIP3   OH2 5840   4.543   0.513   3.290
 1966TIP3    H1 5841   4.588   0.438   3.252
 1966TIP3    H2 5842   4.613   0.568   3.326
 1967TIP3   OH2 5843   2.088   8.026   3.314
 1967TIP3    H1 5844   2.089   7.930   3.314
 1967TIP3    H2 5845   2.045   8.050   3.232
 1968TIP3   OH2 5846   1.541   7.573   3.239
 1968TIP3    H1 5847   1.531   7.589   3.333
 1968TIP3    H2 5848   1.452   7.556   3.208
 1969TIP3   OH2 5849   2.069   7.711   2.998
 1969TIP3    H1 5850   2.162   7.692   3.010
 1969TIP3    H2 5851   2.067   7.790   2.944
 1970TIP3   OH2 5852   1.139   7.977   3.391
 1970TIP3    H1 5853   1.170   7.978   3.482
 1970TIP3    H2 5854   1.190   7.908   3.349
 1971TIP3   OH2 5855   4.346   0.116   3.205
 1971TIP3    H1 5856   4.441   0.106   3.208
 1971TIP3    H2 5857   4.314   0.034   3.169
 1972TIP3   OH2 5858   5.626   0.053   3.470
 1972TIP3    H1 5859   5.535   0.080   3.458
 1972TIP3    H2 5860   5.643   0.065   3.564
 1973TIP3   OH2 5861   4.642   0.488   2.732
 1973TIP3    H1 5862   4.603   0.458   2.650
 1973TIP3    H2 5863   4.590   0.563   2.758
 1974TIP3   OH2 5864   4.393   0.432   3.508
 1974TIP3    H1 5865   4.333   0.499   3.541
 1974TIP3    H2 5866   4.437   0.472   3.433
 1975TIP3   OH2 5867   1.301   7.822   3.582
 1975TIP3    H1 5868   1.364   7.894   3.574
 1975TIP3    H2 5869   1.300   7.782   3.495
 1976TIP3   OH2 5870   4.221   0.624   3.605
 1976TIP3    H1 5871   4.207   0.714   3.576
 1976TIP3    H2 5872   4.143   0.604   3.657
 1977TIP3   OH2 5873   3.595   0.333   2.859
 1977TIP3    H1 5874   3.564   0.354   2.771
 1977TIP3    H2 5875   3.618   0.418   2.897
 1978TIP3   OH2 5876   5.043   0.830   3.097
 1978TIP3    H1 5877   4.957   0.821   3.137
 1978TIP3    H2 5878   5.040   0.916   3.053
 1979TIP3   OH2 5879   4.751   0.855   2.755
 1979TIP3    H1 5880   4.803   0.776   2.742
 1979TIP3    H2 5881   4.808   0.926   2.726
 1980TIP3   OH2 5882   4.886   0.623   2.709
 1980TIP3    H1 5883   4.813   0.562   2.712
 1980TIP3    H2 5884   4.937   0.604   2.788
 1981TIP3   OH2 5885   5.279   0.718   3.450
 1981TIP3    H1 5886   5.260   0.644   3.392
 1981TIP3    H2 5887   5.262   0.795   3.397
 1982TIP3   OH2 5888   4.552   0.139   2.711
 1982TIP3    H1 5889   4.468   0.180   2.689
 1982TIP3    H2 5890   4.600   0.139   2.628
 1983TIP3   OH2 5891   1.686   7.985   2.393
 1983TIP3    H1 5892   1.751   8.043   2.432
 1983TIP3    H2 5893   1.722   7.897   2.404
 1984TIP3   OH2 5894   5.469   0.403   3.305
 1984TIP3    H1 5895   5.380   0.439   3.312
 1984TIP3    H2 5896   5.493   0.415   3.213
 1985TIP3   OH2 5897   4.910   0.225   2.684
 1985TIP3    H1 5898   4.855   0.244   2.760
 1985TIP3    H2 5899   4.999   0.223   2.719
 1986TIP3   OH2 5900   5.166   0.285   3.582
 1986TIP3    H1 5901   5.093   0.348   3.587
 1986TIP3    H2 5902   5.123   0.200   3.569
 1987TIP3   OH2 5903   4.126   0.209   3.065
 1987TIP3    H1 5904   4.097   0.139   3.005
 1987TIP3    H2 5905   4.205   0.174   3.106
 1988TIP3   OH2 5906   4.290   0.613   3.220
 1988TIP3    H1 5907   4.271   0.598   3.127
 1988TIP3    H2 5908   4.378   0.579   3.233
 1989TIP3   OH2 5909   4.242   0.216   3.439
 1989TIP3    H1 5910   4.278   0.184   3.357
 1989TIP3    H2 5911   4.295   0.293   3.460
 1990TIP3   OH2 5912   4.807   0.818   3.231
 1990TIP3    H1 5913   4.791   0.900   3.278
 1990TIP3    H2 5914   4.792   0.750   3.297
 1991TIP3   OH2 5915   4.422   0.719   3.771
 1991TIP3    H1 5916   4.364   0.779   3.816
 1991TIP3    H2 5917   4.365   0.666   3.715
 1992TIP3   OH2 5918   4.741   0.100   2.507
 1992TIP3    H1 5919   4.801   0.157   2.555
 1992TIP3    H2 5920   4.774   0.098   2.418
 1993TIP3   OH2 5921   4.189   0.314   3.872
 1993TIP3    H1 5922   4.189   0.402   3.909
 1993TIP3    H2 5923   4.100   0.282   3.886
 1994TIP3   OH2 5924   4.507   0.728   2.766
 1994TIP3    H1 5925   4.586   0.781   2.769
 1994TIP3    H2 5926   4.444   0.781   2.718
 1995TIP3   OH2 5927   4.221   0.883   3.857
 1995TIP3    H1 5928   4.189   0.894   3.768
 1995TIP3    H2 5929   4.143   0.861   3.908
 1996TIP3   OH2 5930   4.012   0.026   2.877
 1996TIP3    H1 5931   3.939   0.080   2.847
 1996TIP3    H2 5932   3.971  -0.044   2.928
 1997TIP3   OH2 5933   5.086   0.675   2.121
 1997TIP3    H1 5934   5.079   0.768   2.100
 1997TIP3    H2 5935   5.178   0.653   2.105
 1998TIP3   OH2 5936   3.809   0.431   3.809
 1998TIP3    H1 5937   3.736   0.421   3.747
 1998TIP3    H2 5938   3.847   0.344   3.816
 1999TIP3   OH2 5939   3.649   0.634   3.461
 1999TIP3    H1 5940   3.739   0.657   3.483
 1999TIP3    H2 5941   3.597   0.709   3.489
 2000TIP3   OH2 5942   5.509   1.084   3.508
 2000TIP3    H1 5943   5.516   0.989   3.521
 2000TIP3    H2 5944   5.429   1.108   3.554
 2001TIP3   OH2 5945   4.613   0.861   3.633
 2001TIP3    H1 5946   4.605   0.951   3.664
 2001TIP3    H2 5947   4.545   0.813   3.682
 2002TIP3   OH2 5948   4.392   0.964   2.592
 2002TIP3    H1 5949   4.350   0.945   2.509
 2002TIP3    H2 5950   4.354   1.047   2.620
 2003TIP3   OH2 5951   3.817   0.820   2.968
 2003TIP3    H1 5952   3.869   0.817   3.049
 2003TIP3    H2 5953   3.778   0.733   2.963
 2004TIP3   OH2 5954   4.594   0.901   2.220
 2004TIP3    H1 5955   4.645   0.828   2.184
 2004TIP3    H2 5956   4.627   0.913   2.309
 2005TIP3   OH2 5957   4.646   0.939   2.490
 2005TIP3    H1 5958   4.560   0.942   2.532
 2005TIP3    H2 5959   4.704   0.903   2.556
 2006TIP3   OH2 5960   5.377   0.219   3.746
 2006TIP3    H1 5961   5.309   0.272   3.704
 2006TIP3    H2 5962   5.362   0.130   3.713
 2007TIP3   OH2 5963   3.999   0.630   3.770
 2007TIP3    H1 5964   4.044   0.634   3.854
 2007TIP3    H2 5965   3.930   0.565   3.783
 2008TIP3   OH2 5966   2.470   7.970   3.713
 2008TIP3    H1 5967   2.376   7.968   3.733
 2008TIP3    H2 5968   2.481   7.911   3.639
 2009TIP3   OH2 5969   4.830   0.070   2.256
 2009TIP3    H1 5970   4.784   0.067   2.172
 2009TIP3    H2 5971   4.915   0.109   2.235
 2010TIP3   OH2 5972   4.308   0.018   3.614
 2010TIP3    H1 5973   4.262   0.034   3.696
 2010TIP3    H2 5974   4.281   0.090   3.557
 2011TIP3   OH2 5975   1.382   7.928   3.079
 2011TIP3    H1 5976   1.287   7.913   3.081
 2011TIP3    H2 5977   1.412   7.882   3.001
 2012TIP3   OH2 5978   1.836   7.955   2.855
 2012TIP3    H1 5979   1.783   8.026   2.818
 2012TIP3    H2 5980   1.892   7.927   2.783
 2013TIP3   OH2 5981   4.857   0.253   3.900
 2013TIP3    H1 5982   4.837   0.170   3.944
 2013TIP3    H2 5983   4.952   0.256   3.898
 2014TIP3   OH2 5984   4.834   0.067   3.047
 2014TIP3    H1 5985   4.795   0.144   3.006
 2014TIP3    H2 5986   4.768  -0.001   3.038
 2015TIP3   OH2 5987   4.119   0.019   3.819
 2015TIP3    H1 5988   4.054   0.072   3.864
 2015TIP3    H2 5989   4.147  -0.045   3.885
 2016TIP3   OH2 5990   0.922   7.641   2.904
 2016TIP3    H1 5991   1.017   7.654   2.896
 2016TIP3    H2 5992   0.911   7.597   2.989
 2017TIP3   OH2 5993   4.856   0.229   3.477
 2017TIP3    H1 5994   4.895   0.159   3.424
 2017TIP3    H2 5995   4.835   0.186   3.560
 2018TIP3   OH2 5996   1.122   7.830   3.073
 2018TIP3    H1 5997   1.030   7.836   3.099
 2018TIP3    H2 5998   1.129   7.744   3.032
 2019TIP3   OH2 5999   1.424   7.779   2.849
 2019TIP3    H1 6000   1.519   7.776   2.839
 2019TIP3    H2 6001   1.391   7.798   2.761
 2020TIP3   OH2 6002   1.290   7.772   2.617
 2020TIP3    H1 6003   1.211   7.752   2.567
 2020TIP3    H2 6004   1.347   7.817   2.554
 2021TIP3   OH2 6005   5.221   1.422   3.602
 2021TIP3    H1 6006   5.217   1.441   3.508
 2021TIP3    H2 6007   5.299   1.468   3.632
 2022TIP3   OH2 6008   4.169   0.556   4.006
 2022TIP3    H1 6009   4.248   0.569   4.058
 2022TIP3    H2 6010   4.097   0.572   4.068
 2023TIP3   OH2 6011   4.612   0.068   3.253
 2023TIP3    H1 6012   4.652  -0.015   3.229
 2023TIP3    H2 6013   4.604   0.064   3.349
 2024TIP3   OH2 6014   4.563   0.033   3.519
 2024TIP3    H1 6015   4.481   0.028   3.568
 2024TIP3    H2 6016   4.619   0.090   3.571
 2025TIP3   OH2 6017   4.312   0.263   2.650
 2025TIP3    H1 6018   4.238   0.206   2.632
 2025TIP3    H2 6019   4.291   0.304   2.734
 2026TIP3   OH2 6020   5.224   0.522   3.268
 2026TIP3    H1 6021   5.256   0.572   3.193
 2026TIP3    H2 6022   5.140   0.487   3.239
 2027TIP3   OH2 6023   1.830   7.760   2.442
 2027TIP3    H1 6024   1.797   7.680   2.484
 2027TIP3    H2 6025   1.894   7.794   2.505
 2028TIP3   OH2 6026   4.733   0.574   3.686
 2028TIP3    H1 6027   4.791   0.571   3.762
 2028TIP3    H2 6028   4.694   0.661   3.689
 2029TIP3   OH2 6029   1.993   7.882   2.641
 2029TIP3    H1 6030   2.067   7.899   2.699
 2029TIP3    H2 6031   1.981   7.964   2.593
 2030TIP3   OH2 6032   4.003   0.293   3.296
 2030TIP3    H1 6033   4.039   0.271   3.210
 2030TIP3    H2 6034   4.063   0.253   3.358
 2031TIP3   OH2 6035   4.483   0.419   2.507
 2031TIP3    H1 6036   4.440   0.504   2.504
 2031TIP3    H2 6037   4.421   0.363   2.554
 2032TIP3   OH2 6038   3.922   0.186   3.916
 2032TIP3    H1 6039   3.923   0.187   4.012
 2032TIP3    H2 6040   3.835   0.153   3.894
 2033TIP3   OH2 6041   4.616   0.359   3.972
 2033TIP3    H1 6042   4.553   0.293   3.944
 2033TIP3    H2 6043   4.699   0.330   3.934
 2034TIP3   OH2 6044   4.882   0.882   3.559
 2034TIP3    H1 6045   4.788   0.868   3.565
 2034TIP3    H2 6046   4.906   0.920   3.644
 2035TIP3   OH2 6047   2.398   7.977   2.410
 2035TIP3    H1 6048   2.331   7.941   2.352
 2035TIP3    H2 6049   2.412   8.066   2.378
 2036TIP3   OH2 6050   5.527   0.806   3.530
 2036TIP3    H1 6051   5.432   0.790   3.529
 2036TIP3    H2 6052   5.559   0.770   3.448
 2037TIP3   OH2 6053   5.010   0.743   2.388
 2037TIP3    H1 6054   4.980   0.674   2.446
 2037TIP3    H2 6055   5.026   0.699   2.304
 2038TIP3   OH2 6056   4.987   0.412   3.169
 2038TIP3    H1 6057   4.896   0.388   3.190
 2038TIP3    H2 6058   5.024   0.334   3.128
 2039TIP3   OH2 6059   4.147   0.622   2.975
 2039TIP3    H1 6060   4.138   0.697   2.916
 2039TIP3    H2 6061   4.065   0.620   3.025
 2040TIP3   OH2 6062   0.882   7.935   2.709
 2040TIP3    H1 6063   0.928   8.018   2.718
 2040TIP3    H2 6064   0.802   7.946   2.762
 2041TIP3   OH2 6065   4.230   0.380   2.876
 2041TIP3    H1 6066   4.214   0.470   2.905
 2041TIP3    H2 6067   4.194   0.326   2.946
 2042TIP3   OH2 6068   4.429   0.937   3.428
 2042TIP3    H1 6069   4.464   1.010   3.379
 2042TIP3    H2 6070   4.502   0.904   3.480
 2043TIP3   OH2 6071   4.054   0.842   2.824
 2043TIP3    H1 6072   3.966   0.848   2.862
 2043TIP3    H2 6073   4.088   0.931   2.828
 2044TIP3   OH2 6074   4.781   0.600   3.410
 2044TIP3    H1 6075   4.769   0.588   3.504
 2044TIP3    H2 6076   4.858   0.549   3.388
 2045TIP3   OH2 6077   4.769   0.477   2.265
 2045TIP3    H1 6078   4.818   0.447   2.342
 2045TIP3    H2 6079   4.683   0.435   2.273
 2046TIP3   OH2 6080   5.034   1.094   3.441
 2046TIP3    H1 6081   4.963   1.032   3.459
 2046TIP3    H2 6082   5.001   1.149   3.370
 2047TIP3   OH2 6083   5.089   0.947   2.082
 2047TIP3    H1 6084   5.123   1.014   2.023
 2047TIP3    H2 6085   5.015   0.988   2.125
 2048TIP3   OH2 6086   4.935   0.388   2.461
 2048TIP3    H1 6087   4.923   0.344   2.545
 2048TIP3    H2 6088   5.029   0.407   2.457
 2049TIP3   OH2 6089   3.851   0.820   3.582
 2049TIP3    H1 6090   3.902   0.766   3.642
 2049TIP3    H2 6091   3.859   0.909   3.617
 2050TIP3   OH2 6092   4.131   0.447   2.289
 2050TIP3    H1 6093   4.142   0.355   2.264
 2050TIP3    H2 6094   4.107   0.444   2.381
 2051TIP3   OH2 6095   4.064   0.460   2.559
 2051TIP3    H1 6096   4.134   0.429   2.617
 2051TIP3    H2 6097   4.066   0.555   2.567
 2052TIP3   OH2 6098   3.806   0.175   2.773
 2052TIP3    H1 6099   3.738   0.220   2.823
 2052TIP3    H2 6100   3.824   0.233   2.699
 2053TIP3   OH2 6101   4.339   0.649   2.502
 2053TIP3    H1 6102   4.253   0.672   2.537
 2053TIP3    H2 6103   4.361   0.721   2.443
 2054TIP3   OH2 6104   1.691   7.731   2.831
 2054TIP3    H1 6105   1.737   7.813   2.846
 2054TIP3    H2 6106   1.679   7.693   2.918
 2055TIP3   OH2 6107   4.796   0.069   3.698
 2055TIP3    H1 6108   4.767   0.142   3.752
 2055TIP3    H2 6109   4.866   0.028   3.748
 2056TIP3   OH2 6110   4.085   0.731   2.575
 2056TIP3    H1 6111   4.066   0.801   2.513
 2056TIP3    H2 6112   4.073   0.771   2.661
 2057TIP3   OH2 6113   5.082   0.174   3.061
 2057TIP3    H1 6114   4.999   0.129   3.074
 2057TIP3    H2 6115   5.142   0.134   3.124
 2058TIP3   OH2 6116   3.815   0.339   2.546
 2058TIP3    H1 6117   3.888   0.401   2.556
 2058TIP3    H2 6118   3.848   0.273   2.485
 2059TIP3   OH2 6119   0.732   7.740   2.592
 2059TIP3    H1 6120   0.785   7.805   2.638
 2059TIP3    H2 6121   0.733   7.663   2.649
 2060TIP3   OH2 6122   5.063   1.095   3.013
 2060TIP3    H1 6123   5.021   1.146   2.943
 2060TIP3    H2 6124   5.157   1.106   2.998
 2061TIP3   OH2 6125   3.643   0.592   2.956
 2061TIP3    H1 6126   3.620   0.625   3.043
 2061TIP3    H2 6127   3.594   0.648   2.895
 2062TIP3   OH2 6128   3.845   1.150   3.983
 2062TIP3    H1 6129   3.925   1.143   4.036
 2062TIP3    H2 6130   3.776   1.120   4.041
 2063TIP3   OH2 6131   4.320   1.041   4.061
 2063TIP3    H1 6132   4.412   1.017   4.067
 2063TIP3    H2 6133   4.286   0.990   3.986
 2064TIP3   OH2 6134   4.287   0.646   2.186
 2064TIP3    H1 6135   4.239   0.574   2.227
 2064TIP3    H2 6136   4.361   0.604   2.142
 2065TIP3   OH2 6137   4.941   0.986   3.806
 2065TIP3    H1 6138   4.954   0.919   3.873
 2065TIP3    H2 6139   5.014   1.047   3.819
 2066TIP3   OH2 6140   4.727   0.693   2.106
 2066TIP3    H1 6141   4.757   0.625   2.166
 2066TIP3    H2 6142   4.784   0.686   2.030
 2067TIP3   OH2 6143   3.961   0.538   4.200
 2067TIP3    H1 6144   3.997   0.449   4.191
 2067TIP3    H2 6145   3.874   0.532   4.162
 2068TIP3   OH2 6146   3.944   0.146   2.402
 2068TIP3    H1 6147   3.990   0.120   2.481
 2068TIP3    H2 6148   4.012   0.159   2.337
 2069TIP3   OH2 6149   4.574   0.631   3.980
 2069TIP3    H1 6150   4.527   0.651   3.900
 2069TIP3    H2 6151   4.601   0.539   3.971
 2070TIP3   OH2 6152   4.514   0.368   2.238
 2070TIP3    H1 6153   4.492   0.375   2.331
 2070TIP3    H2 6154   4.489   0.279   2.213
 2071TIP3   OH2 6155   5.045   0.654   3.587
 2071TIP3    H1 6156   5.126   0.682   3.545
 2071TIP3    H2 6157   4.983   0.726   3.572
 2072TIP3   OH2 6158   4.082   0.292   4.155
 2072TIP3    H1 6159   4.175   0.280   4.134
 2072TIP3    H2 6160   4.066   0.231   4.227
 2073TIP3   OH2 6161   4.107   0.082   2.616
 2073TIP3    H1 6162   4.086   0.046   2.702
 2073TIP3    H2 6163   4.157   0.012   2.573
 2074TIP3   OH2 6164   4.433   0.181   3.847
 2074TIP3    H1 6165   4.348   0.223   3.858
 2074TIP3    H2 6166   4.473   0.226   3.773
 2075TIP3   OH2 6167   1.423   7.931   2.448
 2075TIP3    H1 6168   1.386   7.928   2.360
 2075TIP3    H2 6169   1.515   7.955   2.434
 2076TIP3   OH2 6170   4.920   0.552   3.934
 2076TIP3    H1 6171   5.001   0.528   3.889
 2076TIP3    H2 6172   4.915   0.492   4.008
 2077TIP3   OH2 6173   5.045   0.191   2.126
 2077TIP3    H1 6174   5.030   0.147   2.043
 2077TIP3    H2 6175   5.018   0.282   2.110
 2078TIP3   OH2 6176   1.699   7.941   3.900
 2078TIP3    H1 6177   1.652   7.882   3.840
 2078TIP3    H2 6178   1.666   8.028   3.879
 2079TIP3   OH2 6179   4.589   0.307   3.655
 2079TIP3    H1 6180   4.655   0.376   3.665
 2079TIP3    H2 6181   4.521   0.346   3.601
 2080TIP3   OH2 6182   5.129   0.202   3.933
 2080TIP3    H1 6183   5.127   0.195   4.028
 2080TIP3    H2 6184   5.195   0.269   3.915
 2081TIP3   OH2 6185   5.159   0.513   3.790
 2081TIP3    H1 6186   5.107   0.561   3.726
 2081TIP3    H2 6187   5.247   0.510   3.751
 2082TIP3   OH2 6188   4.388   0.124   4.171
 2082TIP3    H1 6189   4.351   0.107   4.257
 2082TIP3    H2 6190   4.466   0.069   4.167
 2083TIP3   OH2 6191   1.954   8.026   3.995
 2083TIP3    H1 6192   1.970   7.997   4.084
 2083TIP3    H2 6193   1.871   7.984   3.971
 2084TIP3   OH2 6194   4.078   0.927   2.384
 2084TIP3    H1 6195   4.170   0.915   2.360
 2084TIP3    H2 6196   4.043   0.984   2.316
 2085TIP3   OH2 6197   3.542   0.324   2.565
 2085TIP3    H1 6198   3.637   0.337   2.563
 2085TIP3    H2 6199   3.529   0.237   2.528
 2086TIP3   OH2 6200   3.445   0.883   3.008
 2086TIP3    H1 6201   3.457   0.836   2.926
 2086TIP3    H2 6202   3.494   0.832   3.073
 2087TIP3   OH2 6203   3.596   0.734   3.194
 2087TIP3    H1 6204   3.589   0.671   3.266
 2087TIP3    H2 6205   3.647   0.806   3.230
 2088TIP3   OH2 6206   5.335   1.141   3.005
 2088TIP3    H1 6207   5.353   1.170   3.095
 2088TIP3    H2 6208   5.387   1.200   2.951
 2089TIP3   OH2 6209   5.349   1.175   3.285
 2089TIP3    H1 6210   5.303   1.092   3.282
 2089TIP3    H2 6211   5.420   1.161   3.348
 2090TIP3   OH2 6212   5.410   0.875   3.851
 2090TIP3    H1 6213   5.333   0.884   3.906
 2090TIP3    H2 6214   5.455   0.959   3.858
 2091TIP3   OH2 6215   5.209   0.425   2.457
 2091TIP3    H1 6216   5.264   0.496   2.425
 2091TIP3    H2 6217   5.258   0.387   2.530
 2092TIP3   OH2 6218   5.362   0.305   2.649
 2092TIP3    H1 6219   5.293   0.284   2.711
 2092TIP3    H2 6220   5.432   0.344   2.701
 2093TIP3   OH2 6221   5.402   0.660   3.103
 2093TIP3    H1 6222   5.449   0.592   3.054
 2093TIP3    H2 6223   5.402   0.736   3.044
 2094TIP3   OH2 6224   5.209   0.935   3.295
 2094TIP3    H1 6225   5.142   0.981   3.344
 2094TIP3    H2 6226   5.162   0.895   3.221
 2095TIP3   OH2 6227   5.254   0.207   2.297
 2095TIP3    H1 6228   5.180   0.204   2.236
 2095TIP3    H2 6229   5.237   0.285   2.351
 2096TIP3   OH2 6230   2.233   7.873   2.220
 2096TIP3    H1 6231   2.246   7.918   2.137
 2096TIP3    H2 6232   2.217   7.781   2.196
 2097TIP3   OH2 6233   5.160   0.202   2.800
 2097TIP3    H1 6234   5.189   0.113   2.777
 2097TIP3    H2 6235   5.142   0.197   2.894
 2098TIP3   OH2 6236   3.759   0.157   3.573
 2098TIP3    H1 6237   3.749   0.146   3.479
 2098TIP3    H2 6238   3.852   0.174   3.586
 2099TIP3   OH2 6239   5.407   0.536   3.671
 2099TIP3    H1 6240   5.478   0.476   3.649
 2099TIP3    H2 6241   5.406   0.599   3.599
 2100TIP3   OH2 6242   5.611   0.355   3.658
 2100TIP3    H1 6243   5.551   0.285   3.682
 2100TIP3    H2 6244   5.665   0.369   3.736
 2101TIP3   OH2 6245   2.405   7.976   2.681
 2101TIP3    H1 6246   2.367   7.890   2.695
 2101TIP3    H2 6247   2.400   7.990   2.586
 2102TIP3   OH2 6248   5.270   0.076   3.226
 2102TIP3    H1 6249   5.348   0.098   3.175
 2102TIP3    H2 6250   5.291   0.102   3.316
 2103TIP3   OH2 6251   5.383   0.182   3.448
 2103TIP3    H1 6252   5.309   0.216   3.498
 2103TIP3    H2 6253   5.422   0.260   3.408
 2104TIP3   OH2 6254   1.075   7.838   4.260
 2104TIP3    H1 6255   1.121   7.765   4.218
 2104TIP3    H2 6256   1.036   7.799   4.338
 2105TIP3   OH2 6257   0.908   7.886   3.620
 2105TIP3    H1 6258   0.944   7.853   3.537
 2105TIP3    H2 6259   0.929   7.979   3.619
 2106TIP3   OH2 6260   4.893   1.056   2.647
 2106TIP3    H1 6261   4.950   1.047   2.570
 2106TIP3    H2 6262   4.932   1.126   2.699
 2107TIP3   OH2 6263   4.009   0.830   4.025
 2107TIP3    H1 6264   3.916   0.826   4.004
 2107TIP3    H2 6265   4.012   0.851   4.118
 2108TIP3   OH2 6266   4.198   0.900   3.574
 2108TIP3    H1 6267   4.145   0.973   3.542
 2108TIP3    H2 6268   4.283   0.911   3.531
 2109TIP3   OH2 6269   4.598   1.127   3.712
 2109TIP3    H1 6270   4.634   1.122   3.801
 2109TIP3    H2 6271   4.661   1.182   3.665
 2110TIP3   OH2 6272   4.790   1.285   3.590
 2110TIP3    H1 6273   4.853   1.233   3.541
 2110TIP3    H2 6274   4.843   1.343   3.644
 2111TIP3   OH2 6275   3.859   1.103   3.629
 2111TIP3    H1 6276   3.773   1.134   3.602
 2111TIP3    H2 6277   3.875   1.146   3.713
 2112TIP3   OH2 6278   4.086   1.132   3.469
 2112TIP3    H1 6279   4.004   1.128   3.519
 2112TIP3    H2 6280   4.060   1.167   3.384
 2113TIP3   OH2 6281   4.504   1.148   3.264
 2113TIP3    H1 6282   4.430   1.159   3.204
 2113TIP3    H2 6283   4.514   1.233   3.307
 2114TIP3   OH2 6284   4.767   1.080   3.312
 2114TIP3    H1 6285   4.676   1.102   3.294
 2114TIP3    H2 6286   4.818   1.148   3.268
 2115TIP3   OH2 6287   4.969   1.253   3.217
 2115TIP3    H1 6288   4.969   1.341   3.179
 2115TIP3    H2 6289   4.999   1.196   3.147
 2116TIP3   OH2 6290   3.769   0.911   3.330
 2116TIP3    H1 6291   3.789   0.888   3.421
 2116TIP3    H2 6292   3.845   0.883   3.280
 2117TIP3   OH2 6293   3.978   0.806   3.191
 2117TIP3    H1 6294   3.987   0.724   3.240
 2117TIP3    H2 6295   4.063   0.849   3.200
 2118TIP3   OH2 6296   4.243   0.890   3.225
 2118TIP3    H1 6297   4.262   0.797   3.212
 2118TIP3    H2 6298   4.296   0.915   3.301
 2119TIP3   OH2 6299   3.513   0.739   2.762
 2119TIP3    H1 6300   3.523   0.669   2.697
 2119TIP3    H2 6301   3.517   0.820   2.712
 2120TIP3   OH2 6302   4.341   0.872   2.325
 2120TIP3    H1 6303   4.423   0.901   2.286
 2120TIP3    H2 6304   4.313   0.799   2.269
 2121TIP3   OH2 6305   5.045   1.012   2.418
 2121TIP3    H1 6306   5.037   0.917   2.412
 2121TIP3    H2 6307   5.000   1.044   2.340
 2122TIP3   OH2 6308   3.620   0.699   2.440
 2122TIP3    H1 6309   3.633   0.784   2.482
 2122TIP3    H2 6310   3.706   0.675   2.407
 2123TIP3   OH2 6311   5.258   1.149   3.601
 2123TIP3    H1 6312   5.182   1.119   3.550
 2123TIP3    H2 6313   5.244   1.244   3.610
 2124TIP3   OH2 6314   6.531   0.504   2.372
 2124TIP3    H1 6315   6.511   0.598   2.363
 2124TIP3    H2 6316   6.462   0.461   2.321
 2125TIP3   OH2 6317   6.528   0.563   2.743
 2125TIP3    H1 6318   6.564   0.559   2.831
 2125TIP3    H2 6319   6.492   0.476   2.727
 2126TIP3   OH2 6320   5.825   0.416   3.108
 2126TIP3    H1 6321   5.858   0.389   3.194
 2126TIP3    H2 6322   5.894   0.474   3.074
 2127TIP3   OH2 6323   6.794   0.854   2.434
 2127TIP3    H1 6324   6.772   0.798   2.508
 2127TIP3    H2 6325   6.821   0.937   2.474
 2128TIP3   OH2 6326   5.821   0.825   2.809
 2128TIP3    H1 6327   5.803   0.731   2.808
 2128TIP3    H2 6328   5.916   0.830   2.795
 2129TIP3   OH2 6329   5.490   0.070   2.588
 2129TIP3    H1 6330   5.450   0.157   2.591
 2129TIP3    H2 6331   5.427   0.013   2.633
 2130TIP3   OH2 6332   5.586   0.384   2.786
 2130TIP3    H1 6333   5.643   0.310   2.808
 2130TIP3    H2 6334   5.645   0.457   2.768
 2131TIP3   OH2 6335   6.457   1.264   2.453
 2131TIP3    H1 6336   6.485   1.197   2.391
 2131TIP3    H2 6337   6.451   1.219   2.537
 2132TIP3   OH2 6338   6.336   0.767   2.774
 2132TIP3    H1 6339   6.380   0.692   2.735
 2132TIP3    H2 6340   6.406   0.820   2.810
 2133TIP3   OH2 6341   6.761   0.292   2.809
 2133TIP3    H1 6342   6.856   0.297   2.795
 2133TIP3    H2 6343   6.723   0.309   2.723
 2134TIP3   OH2 6344   3.319   7.851   2.749
 2134TIP3    H1 6345   3.236   7.898   2.751
 2134TIP3    H2 6346   3.296   7.759   2.761
 2135TIP3   OH2 6347   0.675   2.529   1.992
 2135TIP3    H1 6348   0.770   2.532   2.005
 2135TIP3    H2 6349   0.650   2.620   1.975
 2136TIP3   OH2 6350   5.754   0.196   2.892
 2136TIP3    H1 6351   5.791   0.212   2.979
 2136TIP3    H2 6352   5.826   0.159   2.842
 2137TIP3   OH2 6353   6.155   0.345   2.686
 2137TIP3    H1 6354   6.251   0.338   2.689
 2137TIP3    H2 6355   6.127   0.271   2.633
 2138TIP3   OH2 6356   7.363   0.272   2.924
 2138TIP3    H1 6357   7.289   0.330   2.945
 2138TIP3    H2 6358   7.416   0.271   3.004
 2139TIP3   OH2 6359   6.411   0.733   2.244
 2139TIP3    H1 6360   6.391   0.718   2.152
 2139TIP3    H2 6361   6.369   0.816   2.265
 2140TIP3   OH2 6362   6.184   0.683   2.989
 2140TIP3    H1 6363   6.126   0.750   3.024
 2140TIP3    H2 6364   6.228   0.724   2.915
 2141TIP3   OH2 6365   5.908   0.048   3.090
 2141TIP3    H1 6366   5.977   0.095   3.043
 2141TIP3    H2 6367   5.893  -0.031   3.039
 2142TIP3   OH2 6368   6.019   0.876   3.095
 2142TIP3    H1 6369   6.006   0.966   3.063
 2142TIP3    H2 6370   5.941   0.858   3.147
 2143TIP3   OH2 6371   5.395   0.599   2.353
 2143TIP3    H1 6372   5.367   0.618   2.263
 2143TIP3    H2 6373   5.420   0.684   2.389
 2144TIP3   OH2 6374   6.838   1.089   2.580
 2144TIP3    H1 6375   6.753   1.078   2.622
 2144TIP3    H2 6376   6.833   1.175   2.538
 2145TIP3   OH2 6377   6.548   1.105   2.242
 2145TIP3    H1 6378   6.600   1.027   2.226
 2145TIP3    H2 6379   6.605   1.178   2.217
 2146TIP3   OH2 6380   6.708   0.895   2.174
 2146TIP3    H1 6381   6.693   0.810   2.133
 2146TIP3    H2 6382   6.744   0.874   2.260
 2147TIP3   OH2 6383   7.071   0.979   2.933
 2147TIP3    H1 6384   7.054   0.906   2.874
 2147TIP3    H2 6385   7.054   1.057   2.880
 2148TIP3   OH2 6386   6.361   0.379   2.194
 2148TIP3    H1 6387   6.275   0.421   2.184
 2148TIP3    H2 6388   6.393   0.367   2.105
 2149TIP3   OH2 6389   7.242   0.635   2.754
 2149TIP3    H1 6390   7.162   0.687   2.757
 2149TIP3    H2 6391   7.290   0.669   2.679
 2150TIP3   OH2 6392   6.721   0.442   2.178
 2150TIP3    H1 6393   6.669   0.470   2.254
 2150TIP3    H2 6394   6.805   0.416   2.216
 2151TIP3   OH2 6395   6.931   0.531   3.084
 2151TIP3    H1 6396   6.926   0.600   3.150
 2151TIP3    H2 6397   6.845   0.531   3.042
 2152TIP3   OH2 6398   5.932   0.459   2.554
 2152TIP3    H1 6399   5.891   0.396   2.495
 2152TIP3    H2 6400   6.009   0.414   2.589
 2153TIP3   OH2 6401   6.080   0.866   2.707
 2153TIP3    H1 6402   6.059   0.853   2.614
 2153TIP3    H2 6403   6.169   0.833   2.715
 2154TIP3   OH2 6404   6.042   0.462   2.913
 2154TIP3    H1 6405   6.083   0.425   2.835
 2154TIP3    H2 6406   6.096   0.538   2.935
 2155TIP3   OH2 6407   6.606   1.072   2.721
 2155TIP3    H1 6408   6.589   1.154   2.766
 2155TIP3    H2 6409   6.588   1.004   2.786
 2156TIP3   OH2 6410   6.217   0.975   3.262
 2156TIP3    H1 6411   6.157   1.034   3.308
 2156TIP3    H2 6412   6.160   0.923   3.205
 2157TIP3   OH2 6413   6.581   0.289   1.999
 2157TIP3    H1 6414   6.636   0.344   2.056
 2157TIP3    H2 6415   6.584   0.333   1.914
 2158TIP3   OH2 6416   5.976   0.556   3.366
 2158TIP3    H1 6417   5.984   0.643   3.404
 2158TIP3    H2 6418   5.889   0.526   3.393
 2159TIP3   OH2 6419   6.297   0.991   2.256
 2159TIP3    H1 6420   6.382   1.035   2.258
 2159TIP3    H2 6421   6.239   1.051   2.210
 2160TIP3   OH2 6422   6.010   1.136   3.347
 2160TIP3    H1 6423   5.984   1.146   3.256
 2160TIP3    H2 6424   5.927   1.121   3.394
 2161TIP3   OH2 6425   5.792   0.294   2.375
 2161TIP3    H1 6426   5.718   0.343   2.338
 2161TIP3    H2 6427   5.752   0.213   2.408
 2162TIP3   OH2 6428   6.803   0.924   1.640
 2162TIP3    H1 6429   6.836   1.012   1.625
 2162TIP3    H2 6430   6.881   0.869   1.644
 2163TIP3   OH2 6431   5.604   0.688   3.297
 2163TIP3    H1 6432   5.531   0.681   3.235
 2163TIP3    H2 6433   5.633   0.598   3.310
 2164TIP3   OH2 6434   5.449   0.889   2.949
 2164TIP3    H1 6435   5.541   0.913   2.963
 2164TIP3    H2 6436   5.400   0.967   2.977
 2165TIP3   OH2 6437   7.296   1.335   2.990
 2165TIP3    H1 6438   7.303   1.240   3.003
 2165TIP3    H2 6439   7.217   1.360   3.037
 2166TIP3   OH2 6440   6.406   1.116   3.121
 2166TIP3    H1 6441   6.401   1.207   3.152
 2166TIP3    H2 6442   6.340   1.069   3.172
 2167TIP3   OH2 6443   6.188   1.217   2.092
 2167TIP3    H1 6444   6.146   1.198   2.008
 2167TIP3    H2 6445   6.152   1.302   2.119
 2168TIP3   OH2 6446   5.625   1.079   2.455
 2168TIP3    H1 6447   5.670   1.071   2.539
 2168TIP3    H2 6448   5.576   0.997   2.447
 2169TIP3   OH2 6449   6.379   1.143   1.721
 2169TIP3    H1 6450   6.431   1.073   1.682
 2169TIP3    H2 6451   6.418   1.157   1.807
 2170TIP3   OH2 6452   6.440   1.194   1.987
 2170TIP3    H1 6453   6.355   1.197   2.030
 2170TIP3    H2 6454   6.499   1.156   2.052
 2171TIP3   OH2 6455   7.168   0.471   3.243
 2171TIP3    H1 6456   7.103   0.527   3.201
 2171TIP3    H2 6457   7.187   0.403   3.179
 2172TIP3   OH2 6458   5.801   0.880   3.264
 2172TIP3    H1 6459   5.852   0.873   3.345
 2172TIP3    H2 6460   5.731   0.816   3.274
 2173TIP3   OH2 6461   7.042   0.242   3.119
 2173TIP3    H1 6462   6.978   0.209   3.182
 2173TIP3    H2 6463   7.005   0.325   3.088
 2174TIP3   OH2 6464   6.093   0.263   3.096
 2174TIP3    H1 6465   6.042   0.272   3.176
 2174TIP3    H2 6466   6.058   0.330   3.037
 2175TIP3   OH2 6467   6.021   0.163   2.532
 2175TIP3    H1 6468   5.926   0.151   2.531
 2175TIP3    H2 6469   6.049   0.136   2.445
 2176TIP3   OH2 6470   6.540   0.178   2.255
 2176TIP3    H1 6471   6.470   0.242   2.265
 2176TIP3    H2 6472   6.563   0.183   2.162
 2177TIP3   OH2 6473   6.658   0.505   3.382
 2177TIP3    H1 6474   6.636   0.420   3.421
 2177TIP3    H2 6475   6.754   0.508   3.386
 2178TIP3   OH2 6476   6.667   0.322   2.554
 2178TIP3    H1 6477   6.603   0.372   2.504
 2178TIP3    H2 6478   6.684   0.244   2.501
 2179TIP3   OH2 6479   5.918   0.250   3.324
 2179TIP3    H1 6480   5.878   0.315   3.382
 2179TIP3    H2 6481   5.855   0.178   3.321
 2180TIP3   OH2 6482   2.787   7.972   2.370
 2180TIP3    H1 6483   2.727   7.904   2.339
 2180TIP3    H2 6484   2.741   8.014   2.442
 2181TIP3   OH2 6485   6.678   0.505   2.969
 2181TIP3    H1 6486   6.711   0.435   2.912
 2181TIP3    H2 6487   6.642   0.459   3.045
 2182TIP3   OH2 6488   5.766   0.076   2.593
 2182TIP3    H1 6489   5.671   0.082   2.599
 2182TIP3    H2 6490   5.784  -0.017   2.582
 2183TIP3   OH2 6491   6.058   0.067   2.278
 2183TIP3    H1 6492   6.105  -0.016   2.268
 2183TIP3    H2 6493   5.990   0.064   2.211
 2184TIP3   OH2 6494   5.870   0.045   2.065
 2184TIP3    H1 6495   5.779   0.016   2.070
 2184TIP3    H2 6496   5.911  -0.012   2.001
 2185TIP3   OH2 6497   7.016   1.678   3.089
 2185TIP3    H1 6498   7.013   1.695   2.995
 2185TIP3    H2 6499   7.093   1.724   3.120
 2186TIP3   OH2 6500   5.961   0.806   3.495
 2186TIP3    H1 6501   6.042   0.820   3.545
 2186TIP3    H2 6502   5.892   0.807   3.561
 2187TIP3   OH2 6503   6.430   0.306   2.748
 2187TIP3    H1 6504   6.469   0.224   2.718
 2187TIP3    H2 6505   6.399   0.287   2.836
 2188TIP3   OH2 6506   6.349   0.300   3.019
 2188TIP3    H1 6507   6.263   0.293   3.061
 2188TIP3    H2 6508   6.389   0.377   3.059
 2189TIP3   OH2 6509   6.121   0.506   2.131
 2189TIP3    H1 6510   6.051   0.444   2.115
 2189TIP3    H2 6511   6.096   0.551   2.211
 2190TIP3   OH2 6512   7.012   0.786   2.749
 2190TIP3    H1 6513   7.047   0.834   2.673
 2190TIP3    H2 6514   6.923   0.761   2.722
 2191TIP3   OH2 6515   6.527   0.821   3.175
 2191TIP3    H1 6516   6.587   0.821   3.249
 2191TIP3    H2 6517   6.489   0.909   3.174
 2192TIP3   OH2 6518   5.810   0.546   2.784
 2192TIP3    H1 6519   5.843   0.528   2.696
 2192TIP3    H2 6520   5.878   0.513   2.842
 2193TIP3   OH2 6521   6.285   0.676   1.980
 2193TIP3    H1 6522   6.236   0.759   1.983
 2193TIP3    H2 6523   6.231   0.615   2.031
 2194TIP3   OH2 6524   5.723   0.433   3.418
 2194TIP3    H1 6525   5.712   0.420   3.512
 2194TIP3    H2 6526   5.639   0.407   3.380
 2195TIP3   OH2 6527   6.420   0.614   3.456
 2195TIP3    H1 6528   6.359   0.548   3.425
 2195TIP3    H2 6529   6.505   0.587   3.421
 2196TIP3   OH2 6530   6.675   1.135   3.048
 2196TIP3    H1 6531   6.581   1.123   3.055
 2196TIP3    H2 6532   6.701   1.176   3.130
 2197TIP3   OH2 6533   7.320   1.055   3.015
 2197TIP3    H1 6534   7.226   1.041   3.009
 2197TIP3    H2 6535   7.354   1.030   2.929
 2198TIP3   OH2 6536   6.782   1.018   1.929
 2198TIP3    H1 6537   6.763   0.972   2.011
 2198TIP3    H2 6538   6.764   0.953   1.861
 2199TIP3   OH2 6539   6.763   0.691   2.661
 2199TIP3    H1 6540   6.676   0.657   2.679
 2199TIP3    H2 6541   6.807   0.620   2.612
 2200TIP3   OH2 6542   5.945   0.870   2.459
 2200TIP3    H1 6543   5.944   0.947   2.403
 2200TIP3    H2 6544   5.854   0.859   2.488
 2201TIP3   OH2 6545   5.485   0.185   2.155
 2201TIP3    H1 6546   5.531   0.265   2.181
 2201TIP3    H2 6547   5.405   0.186   2.207
 2202TIP3   OH2 6548   6.022   0.627   2.352
 2202TIP3    H1 6549   6.013   0.717   2.383
 2202TIP3    H2 6550   5.993   0.573   2.425
 2203TIP3   OH2 6551   6.225   1.192   2.915
 2203TIP3    H1 6552   6.259   1.266   2.866
 2203TIP3    H2 6553   6.299   1.161   2.967
 2204TIP3   OH2 6554   5.859   1.092   2.310
 2204TIP3    H1 6555   5.772   1.099   2.350
 2204TIP3    H2 6556   5.895   1.181   2.316
 2205TIP3   OH2 6557   6.575   0.850   2.896
 2205TIP3    H1 6558   6.568   0.834   2.990
 2205TIP3    H2 6559   6.657   0.808   2.870
 2206TIP3   OH2 6560   6.516   0.762   1.840
 2206TIP3    H1 6561   6.588   0.729   1.894
 2206TIP3    H2 6562   6.437   0.732   1.885
 2207TIP3   OH2 6563   6.827   1.355   2.928
 2207TIP3    H1 6564   6.753   1.295   2.939
 2207TIP3    H2 6565   6.799   1.413   2.856
 2208TIP3   OH2 6566   6.876   1.183   1.590
 2208TIP3    H1 6567   6.864   1.215   1.501
 2208TIP3    H2 6568   6.813   1.232   1.643
 2209TIP3   OH2 6569   6.708   0.665   2.014
 2209TIP3    H1 6570   6.708   0.586   2.068
 2209TIP3    H2 6571   6.800   0.681   1.994
 2210TIP3   OH2 6572   5.652   1.089   3.077
 2210TIP3    H1 6573   5.705   1.030   3.131
 2210TIP3    H2 6574   5.666   1.175   3.115
 2211TIP3   OH2 6575   5.918   0.712   1.776
 2211TIP3    H1 6576   5.918   0.621   1.746
 2211TIP3    H2 6577   5.904   0.707   1.870
 2212TIP3   OH2 6578   5.867   0.715   2.047
 2212TIP3    H1 6579   5.932   0.689   2.112
 2212TIP3    H2 6580   5.865   0.811   2.052
 2213TIP3   OH2 6581   5.586   0.425   2.251
 2213TIP3    H1 6582   5.522   0.473   2.304
 2213TIP3    H2 6583   5.606   0.484   2.178
 2214TIP3   OH2 6584   6.135   0.901   1.984
 2214TIP3    H1 6585   6.050   0.926   2.021
 2214TIP3    H2 6586   6.158   0.974   1.927
 2215TIP3   OH2 6587   3.603   7.966   2.370
 2215TIP3    H1 6588   3.646   8.044   2.336
 2215TIP3    H2 6589   3.549   7.998   2.443
 2216TIP3   OH2 6590   6.611   0.325   3.162
 2216TIP3    H1 6591   6.572   0.379   3.231
 2216TIP3    H2 6592   6.682   0.278   3.205
 2217TIP3   OH2 6593   5.883   0.987   2.059
 2217TIP3    H1 6594   5.857   1.057   1.998
 2217TIP3    H2 6595   5.873   1.027   2.145
 2218TIP3   OH2 6596   6.886   0.478   2.540
 2218TIP3    H1 6597   6.808   0.423   2.546
 2218TIP3    H2 6598   6.947   0.440   2.604
 2219TIP3   OH2 6599   5.618   0.594   2.031
 2219TIP3    H1 6600   5.692   0.655   2.041
 2219TIP3    H2 6601   5.650   0.527   1.970
 2220TIP3   OH2 6602   2.768   7.966   2.065
 2220TIP3    H1 6603   2.733   8.038   2.117
 2220TIP3    H2 6604   2.691   7.922   2.030
 2221TIP3   OH2 6605   6.856   1.354   2.501
 2221TIP3    H1 6606   6.815   1.406   2.432
 2221TIP3    H2 6607   6.950   1.366   2.487
 2222TIP3   OH2 6608   5.451   0.859   2.438
 2222TIP3    H1 6609   5.409   0.896   2.515
 2222TIP3    H2 6610   5.407   0.900   2.364
 2223TIP3   OH2 6611   5.649   1.388   3.499
 2223TIP3    H1 6612   5.732   1.392   3.547
 2223TIP3    H2 6613   5.632   1.294   3.488
 2224TIP3   OH2 6614   6.115   1.298   3.543
 2224TIP3    H1 6615   6.207   1.274   3.551
 2224TIP3    H2 6616   6.081   1.245   3.471
 2225TIP3   OH2 6617   6.066   0.924   1.677
 2225TIP3    H1 6618   6.022   0.847   1.714
 2225TIP3    H2 6619   6.143   0.888   1.633
 2226TIP3   OH2 6620   6.736   1.242   3.293
 2226TIP3    H1 6621   6.749   1.174   3.359
 2226TIP3    H2 6622   6.809   1.303   3.306
 2227TIP3   OH2 6623   6.527   0.928   1.626
 2227TIP3    H1 6624   6.520   0.868   1.699
 2227TIP3    H2 6625   6.621   0.934   1.608
 2228TIP3   OH2 6626   5.757   0.794   3.686
 2228TIP3    H1 6627   5.781   0.701   3.691
 2228TIP3    H2 6628   5.669   0.793   3.648
 2229TIP3   OH2 6629   5.748   0.397   1.890
 2229TIP3    H1 6630   5.798   0.370   1.968
 2229TIP3    H2 6631   5.814   0.411   1.823
 2230TIP3   OH2 6632   6.370   0.886   3.471
 2230TIP3    H1 6633   6.323   0.906   3.390
 2230TIP3    H2 6634   6.399   0.795   3.460
 2231TIP3   OH2 6635   6.236   0.610   1.708
 2231TIP3    H1 6636   6.260   0.630   1.799
 2231TIP3    H2 6637   6.149   0.572   1.714
 2232TIP3   OH2 6638   6.841   0.912   3.075
 2232TIP3    H1 6639   6.921   0.941   3.030
 2232TIP3    H2 6640   6.779   0.984   3.061
 2233TIP3   OH2 6641   5.914   0.554   3.679
 2233TIP3    H1 6642   5.998   0.516   3.652
 2233TIP3    H2 6643   5.926   0.576   3.771
 2234TIP3   OH2 6644   5.906   0.319   2.114
 2234TIP3    H1 6645   5.882   0.320   2.207
 2234TIP3    H2 6646   5.906   0.226   2.091
 2235TIP3   OH2 6647   6.233   0.438   3.333
 2235TIP3    H1 6648   6.145   0.476   3.346
 2235TIP3    H2 6649   6.268   0.486   3.258
 2236TIP3   OH2 6650   6.719   0.804   3.419
 2236TIP3    H1 6651   6.794   0.769   3.372
 2236TIP3    H2 6652   6.713   0.751   3.498
 2237TIP3   OH2 6653   6.339   0.180   3.353
 2237TIP3    H1 6654   6.270   0.123   3.319
 2237TIP3    H2 6655   6.304   0.269   3.345
 2238TIP3   OH2 6656   6.384   0.564   3.134
 2238TIP3    H1 6657   6.447   0.634   3.153
 2238TIP3    H2 6658   6.317   0.606   3.081
 2239TIP3   OH2 6659   6.926   0.458   3.424
 2239TIP3    H1 6660   6.923   0.451   3.520
 2239TIP3    H2 6661   7.012   0.494   3.406
 2240TIP3   OH2 6662   6.965   0.750   3.252
 2240TIP3    H1 6663   6.910   0.808   3.199
 2240TIP3    H2 6664   7.054   0.764   3.219
 2241TIP3   OH2 6665   6.183   0.390   3.685
 2241TIP3    H1 6666   6.122   0.326   3.649
 2241TIP3    H2 6667   6.269   0.360   3.657
 2242TIP3   OH2 6668   6.586   0.264   3.469
 2242TIP3    H1 6669   6.604   0.235   3.558
 2242TIP3    H2 6670   6.503   0.221   3.447
 2243TIP3   OH2 6671   5.861   1.198   1.879
 2243TIP3    H1 6672   5.955   1.188   1.862
 2243TIP3    H2 6673   5.827   1.241   1.801
 2244TIP3   OH2 6674   5.348   0.599   2.076
 2244TIP3    H1 6675   5.441   0.614   2.060
 2244TIP3    H2 6676   5.329   0.516   2.033
 2245TIP3   OH2 6677   5.250   1.164   2.515
 2245TIP3    H1 6678   5.185   1.111   2.469
 2245TIP3    H2 6679   5.293   1.103   2.575
 2246TIP3   OH2 6680   5.392   0.996   2.683
 2246TIP3    H1 6681   5.383   0.928   2.750
 2246TIP3    H2 6682   5.445   1.064   2.726
 2247TIP3   OH2 6683   7.126   1.399   2.489
 2247TIP3    H1 6684   7.149   1.428   2.577
 2247TIP3    H2 6685   7.187   1.445   2.432
 2248TIP3   OH2 6686   7.144   1.433   2.769
 2248TIP3    H1 6687   7.097   1.350   2.766
 2248TIP3    H2 6688   7.217   1.417   2.830
 2249TIP3   OH2 6689   7.197   1.133   3.345
 2249TIP3    H1 6690   7.124   1.143   3.406
 2249TIP3    H2 6691   7.242   1.218   3.347
 2250TIP3   OH2 6692   6.976   0.697   1.989
 2250TIP3    H1 6693   7.043   0.761   1.964
 2250TIP3    H2 6694   7.022   0.636   2.047
 2251TIP3   OH2 6695   7.108   0.532   2.166
 2251TIP3    H1 6696   7.054   0.460   2.199
 2251TIP3    H2 6697   7.171   0.548   2.237
 2252TIP3   OH2 6698   7.193   0.904   2.577
 2252TIP3    H1 6699   7.247   0.842   2.528
 2252TIP3    H2 6700   7.198   0.985   2.526
 2253TIP3   OH2 6701   7.001   1.195   2.779
 2253TIP3    H1 6702   6.934   1.241   2.829
 2253TIP3    H2 6703   6.954   1.156   2.706
 2254TIP3   OH2 6704   6.952   0.348   2.311
 2254TIP3    H1 6705   7.031   0.299   2.333
 2254TIP3    H2 6706   6.937   0.405   2.386
 2255TIP3   OH2 6707   5.562   0.434   3.053
 2255TIP3    H1 6708   5.551   0.417   2.959
 2255TIP3    H2 6709   5.657   0.437   3.066
 2256TIP3   OH2 6710   7.216   0.784   3.144
 2256TIP3    H1 6711   7.286   0.719   3.134
 2256TIP3    H2 6712   7.234   0.849   3.076
 2257TIP3   OH2 6713   7.422   0.607   3.149
 2257TIP3    H1 6714   7.406   0.513   3.162
 2257TIP3    H2 6715   7.491   0.628   3.213
 2258TIP3   OH2 6716   7.048   0.355   2.716
 2258TIP3    H1 6717   7.124   0.363   2.658
 2258TIP3    H2 6718   7.084   0.370   2.804
 2259TIP3   OH2 6719   7.159   0.460   2.945
 2259TIP3    H1 6720   7.082   0.501   2.983
 2259TIP3    H2 6721   7.197   0.528   2.889
 2260TIP3   OH2 6722   5.682   0.064   3.748
 2260TIP3    H1 6723   5.744   0.001   3.709
 2260TIP3    H2 6724   5.637   0.014   3.816
 2261TIP3   OH2 6725   5.524   0.140   3.129
 2261TIP3    H1 6726   5.574   0.121   3.050
 2261TIP3    H2 6727   5.550   0.228   3.154
 2262TIP3   OH2 6728   6.690   1.312   2.145
 2262TIP3    H1 6729   6.747   1.308   2.069
 2262TIP3    H2 6730   6.725   1.383   2.198
 2263TIP3   OH2 6731   5.785   1.107   3.510
 2263TIP3    H1 6732   5.691   1.089   3.503
 2263TIP3    H2 6733   5.804   1.097   3.603
 2264TIP3   OH2 6734   5.997   1.151   3.064
 2264TIP3    H1 6735   5.944   1.224   3.031
 2264TIP3    H2 6736   6.081   1.162   3.021
 2265TIP3   OH2 6737   6.397   1.382   3.201
 2265TIP3    H1 6738   6.435   1.377   3.289
 2265TIP3    H2 6739   6.458   1.437   3.152
 2266TIP3   OH2 6740   6.587   1.540   3.076
 2266TIP3    H1 6741   6.652   1.489   3.028
 2266TIP3    H2 6742   6.638   1.599   3.131
 2267TIP3   OH2 6743   5.656   1.388   3.115
 2267TIP3    H1 6744   5.565   1.406   3.090
 2267TIP3    H2 6745   5.678   1.457   3.177
 2268TIP3   OH2 6746   5.884   1.378   2.959
 2268TIP3    H1 6747   5.802   1.385   3.007
 2268TIP3    H2 6748   5.863   1.407   2.871
 2269TIP3   OH2 6749   6.301   1.402   2.750
 2269TIP3    H1 6750   6.229   1.413   2.688
 2269TIP3    H2 6751   6.312   1.488   2.790
 2270TIP3   OH2 6752   6.565   1.335   2.797
 2270TIP3    H1 6753   6.473   1.356   2.780
 2270TIP3    H2 6754   6.614   1.404   2.753
 2271TIP3   OH2 6755   6.767   1.514   2.705
 2271TIP3    H1 6756   6.763   1.602   2.667
 2271TIP3    H2 6757   6.796   1.458   2.634
 2272TIP3   OH2 6758   5.565   1.173   2.826
 2272TIP3    H1 6759   5.591   1.151   2.916
 2272TIP3    H2 6760   5.638   1.142   2.772
 2273TIP3   OH2 6761   5.770   1.062   2.687
 2273TIP3    H1 6762   5.780   0.979   2.733
 2273TIP3    H2 6763   5.857   1.103   2.692
 2274TIP3   OH2 6764   6.037   1.143   2.714
 2274TIP3    H1 6765   6.056   1.050   2.700
 2274TIP3    H2 6766   6.092   1.168   2.788
 2275TIP3   OH2 6767   5.333   0.971   2.219
 2275TIP3    H1 6768   5.250   0.934   2.188
 2275TIP3    H2 6769   5.334   1.060   2.183
 2276TIP3   OH2 6770   6.126   1.141   1.827
 2276TIP3    H1 6771   6.211   1.163   1.790
 2276TIP3    H2 6772   6.092   1.073   1.768
 2277TIP3   OH2 6773   6.846   1.280   1.916
 2277TIP3    H1 6774   6.833   1.185   1.920
 2277TIP3    H2 6775   6.796   1.308   1.840
 2278TIP3   OH2 6776   5.448   0.980   1.867
 2278TIP3    H1 6777   5.450   0.982   1.963
 2278TIP3    H2 6778   5.526   0.930   1.843
 2279TIP3   OH2 6779   7.049   1.404   3.091
 2279TIP3    H1 6780   6.974   1.375   3.040
 2279TIP3    H2 6781   7.038   1.498   3.100
 2280TIP3   OH2 6782   7.583   1.099   2.324
 2280TIP3    H1 6783   7.557   1.007   2.316
 2280TIP3    H2 6784   7.618   1.105   2.413
 2281TIP3   OH2 6785   7.371   0.568   2.281
 2281TIP3    H1 6786   7.404   0.478   2.277
 2281TIP3    H2 6787   7.368   0.597   2.190
 2282TIP3   OH2 6788   7.193   0.856   1.923
 2282TIP3    H1 6789   7.252   0.831   1.852
 2282TIP3    H2 6790   7.211   0.949   1.938
 2283TIP3   OH2 6791   7.766   1.468   2.863
 2283TIP3    H1 6792   7.752   1.430   2.776
 2283TIP3    H2 6793   7.697   1.430   2.917
 2284TIP3   OH2 6794   7.392   0.957   2.770
 2284TIP3    H1 6795   7.320   0.931   2.712
 2284TIP3    H2 6796   7.425   0.874   2.806
 2285TIP3   OH2 6797   7.244   1.147   2.447
 2285TIP3    H1 6798   7.331   1.182   2.468
 2285TIP3    H2 6799   7.184   1.218   2.468
 2286TIP3   OH2 6800   7.416   1.358   1.937
 2286TIP3    H1 6801   7.478   1.349   2.009
 2286TIP3    H2 6802   7.379   1.270   1.927
 2287TIP3   OH2 6803   7.569   1.164   2.727
 2287TIP3    H1 6804   7.633   1.151   2.797
 2287TIP3    H2 6805   7.506   1.093   2.738
 2288TIP3   OH2 6806   7.722   1.086   2.946
 2288TIP3    H1 6807   7.806   1.049   2.973
 2288TIP3    H2 6808   7.666   1.080   3.024
 2289TIP3   OH2 6809   7.495   0.749   2.915
 2289TIP3    H1 6810   7.567   0.777   2.971
 2289TIP3    H2 6811   7.454   0.676   2.962
 2290TIP3   OH2 6812   7.434   1.341   2.562
 2290TIP3    H1 6813   7.487   1.285   2.619
 2290TIP3    H2 6814   7.454   1.430   2.591
 2291TIP3   OH2 6815   7.249   1.128   1.928
 2291TIP3    H1 6816   7.206   1.174   2.000
 2291TIP3    H2 6817   7.203   1.157   1.850
 2292TIP3   OH2 6818   7.434   1.643   2.976
 2292TIP3    H1 6819   7.512   1.651   3.031
 2292TIP3    H2 6820   7.422   1.549   2.965
 2293TIP3   OH2 6821   7.553   1.049   3.167
 2293TIP3    H1 6822   7.583   0.958   3.168
 2293TIP3    H2 6823   7.466   1.046   3.128
 2294TIP3   OH2 6824   7.682   0.798   3.117
 2294TIP3    H1 6825   7.772   0.772   3.101
 2294TIP3    H2 6826   7.655   0.747   3.193
 2295TIP3   OH2 6827   7.046   1.436   2.010
 2295TIP3    H1 6828   6.980   1.383   1.965
 2295TIP3    H2 6829   7.089   1.375   2.070
 2296TIP3   OH2 6830   7.179   1.258   2.173
 2296TIP3    H1 6831   7.168   1.187   2.236
 2296TIP3    H2 6832   7.239   1.320   2.216
 2297TIP3   OH2 6833   7.380   0.702   2.520
 2297TIP3    H1 6834   7.369   0.657   2.436
 2297TIP3    H2 6835   7.474   0.711   2.531
 2298TIP3   OH2 6836   7.459   0.342   3.219
 2298TIP3    H1 6837   7.552   0.361   3.212
 2298TIP3    H2 6838   7.454   0.258   3.264
 2299TIP3   OH2 6839   7.307   0.395   2.598
 2299TIP3    H1 6840   7.373   0.402   2.529
 2299TIP3    H2 6841   7.324   0.469   2.656
 2300TIP3   OH2 6842   7.566   1.370   3.028
 2300TIP3    H1 6843   7.476   1.350   3.002
 2300TIP3    H2 6844   7.575   1.328   3.114
 2301TIP3   OH2 6845   7.448   1.627   2.602
 2301TIP3    H1 6846   7.359   1.652   2.578
 2301TIP3    H2 6847   7.480   1.699   2.655
 2302TIP3   OH2 6848   7.644   1.535   2.418
 2302TIP3    H1 6849   7.586   1.570   2.486
 2302TIP3    H2 6850   7.649   1.605   2.353
 2303TIP3   OH2 6851   7.357   1.427   2.310
 2303TIP3    H1 6852   7.387   1.407   2.398
 2303TIP3    H2 6853   7.430   1.402   2.253
 2304TIP3   OH2 6854   7.569   1.326   2.170
 2304TIP3    H1 6855   7.574   1.241   2.214
 2304TIP3    H2 6856   7.640   1.377   2.208
 2305TIP3   OH2 6857   7.136   1.207   1.684
 2305TIP3    H1 6858   7.047   1.182   1.663
 2305TIP3    H2 6859   7.138   1.302   1.672
 2306TIP3   OH2 6860   7.230   1.182   1.413
 2306TIP3    H1 6861   7.208   1.186   1.506
 2306TIP3    H2 6862   7.311   1.132   1.408
 2307TIP3   OH2 6863   0.790   1.598   3.537
 2307TIP3    H1 6864   0.745   1.670   3.493
 2307TIP3    H2 6865   0.739   1.584   3.617
 2308TIP3   OH2 6866   0.787   1.563   3.929
 2308TIP3    H1 6867   0.831   1.561   4.014
 2308TIP3    H2 6868   0.751   1.475   3.918
 2309TIP3   OH2 6869   0.055   1.472   4.319
 2309TIP3    H1 6870   0.099   1.402   4.369
 2309TIP3    H2 6871   0.127   1.518   4.275
 2310TIP3   OH2 6872   1.036   1.850   3.606
 2310TIP3    H1 6873   1.020   1.779   3.669
 2310TIP3    H2 6874   1.078   1.919   3.658
 2311TIP3   OH2 6875   0.052   1.839   4.015
 2311TIP3    H1 6876   0.034   1.745   4.013
 2311TIP3    H2 6877   0.144   1.846   3.988
 2312TIP3   OH2 6878   0.730   2.296   3.677
 2312TIP3    H1 6879   0.772   2.239   3.612
 2312TIP3    H2 6880   0.641   2.261   3.686
 2313TIP3   OH2 6881   0.592   1.784   3.957
 2313TIP3    H1 6882   0.636   1.707   3.922
 2313TIP3    H2 6883   0.662   1.842   3.985
 2314TIP3   OH2 6884   1.630   1.124   3.957
 2314TIP3    H1 6885   1.647   1.207   4.002
 2314TIP3    H2 6886   1.655   1.141   3.866
 2315TIP3   OH2 6887   1.019   1.305   4.005
 2315TIP3    H1 6888   1.084   1.236   4.023
 2315TIP3    H2 6889   0.978   1.278   3.923
 2316TIP3   OH2 6890   1.066   1.074   3.581
 2316TIP3    H1 6891   1.134   1.078   3.648
 2316TIP3    H2 6892   1.111   1.102   3.501
 2317TIP3   OH2 6893   0.405   1.352   3.889
 2317TIP3    H1 6894   0.500   1.362   3.896
 2317TIP3    H2 6895   0.392   1.260   3.866
 2318TIP3   OH2 6896   1.684   1.335   4.136
 2318TIP3    H1 6897   1.595   1.370   4.133
 2318TIP3    H2 6898   1.721   1.370   4.217
 2319TIP3   OH2 6899   0.376   0.993   4.407
 2319TIP3    H1 6900   0.286   1.024   4.394
 2319TIP3    H2 6901   0.386   0.987   4.502
 2320TIP3   OH2 6902   0.648   1.791   3.406
 2320TIP3    H1 6903   0.638   1.779   3.312
 2320TIP3    H2 6904   0.603   1.873   3.424
 2321TIP3   OH2 6905   0.429   1.726   4.174
 2321TIP3    H1 6906   0.375   1.798   4.204
 2321TIP3    H2 6907   0.474   1.760   4.097
 2322TIP3   OH2 6908   1.218   1.095   3.803
 2322TIP3    H1 6909   1.272   1.022   3.834
 2322TIP3    H2 6910   1.267   1.173   3.830
 2323TIP3   OH2 6911   0.188   1.047   4.182
 2323TIP3    H1 6912   0.242   1.125   4.199
 2323TIP3    H2 6913   0.225   1.008   4.103
 2324TIP3   OH2 6914   0.269   1.934   4.263
 2324TIP3    H1 6915   0.221   1.983   4.197
 2324TIP3    H2 6916   0.201   1.905   4.325
 2325TIP3   OH2 6917   1.433   1.056   4.150
 2325TIP3    H1 6918   1.343   1.072   4.121
 2325TIP3    H2 6919   1.487   1.070   4.072
 2326TIP3   OH2 6920   0.701   0.587   4.147
 2326TIP3    H1 6921   0.716   0.549   4.061
 2326TIP3    H2 6922   0.606   0.585   4.159
 2327TIP3   OH2 6923   0.801   2.150   3.455
 2327TIP3    H1 6924   0.843   2.067   3.431
 2327TIP3    H2 6925   0.852   2.217   3.409
 2328TIP3   OH2 6926   0.941   1.935   3.362
 2328TIP3    H1 6927   0.949   1.862   3.300
 2328TIP3    H2 6928   0.974   1.899   3.445
 2329TIP3   OH2 6929   1.302   2.017   4.109
 2329TIP3    H1 6930   1.292   1.941   4.053
 2329TIP3    H2 6931   1.281   2.092   4.053
 2330TIP3   OH2 6932   1.509   1.673   3.975
 2330TIP3    H1 6933   1.424   1.718   3.975
 2330TIP3    H2 6934   1.545   1.691   3.887
 2331TIP3   OH2 6935   0.967   1.517   3.346
 2331TIP3    H1 6936   0.911   1.549   3.417
 2331TIP3    H2 6937   1.047   1.489   3.390
 2332TIP3   OH2 6938   1.196   1.535   4.282
 2332TIP3    H1 6939   1.202   1.618   4.328
 2332TIP3    H2 6940   1.116   1.541   4.231
 2333TIP3   OH2 6941   0.185   1.479   3.779
 2333TIP3    H1 6942   0.187   1.468   3.684
 2333TIP3    H2 6943   0.266   1.439   3.810
 2334TIP3   OH2 6944   0.311   1.849   3.908
 2334TIP3    H1 6945   0.292   1.885   3.822
 2334TIP3    H2 6946   0.407   1.841   3.910
 2335TIP3   OH2 6947   0.293   1.494   4.113
 2335TIP3    H1 6948   0.330   1.462   4.031
 2335TIP3    H2 6949   0.339   1.576   4.130
 2336TIP3   OH2 6950   0.449   2.031   4.449
 2336TIP3    H1 6951   0.392   2.086   4.503
 2336TIP3    H2 6952   0.390   1.993   4.383
 2337TIP3   OH2 6953   0.234   1.569   4.572
 2337TIP3    H1 6954   0.243   1.656   4.611
 2337TIP3    H2 6955   0.139   1.556   4.565
 2338TIP3   OH2 6956   0.543   2.052   3.411
 2338TIP3    H1 6957   0.630   2.084   3.434
 2338TIP3    H2 6958   0.497   2.130   3.379
 2339TIP3   OH2 6959   1.126   1.972   2.774
 2339TIP3    H1 6960   1.124   2.067   2.760
 2339TIP3    H2 6961   1.217   1.948   2.757
 2340TIP3   OH2 6962   8.364   1.693   4.454
 2340TIP3    H1 6963   8.320   1.676   4.370
 2340TIP3    H2 6964   8.406   1.610   4.476
 2341TIP3   OH2 6965   8.257   1.879   4.029
 2341TIP3    H1 6966   8.351   1.878   4.043
 2341TIP3    H2 6967   8.222   1.925   4.106
 2342TIP3   OH2 6968   1.546   2.346   4.179
 2342TIP3    H1 6969   1.541   2.255   4.209
 2342TIP3    H2 6970   1.473   2.390   4.225
 2343TIP3   OH2 6971   0.641   2.168   4.307
 2343TIP3    H1 6972   0.640   2.259   4.338
 2343TIP3    H2 6973   0.574   2.124   4.360
 2344TIP3   OH2 6974   0.453   2.273   3.269
 2344TIP3    H1 6975   0.410   2.252   3.187
 2344TIP3    H2 6976   0.413   2.356   3.297
 2345TIP3   OH2 6977   8.371   2.122   3.634
 2345TIP3    H1 6978   8.438   2.104   3.700
 2345TIP3    H2 6979   8.290   2.086   3.671
 2346TIP3   OH2 6980   0.626   2.176   2.887
 2346TIP3    H1 6981   0.683   2.109   2.851
 2346TIP3    H2 6982   0.664   2.196   2.973
 2347TIP3   OH2 6983   0.700   2.241   3.147
 2347TIP3    H1 6984   0.619   2.240   3.198
 2347TIP3    H2 6985   0.768   2.220   3.210
 2348TIP3   OH2 6986   1.456   1.500   4.450
 2348TIP3    H1 6987   1.369   1.516   4.414
 2348TIP3    H2 6988   1.468   1.405   4.440
 2349TIP3   OH2 6989   0.094   1.853   4.454
 2349TIP3    H1 6990   0.125   1.852   4.545
 2349TIP3    H2 6991   0.008   1.813   4.457
 2350TIP3   OH2 6992   0.371   0.796   4.216
 2350TIP3    H1 6993   0.382   0.709   4.255
 2350TIP3    H2 6994   0.353   0.854   4.291
 2351TIP3   OH2 6995   0.992   0.925   4.548
 2351TIP3    H1 6996   1.009   0.866   4.475
 2351TIP3    H2 6997   0.902   0.907   4.574
 2352TIP3   OH2 6998   1.207   1.287   4.405
 2352TIP3    H1 6999   1.168   1.291   4.492
 2352TIP3    H2 7000   1.192   1.374   4.368
 2353TIP3   OH2 7001   0.364   1.267   4.251
 2353TIP3    H1 7002   0.325   1.275   4.338
 2353TIP3    H2 7003   0.338   1.347   4.205
 2354TIP3   OH2 7004   0.772   1.288   3.527
 2354TIP3    H1 7005   0.686   1.286   3.485
 2354TIP3    H2 7006   0.825   1.344   3.470
 2355TIP3   OH2 7007   0.927   1.490   4.592
 2355TIP3    H1 7008   0.900   1.426   4.659
 2355TIP3    H2 7009   1.019   1.506   4.610
 2356TIP3   OH2 7010   0.921   1.226   3.755
 2356TIP3    H1 7011   0.848   1.263   3.705
 2356TIP3    H2 7012   0.968   1.172   3.692
 2357TIP3   OH2 7013   0.214   1.304   4.480
 2357TIP3    H1 7014   0.237   1.385   4.526
 2357TIP3    H2 7015   0.161   1.255   4.543
 2358TIP3   OH2 7016   0.931   1.503   4.165
 2358TIP3    H1 7017   0.966   1.436   4.106
 2358TIP3    H2 7018   0.894   1.453   4.238
 2359TIP3   OH2 7019   0.573   1.049   3.839
 2359TIP3    H1 7020   0.486   1.010   3.844
 2359TIP3    H2 7021   0.631   0.985   3.882
 2360TIP3   OH2 7022   1.156   1.072   4.113
 2360TIP3    H1 7023   1.102   1.083   4.191
 2360TIP3    H2 7024   1.098   1.030   4.050
 2361TIP3   OH2 7025   0.218   1.820   4.709
 2361TIP3    H1 7026   0.296   1.846   4.756
 2361TIP3    H2 7027   0.145   1.844   4.767
 2362TIP3   OH2 7028   0.673   1.302   3.932
 2362TIP3    H1 7029   0.661   1.220   3.885
 2362TIP3    H2 7030   0.674   1.277   4.025
 2363TIP3   OH2 7031   0.637   1.238   4.201
 2363TIP3    H1 7032   0.548   1.266   4.219
 2363TIP3    H2 7033   0.692   1.299   4.250
 2364TIP3   OH2 7034   1.268   1.804   3.933
 2364TIP3    H1 7035   1.306   1.852   3.859
 2364TIP3    H2 7036   1.189   1.763   3.897
 2365TIP3   OH2 7037   0.825   1.959   4.322
 2365TIP3    H1 7038   0.832   1.931   4.413
 2365TIP3    H2 7039   0.758   2.027   4.322
 2366TIP3   OH2 7040   0.043   1.561   4.002
 2366TIP3    H1 7041   0.067   1.539   3.912
 2366TIP3    H2 7042   0.118   1.532   4.054
 2367TIP3   OH2 7043   0.572   1.743   3.137
 2367TIP3    H1 7044   0.515   1.819   3.134
 2367TIP3    H2 7045   0.515   1.670   3.163
 2368TIP3   OH2 7046   8.466   1.488   4.637
 2368TIP3    H1 7047   8.503   1.514   4.721
 2368TIP3    H2 7048   8.372   1.484   4.652
 2369TIP3   OH2 7049   0.692   1.638   4.629
 2369TIP3    H1 7050   0.625   1.578   4.597
 2369TIP3    H2 7051   0.775   1.600   4.600
 2370TIP3   OH2 7052   0.889   2.261   4.192
 2370TIP3    H1 7053   0.807   2.213   4.202
 2370TIP3    H2 7054   0.929   2.260   4.279
 2371TIP3   OH2 7055   1.335   1.231   3.110
 2371TIP3    H1 7056   1.260   1.179   3.080
 2371TIP3    H2 7057   1.322   1.316   3.067
 2372TIP3   OH2 7058   1.558   2.062   4.201
 2372TIP3    H1 7059   1.464   2.056   4.185
 2372TIP3    H2 7060   1.598   2.051   4.114
 2373TIP3   OH2 7061   1.065   2.039   3.044
 2373TIP3    H1 7062   1.030   1.968   3.099
 2373TIP3    H2 7063   1.075   1.998   2.957
 2374TIP3   OH2 7064   1.036   1.673   3.827
 2374TIP3    H1 7065   0.948   1.650   3.856
 2374TIP3    H2 7066   1.072   1.591   3.793
 2375TIP3   OH2 7067   0.203   1.935   3.662
 2375TIP3    H1 7068   0.197   1.990   3.584
 2375TIP3    H2 7069   0.142   1.974   3.724
 2376TIP3   OH2 7070   0.302   1.676   3.611
 2376TIP3    H1 7071   0.280   1.769   3.605
 2376TIP3    H2 7072   0.266   1.648   3.695
 2377TIP3   OH2 7073   0.503   2.228   4.064
 2377TIP3    H1 7074   0.542   2.316   4.060
 2377TIP3    H2 7075   0.540   2.189   4.144
 2378TIP3   OH2 7076   0.113   2.129   3.483
 2378TIP3    H1 7077   0.022   2.130   3.514
 2378TIP3    H2 7078   0.140   2.221   3.484
 2379TIP3   OH2 7079   0.830   1.881   4.055
 2379TIP3    H1 7080   0.829   1.905   4.148
 2379TIP3    H2 7081   0.921   1.854   4.038
 2380TIP3   OH2 7082   0.824   1.766   2.966
 2380TIP3    H1 7083   0.884   1.753   3.039
 2380TIP3    H2 7084   0.737   1.754   3.004
 2381TIP3   OH2 7085   1.081   2.430   4.102
 2381TIP3    H1 7086   1.016   2.365   4.128
 2381TIP3    H2 7087   1.041   2.476   4.029
 2382TIP3   OH2 7088   1.139   2.246   2.748
 2382TIP3    H1 7089   1.173   2.315   2.691
 2382TIP3    H2 7090   1.065   2.288   2.794
 2383TIP3   OH2 7091   1.003   1.729   3.173
 2383TIP3    H1 7092   0.979   1.654   3.227
 2383TIP3    H2 7093   1.096   1.718   3.156
 2384TIP3   OH2 7094   1.005   1.116   4.344
 2384TIP3    H1 7095   1.083   1.166   4.367
 2384TIP3    H2 7096   0.994   1.054   4.416
 2385TIP3   OH2 7097   0.397   1.949   3.163
 2385TIP3    H1 7098   0.394   1.975   3.256
 2385TIP3    H2 7099   0.381   2.030   3.115
 2386TIP3   OH2 7100   0.840   1.343   4.368
 2386TIP3    H1 7101   0.868   1.388   4.447
 2386TIP3    H2 7102   0.890   1.261   4.368
 2387TIP3   OH2 7103   1.470   1.227   4.372
 2387TIP3    H1 7104   1.375   1.236   4.386
 2387TIP3    H2 7105   1.477   1.177   4.291
 2388TIP3   OH2 7106   1.131   1.424   3.740
 2388TIP3    H1 7107   1.060   1.361   3.755
 2388TIP3    H2 7108   1.204   1.392   3.794
 2389TIP3   OH2 7109   1.072   2.390   3.679
 2389TIP3    H1 7110   1.051   2.441   3.601
 2389TIP3    H2 7111   1.167   2.382   3.677
 2390TIP3   OH2 7112   8.434   2.308   4.686
 2390TIP3    H1 7113   8.521   2.306   4.724
 2390TIP3    H2 7114   8.447   2.342   4.597
 2391TIP3   OH2 7115   1.001   2.273   4.442
 2391TIP3    H1 7116   1.009   2.207   4.511
 2391TIP3    H2 7117   1.071   2.336   4.460
 2392TIP3   OH2 7118   0.805   1.988   2.799
 2392TIP3    H1 7119   0.807   1.909   2.853
 2392TIP3    H2 7120   0.888   1.986   2.751
 2393TIP3   OH2 7121   8.469   1.825   4.853
 2393TIP3    H1 7122   8.491   1.735   4.831
 2393TIP3    H2 7123   8.402   1.850   4.790
 2394TIP3   OH2 7124   0.605   1.903   4.644
 2394TIP3    H1 7125   0.559   1.926   4.563
 2394TIP3    H2 7126   0.642   1.816   4.627
 2395TIP3   OH2 7127   1.095   1.912   4.264
 2395TIP3    H1 7128   1.153   1.971   4.216
 2395TIP3    H2 7129   1.012   1.959   4.271
 2396TIP3   OH2 7130   0.084   1.571   4.871
 2396TIP3    H1 7131   0.150   1.502   4.869
 2396TIP3    H2 7132   0.098   1.615   4.955
 2397TIP3   OH2 7133   0.494   1.474   4.523
 2397TIP3    H1 7134   0.408   1.516   4.531
 2397TIP3    H2 7135   0.524   1.497   4.435
 2398TIP3   OH2 7136   0.976   1.846   4.630
 2398TIP3    H1 7137   1.045   1.807   4.576
 2398TIP3    H2 7138   0.972   1.790   4.708
 2399TIP3   OH2 7139   0.588   1.244   4.635
 2399TIP3    H1 7140   0.607   1.183   4.563
 2399TIP3    H2 7141   0.554   1.322   4.591
 2400TIP3   OH2 7142   0.635   1.075   4.423
 2400TIP3    H1 7143   0.662   1.122   4.344
 2400TIP3    H2 7144   0.546   1.046   4.405
 2401TIP3   OH2 7145   0.605   1.551   4.287
 2401TIP3    H1 7146   0.693   1.582   4.263
 2401TIP3    H2 7147   0.545   1.615   4.248
 2402TIP3   OH2 7148   1.190   1.536   4.689
 2402TIP3    H1 7149   1.238   1.462   4.727
 2402TIP3    H2 7150   1.256   1.604   4.678
 2403TIP3   OH2 7151   1.245   1.765   4.428
 2403TIP3    H1 7152   1.187   1.820   4.376
 2403TIP3    H2 7153   1.333   1.785   4.396
 2404TIP3   OH2 7154   0.496   1.325   4.892
 2404TIP3    H1 7155   0.404   1.344   4.907
 2404TIP3    H2 7156   0.500   1.300   4.799
 2405TIP3   OH2 7157   0.721   0.876   4.590
 2405TIP3    H1 7158   0.686   0.948   4.537
 2405TIP3    H2 7159   0.724   0.801   4.530
 2406TIP3   OH2 7160   0.834   1.284   4.751
 2406TIP3    H1 7161   0.819   1.264   4.844
 2406TIP3    H2 7162   0.750   1.266   4.709
 2407TIP3   OH2 7163   1.085   1.239   4.645
 2407TIP3    H1 7164   0.993   1.239   4.670
 2407TIP3    H2 7165   1.131   1.214   4.725
 2408TIP3   OH2 7166   1.400   1.098   4.857
 2408TIP3    H1 7167   1.342   1.044   4.803
 2408TIP3    H2 7168   1.355   1.182   4.863
 2409TIP3   OH2 7169   0.771   0.784   4.841
 2409TIP3    H1 7170   0.850   0.734   4.820
 2409TIP3    H2 7171   0.736   0.811   4.757
 2410TIP3   OH2 7172   0.893   0.997   4.956
 2410TIP3    H1 7173   0.851   0.921   4.916
 2410TIP3    H2 7174   0.823   1.063   4.960
 2411TIP3   OH2 7175   8.179   2.041   3.813
 2411TIP3    H1 7176   8.211   1.978   3.878
 2411TIP3    H2 7177   8.133   2.107   3.865
 2412TIP3   OH2 7178   1.351   2.425   3.679
 2412TIP3    H1 7179   1.378   2.433   3.770
 2412TIP3    H2 7180   1.378   2.507   3.638
 2413TIP3   OH2 7181   1.433   2.440   3.940
 2413TIP3    H1 7182   1.489   2.403   4.008
 2413TIP3    H2 7183   1.418   2.530   3.967
 2414TIP3   OH2 7184   1.457   2.176   4.517
 2414TIP3    H1 7185   1.382   2.186   4.575
 2414TIP3    H2 7186   1.503   2.260   4.522
 2415TIP3   OH2 7187   1.276   1.686   3.130
 2415TIP3    H1 7188   1.331   1.758   3.101
 2415TIP3    H2 7189   1.321   1.649   3.206
 2416TIP3   OH2 7190   1.403   1.554   3.335
 2416TIP3    H1 7191   1.335   1.519   3.392
 2416TIP3    H2 7192   1.469   1.590   3.395
 2417TIP3   OH2 7193   1.427   1.939   3.754
 2417TIP3    H1 7194   1.492   1.878   3.716
 2417TIP3    H2 7195   1.429   2.015   3.696
 2418TIP3   OH2 7196   1.242   2.241   3.968
 2418TIP3    H1 7197   1.184   2.299   4.018
 2418TIP3    H2 7198   1.313   2.298   3.938
 2419TIP3   OH2 7199   1.288   1.467   2.965
 2419TIP3    H1 7200   1.217   1.483   2.902
 2419TIP3    H2 7201   1.282   1.540   3.026
 2420TIP3   OH2 7202   1.199   1.422   3.472
 2420TIP3    H1 7203   1.212   1.329   3.455
 2420TIP3    H2 7204   1.180   1.427   3.565
 2421TIP3   OH2 7205   8.323   1.523   4.181
 2421TIP3    H1 7206   8.370   1.547   4.102
 2421TIP3    H2 7207   8.391   1.492   4.241
 2422TIP3   OH2 7208   1.496   1.825   4.336
 2422TIP3    H1 7209   1.563   1.760   4.315
 2422TIP3    H2 7210   1.520   1.902   4.284
 2423TIP3   OH2 7211   1.668   1.612   4.320
 2423TIP3    H1 7212   1.594   1.575   4.367
 2423TIP3    H2 7213   1.742   1.555   4.341
 2424TIP3   OH2 7214   1.245   1.156   3.381
 2424TIP3    H1 7215   1.283   1.068   3.394
 2424TIP3    H2 7216   1.282   1.186   3.299
 2425TIP3   OH2 7217   1.349   1.322   3.881
 2425TIP3    H1 7218   1.432   1.335   3.835
 2425TIP3    H2 7219   1.365   1.354   3.970
 2426TIP3   OH2 7220   1.425   1.450   4.116
 2426TIP3    H1 7221   1.350   1.478   4.169
 2426TIP3    H2 7222   1.456   1.530   4.074
 2427TIP3   OH2 7223   1.861   1.021   4.657
 2427TIP3    H1 7224   1.929   0.974   4.608
 2427TIP3    H2 7225   1.814   1.071   4.591
 2428TIP3   OH2 7226   1.327   0.890   3.413
 2428TIP3    H1 7227   1.369   0.867   3.496
 2428TIP3    H2 7228   1.258   0.825   3.402
 2429TIP3   OH2 7229   1.725   1.163   4.468
 2429TIP3    H1 7230   1.638   1.204   4.473
 2429TIP3    H2 7231   1.713   1.090   4.407
 2430TIP3   OH2 7232   0.923   2.345   3.314
 2430TIP3    H1 7233   0.984   2.336   3.241
 2430TIP3    H2 7234   0.958   2.418   3.365
 2431TIP3   OH2 7235   0.653   2.436   4.380
 2431TIP3    H1 7236   0.691   2.422   4.467
 2431TIP3    H2 7237   0.717   2.489   4.334
 2432TIP3   OH2 7238   0.847   2.592   4.259
 2432TIP3    H1 7239   0.916   2.539   4.220
 2432TIP3    H2 7240   0.894   2.652   4.318
 2433TIP3   OH2 7241   1.667   0.946   4.314
 2433TIP3    H1 7242   1.578   0.943   4.277
 2433TIP3    H2 7243   1.696   0.855   4.313
 2434TIP3   OH2 7244   0.627   2.472   3.893
 2434TIP3    H1 7245   0.539   2.469   3.855
 2434TIP3    H2 7246   0.622   2.540   3.960
 2435TIP3   OH2 7247   0.942   2.530   3.864
 2435TIP3    H1 7248   0.957   2.623   3.853
 2435TIP3    H2 7249   1.009   2.488   3.810
 2436TIP3   OH2 7250   0.036   2.061   3.847
 2436TIP3    H1 7251   0.025   1.989   3.909
 2436TIP3    H2 7252   0.025   2.140   3.900
 2437TIP3   OH2 7253   0.327   2.218   3.849
 2437TIP3    H1 7254   0.236   2.202   3.875
 2437TIP3    H2 7255   0.378   2.204   3.929
 2438TIP3   OH2 7256   0.751   0.820   3.889
 2438TIP3    H1 7257   0.821   0.875   3.923
 2438TIP3    H2 7258   0.768   0.815   3.795
 2439TIP3   OH2 7259   1.342   0.863   3.874
 2439TIP3    H1 7260   1.393   0.841   3.796
 2439TIP3    H2 7261   1.261   0.814   3.864
 2440TIP3   OH2 7262   1.474   0.815   3.638
 2440TIP3    H1 7263   1.533   0.751   3.598
 2440TIP3    H2 7264   1.518   0.899   3.625
 2441TIP3   OH2 7265   1.104   0.725   3.853
 2441TIP3    H1 7266   1.046   0.758   3.785
 2441TIP3    H2 7267   1.047   0.672   3.909
 2442TIP3   OH2 7268   0.379   2.189   3.014
 2442TIP3    H1 7269   0.462   2.185   2.966
 2442TIP3    H2 7270   0.312   2.189   2.946
 2443TIP3   OH2 7271   1.083   2.307   3.090
 2443TIP3    H1 7272   1.082   2.212   3.079
 2443TIP3    H2 7273   1.041   2.341   3.011
 2444TIP3   OH2 7274   1.316   2.492   4.257
 2444TIP3    H1 7275   1.237   2.470   4.207
 2444TIP3    H2 7276   1.350   2.571   4.215
 2445TIP3   OH2 7277   2.579   1.832   3.010
 2445TIP3    H1 7278   2.537   1.915   3.031
 2445TIP3    H2 7279   2.508   1.776   2.979
 2446TIP3   OH2 7280   2.584   1.823   3.425
 2446TIP3    H1 7281   2.629   1.820   3.509
 2446TIP3    H2 7282   2.537   1.740   3.420
 2447TIP3   OH2 7283   1.888   1.703   3.777
 2447TIP3    H1 7284   1.917   1.644   3.847
 2447TIP3    H2 7285   1.968   1.750   3.752
 2448TIP3   OH2 7286   2.833   2.118   3.103
 2448TIP3    H1 7287   2.829   2.051   3.171
 2448TIP3    H2 7288   2.851   2.200   3.150
 2449TIP3   OH2 7289   1.559   1.337   3.251
 2449TIP3    H1 7290   1.517   1.417   3.281
 2449TIP3    H2 7291   1.489   1.287   3.209
 2450TIP3   OH2 7292   1.630   1.629   3.479
 2450TIP3    H1 7293   1.674   1.548   3.506
 2450TIP3    H2 7294   1.701   1.688   3.456
 2451TIP3   OH2 7295   2.488   2.588   3.130
 2451TIP3    H1 7296   2.524   2.508   3.094
 2451TIP3    H2 7297   2.483   2.571   3.225
 2452TIP3   OH2 7298   2.421   2.052   3.397
 2452TIP3    H1 7299   2.467   1.968   3.394
 2452TIP3    H2 7300   2.463   2.101   3.467
 2453TIP3   OH2 7301   3.399   1.357   3.473
 2453TIP3    H1 7302   3.426   1.437   3.519
 2453TIP3    H2 7303   3.445   1.361   3.390
 2454TIP3   OH2 7304   2.790   1.537   3.477
 2454TIP3    H1 7305   2.821   1.452   3.506
 2454TIP3    H2 7306   2.750   1.521   3.392
 2455TIP3   OH2 7307   2.150   1.196   3.430
 2455TIP3    H1 7308   2.124   1.272   3.378
 2455TIP3    H2 7309   2.092   1.126   3.400
 2456TIP3   OH2 7310   2.848   1.303   3.075
 2456TIP3    H1 7311   2.912   1.301   3.146
 2456TIP3    H2 7312   2.896   1.338   3.000
 2457TIP3   OH2 7313   1.769   1.407   3.565
 2457TIP3    H1 7314   1.854   1.392   3.607
 2457TIP3    H2 7315   1.774   1.357   3.484
 2458TIP3   OH2 7316   2.195   1.626   3.376
 2458TIP3    H1 7317   2.287   1.604   3.387
 2458TIP3    H2 7318   2.152   1.544   3.353
 2459TIP3   OH2 7319   3.470   1.578   3.626
 2459TIP3    H1 7320   3.385   1.622   3.622
 2459TIP3    H2 7321   3.504   1.600   3.712
 2460TIP3   OH2 7322   2.128   1.204   3.887
 2460TIP3    H1 7323   2.078   1.240   3.814
 2460TIP3    H2 7324   2.073   1.219   3.964
 2461TIP3   OH2 7325   2.414   2.070   2.924
 2461TIP3    H1 7326   2.393   2.035   2.838
 2461TIP3    H2 7327   2.504   2.102   2.916
 2462TIP3   OH2 7328   3.012   1.329   3.291
 2462TIP3    H1 7329   2.970   1.312   3.375
 2462TIP3    H2 7330   3.073   1.401   3.309
 2463TIP3   OH2 7331   2.019   1.307   3.653
 2463TIP3    H1 7332   2.069   1.385   3.675
 2463TIP3    H2 7333   2.069   1.266   3.583
 2464TIP3   OH2 7334   1.442   1.881   3.017
 2464TIP3    H1 7335   1.407   1.904   2.931
 2464TIP3    H2 7336   1.464   1.966   3.057
 2465TIP3   OH2 7337   2.890   2.349   3.252
 2465TIP3    H1 7338   2.814   2.355   3.310
 2465TIP3    H2 7339   2.888   2.430   3.201
 2466TIP3   OH2 7340   3.192   1.247   3.623
 2466TIP3    H1 7341   3.112   1.279   3.581
 2466TIP3    H2 7342   3.263   1.280   3.569
 2467TIP3   OH2 7343   2.468   0.894   3.615
 2467TIP3    H1 7344   2.463   0.802   3.642
 2467TIP3    H2 7345   2.392   0.935   3.656
 2468TIP3   OH2 7346   2.568   2.389   2.946
 2468TIP3    H1 7347   2.614   2.309   2.921
 2468TIP3    H2 7348   2.613   2.458   2.898
 2469TIP3   OH2 7349   2.676   2.139   2.880
 2469TIP3    H1 7350   2.721   2.105   2.803
 2469TIP3    H2 7351   2.739   2.128   2.951
 2470TIP3   OH2 7352   3.123   2.266   3.581
 2470TIP3    H1 7353   3.101   2.201   3.514
 2470TIP3    H2 7354   3.095   2.349   3.543
 2471TIP3   OH2 7355   2.405   1.675   2.864
 2471TIP3    H1 7356   2.322   1.719   2.849
 2471TIP3    H2 7357   2.448   1.674   2.778
 2472TIP3   OH2 7358   2.374   1.484   2.559
 2472TIP3    H1 7359   2.438   1.535   2.608
 2472TIP3    H2 7360   2.426   1.419   2.511
 2473TIP3   OH2 7361   3.280   1.932   3.440
 2473TIP3    H1 7362   3.204   1.984   3.411
 2473TIP3    H2 7363   3.311   1.889   3.360
 2474TIP3   OH2 7364   2.761   1.771   2.818
 2474TIP3    H1 7365   2.706   1.797   2.892
 2474TIP3    H2 7366   2.842   1.740   2.858
 2475TIP3   OH2 7367   3.000   1.794   3.764
 2475TIP3    H1 7368   2.997   1.878   3.809
 2475TIP3    H2 7369   2.919   1.791   3.714
 2476TIP3   OH2 7370   2.017   1.768   3.210
 2476TIP3    H1 7371   1.971   1.702   3.159
 2476TIP3    H2 7372   2.083   1.720   3.260
 2477TIP3   OH2 7373   2.240   2.149   3.218
 2477TIP3    H1 7374   2.160   2.107   3.249
 2477TIP3    H2 7375   2.306   2.127   3.284
 2478TIP3   OH2 7376   2.132   1.770   3.617
 2478TIP3    H1 7377   2.164   1.739   3.533
 2478TIP3    H2 7378   2.198   1.833   3.646
 2479TIP3   OH2 7379   2.691   2.361   3.441
 2479TIP3    H1 7380   2.724   2.419   3.510
 2479TIP3    H2 7381   2.641   2.294   3.487
 2480TIP3   OH2 7382   2.222   2.229   3.937
 2480TIP3    H1 7383   2.281   2.230   4.012
 2480TIP3    H2 7384   2.246   2.152   3.887
 2481TIP3   OH2 7385   2.597   1.620   2.658
 2481TIP3    H1 7386   2.655   1.680   2.706
 2481TIP3    H2 7387   2.627   1.625   2.567
 2482TIP3   OH2 7388   2.019   1.821   4.056
 2482TIP3    H1 7389   2.031   1.912   4.080
 2482TIP3    H2 7390   1.924   1.807   4.061
 2483TIP3   OH2 7391   2.297   2.339   2.961
 2483TIP3    H1 7392   2.388   2.369   2.957
 2483TIP3    H2 7393   2.249   2.400   2.903
 2484TIP3   OH2 7394   1.964   2.476   3.991
 2484TIP3    H1 7395   1.932   2.566   3.980
 2484TIP3    H2 7396   1.915   2.442   4.065
 2485TIP3   OH2 7397   1.868   1.592   3.040
 2485TIP3    H1 7398   1.791   1.638   3.006
 2485TIP3    H2 7399   1.834   1.511   3.076
 2486TIP3   OH2 7400   2.933   2.232   2.261
 2486TIP3    H1 7401   2.923   2.325   2.243
 2486TIP3    H2 7402   3.024   2.213   2.237
 2487TIP3   OH2 7403   1.641   1.991   3.952
 2487TIP3    H1 7404   1.576   1.962   3.888
 2487TIP3    H2 7405   1.690   1.913   3.975
 2488TIP3   OH2 7406   1.460   2.181   3.607
 2488TIP3    H1 7407   1.549   2.205   3.632
 2488TIP3    H2 7408   1.406   2.255   3.635
 2489TIP3   OH2 7409   3.353   2.633   3.679
 2489TIP3    H1 7410   3.359   2.539   3.692
 2489TIP3    H2 7411   3.270   2.658   3.721
 2490TIP3   OH2 7412   2.366   2.467   3.789
 2490TIP3    H1 7413   2.408   2.552   3.803
 2490TIP3    H2 7414   2.436   2.403   3.800
 2491TIP3   OH2 7415   2.193   2.518   2.778
 2491TIP3    H1 7416   2.189   2.505   2.683
 2491TIP3    H2 7417   2.181   2.612   2.790
 2492TIP3   OH2 7418   1.655   2.385   3.125
 2492TIP3    H1 7419   1.707   2.380   3.205
 2492TIP3    H2 7420   1.620   2.297   3.113
 2493TIP3   OH2 7421   3.222   1.756   3.951
 2493TIP3    H1 7422   3.153   1.777   3.888
 2493TIP3    H2 7423   3.243   1.664   3.935
 2494TIP3   OH2 7424   2.236   0.989   3.743
 2494TIP3    H1 7425   2.152   0.957   3.711
 2494TIP3    H2 7426   2.215   1.070   3.789
 2495TIP3   OH2 7427   2.773   1.105   3.969
 2495TIP3    H1 7428   2.820   1.041   4.022
 2495TIP3    H2 7429   2.681   1.096   3.996
 2496TIP3   OH2 7430   2.958   1.536   3.869
 2496TIP3    H1 7431   2.933   1.567   3.956
 2496TIP3    H2 7432   2.972   1.615   3.818
 2497TIP3   OH2 7433   2.681   1.601   2.398
 2497TIP3    H1 7434   2.630   1.613   2.319
 2497TIP3    H2 7435   2.763   1.649   2.381
 2498TIP3   OH2 7436   2.377   1.022   2.704
 2498TIP3    H1 7437   2.352   1.033   2.796
 2498TIP3    H2 7438   2.342   0.937   2.680
 2499TIP3   OH2 7439   2.162   1.523   3.742
 2499TIP3    H1 7440   2.125   1.531   3.830
 2499TIP3    H2 7441   2.151   1.610   3.703
 2500TIP3   OH2 7442   2.050   1.405   3.282
 2500TIP3    H1 7443   1.962   1.378   3.307
 2500TIP3    H2 7444   2.061   1.372   3.193
 2501TIP3   OH2 7445   2.539   1.472   2.994
 2501TIP3    H1 7446   2.491   1.544   2.955
 2501TIP3    H2 7447   2.596   1.440   2.924
 2502TIP3   OH2 7448   2.748   1.709   4.043
 2502TIP3    H1 7449   2.689   1.685   4.114
 2502TIP3    H2 7450   2.826   1.743   4.086
 2503TIP3   OH2 7451   2.696   1.483   3.227
 2503TIP3    H1 7452   2.631   1.509   3.162
 2503TIP3    H2 7453   2.744   1.412   3.186
 2504TIP3   OH2 7454   2.002   1.530   3.970
 2504TIP3    H1 7455   2.018   1.598   4.036
 2504TIP3    H2 7456   1.988   1.451   4.021
 2505TIP3   OH2 7457   2.035   0.989   2.684
 2505TIP3    H1 7458   2.041   1.002   2.779
 2505TIP3    H2 7459   1.953   1.032   2.660
 2506TIP3   OH2 7460   1.596   1.045   3.568
 2506TIP3    H1 7461   1.671   1.086   3.612
 2506TIP3    H2 7462   1.627   1.030   3.478
 2507TIP3   OH2 7463   1.563   1.069   3.069
 2507TIP3    H1 7464   1.599   1.085   2.982
 2507TIP3    H2 7465   1.487   1.128   3.074
 2508TIP3   OH2 7466   2.752   1.749   3.643
 2508TIP3    H1 7467   2.771   1.678   3.582
 2508TIP3    H2 7468   2.695   1.710   3.709
 2509TIP3   OH2 7469   2.414   1.193   3.324
 2509TIP3    H1 7470   2.333   1.192   3.375
 2509TIP3    H2 7471   2.483   1.182   3.389
 2510TIP3   OH2 7472   1.814   1.272   3.330
 2510TIP3    H1 7473   1.726   1.280   3.294
 2510TIP3    H2 7474   1.839   1.181   3.315
 2511TIP3   OH2 7475   2.077   1.285   3.038
 2511TIP3    H1 7476   2.172   1.296   3.028
 2511TIP3    H2 7477   2.042   1.303   2.950
 2512TIP3   OH2 7478   2.868   1.276   3.528
 2512TIP3    H1 7479   2.852   1.286   3.621
 2512TIP3    H2 7480   2.802   1.213   3.498
 2513TIP3   OH2 7481   1.972   1.302   2.787
 2513TIP3    H1 7482   1.908   1.248   2.741
 2513TIP3    H2 7483   2.018   1.349   2.718
 2514TIP3   OH2 7484   3.061   2.962   3.752
 2514TIP3    H1 7485   3.065   2.978   3.658
 2514TIP3    H2 7486   3.138   3.006   3.787
 2515TIP3   OH2 7487   2.024   2.081   4.157
 2515TIP3    H1 7488   2.097   2.104   4.213
 2515TIP3    H2 7489   1.946   2.101   4.209
 2516TIP3   OH2 7490   2.463   1.557   3.432
 2516TIP3    H1 7491   2.530   1.507   3.386
 2516TIP3    H2 7492   2.456   1.514   3.518
 2517TIP3   OH2 7493   1.958   1.023   3.316
 2517TIP3    H1 7494   1.925   0.954   3.373
 2517TIP3    H2 7495   1.971   0.980   3.232
 2518TIP3   OH2 7496   2.425   1.454   3.692
 2518TIP3    H1 7497   2.338   1.487   3.715
 2518TIP3    H2 7498   2.485   1.508   3.742
 2519TIP3   OH2 7499   2.173   1.819   2.826
 2519TIP3    H1 7500   2.100   1.762   2.804
 2519TIP3    H2 7501   2.141   1.871   2.900
 2520TIP3   OH2 7502   3.052   2.095   3.370
 2520TIP3    H1 7503   3.020   2.169   3.318
 2520TIP3    H2 7504   2.981   2.031   3.366
 2521TIP3   OH2 7505   2.637   1.120   2.716
 2521TIP3    H1 7506   2.542   1.106   2.711
 2521TIP3    H2 7507   2.646   1.215   2.724
 2522TIP3   OH2 7508   2.699   1.385   2.776
 2522TIP3    H1 7509   2.793   1.394   2.790
 2522TIP3    H2 7510   2.675   1.463   2.726
 2523TIP3   OH2 7511   1.861   1.776   3.452
 2523TIP3    H1 7512   1.912   1.789   3.372
 2523TIP3    H2 7513   1.926   1.776   3.522
 2524TIP3   OH2 7514   2.323   1.984   2.671
 2524TIP3    H1 7515   2.270   2.063   2.658
 2524TIP3    H2 7516   2.264   1.923   2.715
 2525TIP3   OH2 7517   1.748   1.764   4.093
 2525TIP3    H1 7518   1.757   1.737   4.185
 2525TIP3    H2 7519   1.670   1.718   4.062
 2526TIP3   OH2 7520   2.519   1.870   4.112
 2526TIP3    H1 7521   2.450   1.891   4.049
 2526TIP3    H2 7522   2.597   1.857   4.058
 2527TIP3   OH2 7523   3.101   1.484   2.602
 2527TIP3    H1 7524   3.047   1.436   2.539
 2527TIP3    H2 7525   3.109   1.572   2.565
 2528TIP3   OH2 7526   3.366   2.349   3.681
 2528TIP3    H1 7527   3.271   2.338   3.675
 2528TIP3    H2 7528   3.399   2.318   3.597
 2529TIP3   OH2 7529   2.867   2.287   2.528
 2529TIP3    H1 7530   2.815   2.214   2.561
 2529TIP3    H2 7531   2.886   2.264   2.437
 2530TIP3   OH2 7532   2.835   1.925   3.309
 2530TIP3    H1 7533   2.749   1.906   3.345
 2530TIP3    H2 7534   2.867   1.841   3.275
 2531TIP3   OH2 7535   1.549   1.456   2.860
 2531TIP3    H1 7536   1.589   1.540   2.882
 2531TIP3    H2 7537   1.462   1.460   2.901
 2532TIP3   OH2 7538   2.077   1.979   3.034
 2532TIP3    H1 7539   1.994   1.997   2.990
 2532TIP3    H2 7540   2.056   1.913   3.100
 2533TIP3   OH2 7541   2.244   2.482   3.540
 2533TIP3    H1 7542   2.289   2.555   3.498
 2533TIP3    H2 7543   2.286   2.473   3.625
 2534TIP3   OH2 7544   2.589   2.138   3.608
 2534TIP3    H1 7545   2.536   2.095   3.676
 2534TIP3    H2 7546   2.679   2.129   3.640
 2535TIP3   OH2 7547   2.619   2.057   2.426
 2535TIP3    H1 7548   2.656   2.032   2.511
 2535TIP3    H2 7549   2.535   2.011   2.422
 2536TIP3   OH2 7550   2.915   2.502   2.233
 2536TIP3    H1 7551   2.910   2.546   2.148
 2536TIP3    H2 7552   2.851   2.547   2.287
 2537TIP3   OH2 7553   1.959   1.275   4.096
 2537TIP3    H1 7554   1.864   1.285   4.101
 2537TIP3    H2 7555   1.982   1.224   4.174
 2538TIP3   OH2 7556   2.784   1.995   2.654
 2538TIP3    H1 7557   2.768   1.916   2.706
 2538TIP3    H2 7558   2.877   1.990   2.630
 2539TIP3   OH2 7559   1.903   2.034   2.771
 2539TIP3    H1 7560   1.959   2.007   2.698
 2539TIP3    H2 7561   1.896   2.129   2.762
 2540TIP3   OH2 7562   1.641   1.709   2.927
 2540TIP3    H1 7563   1.576   1.756   2.979
 2540TIP3    H2 7564   1.660   1.767   2.854
 2541TIP3   OH2 7565   2.810   1.319   3.792
 2541TIP3    H1 7566   2.873   1.381   3.828
 2541TIP3    H2 7567   2.803   1.250   3.858
 2542TIP3   OH2 7568   2.713   1.080   2.986
 2542TIP3    H1 7569   2.682   1.102   2.898
 2542TIP3    H2 7570   2.751   1.161   3.019
 2543TIP3   OH2 7571   2.161   2.204   2.651
 2543TIP3    H1 7572   2.081   2.238   2.690
 2543TIP3    H2 7573   2.187   2.269   2.587
 2544TIP3   OH2 7574   2.355   1.283   3.069
 2544TIP3    H1 7575   2.417   1.352   3.045
 2544TIP3    H2 7576   2.373   1.265   3.161
 2545TIP3   OH2 7577   2.636   1.573   3.826
 2545TIP3    H1 7578   2.667   1.621   3.903
 2545TIP3    H2 7579   2.690   1.494   3.824
 2546TIP3   OH2 7580   2.514   0.987   3.163
 2546TIP3    H1 7581   2.490   1.064   3.216
 2546TIP3    H2 7582   2.588   1.017   3.110
 2547TIP3   OH2 7583   1.915   2.308   2.734
 2547TIP3    H1 7584   1.903   2.360   2.655
 2547TIP3    H2 7585   1.899   2.369   2.806
 2548TIP3   OH2 7586   2.041   1.016   2.965
 2548TIP3    H1 7587   2.029   1.105   2.999
 2548TIP3    H2 7588   2.135   1.000   2.973
 2549TIP3   OH2 7589   3.238   1.504   3.846
 2549TIP3    H1 7590   3.146   1.476   3.840
 2549TIP3    H2 7591   3.287   1.436   3.799
 2550TIP3   OH2 7592   2.928   1.670   3.223
 2550TIP3    H1 7593   2.855   1.613   3.246
 2550TIP3    H2 7594   3.002   1.636   3.273
 2551TIP3   OH2 7595   1.660   1.900   2.723
 2551TIP3    H1 7596   1.728   1.962   2.748
 2551TIP3    H2 7597   1.702   1.843   2.659
 2552TIP3   OH2 7598   1.595   1.188   2.806
 2552TIP3    H1 7599   1.601   1.278   2.839
 2552TIP3    H2 7600   1.519   1.188   2.749
 2553TIP3   OH2 7601   2.918   2.602   3.135
 2553TIP3    H1 7602   2.864   2.665   3.087
 2553TIP3    H2 7603   3.002   2.647   3.147
 2554TIP3   OH2 7604   1.977   0.904   3.705
 2554TIP3    H1 7605   1.941   0.872   3.622
 2554TIP3    H2 7606   1.973   0.828   3.764
 2555TIP3   OH2 7607   1.490   2.148   3.102
 2555TIP3    H1 7608   1.451   2.192   3.177
 2555TIP3    H2 7609   1.453   2.192   3.026
 2556TIP3   OH2 7610   1.726   2.671   4.050
 2556TIP3    H1 7611   1.767   2.668   4.137
 2556TIP3    H2 7612   1.632   2.677   4.068
 2557TIP3   OH2 7613   2.182   2.642   4.220
 2557TIP3    H1 7614   2.239   2.717   4.236
 2557TIP3    H2 7615   2.241   2.570   4.200
 2558TIP3   OH2 7616   2.724   2.544   3.963
 2558TIP3    H1 7617   2.769   2.481   4.020
 2558TIP3    H2 7618   2.769   2.537   3.879
 2559TIP3   OH2 7619   2.547   2.268   2.251
 2559TIP3    H1 7620   2.585   2.214   2.321
 2559TIP3    H2 7621   2.614   2.269   2.183
 2560TIP3   OH2 7622   1.806   2.077   4.343
 2560TIP3    H1 7623   1.833   1.985   4.347
 2560TIP3    H2 7624   1.719   2.074   4.303
 2561TIP3   OH2 7625   1.798   1.714   2.584
 2561TIP3    H1 7626   1.855   1.687   2.656
 2561TIP3    H2 7627   1.855   1.717   2.508
 2562TIP3   OH2 7628   2.443   2.160   4.104
 2562TIP3    H1 7629   2.430   2.110   4.024
 2562TIP3    H2 7630   2.528   2.132   4.137
 2563TIP3   OH2 7631   2.376   1.927   2.400
 2563TIP3    H1 7632   2.345   1.938   2.491
 2563TIP3    H2 7633   2.349   1.838   2.377
 2564TIP3   OH2 7634   2.895   2.211   3.737
 2564TIP3    H1 7635   2.977   2.225   3.690
 2564TIP3    H2 7636   2.853   2.297   3.738
 2565TIP3   OH2 7637   1.933   1.820   4.358
 2565TIP3    H1 7638   2.012   1.789   4.315
 2565TIP3    H2 7639   1.961   1.849   4.444
 2566TIP3   OH2 7640   1.978   1.634   2.778
 2566TIP3    H1 7641   1.950   1.595   2.862
 2566TIP3    H2 7642   2.017   1.561   2.730
 2567TIP3   OH2 7643   2.259   1.717   3.963
 2567TIP3    H1 7644   2.178   1.756   3.997
 2567TIP3    H2 7645   2.303   1.788   3.916
 2568TIP3   OH2 7646   2.100   1.451   2.599
 2568TIP3    H1 7647   2.068   1.457   2.509
 2568TIP3    H2 7648   2.195   1.462   2.592
 2569TIP3   OH2 7649   2.755   2.088   4.145
 2569TIP3    H1 7650   2.821   2.070   4.078
 2569TIP3    H2 7651   2.773   2.025   4.214
 2570TIP3   OH2 7652   2.896   1.739   2.291
 2570TIP3    H1 7653   2.880   1.700   2.205
 2570TIP3    H2 7654   2.873   1.831   2.280
 2571TIP3   OH2 7655   2.364   1.516   4.120
 2571TIP3    H1 7656   2.370   1.438   4.065
 2571TIP3    H2 7657   2.331   1.584   4.062
 2572TIP3   OH2 7658   2.385   1.290   3.929
 2572TIP3    H1 7659   2.411   1.328   3.845
 2572TIP3    H2 7660   2.294   1.264   3.917
 2573TIP3   OH2 7661   2.999   1.729   4.172
 2573TIP3    H1 7662   3.045   1.685   4.243
 2573TIP3    H2 7663   3.067   1.775   4.123
 2574TIP3   OH2 7664   3.019   2.035   3.906
 2574TIP3    H1 7665   2.964   2.096   3.858
 2574TIP3    H2 7666   3.108   2.055   3.877
 2575TIP3   OH2 7667   2.202   1.609   4.349
 2575TIP3    H1 7668   2.171   1.524   4.382
 2575TIP3    H2 7669   2.259   1.587   4.276
 2576TIP3   OH2 7670   2.506   1.054   4.020
 2576TIP3    H1 7671   2.463   1.135   3.994
 2576TIP3    H2 7672   2.438   0.987   4.009
 2577TIP3   OH2 7673   2.606   1.574   4.242
 2577TIP3    H1 7674   2.584   1.577   4.335
 2577TIP3    H2 7675   2.522   1.554   4.199
 2578TIP3   OH2 7676   2.857   1.476   4.199
 2578TIP3    H1 7677   2.765   1.504   4.197
 2578TIP3    H2 7678   2.907   1.556   4.180
 2579TIP3   OH2 7679   3.069   1.310   4.364
 2579TIP3    H1 7680   3.126   1.241   4.399
 2579TIP3    H2 7681   3.119   1.390   4.375
 2580TIP3   OH2 7682   2.102   1.355   4.437
 2580TIP3    H1 7683   2.109   1.267   4.398
 2580TIP3    H2 7684   2.149   1.348   4.520
 2581TIP3   OH2 7685   2.624   1.029   4.267
 2581TIP3    H1 7686   2.694   0.967   4.247
 2581TIP3    H2 7687   2.573   1.034   4.186
 2582TIP3   OH2 7688   2.722   1.255   4.378
 2582TIP3    H1 7689   2.682   1.175   4.343
 2582TIP3    H2 7690   2.659   1.286   4.443
 2583TIP3   OH2 7691   1.930   2.482   2.523
 2583TIP3    H1 7692   2.020   2.463   2.498
 2583TIP3    H2 7693   1.894   2.532   2.450
 2584TIP3   OH2 7694   1.385   1.888   2.724
 2584TIP3    H1 7695   1.480   1.902   2.724
 2584TIP3    H2 7696   1.374   1.799   2.690
 2585TIP3   OH2 7697   1.293   2.464   3.171
 2585TIP3    H1 7698   1.227   2.407   3.132
 2585TIP3    H2 7699   1.341   2.407   3.231
 2586TIP3   OH2 7700   1.435   2.306   3.348
 2586TIP3    H1 7701   1.421   2.242   3.418
 2586TIP3    H2 7702   1.484   2.377   3.390
 2587TIP3   OH2 7703   3.168   2.727   3.165
 2587TIP3    H1 7704   3.186   2.717   3.259
 2587TIP3    H2 7705   3.177   2.821   3.149
 2588TIP3   OH2 7706   3.224   2.711   3.440
 2588TIP3    H1 7707   3.156   2.644   3.443
 2588TIP3    H2 7708   3.278   2.695   3.517
 2589TIP3   OH2 7709   3.252   2.429   4.004
 2589TIP3    H1 7710   3.174   2.439   4.058
 2589TIP3    H2 7711   3.297   2.513   4.010
 2590TIP3   OH2 7712   3.059   1.956   2.617
 2590TIP3    H1 7713   3.117   2.024   2.584
 2590TIP3    H2 7714   3.102   1.923   2.696
 2591TIP3   OH2 7715   3.171   1.825   2.836
 2591TIP3    H1 7716   3.100   1.775   2.876
 2591TIP3    H2 7717   3.233   1.840   2.907
 2592TIP3   OH2 7718   3.045   2.499   3.445
 2592TIP3    H1 7719   2.980   2.517   3.513
 2592TIP3    H2 7720   2.995   2.466   3.371
 2593TIP3   OH2 7721   3.102   1.725   2.471
 2593TIP3    H1 7722   3.033   1.724   2.405
 2593TIP3    H2 7723   3.086   1.805   2.521
 2594TIP3   OH2 7724   2.949   1.372   2.408
 2594TIP3    H1 7725   2.904   1.416   2.336
 2594TIP3    H2 7726   2.944   1.279   2.386
 2595TIP3   OH2 7727   2.979   1.663   2.951
 2595TIP3    H1 7728   2.991   1.569   2.936
 2595TIP3    H2 7729   2.964   1.671   3.045
 2596TIP3   OH2 7730   1.621   1.738   3.731
 2596TIP3    H1 7731   1.610   1.701   3.643
 2596TIP3    H2 7732   1.716   1.735   3.746
 2597TIP3   OH2 7733   3.277   2.085   3.818
 2597TIP3    H1 7734   3.340   2.015   3.799
 2597TIP3    H2 7735   3.298   2.153   3.754
 2598TIP3   OH2 7736   3.438   1.862   3.806
 2598TIP3    H1 7737   3.370   1.824   3.862
 2598TIP3    H2 7738   3.517   1.810   3.825
 2599TIP3   OH2 7739   2.913   1.098   2.368
 2599TIP3    H1 7740   2.974   1.077   2.439
 2599TIP3    H2 7741   2.829   1.064   2.398
 2600TIP3   OH2 7742   2.981   1.391   2.840
 2600TIP3    H1 7743   3.027   1.309   2.857
 2600TIP3    H2 7744   3.026   1.428   2.764
 2601TIP3   OH2 7745   3.158   1.567   3.349
 2601TIP3    H1 7746   3.238   1.589   3.302
 2601TIP3    H2 7747   3.171   1.601   3.437
 2602TIP3   OH2 7748   3.216   1.706   3.587
 2602TIP3    H1 7749   3.145   1.730   3.648
 2602TIP3    H2 7750   3.243   1.789   3.549
 2603TIP3   OH2 7751   1.836   1.399   4.370
 2603TIP3    H1 7752   1.929   1.399   4.390
 2603TIP3    H2 7753   1.802   1.321   4.415
 2604TIP3   OH2 7754   3.084   1.145   2.912
 2604TIP3    H1 7755   3.150   1.140   2.981
 2604TIP3    H2 7756   3.036   1.062   2.919
 2605TIP3   OH2 7757   1.813   1.127   3.721
 2605TIP3    H1 7758   1.866   1.048   3.728
 2605TIP3    H2 7759   1.875   1.197   3.700
 2606TIP3   OH2 7760   1.596   1.391   3.785
 2606TIP3    H1 7761   1.646   1.383   3.704
 2606TIP3    H2 7762   1.630   1.471   3.826
 2607TIP3   OH2 7763   3.520   1.434   3.923
 2607TIP3    H1 7764   3.463   1.446   3.999
 2607TIP3    H2 7765   3.510   1.342   3.898
 2608TIP3   OH2 7766   3.112   1.024   2.550
 2608TIP3    H1 7767   3.165   0.966   2.497
 2608TIP3    H2 7768   3.166   1.102   2.562
 2609TIP3   OH2 7769   1.594   0.932   3.304
 2609TIP3    H1 7770   1.503   0.915   3.330
 2609TIP3    H2 7771   1.586   0.980   3.221
 2610TIP3   OH2 7772   2.707   2.584   2.815
 2610TIP3    H1 7773   2.760   2.580   2.736
 2610TIP3    H2 7774   2.748   2.653   2.867
 2611TIP3   OH2 7775   1.816   0.958   4.080
 2611TIP3    H1 7776   1.771   0.964   4.164
 2611TIP3    H2 7777   1.759   1.006   4.019
 2612TIP3   OH2 7778   1.818   2.388   4.201
 2612TIP3    H1 7779   1.724   2.379   4.183
 2612TIP3    H2 7780   1.825   2.378   4.296
 2613TIP3   OH2 7781   2.495   2.713   3.837
 2613TIP3    H1 7782   2.506   2.710   3.932
 2613TIP3    H2 7783   2.582   2.696   3.801
 2614TIP3   OH2 7784   3.452   1.176   3.814
 2614TIP3    H1 7785   3.359   1.159   3.796
 2614TIP3    H2 7786   3.490   1.089   3.825
 2615TIP3   OH2 7787   1.679   2.631   3.737
 2615TIP3    H1 7788   1.593   2.672   3.733
 2615TIP3    H2 7789   1.699   2.625   3.831
 2616TIP3   OH2 7790   1.930   2.693   3.626
 2616TIP3    H1 7791   1.845   2.674   3.665
 2616TIP3    H2 7792   1.910   2.715   3.535
 2617TIP3   OH2 7793   2.347   2.696   3.398
 2617TIP3    H1 7794   2.279   2.733   3.342
 2617TIP3    H2 7795   2.381   2.771   3.447
 2618TIP3   OH2 7796   2.896   2.876   3.353
 2618TIP3    H1 7797   2.857   2.951   3.308
 2618TIP3    H2 7798   2.834   2.804   3.338
 2619TIP3   OH2 7799   1.603   2.495   3.492
 2619TIP3    H1 7800   1.631   2.531   3.576
 2619TIP3    H2 7801   1.681   2.453   3.456
 2620TIP3   OH2 7802   1.807   2.360   3.363
 2620TIP3    H1 7803   1.824   2.267   3.383
 2620TIP3    H2 7804   1.895   2.397   3.351
 2621TIP3   OH2 7805   2.075   2.424   3.336
 2621TIP3    H1 7806   2.139   2.373   3.286
 2621TIP3    H2 7807   2.121   2.446   3.417
 2622TIP3   OH2 7808   2.630   1.095   3.471
 2622TIP3    H1 7809   2.587   1.026   3.522
 2622TIP3    H2 7810   2.701   1.050   3.424
 2623TIP3   OH2 7811   3.150   0.999   3.316
 2623TIP3    H1 7812   3.197   1.055   3.254
 2623TIP3    H2 7813   3.071   1.049   3.338
 2624TIP3   OH2 7814   3.285   1.096   3.092
 2624TIP3    H1 7815   3.346   1.026   3.067
 2624TIP3    H2 7816   3.335   1.177   3.079
 2625TIP3   OH2 7817   1.877   0.807   3.468
 2625TIP3    H1 7818   1.789   0.772   3.469
 2625TIP3    H2 7819   1.934   0.731   3.461
 2626TIP3   OH2 7820   1.727   0.716   3.185
 2626TIP3    H1 7821   1.759   0.757   3.105
 2626TIP3    H2 7822   1.685   0.787   3.233
 2627TIP3   OH2 7823   2.370   0.832   3.352
 2627TIP3    H1 7824   2.417   0.887   3.289
 2627TIP3    H2 7825   2.402   0.860   3.437
 2628TIP3   OH2 7826   2.844   0.976   3.348
 2628TIP3    H1 7827   2.849   0.937   3.261
 2628TIP3    H2 7828   2.860   0.904   3.408
 2629TIP3   OH2 7829   2.912   0.908   2.902
 2629TIP3    H1 7830   2.843   0.967   2.934
 2629TIP3    H2 7831   2.913   0.836   2.965
 2630TIP3   OH2 7832   1.385   2.270   2.880
 2630TIP3    H1 7833   1.300   2.238   2.850
 2630TIP3    H2 7834   1.388   2.361   2.848
 2631TIP3   OH2 7835   1.831   0.838   2.960
 2631TIP3    H1 7836   1.844   0.798   2.874
 2631TIP3    H2 7837   1.899   0.905   2.966
 2632TIP3   OH2 7838   2.317   1.032   2.970
 2632TIP3    H1 7839   2.371   0.984   3.033
 2632TIP3    H2 7840   2.325   1.124   2.998
 2633TIP3   OH2 7841   2.190   2.409   2.454
 2633TIP3    H1 7842   2.264   2.462   2.426
 2633TIP3    H2 7843   2.167   2.358   2.377
 2634TIP3   OH2 7844   2.870   2.560   2.586
 2634TIP3    H1 7845   2.869   2.467   2.566
 2634TIP3    H2 7846   2.817   2.600   2.518
 2635TIP3   OH2 7847   2.101   1.077   4.342
 2635TIP3    H1 7848   2.063   1.013   4.401
 2635TIP3    H2 7849   2.193   1.081   4.365
 2636TIP3   OH2 7850   2.346   1.070   4.463
 2636TIP3    H1 7851   2.437   1.071   4.434
 2636TIP3    H2 7852   2.342   1.001   4.528
 2637TIP3   OH2 7853   1.503   2.268   2.523
 2637TIP3    H1 7854   1.508   2.276   2.618
 2637TIP3    H2 7855   1.585   2.227   2.497
 2638TIP3   OH2 7856   3.094   2.684   3.760
 2638TIP3    H1 7857   3.016   2.634   3.737
 2638TIP3    H2 7858   3.065   2.775   3.761
 2639TIP3   OH2 7859   4.383   2.099   2.492
 2639TIP3    H1 7860   4.349   2.186   2.467
 2639TIP3    H2 7861   4.311   2.039   2.471
 2640TIP3   OH2 7862   4.374   2.088   2.923
 2640TIP3    H1 7863   4.428   2.069   3.000
 2640TIP3    H2 7864   4.328   2.006   2.906
 2641TIP3   OH2 7865   3.664   1.990   3.245
 2641TIP3    H1 7866   3.671   1.916   3.306
 2641TIP3    H2 7867   3.748   1.991   3.198
 2642TIP3   OH2 7868   4.638   2.397   2.592
 2642TIP3    H1 7869   4.629   2.329   2.658
 2642TIP3    H2 7870   4.661   2.476   2.641
 2643TIP3   OH2 7871   3.715   2.357   2.999
 2643TIP3    H1 7872   3.783   2.354   2.931
 2643TIP3    H2 7873   3.759   2.392   3.076
 2644TIP3   OH2 7874   3.314   1.597   2.748
 2644TIP3    H1 7875   3.276   1.683   2.762
 2644TIP3    H2 7876   3.247   1.549   2.699
 2645TIP3   OH2 7877   4.301   2.825   2.606
 2645TIP3    H1 7878   4.327   2.759   2.542
 2645TIP3    H2 7879   4.305   2.778   2.690
 2646TIP3   OH2 7880   4.184   2.309   2.925
 2646TIP3    H1 7881   4.227   2.227   2.899
 2646TIP3    H2 7882   4.256   2.364   2.956
 2647TIP3   OH2 7883   5.217   1.626   2.943
 2647TIP3    H1 7884   5.232   1.710   2.986
 2647TIP3    H2 7885   5.245   1.640   2.853
 2648TIP3   OH2 7886   4.590   1.797   2.960
 2648TIP3    H1 7887   4.621   1.712   2.989
 2648TIP3    H2 7888   4.551   1.781   2.874
 2649TIP3   OH2 7889   4.641   1.552   2.557
 2649TIP3    H1 7890   4.703   1.546   2.629
 2649TIP3    H2 7891   4.692   1.587   2.484
 2650TIP3   OH2 7892   3.985   1.877   2.860
 2650TIP3    H1 7893   4.079   1.863   2.870
 2650TIP3    H2 7894   3.949   1.789   2.850
 2651TIP3   OH2 7895   5.269   1.846   3.109
 2651TIP3    H1 7896   5.180   1.883   3.104
 2651TIP3    H2 7897   5.306   1.884   3.189
 2652TIP3   OH2 7898   3.900   1.491   3.325
 2652TIP3    H1 7899   3.847   1.527   3.255
 2652TIP3    H2 7900   3.845   1.498   3.403
 2653TIP3   OH2 7901   4.276   2.318   2.356
 2653TIP3    H1 7902   4.234   2.284   2.277
 2653TIP3    H2 7903   4.220   2.390   2.385
 2654TIP3   OH2 7904   4.023   2.236   3.138
 2654TIP3    H1 7905   3.969   2.309   3.168
 2654TIP3    H2 7906   4.073   2.272   3.065
 2655TIP3   OH2 7907   4.800   1.576   2.778
 2655TIP3    H1 7908   4.756   1.555   2.860
 2655TIP3    H2 7909   4.855   1.652   2.799
 2656TIP3   OH2 7910   3.845   2.444   3.226
 2656TIP3    H1 7911   3.841   2.539   3.216
 2656TIP3    H2 7912   3.782   2.424   3.295
 2657TIP3   OH2 7913   3.233   2.141   2.495
 2657TIP3    H1 7914   3.198   2.157   2.408
 2657TIP3    H2 7915   3.254   2.228   2.529
 2658TIP3   OH2 7916   4.675   2.644   2.734
 2658TIP3    H1 7917   4.588   2.636   2.773
 2658TIP3    H2 7918   4.674   2.729   2.690
 2659TIP3   OH2 7919   5.017   1.515   3.111
 2659TIP3    H1 7920   4.931   1.539   3.076
 2659TIP3    H2 7921   5.080   1.543   3.044
 2660TIP3   OH2 7922   4.260   1.152   3.105
 2660TIP3    H1 7923   4.252   1.061   3.132
 2660TIP3    H2 7924   4.185   1.196   3.145
 2661TIP3   OH2 7925   4.385   2.672   2.388
 2661TIP3    H1 7926   4.438   2.592   2.378
 2661TIP3    H2 7927   4.444   2.742   2.361
 2662TIP3   OH2 7928   4.527   2.442   2.342
 2662TIP3    H1 7929   4.451   2.383   2.342
 2662TIP3    H2 7930   4.575   2.420   2.421
 2663TIP3   OH2 7931   4.912   2.530   3.078
 2663TIP3    H1 7932   4.895   2.454   3.022
 2663TIP3    H2 7933   4.899   2.605   3.021
 2664TIP3   OH2 7934   4.204   1.937   2.351
 2664TIP3    H1 7935   4.119   1.978   2.334
 2664TIP3    H2 7936   4.248   1.936   2.266
 2665TIP3   OH2 7937   4.174   1.744   2.052
 2665TIP3    H1 7938   4.241   1.795   2.099
 2665TIP3    H2 7939   4.223   1.673   2.010
 2666TIP3   OH2 7940   5.096   2.186   2.945
 2666TIP3    H1 7941   5.012   2.232   2.944
 2666TIP3    H2 7942   5.132   2.200   2.857
 2667TIP3   OH2 7943   4.569   2.025   2.307
 2667TIP3    H1 7944   4.513   2.054   2.379
 2667TIP3    H2 7945   4.650   1.997   2.349
 2668TIP3   OH2 7946   4.792   2.049   3.256
 2668TIP3    H1 7947   4.789   2.133   3.303
 2668TIP3    H2 7948   4.710   2.046   3.207
 2669TIP3   OH2 7949   3.768   2.010   2.743
 2669TIP3    H1 7950   3.736   1.953   2.673
 2669TIP3    H2 7951   3.844   1.964   2.778
 2670TIP3   OH2 7952   3.935   2.422   2.841
 2670TIP3    H1 7953   3.917   2.407   2.748
 2670TIP3    H2 7954   4.022   2.385   2.855
 2671TIP3   OH2 7955   3.890   1.996   3.091
 2671TIP3    H1 7956   3.921   1.958   3.009
 2671TIP3    H2 7957   3.944   2.074   3.103
 2672TIP3   OH2 7958   4.437   2.636   2.866
 2672TIP3    H1 7959   4.430   2.715   2.920
 2672TIP3    H2 7960   4.425   2.563   2.927
 2673TIP3   OH2 7961   4.060   2.529   3.404
 2673TIP3    H1 7962   3.998   2.583   3.453
 2673TIP3    H2 7963   4.005   2.474   3.348
 2674TIP3   OH2 7964   4.397   1.885   2.143
 2674TIP3    H1 7965   4.457   1.943   2.191
 2674TIP3    H2 7966   4.427   1.889   2.053
 2675TIP3   OH2 7967   3.830   2.089   3.552
 2675TIP3    H1 7968   3.828   2.182   3.574
 2675TIP3    H2 7969   3.738   2.065   3.539
 2676TIP3   OH2 7970   4.136   2.553   2.402
 2676TIP3    H1 7971   4.218   2.603   2.406
 2676TIP3    H2 7972   4.077   2.609   2.351
 2677TIP3   OH2 7973   3.849   2.681   3.497
 2677TIP3    H1 7974   3.815   2.705   3.411
 2677TIP3    H2 7975   3.771   2.666   3.551
 2678TIP3   OH2 7976   4.901   1.109   2.201
 2678TIP3    H1 7977   4.824   1.128   2.255
 2678TIP3    H2 7978   4.910   1.185   2.144
 2679TIP3   OH2 7979   3.667   1.859   2.526
 2679TIP3    H1 7980   3.580   1.886   2.495
 2679TIP3    H2 7981   3.657   1.766   2.546
 2680TIP3   OH2 7982   4.710   2.489   1.739
 2680TIP3    H1 7983   4.702   2.584   1.742
 2680TIP3    H2 7984   4.776   2.473   1.671
 2681TIP3   OH2 7985   3.453   2.228   3.448
 2681TIP3    H1 7986   3.379   2.186   3.404
 2681TIP3    H2 7987   3.498   2.156   3.493
 2682TIP3   OH2 7988   3.422   2.353   3.097
 2682TIP3    H1 7989   3.441   2.434   3.145
 2682TIP3    H2 7990   3.327   2.355   3.084
 2683TIP3   OH2 7991   5.146   2.890   3.148
 2683TIP3    H1 7992   5.151   2.795   3.162
 2683TIP3    H2 7993   5.067   2.917   3.196
 2684TIP3   OH2 7994   4.246   2.685   3.274
 2684TIP3    H1 7995   4.237   2.775   3.306
 2684TIP3    H2 7996   4.181   2.635   3.324
 2685TIP3   OH2 7997   4.028   2.778   2.225
 2685TIP3    H1 7998   3.979   2.756   2.146
 2685TIP3    H2 7999   3.991   2.861   2.255
 2686TIP3   OH2 8000   3.464   2.629   2.614
 2686TIP3    H1 8001   3.505   2.615   2.699
 2686TIP3    H2 8002   3.407   2.554   2.602
 2687TIP3   OH2 8003   4.232   2.710   1.854
 2687TIP3    H1 8004   4.281   2.636   1.820
 2687TIP3    H2 8005   4.265   2.722   1.943
 2688TIP3   OH2 8006   4.282   2.750   2.125
 2688TIP3    H1 8007   4.195   2.755   2.163
 2688TIP3    H2 8008   4.337   2.713   2.194
 2689TIP3   OH2 8009   5.034   2.006   3.420
 2689TIP3    H1 8010   4.952   2.015   3.372
 2689TIP3    H2 8011   5.053   1.912   3.417
 2690TIP3   OH2 8012   3.647   2.422   3.414
 2690TIP3    H1 8013   3.696   2.420   3.496
 2690TIP3    H2 8014   3.578   2.356   3.424
 2691TIP3   OH2 8015   4.023   1.256   3.228
 2691TIP3    H1 8016   3.939   1.218   3.204
 2691TIP3    H2 8017   4.002   1.346   3.256
 2692TIP3   OH2 8018   4.567   1.361   3.430
 2692TIP3    H1 8019   4.635   1.338   3.494
 2692TIP3    H2 8020   4.485   1.349   3.477
 2693TIP3   OH2 8021   4.794   1.784   3.347
 2693TIP3    H1 8022   4.752   1.779   3.433
 2693TIP3    H2 8023   4.777   1.873   3.316
 2694TIP3   OH2 8024   4.480   1.858   1.882
 2694TIP3    H1 8025   4.432   1.861   1.799
 2694TIP3    H2 8026   4.560   1.907   1.865
 2695TIP3   OH2 8027   4.182   1.290   2.196
 2695TIP3    H1 8028   4.146   1.298   2.285
 2695TIP3    H2 8029   4.147   1.207   2.164
 2696TIP3   OH2 8030   3.985   1.793   3.260
 2696TIP3    H1 8031   3.910   1.768   3.314
 2696TIP3    H2 8032   3.948   1.851   3.193
 2697TIP3   OH2 8033   3.876   1.629   2.825
 2697TIP3    H1 8034   3.809   1.607   2.889
 2697TIP3    H2 8035   3.843   1.593   2.742
 2698TIP3   OH2 8036   4.326   1.730   2.487
 2698TIP3    H1 8037   4.279   1.803   2.447
 2698TIP3    H2 8038   4.382   1.697   2.417
 2699TIP3   OH2 8039   4.513   1.995   3.563
 2699TIP3    H1 8040   4.485   1.926   3.624
 2699TIP3    H2 8041   4.605   2.009   3.583
 2700TIP3   OH2 8042   4.498   1.743   2.707
 2700TIP3    H1 8043   4.427   1.762   2.646
 2700TIP3    H2 8044   4.543   1.668   2.669
 2701TIP3   OH2 8045   3.772   1.790   3.448
 2701TIP3    H1 8046   3.813   1.846   3.514
 2701TIP3    H2 8047   3.767   1.704   3.490
 2702TIP3   OH2 8048   3.841   1.263   2.178
 2702TIP3    H1 8049   3.835   1.267   2.274
 2702TIP3    H2 8050   3.766   1.315   2.148
 2703TIP3   OH2 8051   3.423   1.322   3.025
 2703TIP3    H1 8052   3.473   1.341   3.104
 2703TIP3    H2 8053   3.449   1.391   2.963
 2704TIP3   OH2 8054   3.279   1.271   2.545
 2704TIP3    H1 8055   3.328   1.305   2.469
 2704TIP3    H2 8056   3.230   1.347   2.577
 2705TIP3   OH2 8057   4.540   1.999   3.134
 2705TIP3    H1 8058   4.564   1.932   3.070
 2705TIP3    H2 8059   4.498   1.950   3.205
 2706TIP3   OH2 8060   4.214   1.454   2.803
 2706TIP3    H1 8061   4.142   1.483   2.859
 2706TIP3    H2 8062   4.288   1.442   2.864
 2707TIP3   OH2 8063   3.845   1.561   2.547
 2707TIP3    H1 8064   3.940   1.556   2.534
 2707TIP3    H2 8065   3.809   1.549   2.459
 2708TIP3   OH2 8066   4.656   1.533   3.014
 2708TIP3    H1 8067   4.640   1.548   3.107
 2708TIP3    H2 8068   4.586   1.474   2.988
 2709TIP3   OH2 8069   3.749   1.559   2.282
 2709TIP3    H1 8070   3.686   1.511   2.229
 2709TIP3    H2 8071   3.807   1.602   2.218
 2710TIP3   OH2 8072   4.858   3.236   3.242
 2710TIP3    H1 8073   4.858   3.251   3.147
 2710TIP3    H2 8074   4.936   3.283   3.273
 2711TIP3   OH2 8075   3.801   2.352   3.648
 2711TIP3    H1 8076   3.882   2.370   3.696
 2711TIP3    H2 8077   3.732   2.361   3.713
 2712TIP3   OH2 8078   4.259   1.825   2.920
 2712TIP3    H1 8079   4.320   1.768   2.874
 2712TIP3    H2 8080   4.252   1.787   3.008
 2713TIP3   OH2 8081   3.807   1.215   2.735
 2713TIP3    H1 8082   3.750   1.184   2.805
 2713TIP3    H2 8083   3.895   1.214   2.773
 2714TIP3   OH2 8084   4.238   1.727   3.182
 2714TIP3    H1 8085   4.151   1.756   3.210
 2714TIP3    H2 8086   4.298   1.777   3.237
 2715TIP3   OH2 8087   3.963   2.072   2.299
 2715TIP3    H1 8088   3.890   2.014   2.277
 2715TIP3    H2 8089   3.940   2.107   2.386
 2716TIP3   OH2 8090   4.859   2.324   2.901
 2716TIP3    H1 8091   4.895   2.373   2.827
 2716TIP3    H2 8092   4.779   2.284   2.867
 2717TIP3   OH2 8093   4.435   1.389   2.197
 2717TIP3    H1 8094   4.342   1.367   2.195
 2717TIP3    H2 8095   4.437   1.483   2.212
 2718TIP3   OH2 8096   4.377   2.414   3.311
 2718TIP3    H1 8097   4.426   2.396   3.392
 2718TIP3    H2 8098   4.336   2.499   3.326
 2719TIP3   OH2 8099   4.490   1.652   2.270
 2719TIP3    H1 8100   4.585   1.656   2.284
 2719TIP3    H2 8101   4.470   1.732   2.221
 2720TIP3   OH2 8102   3.605   2.068   2.969
 2720TIP3    H1 8103   3.654   2.043   2.891
 2720TIP3    H2 8104   3.622   1.997   3.031
 2721TIP3   OH2 8105   4.117   2.231   2.140
 2721TIP3    H1 8106   4.069   2.314   2.138
 2721TIP3    H2 8107   4.061   2.174   2.193
 2722TIP3   OH2 8108   3.559   2.032   3.605
 2722TIP3    H1 8109   3.596   2.039   3.693
 2722TIP3    H2 8110   3.502   1.955   3.609
 2723TIP3   OH2 8111   4.282   2.152   3.601
 2723TIP3    H1 8112   4.211   2.093   3.574
 2723TIP3    H2 8113   4.362   2.109   3.572
 2724TIP3   OH2 8114   4.519   2.700   3.194
 2724TIP3    H1 8115   4.424   2.686   3.201
 2724TIP3    H2 8116   4.544   2.733   3.280
 2725TIP3   OH2 8117   4.908   1.736   2.078
 2725TIP3    H1 8118   4.852   1.690   2.016
 2725TIP3    H2 8119   4.910   1.827   2.047
 2726TIP3   OH2 8120   5.157   2.610   3.171
 2726TIP3    H1 8121   5.063   2.595   3.165
 2726TIP3    H2 8122   5.191   2.582   3.086
 2727TIP3   OH2 8123   4.650   2.549   2.036
 2727TIP3    H1 8124   4.618   2.496   2.110
 2727TIP3    H2 8125   4.645   2.490   1.961
 2728TIP3   OH2 8126   4.629   2.192   2.795
 2728TIP3    H1 8127   4.539   2.170   2.821
 2728TIP3    H2 8128   4.664   2.110   2.759
 2729TIP3   OH2 8129   3.774   2.422   2.602
 2729TIP3    H1 8130   3.777   2.503   2.551
 2729TIP3    H2 8131   3.681   2.400   2.608
 2730TIP3   OH2 8132   3.340   1.708   2.327
 2730TIP3    H1 8133   3.385   1.790   2.348
 2730TIP3    H2 8134   3.261   1.710   2.382
 2731TIP3   OH2 8135   3.873   2.173   2.534
 2731TIP3    H1 8136   3.850   2.263   2.557
 2731TIP3    H2 8137   3.842   2.121   2.608
 2732TIP3   OH2 8138   4.062   2.750   3.068
 2732TIP3    H1 8139   4.102   2.819   3.015
 2732TIP3    H2 8140   4.133   2.718   3.123
 2733TIP3   OH2 8141   3.695   2.652   2.463
 2733TIP3    H1 8142   3.609   2.657   2.504
 2733TIP3    H2 8143   3.729   2.741   2.467
 2734TIP3   OH2 8144   4.418   2.414   3.038
 2734TIP3    H1 8145   4.405   2.412   3.133
 2734TIP3    H2 8146   4.493   2.356   3.023
 2735TIP3   OH2 8147   4.407   2.296   1.915
 2735TIP3    H1 8148   4.460   2.263   1.988
 2735TIP3    H2 8149   4.323   2.251   1.925
 2736TIP3   OH2 8150   4.678   2.905   3.079
 2736TIP3    H1 8151   4.609   2.842   3.100
 2736TIP3    H2 8152   4.640   2.960   3.011
 2737TIP3   OH2 8153   4.721   2.763   1.719
 2737TIP3    H1 8154   4.746   2.826   1.651
 2737TIP3    H2 8155   4.650   2.806   1.767
 2738TIP3   OH2 8156   3.758   1.533   3.572
 2738TIP3    H1 8157   3.664   1.532   3.590
 2738TIP3    H2 8158   3.797   1.479   3.641
 2739TIP3   OH2 8159   4.596   2.201   2.093
 2739TIP3    H1 8160   4.577   2.150   2.172
 2739TIP3    H2 8161   4.691   2.205   2.089
 2740TIP3   OH2 8162   3.488   2.582   3.236
 2740TIP3    H1 8163   3.548   2.544   3.300
 2740TIP3    H2 8164   3.448   2.656   3.281
 2741TIP3   OH2 8165   3.762   2.264   1.926
 2741TIP3    H1 8166   3.774   2.173   1.899
 2741TIP3    H2 8167   3.745   2.259   2.021
 2742TIP3   OH2 8168   3.704   2.275   2.197
 2742TIP3    H1 8169   3.771   2.246   2.259
 2742TIP3    H2 8170   3.704   2.370   2.204
 2743TIP3   OH2 8171   3.431   1.960   2.408
 2743TIP3    H1 8172   3.366   2.009   2.457
 2743TIP3    H2 8173   3.454   2.018   2.335
 2744TIP3   OH2 8174   4.607   1.588   3.278
 2744TIP3    H1 8175   4.682   1.635   3.314
 2744TIP3    H2 8176   4.595   1.513   3.336
 2745TIP3   OH2 8177   4.490   1.336   2.467
 2745TIP3    H1 8178   4.469   1.355   2.376
 2745TIP3    H2 8179   4.533   1.415   2.500
 2746TIP3   OH2 8180   3.976   2.462   2.133
 2746TIP3    H1 8181   3.891   2.485   2.171
 2746TIP3    H2 8182   3.996   2.535   2.075
 2747TIP3   OH2 8183   4.135   1.539   2.550
 2747TIP3    H1 8184   4.196   1.609   2.525
 2747TIP3    H2 8185   4.156   1.520   2.642
 2748TIP3   OH2 8186   4.448   1.836   3.334
 2748TIP3    H1 8187   4.466   1.879   3.417
 2748TIP3    H2 8188   4.493   1.752   3.340
 2749TIP3   OH2 8189   4.301   1.236   2.645
 2749TIP3    H1 8190   4.278   1.314   2.695
 2749TIP3    H2 8191   4.371   1.265   2.586
 2750TIP3   OH2 8192   3.726   2.547   2.211
 2750TIP3    H1 8193   3.704   2.618   2.150
 2750TIP3    H2 8194   3.712   2.586   2.298
 2751TIP3   OH2 8195   3.821   1.239   2.454
 2751TIP3    H1 8196   3.796   1.251   2.545
 2751TIP3    H2 8197   3.917   1.248   2.454
 2752TIP3   OH2 8198   5.059   1.732   3.329
 2752TIP3    H1 8199   4.964   1.739   3.340
 2752TIP3    H2 8200   5.070   1.679   3.250
 2753TIP3   OH2 8201   4.720   1.933   2.709
 2753TIP3    H1 8202   4.643   1.878   2.721
 2753TIP3    H2 8203   4.787   1.894   2.766
 2754TIP3   OH2 8204   3.461   2.140   2.193
 2754TIP3    H1 8205   3.531   2.205   2.201
 2754TIP3    H2 8206   3.494   2.076   2.129
 2755TIP3   OH2 8207   3.356   1.425   2.327
 2755TIP3    H1 8208   3.382   1.516   2.340
 2755TIP3    H2 8209   3.301   1.427   2.248
 2756TIP3   OH2 8210   4.700   2.913   2.655
 2756TIP3    H1 8211   4.659   2.963   2.585
 2756TIP3    H2 8212   4.794   2.923   2.641
 2757TIP3   OH2 8213   3.767   1.158   3.198
 2757TIP3    H1 8214   3.739   1.136   3.110
 2757TIP3    H2 8215   3.757   1.076   3.248
 2758TIP3   OH2 8216   3.278   2.417   2.577
 2758TIP3    H1 8217   3.222   2.447   2.648
 2758TIP3    H2 8218   3.239   2.454   2.498
 2759TIP3   OH2 8219   3.464   2.915   3.638
 2759TIP3    H1 8220   3.551   2.928   3.676
 2759TIP3    H2 8221   3.442   2.825   3.661
 2760TIP3   OH2 8222   3.947   2.860   3.687
 2760TIP3    H1 8223   4.039   2.839   3.703
 2760TIP3    H2 8224   3.920   2.798   3.619
 2761TIP3   OH2 8225   3.919   2.456   1.810
 2761TIP3    H1 8226   3.870   2.389   1.857
 2761TIP3    H2 8227   3.993   2.410   1.771
 2762TIP3   OH2 8228   4.579   2.795   3.444
 2762TIP3    H1 8229   4.591   2.726   3.509
 2762TIP3    H2 8230   4.653   2.854   3.459
 2763TIP3   OH2 8231   4.359   2.498   1.737
 2763TIP3    H1 8232   4.389   2.433   1.801
 2763TIP3    H2 8233   4.421   2.489   1.664
 2764TIP3   OH2 8234   3.596   2.345   3.837
 2764TIP3    H1 8235   3.615   2.252   3.850
 2764TIP3    H2 8236   3.508   2.347   3.801
 2765TIP3   OH2 8237   3.590   1.955   2.041
 2765TIP3    H1 8238   3.639   1.927   2.118
 2765TIP3    H2 8239   3.657   1.970   1.974
 2766TIP3   OH2 8240   4.215   2.427   3.613
 2766TIP3    H1 8241   4.170   2.445   3.530
 2766TIP3    H2 8242   4.249   2.338   3.603
 2767TIP3   OH2 8243   4.153   2.176   1.874
 2767TIP3    H1 8244   4.128   2.186   1.966
 2767TIP3    H2 8245   4.139   2.083   1.856
 2768TIP3   OH2 8246   4.690   2.472   3.233
 2768TIP3    H1 8247   4.767   2.500   3.184
 2768TIP3    H2 8248   4.624   2.540   3.215
 2769TIP3   OH2 8249   3.711   2.084   3.836
 2769TIP3    H1 8250   3.793   2.068   3.789
 2769TIP3    H2 8251   3.738   2.105   3.925
 2770TIP3   OH2 8252   3.756   1.893   2.256
 2770TIP3    H1 8253   3.736   1.869   2.347
 2770TIP3    H2 8254   3.804   1.817   2.222
 2771TIP3   OH2 8255   4.080   1.977   3.512
 2771TIP3    H1 8256   3.993   2.015   3.519
 2771TIP3    H2 8257   4.107   1.994   3.421
 2772TIP3   OH2 8258   3.903   1.708   2.106
 2772TIP3    H1 8259   3.876   1.721   2.015
 2772TIP3    H2 8260   3.998   1.715   2.105
 2773TIP3   OH2 8261   4.570   2.349   3.587
 2773TIP3    H1 8262   4.639   2.310   3.534
 2773TIP3    H2 8263   4.566   2.293   3.665
 2774TIP3   OH2 8264   4.695   1.996   1.771
 2774TIP3    H1 8265   4.682   1.958   1.685
 2774TIP3    H2 8266   4.666   2.087   1.762
 2775TIP3   OH2 8267   4.177   1.738   3.605
 2775TIP3    H1 8268   4.169   1.667   3.541
 2775TIP3    H2 8269   4.143   1.815   3.560
 2776TIP3   OH2 8270   4.166   1.541   3.396
 2776TIP3    H1 8271   4.201   1.585   3.318
 2776TIP3    H2 8272   4.073   1.528   3.376
 2777TIP3   OH2 8273   4.194   2.070   3.281
 2777TIP3    H1 8274   4.281   2.103   3.260
 2777TIP3    H2 8275   4.134   2.127   3.232
 2778TIP3   OH2 8276   4.781   2.028   3.659
 2778TIP3    H1 8277   4.824   1.942   3.666
 2778TIP3    H2 8278   4.853   2.089   3.646
 2779TIP3   OH2 8279   4.814   2.294   3.396
 2779TIP3    H1 8280   4.761   2.356   3.347
 2779TIP3    H2 8281   4.903   2.309   3.365
 2780TIP3   OH2 8282   4.066   1.829   3.852
 2780TIP3    H1 8283   3.997   1.767   3.874
 2780TIP3    H2 8284   4.091   1.805   3.762
 2781TIP3   OH2 8285   4.298   1.316   3.506
 2781TIP3    H1 8286   4.255   1.395   3.472
 2781TIP3    H2 8287   4.233   1.247   3.495
 2782TIP3   OH2 8288   4.430   1.779   3.712
 2782TIP3    H1 8289   4.416   1.766   3.806
 2782TIP3    H2 8290   4.345   1.758   3.672
 2783TIP3   OH2 8291   4.675   1.736   3.584
 2783TIP3    H1 8292   4.596   1.736   3.638
 2783TIP3    H2 8293   4.745   1.712   3.645
 2784TIP3   OH2 8294   4.912   1.703   3.734
 2784TIP3    H1 8295   4.926   1.608   3.740
 2784TIP3    H2 8296   4.908   1.732   3.825
 2785TIP3   OH2 8297   3.895   1.622   3.924
 2785TIP3    H1 8298   3.894   1.536   3.882
 2785TIP3    H2 8299   3.931   1.606   4.012
 2786TIP3   OH2 8300   4.371   1.289   3.771
 2786TIP3    H1 8301   4.438   1.222   3.762
 2786TIP3    H2 8302   4.338   1.302   3.683
 2787TIP3   OH2 8303   4.467   1.501   3.921
 2787TIP3    H1 8304   4.435   1.430   3.865
 2787TIP3    H2 8305   4.395   1.564   3.921
 2788TIP3   OH2 8306   3.724   2.757   2.028
 2788TIP3    H1 8307   3.811   2.734   1.997
 2788TIP3    H2 8308   3.682   2.801   1.954
 2789TIP3   OH2 8309   3.189   2.142   2.203
 2789TIP3    H1 8310   3.284   2.152   2.204
 2789TIP3    H2 8311   3.175   2.053   2.171
 2790TIP3   OH2 8312   3.082   2.726   2.645
 2790TIP3    H1 8313   3.013   2.671   2.609
 2790TIP3    H2 8314   3.125   2.671   2.710
 2791TIP3   OH2 8315   3.205   2.577   2.841
 2791TIP3    H1 8316   3.139   2.569   2.910
 2791TIP3    H2 8317   3.273   2.632   2.879
 2792TIP3   OH2 8318   4.972   2.960   2.642
 2792TIP3    H1 8319   4.995   2.983   2.732
 2792TIP3    H2 8320   5.031   3.012   2.588
 2793TIP3   OH2 8321   5.000   2.982   2.923
 2793TIP3    H1 8322   4.950   2.900   2.916
 2793TIP3    H2 8323   5.067   2.964   2.989
 2794TIP3   OH2 8324   5.043   2.690   3.494
 2794TIP3    H1 8325   4.971   2.698   3.556
 2794TIP3    H2 8326   5.088   2.774   3.498
 2795TIP3   OH2 8327   4.879   2.191   2.101
 2795TIP3    H1 8328   4.936   2.266   2.083
 2795TIP3    H2 8329   4.917   2.151   2.180
 2796TIP3   OH2 8330   5.001   2.056   2.310
 2796TIP3    H1 8331   4.934   2.021   2.369
 2796TIP3    H2 8332   5.066   2.095   2.368
 2797TIP3   OH2 8333   5.036   2.461   2.735
 2797TIP3    H1 8334   5.091   2.391   2.699
 2797TIP3    H2 8335   5.041   2.531   2.671
 2798TIP3   OH2 8336   4.849   2.750   2.925
 2798TIP3    H1 8337   4.783   2.794   2.978
 2798TIP3    H2 8338   4.799   2.709   2.854
 2799TIP3   OH2 8339   4.913   1.974   1.936
 2799TIP3    H1 8340   4.838   1.975   1.877
 2799TIP3    H2 8341   4.900   2.049   1.993
 2800TIP3   OH2 8342   4.771   1.628   1.870
 2800TIP3    H1 8343   4.716   1.658   1.798
 2800TIP3    H2 8344   4.758   1.533   1.872
 2801TIP3   OH2 8345   4.791   1.922   2.442
 2801TIP3    H1 8346   4.794   1.827   2.429
 2801TIP3    H2 8347   4.771   1.933   2.535
 2802TIP3   OH2 8348   5.073   2.340   3.303
 2802TIP3    H1 8349   5.138   2.271   3.288
 2802TIP3    H2 8350   5.092   2.406   3.237
 2803TIP3   OH2 8351   5.246   2.126   3.294
 2803TIP3    H1 8352   5.173   2.085   3.340
 2803TIP3    H2 8353   5.322   2.071   3.315
 2804TIP3   OH2 8354   4.714   1.362   1.865
 2804TIP3    H1 8355   4.779   1.329   1.926
 2804TIP3    H2 8356   4.633   1.318   1.890
 2805TIP3   OH2 8357   4.781   1.644   2.325
 2805TIP3    H1 8358   4.826   1.561   2.339
 2805TIP3    H2 8359   4.823   1.681   2.247
 2806TIP3   OH2 8360   4.935   1.810   2.850
 2806TIP3    H1 8361   5.017   1.828   2.803
 2806TIP3    H2 8362   4.948   1.850   2.936
 2807TIP3   OH2 8363   5.010   1.959   3.079
 2807TIP3    H1 8364   4.938   1.988   3.135
 2807TIP3    H2 8365   5.041   2.039   3.036
 2808TIP3   OH2 8366   3.631   1.675   3.863
 2808TIP3    H1 8367   3.725   1.669   3.879
 2808TIP3    H2 8368   3.595   1.592   3.896
 2809TIP3   OH2 8369   5.472   1.558   3.619
 2809TIP3    H1 8370   5.537   1.501   3.576
 2809TIP3    H2 8371   5.433   1.608   3.548
 2810TIP3   OH2 8372   4.897   1.396   2.378
 2810TIP3    H1 8373   4.943   1.382   2.461
 2810TIP3    H2 8374   4.835   1.324   2.372
 2811TIP3   OH2 8375   3.575   1.353   3.260
 2811TIP3    H1 8376   3.647   1.291   3.251
 2811TIP3    H2 8377   3.607   1.434   3.220
 2812TIP3   OH2 8378   3.409   1.675   3.263
 2812TIP3    H1 8379   3.464   1.658   3.186
 2812TIP3    H2 8380   3.471   1.678   3.336
 2813TIP3   OH2 8381   5.322   1.673   3.423
 2813TIP3    H1 8382   5.240   1.714   3.449
 2813TIP3    H2 8383   5.295   1.600   3.368
 2814TIP3   OH2 8384   4.942   1.309   2.016
 2814TIP3    H1 8385   4.988   1.247   1.960
 2814TIP3    H2 8386   5.001   1.384   2.021
 2815TIP3   OH2 8387   3.364   1.105   2.746
 2815TIP3    H1 8388   3.319   1.136   2.825
 2815TIP3    H2 8389   3.349   1.174   2.681
 2816TIP3   OH2 8390   4.535   2.870   2.286
 2816TIP3    H1 8391   4.592   2.860   2.210
 2816TIP3    H2 8392   4.575   2.939   2.338
 2817TIP3   OH2 8393   3.604   1.193   3.580
 2817TIP3    H1 8394   3.561   1.194   3.666
 2817TIP3    H2 8395   3.546   1.244   3.524
 2818TIP3   OH2 8396   3.633   2.643   3.669
 2818TIP3    H1 8397   3.538   2.635   3.664
 2818TIP3    H2 8398   3.651   2.643   3.763
 2819TIP3   OH2 8399   3.827   2.718   3.210
 2819TIP3    H1 8400   3.773   2.790   3.177
 2819TIP3    H2 8401   3.913   2.733   3.170
 2820TIP3   OH2 8402   4.227   2.954   3.355
 2820TIP3    H1 8403   4.264   2.941   3.442
 2820TIP3    H2 8404   4.292   3.005   3.308
 2821TIP3   OH2 8405   4.422   3.098   3.223
 2821TIP3    H1 8406   4.482   3.039   3.176
 2821TIP3    H2 8407   4.479   3.151   3.278
 2822TIP3   OH2 8408   5.233   1.430   3.311
 2822TIP3    H1 8409   5.147   1.427   3.269
 2822TIP3    H2 8410   5.265   1.339   3.306
 2823TIP3   OH2 8411   3.483   2.939   3.249
 2823TIP3    H1 8412   3.394   2.962   3.222
 2823TIP3    H2 8413   3.484   2.951   3.344
 2824TIP3   OH2 8414   3.713   2.951   3.094
 2824TIP3    H1 8415   3.632   2.950   3.145
 2824TIP3    H2 8416   3.686   2.983   3.007
 2825TIP3   OH2 8417   4.147   2.950   2.896
 2825TIP3    H1 8418   4.074   2.961   2.835
 2825TIP3    H2 8419   4.153   3.035   2.941
 2826TIP3   OH2 8420   4.413   2.901   2.952
 2826TIP3    H1 8421   4.321   2.915   2.929
 2826TIP3    H2 8422   4.460   2.970   2.905
 2827TIP3   OH2 8423   4.617   3.079   2.860
 2827TIP3    H1 8424   4.609   3.165   2.817
 2827TIP3    H2 8425   4.645   3.021   2.790
 2828TIP3   OH2 8426   3.410   2.724   2.961
 2828TIP3    H1 8427   3.409   2.707   3.056
 2828TIP3    H2 8428   3.489   2.680   2.930
 2829TIP3   OH2 8429   3.623   2.594   2.848
 2829TIP3    H1 8430   3.649   2.513   2.892
 2829TIP3    H2 8431   3.704   2.645   2.841
 2830TIP3   OH2 8432   3.885   2.699   2.858
 2830TIP3    H1 8433   3.909   2.609   2.839
 2830TIP3    H2 8434   3.935   2.722   2.936
 2831TIP3   OH2 8435   4.438   1.356   2.945
 2831TIP3    H1 8436   4.398   1.286   2.996
 2831TIP3    H2 8437   4.506   1.313   2.894
 2832TIP3   OH2 8438   4.942   1.263   2.833
 2832TIP3    H1 8439   4.979   1.315   2.761
 2832TIP3    H2 8440   4.850   1.289   2.836
 2833TIP3   OH2 8441   5.057   1.346   2.598
 2833TIP3    H1 8442   5.126   1.284   2.572
 2833TIP3    H2 8443   5.097   1.432   2.585
 2834TIP3   OH2 8444   3.687   1.065   2.950
 2834TIP3    H1 8445   3.594   1.044   2.940
 2834TIP3    H2 8446   3.731   0.980   2.944
 2835TIP3   OH2 8447   3.522   0.946   2.586
 2835TIP3    H1 8448   3.549   0.999   2.511
 2835TIP3    H2 8449   3.472   1.006   2.641
 2836TIP3   OH2 8450   4.146   1.100   2.843
 2836TIP3    H1 8451   4.198   1.143   2.775
 2836TIP3    H2 8452   4.188   1.126   2.925
 2837TIP3   OH2 8453   4.652   1.236   2.816
 2837TIP3    H1 8454   4.664   1.200   2.729
 2837TIP3    H2 8455   4.658   1.160   2.874
 2838TIP3   OH2 8456   4.712   1.186   2.386
 2838TIP3    H1 8457   4.631   1.233   2.409
 2838TIP3    H2 8458   4.701   1.100   2.425
 2839TIP3   OH2 8459   3.166   2.528   2.351
 2839TIP3    H1 8460   3.078   2.508   2.320
 2839TIP3    H2 8461   3.179   2.621   2.329
 2840TIP3   OH2 8462   3.621   1.075   2.358
 2840TIP3    H1 8463   3.671   1.015   2.302
 2840TIP3    H2 8464   3.687   1.135   2.393
 2841TIP3   OH2 8465   4.093   1.287   2.457
 2841TIP3    H1 8466   4.152   1.240   2.517
 2841TIP3    H2 8467   4.100   1.378   2.483
 2842TIP3   OH2 8468   3.976   2.680   1.954
 2842TIP3    H1 8469   4.060   2.708   1.916
 2842TIP3    H2 8470   3.947   2.609   1.897
 2843TIP3   OH2 8471   4.685   2.821   2.056
 2843TIP3    H1 8472   4.677   2.726   2.051
 2843TIP3    H2 8473   4.637   2.853   1.980
 2844TIP3   OH2 8474   3.901   1.365   3.818
 2844TIP3    H1 8475   3.859   1.299   3.874
 2844TIP3    H2 8476   3.993   1.362   3.843
 2845TIP3   OH2 8477   4.149   1.348   3.949
 2845TIP3    H1 8478   4.227   1.321   3.899
 2845TIP3    H2 8479   4.133   1.276   4.009
 2846TIP3   OH2 8480   3.275   2.521   2.010
 2846TIP3    H1 8481   3.268   2.535   2.104
 2846TIP3    H2 8482   3.360   2.478   1.999
 2847TIP3   OH2 8483   4.977   1.432   3.739
 2847TIP3    H1 8484   4.993   1.403   3.829
 2847TIP3    H2 8485   5.062   1.425   3.697
 2848TIP3   OH2 8486   4.897   2.962   3.244
 2848TIP3    H1 8487   4.822   2.932   3.192
 2848TIP3    H2 8488   4.883   3.056   3.254
 2849TIP3   OH2 8489   6.180   2.360   1.974
 2849TIP3    H1 8490   6.138   2.441   1.944
 2849TIP3    H2 8491   6.125   2.329   2.046
 2850TIP3   OH2 8492   6.213   2.386   2.406
 2850TIP3    H1 8493   6.247   2.333   2.477
 2850TIP3    H2 8494   6.128   2.346   2.384
 2851TIP3   OH2 8495   5.469   2.203   2.749
 2851TIP3    H1 8496   5.503   2.147   2.819
 2851TIP3    H2 8497   5.547   2.229   2.700
 2852TIP3   OH2 8498   6.436   2.662   2.062
 2852TIP3    H1 8499   6.432   2.590   2.124
 2852TIP3    H2 8500   6.458   2.738   2.116
 2853TIP3   OH2 8501   5.448   2.621   2.439
 2853TIP3    H1 8502   5.437   2.526   2.441
 2853TIP3    H2 8503   5.542   2.634   2.431
 2854TIP3   OH2 8504   5.137   1.827   2.215
 2854TIP3    H1 8505   5.108   1.913   2.247
 2854TIP3    H2 8506   5.057   1.784   2.185
 2855TIP3   OH2 8507   5.234   2.149   2.444
 2855TIP3    H1 8508   5.281   2.070   2.472
 2855TIP3    H2 8509   5.304   2.211   2.422
 2856TIP3   OH2 8510   6.096   3.080   2.097
 2856TIP3    H1 8511   6.124   3.011   2.037
 2856TIP3    H2 8512   6.099   3.041   2.184
 2857TIP3   OH2 8513   5.936   2.584   2.433
 2857TIP3    H1 8514   5.938   2.494   2.401
 2857TIP3    H2 8515   6.028   2.609   2.440
 2858TIP3   OH2 8516   7.009   1.881   2.433
 2858TIP3    H1 8517   7.025   1.965   2.475
 2858TIP3    H2 8518   7.039   1.893   2.343
 2859TIP3   OH2 8519   6.392   2.056   2.440
 2859TIP3    H1 8520   6.418   1.968   2.465
 2859TIP3    H2 8521   6.347   2.045   2.356
 2860TIP3   OH2 8522   5.728   1.731   2.392
 2860TIP3    H1 8523   5.705   1.808   2.339
 2860TIP3    H2 8524   5.673   1.661   2.358
 2861TIP3   OH2 8525   6.431   1.801   2.052
 2861TIP3    H1 8526   6.493   1.796   2.125
 2861TIP3    H2 8527   6.481   1.839   1.980
 2862TIP3   OH2 8528   5.360   1.921   2.538
 2862TIP3    H1 8529   5.445   1.906   2.580
 2862TIP3    H2 8530   5.361   1.864   2.461
 2863TIP3   OH2 8531   7.063   2.102   2.598
 2863TIP3    H1 8532   6.973   2.136   2.592
 2863TIP3    H2 8533   7.098   2.139   2.678
 2864TIP3   OH2 8534   5.710   1.706   2.861
 2864TIP3    H1 8535   5.668   1.747   2.786
 2864TIP3    H2 8536   5.652   1.725   2.935
 2865TIP3   OH2 8537   6.076   2.581   1.836
 2865TIP3    H1 8538   6.031   2.546   1.759
 2865TIP3    H2 8539   6.018   2.650   1.869
 2866TIP3   OH2 8540   5.824   2.499   2.672
 2866TIP3    H1 8541   5.762   2.569   2.695
 2866TIP3    H2 8542   5.865   2.530   2.592
 2867TIP3   OH2 8543   6.598   1.828   2.268
 2867TIP3    H1 8544   6.552   1.811   2.350
 2867TIP3    H2 8545   6.651   1.906   2.286
 2868TIP3   OH2 8546   5.608   1.817   2.628
 2868TIP3    H1 8547   5.661   1.894   2.650
 2868TIP3    H2 8548   5.653   1.779   2.552
 2869TIP3   OH2 8549   5.651   2.700   2.738
 2869TIP3    H1 8550   5.639   2.789   2.707
 2869TIP3    H2 8551   5.571   2.682   2.789
 2870TIP3   OH2 8552   5.037   2.407   2.011
 2870TIP3    H1 8553   4.964   2.440   1.958
 2870TIP3    H2 8554   5.075   2.485   2.050
 2871TIP3   OH2 8555   6.475   2.901   2.216
 2871TIP3    H1 8556   6.390   2.889   2.258
 2871TIP3    H2 8557   6.471   2.988   2.178
 2872TIP3   OH2 8558   6.805   1.776   2.598
 2872TIP3    H1 8559   6.720   1.799   2.561
 2872TIP3    H2 8560   6.868   1.803   2.532
 2873TIP3   OH2 8561   6.061   1.403   2.592
 2873TIP3    H1 8562   6.052   1.312   2.618
 2873TIP3    H2 8563   5.985   1.447   2.631
 2874TIP3   OH2 8564   6.182   2.925   1.877
 2874TIP3    H1 8565   6.233   2.845   1.870
 2874TIP3    H2 8566   6.243   2.995   1.853
 2875TIP3   OH2 8567   6.326   2.695   1.814
 2875TIP3    H1 8568   6.246   2.642   1.822
 2875TIP3    H2 8569   6.374   2.678   1.895
 2876TIP3   OH2 8570   6.715   2.784   2.570
 2876TIP3    H1 8571   6.692   2.710   2.514
 2876TIP3    H2 8572   6.700   2.861   2.515
 2877TIP3   OH2 8573   5.976   2.155   1.821
 2877TIP3    H1 8574   5.910   2.223   1.810
 2877TIP3    H2 8575   6.043   2.176   1.755
 2878TIP3   OH2 8576   5.966   1.996   1.525
 2878TIP3    H1 8577   6.026   2.038   1.587
 2878TIP3    H2 8578   6.021   1.932   1.480
 2879TIP3   OH2 8579   6.891   2.445   2.431
 2879TIP3    H1 8580   6.806   2.489   2.431
 2879TIP3    H2 8581   6.924   2.455   2.342
 2880TIP3   OH2 8582   6.364   2.296   1.784
 2880TIP3    H1 8583   6.305   2.320   1.855
 2880TIP3    H2 8584   6.442   2.261   1.828
 2881TIP3   OH2 8585   6.593   2.308   2.742
 2881TIP3    H1 8586   6.586   2.390   2.791
 2881TIP3    H2 8587   6.512   2.304   2.691
 2882TIP3   OH2 8588   5.639   2.248   2.219
 2882TIP3    H1 8589   5.638   2.154   2.199
 2882TIP3    H2 8590   5.726   2.263   2.257
 2883TIP3   OH2 8591   5.701   2.691   2.346
 2883TIP3    H1 8592   5.693   2.664   2.254
 2883TIP3    H2 8593   5.784   2.655   2.375
 2884TIP3   OH2 8594   5.694   2.273   2.587
 2884TIP3    H1 8595   5.751   2.257   2.512
 2884TIP3    H2 8596   5.731   2.351   2.629
 2885TIP3   OH2 8597   6.238   2.886   2.348
 2885TIP3    H1 8598   6.226   2.959   2.408
 2885TIP3    H2 8599   6.223   2.808   2.402
 2886TIP3   OH2 8600   5.858   2.792   2.900
 2886TIP3    H1 8601   5.798   2.849   2.948
 2886TIP3    H2 8602   5.801   2.740   2.843
 2887TIP3   OH2 8603   6.192   2.139   1.639
 2887TIP3    H1 8604   6.252   2.196   1.688
 2887TIP3    H2 8605   6.211   2.156   1.547
 2888TIP3   OH2 8606   5.609   2.353   3.051
 2888TIP3    H1 8607   5.607   2.447   3.066
 2888TIP3    H2 8608   5.517   2.328   3.040
 2889TIP3   OH2 8609   5.931   2.811   1.887
 2889TIP3    H1 8610   6.011   2.863   1.895
 2889TIP3    H2 8611   5.869   2.870   1.844
 2890TIP3   OH2 8612   5.646   2.949   2.985
 2890TIP3    H1 8613   5.621   2.960   2.893
 2890TIP3    H2 8614   5.563   2.935   3.031
 2891TIP3   OH2 8615   6.694   1.357   1.702
 2891TIP3    H1 8616   6.615   1.374   1.753
 2891TIP3    H2 8617   6.701   1.432   1.643
 2892TIP3   OH2 8618   5.451   2.070   1.976
 2892TIP3    H1 8619   5.384   2.137   1.966
 2892TIP3    H2 8620   5.451   2.050   2.070
 2893TIP3   OH2 8621   6.467   2.727   1.282
 2893TIP3    H1 8622   6.452   2.816   1.249
 2893TIP3    H2 8623   6.555   2.705   1.253
 2894TIP3   OH2 8624   5.237   2.507   2.932
 2894TIP3    H1 8625   5.168   2.485   2.869
 2894TIP3    H2 8626   5.272   2.423   2.960
 2895TIP3   OH2 8627   5.096   2.687   2.575
 2895TIP3    H1 8628   5.191   2.694   2.578
 2895TIP3    H2 8629   5.065   2.765   2.621
 2896TIP3   OH2 8630   6.942   3.160   2.631
 2896TIP3    H1 8631   6.949   3.065   2.642
 2896TIP3    H2 8632   6.863   3.183   2.679
 2897TIP3   OH2 8633   6.046   2.934   2.759
 2897TIP3    H1 8634   6.038   3.024   2.789
 2897TIP3    H2 8635   5.980   2.886   2.810
 2898TIP3   OH2 8636   5.814   3.044   1.711
 2898TIP3    H1 8637   5.744   3.020   1.650
 2898TIP3    H2 8638   5.787   3.129   1.747
 2899TIP3   OH2 8639   5.263   2.894   2.098
 2899TIP3    H1 8640   5.310   2.886   2.181
 2899TIP3    H2 8641   5.214   2.812   2.089
 2900TIP3   OH2 8642   6.033   2.935   1.361
 2900TIP3    H1 8643   6.067   2.847   1.370
 2900TIP3    H2 8644   6.053   2.978   1.444
 2901TIP3   OH2 8645   6.071   3.013   1.624
 2901TIP3    H1 8646   5.981   3.019   1.655
 2901TIP3    H2 8647   6.121   2.980   1.699
 2902TIP3   OH2 8648   6.834   2.263   2.900
 2902TIP3    H1 8649   6.751   2.272   2.853
 2902TIP3    H2 8650   6.851   2.168   2.900
 2903TIP3   OH2 8651   5.430   2.700   2.903
 2903TIP3    H1 8652   5.482   2.689   2.983
 2903TIP3    H2 8653   5.362   2.633   2.910
 2904TIP3   OH2 8654   5.823   1.495   2.716
 2904TIP3    H1 8655   5.739   1.463   2.685
 2904TIP3    H2 8656   5.803   1.577   2.761
 2905TIP3   OH2 8657   6.367   1.618   2.915
 2905TIP3    H1 8658   6.437   1.595   2.976
 2905TIP3    H2 8659   6.286   1.597   2.962
 2906TIP3   OH2 8660   6.592   2.044   2.837
 2906TIP3    H1 8661   6.549   2.039   2.923
 2906TIP3    H2 8662   6.574   2.133   2.806
 2907TIP3   OH2 8663   6.254   2.196   1.383
 2907TIP3    H1 8664   6.207   2.167   1.305
 2907TIP3    H2 8665   6.330   2.244   1.350
 2908TIP3   OH2 8666   5.972   1.540   1.691
 2908TIP3    H1 8667   5.937   1.543   1.780
 2908TIP3    H2 8668   5.936   1.460   1.654
 2909TIP3   OH2 8669   5.759   2.031   2.705
 2909TIP3    H1 8670   5.720   2.044   2.792
 2909TIP3    H2 8671   5.746   2.114   2.660
 2910TIP3   OH2 8672   5.595   1.922   2.223
 2910TIP3    H1 8673   5.518   1.878   2.259
 2910TIP3    H2 8674   5.614   1.875   2.142
 2911TIP3   OH2 8675   6.114   1.976   1.975
 2911TIP3    H1 8676   6.062   2.044   1.933
 2911TIP3    H2 8677   6.173   1.945   1.907
 2912TIP3   OH2 8678   6.317   2.251   3.050
 2912TIP3    H1 8679   6.287   2.183   3.109
 2912TIP3    H2 8680   6.410   2.263   3.072
 2913TIP3   OH2 8681   6.307   2.015   2.180
 2913TIP3    H1 8682   6.224   2.029   2.136
 2913TIP3    H2 8683   6.341   1.934   2.143
 2914TIP3   OH2 8684   5.590   2.032   2.933
 2914TIP3    H1 8685   5.658   2.080   2.982
 2914TIP3    H2 8686   5.574   1.954   2.985
 2915TIP3   OH2 8687   5.634   1.527   1.650
 2915TIP3    H1 8688   5.618   1.528   1.744
 2915TIP3    H2 8689   5.553   1.560   1.612
 2916TIP3   OH2 8690   5.194   1.566   2.525
 2916TIP3    H1 8691   5.262   1.602   2.582
 2916TIP3    H2 8692   5.240   1.546   2.443
 2917TIP3   OH2 8693   5.102   1.538   2.029
 2917TIP3    H1 8694   5.162   1.577   1.965
 2917TIP3    H2 8695   5.041   1.609   2.050
 2918TIP3   OH2 8696   6.348   2.254   2.617
 2918TIP3    H1 8697   6.369   2.187   2.552
 2918TIP3    H2 8698   6.302   2.206   2.686
 2919TIP3   OH2 8699   6.001   1.696   2.297
 2919TIP3    H1 8700   5.922   1.708   2.350
 2919TIP3    H2 8701   6.073   1.707   2.358
 2920TIP3   OH2 8702   5.388   1.766   2.314
 2920TIP3    H1 8703   5.302   1.770   2.272
 2920TIP3    H2 8704   5.422   1.679   2.293
 2921TIP3   OH2 8705   5.651   1.784   1.988
 2921TIP3    H1 8706   5.745   1.795   1.997
 2921TIP3    H2 8707   5.625   1.848   1.922
 2922TIP3   OH2 8708   6.455   1.794   2.507
 2922TIP3    H1 8709   6.436   1.814   2.599
 2922TIP3    H2 8710   6.385   1.735   2.480
 2923TIP3   OH2 8711   5.454   1.855   1.708
 2923TIP3    H1 8712   5.459   1.768   1.669
 2923TIP3    H2 8713   5.534   1.899   1.680
 2924TIP3   OH2 8714   6.657   3.495   2.730
 2924TIP3    H1 8715   6.656   3.512   2.636
 2924TIP3    H2 8716   6.736   3.539   2.761
 2925TIP3   OH2 8717   5.588   2.618   3.136
 2925TIP3    H1 8718   5.670   2.634   3.183
 2925TIP3    H2 8719   5.521   2.623   3.204
 2926TIP3   OH2 8720   5.548   1.535   2.286
 2926TIP3    H1 8721   5.522   1.461   2.340
 2926TIP3    H2 8722   5.585   1.496   2.207
 2927TIP3   OH2 8723   6.021   1.934   2.733
 2927TIP3    H1 8724   5.941   1.977   2.704
 2927TIP3    H2 8725   6.086   2.005   2.737
 2928TIP3   OH2 8726   5.775   2.347   1.778
 2928TIP3    H1 8727   5.707   2.282   1.759
 2928TIP3    H2 8728   5.751   2.381   1.865
 2929TIP3   OH2 8729   6.658   2.586   2.388
 2929TIP3    H1 8730   6.695   2.637   2.316
 2929TIP3    H2 8731   6.580   2.545   2.351
 2930TIP3   OH2 8732   6.223   1.645   1.688
 2930TIP3    H1 8733   6.129   1.624   1.688
 2930TIP3    H2 8734   6.226   1.739   1.703
 2931TIP3   OH2 8735   6.179   2.671   2.776
 2931TIP3    H1 8736   6.226   2.660   2.859
 2931TIP3    H2 8737   6.134   2.755   2.785
 2932TIP3   OH2 8738   6.282   1.905   1.762
 2932TIP3    H1 8739   6.377   1.908   1.774
 2932TIP3    H2 8740   6.261   1.983   1.710
 2933TIP3   OH2 8741   5.466   2.329   2.422
 2933TIP3    H1 8742   5.513   2.310   2.341
 2933TIP3    H2 8743   5.529   2.310   2.491
 2934TIP3   OH2 8744   5.923   2.503   1.616
 2934TIP3    H1 8745   5.872   2.584   1.621
 2934TIP3    H2 8746   5.872   2.441   1.668
 2935TIP3   OH2 8747   5.333   2.284   3.069
 2935TIP3    H1 8748   5.345   2.258   3.161
 2935TIP3    H2 8749   5.263   2.227   3.038
 2936TIP3   OH2 8750   6.098   2.422   3.068
 2936TIP3    H1 8751   6.048   2.397   2.991
 2936TIP3    H2 8752   6.181   2.374   3.059
 2937TIP3   OH2 8753   6.316   2.958   2.680
 2937TIP3    H1 8754   6.222   2.941   2.685
 2937TIP3    H2 8755   6.340   2.989   2.767
 2938TIP3   OH2 8756   6.697   1.996   1.604
 2938TIP3    H1 8757   6.635   1.952   1.547
 2938TIP3    H2 8758   6.691   2.088   1.581
 2939TIP3   OH2 8759   6.960   2.884   2.653
 2939TIP3    H1 8760   6.867   2.861   2.659
 2939TIP3    H2 8761   6.989   2.848   2.570
 2940TIP3   OH2 8762   6.432   2.758   1.570
 2940TIP3    H1 8763   6.387   2.741   1.653
 2940TIP3    H2 8764   6.524   2.769   1.595
 2941TIP3   OH2 8765   6.445   2.456   2.260
 2941TIP3    H1 8766   6.361   2.439   2.304
 2941TIP3    H2 8767   6.474   2.370   2.231
 2942TIP3   OH2 8768   5.568   2.679   2.094
 2942TIP3    H1 8769   5.563   2.755   2.036
 2942TIP3    H2 8770   5.483   2.677   2.138
 2943TIP3   OH2 8771   5.161   1.997   1.813
 2943TIP3    H1 8772   5.200   2.080   1.843
 2943TIP3    H2 8773   5.073   1.997   1.850
 2944TIP3   OH2 8774   5.670   2.437   2.008
 2944TIP3    H1 8775   5.641   2.522   2.042
 2944TIP3    H2 8776   5.658   2.377   2.082
 2945TIP3   OH2 8777   5.861   3.008   2.554
 2945TIP3    H1 8778   5.900   3.080   2.504
 2945TIP3    H2 8779   5.933   2.971   2.604
 2946TIP3   OH2 8780   5.490   2.908   1.943
 2946TIP3    H1 8781   5.406   2.915   1.987
 2946TIP3    H2 8782   5.528   2.996   1.950
 2947TIP3   OH2 8783   6.202   2.652   2.499
 2947TIP3    H1 8784   6.202   2.649   2.595
 2947TIP3    H2 8785   6.226   2.563   2.473
 2948TIP3   OH2 8786   6.198   2.558   1.401
 2948TIP3    H1 8787   6.215   2.489   1.466
 2948TIP3    H2 8788   6.112   2.536   1.365
 2949TIP3   OH2 8789   6.473   3.160   2.566
 2949TIP3    H1 8790   6.406   3.095   2.589
 2949TIP3    H2 8791   6.432   3.212   2.497
 2950TIP3   OH2 8792   6.499   3.002   1.206
 2950TIP3    H1 8793   6.516   3.048   1.124
 2950TIP3    H2 8794   6.438   3.059   1.253
 2951TIP3   OH2 8795   5.544   1.787   3.068
 2951TIP3    H1 8796   5.449   1.798   3.076
 2951TIP3    H2 8797   5.569   1.738   3.147
 2952TIP3   OH2 8798   6.403   2.471   1.561
 2952TIP3    H1 8799   6.368   2.418   1.633
 2952TIP3    H2 8800   6.498   2.467   1.574
 2953TIP3   OH2 8801   5.287   2.895   2.719
 2953TIP3    H1 8802   5.334   2.831   2.772
 2953TIP3    H2 8803   5.303   2.979   2.762
 2954TIP3   OH2 8804   5.538   2.508   1.406
 2954TIP3    H1 8805   5.557   2.420   1.375
 2954TIP3    H2 8806   5.534   2.499   1.501
 2955TIP3   OH2 8807   5.519   2.512   1.679
 2955TIP3    H1 8808   5.583   2.476   1.740
 2955TIP3    H2 8809   5.519   2.606   1.697
 2956TIP3   OH2 8810   5.238   2.241   1.905
 2956TIP3    H1 8811   5.174   2.292   1.954
 2956TIP3    H2 8812   5.255   2.293   1.826
 2957TIP3   OH2 8813   6.397   1.854   2.770
 2957TIP3    H1 8814   6.475   1.897   2.805
 2957TIP3    H2 8815   6.386   1.776   2.825
 2958TIP3   OH2 8816   6.281   1.589   1.955
 2958TIP3    H1 8817   6.262   1.610   1.864
 2958TIP3    H2 8818   6.324   1.668   1.989
 2959TIP3   OH2 8819   5.774   2.728   1.620
 2959TIP3    H1 8820   5.688   2.739   1.661
 2959TIP3    H2 8821   5.780   2.801   1.558
 2960TIP3   OH2 8822   5.923   1.793   2.048
 2960TIP3    H1 8823   5.984   1.861   2.021
 2960TIP3    H2 8824   5.948   1.772   2.138
 2961TIP3   OH2 8825   6.241   2.098   2.815
 2961TIP3    H1 8826   6.264   2.137   2.899
 2961TIP3    H2 8827   6.285   2.013   2.814
 2962TIP3   OH2 8828   6.099   1.489   2.136
 2962TIP3    H1 8829   6.076   1.565   2.188
 2962TIP3    H2 8830   6.167   1.519   2.076
 2963TIP3   OH2 8831   5.518   2.790   1.698
 2963TIP3    H1 8832   5.497   2.860   1.637
 2963TIP3    H2 8833   5.505   2.829   1.785
 2964TIP3   OH2 8834   5.612   1.514   1.929
 2964TIP3    H1 8835   5.607   1.605   1.957
 2964TIP3    H2 8836   5.705   1.492   1.936
 2965TIP3   OH2 8837   6.854   1.982   2.813
 2965TIP3    H1 8838   6.760   1.995   2.826
 2965TIP3    H2 8839   6.859   1.924   2.737
 2966TIP3   OH2 8840   6.526   2.193   2.190
 2966TIP3    H1 8841   6.447   2.140   2.198
 2966TIP3    H2 8842   6.589   2.152   2.248
 2967TIP3   OH2 8843   5.260   2.414   1.690
 2967TIP3    H1 8844   5.229   2.504   1.695
 2967TIP3    H2 8845   5.355   2.422   1.676
 2968TIP3   OH2 8846   5.154   1.721   1.806
 2968TIP3    H1 8847   5.113   1.782   1.867
 2968TIP3    H2 8848   5.082   1.670   1.769
 2969TIP3   OH2 8849   6.494   3.169   2.139
 2969TIP3    H1 8850   6.454   3.219   2.068
 2969TIP3    H2 8851   6.588   3.178   2.125
 2970TIP3   OH2 8852   5.561   1.411   2.676
 2970TIP3    H1 8853   5.532   1.379   2.590
 2970TIP3    H2 8854   5.552   1.335   2.733
 2971TIP3   OH2 8855   5.090   2.675   2.078
 2971TIP3    H1 8856   5.048   2.712   2.156
 2971TIP3    H2 8857   5.043   2.714   2.005
 2972TIP3   OH2 8858   5.284   3.210   3.135
 2972TIP3    H1 8859   5.366   3.216   3.184
 2972TIP3    H2 8860   5.268   3.116   3.126
 2973TIP3   OH2 8861   5.752   3.113   3.178
 2973TIP3    H1 8862   5.844   3.087   3.189
 2973TIP3    H2 8863   5.719   3.058   3.107
 2974TIP3   OH2 8864   5.732   2.670   1.305
 2974TIP3    H1 8865   5.657   2.626   1.344
 2974TIP3    H2 8866   5.803   2.607   1.310
 2975TIP3   OH2 8867   6.374   3.052   2.931
 2975TIP3    H1 8868   6.386   2.982   2.995
 2975TIP3    H2 8869   6.448   3.111   2.945
 2976TIP3   OH2 8870   5.387   2.604   3.328
 2976TIP3    H1 8871   5.407   2.512   3.339
 2976TIP3    H2 8872   5.300   2.605   3.288
 2977TIP3   OH2 8873   6.010   2.688   3.106
 2977TIP3    H1 8874   5.967   2.708   3.023
 2977TIP3    H2 8875   6.052   2.603   3.091
 2978TIP3   OH2 8876   5.936   2.463   1.347
 2978TIP3    H1 8877   5.927   2.471   1.442
 2978TIP3    H2 8878   5.924   2.370   1.330
 2979TIP3   OH2 8879   6.493   2.734   2.733
 2979TIP3    H1 8880   6.568   2.762   2.680
 2979TIP3    H2 8881   6.422   2.792   2.705
 2980TIP3   OH2 8882   5.501   2.349   3.330
 2980TIP3    H1 8883   5.574   2.333   3.270
 2980TIP3    H2 8884   5.542   2.366   3.414
 2981TIP3   OH2 8885   5.582   2.162   1.750
 2981TIP3    H1 8886   5.541   2.121   1.826
 2981TIP3    H2 8887   5.616   2.088   1.699
 2982TIP3   OH2 8888   5.816   2.189   2.978
 2982TIP3    H1 8889   5.753   2.255   3.007
 2982TIP3    H2 8890   5.879   2.237   2.923
 2983TIP3   OH2 8891   5.687   1.959   1.593
 2983TIP3    H1 8892   5.657   1.965   1.502
 2983TIP3    H2 8893   5.782   1.964   1.587
 2984TIP3   OH2 8894   6.374   2.606   3.080
 2984TIP3    H1 8895   6.439   2.565   3.022
 2984TIP3    H2 8896   6.370   2.548   3.156
 2985TIP3   OH2 8897   6.477   2.317   1.270
 2985TIP3    H1 8898   6.445   2.264   1.196
 2985TIP3    H2 8899   6.533   2.382   1.230
 2986TIP3   OH2 8900   5.968   1.998   3.107
 2986TIP3    H1 8901   5.968   1.917   3.056
 2986TIP3    H2 8902   5.922   2.060   3.051
 2987TIP3   OH2 8903   5.964   1.773   2.940
 2987TIP3    H1 8904   5.996   1.822   2.864
 2987TIP3    H2 8905   5.875   1.748   2.917
 2988TIP3   OH2 8906   5.988   2.341   2.826
 2988TIP3    H1 8907   6.060   2.315   2.768
 2988TIP3    H2 8908   5.935   2.400   2.773
 2989TIP3   OH2 8909   6.582   2.284   3.150
 2989TIP3    H1 8910   6.627   2.199   3.156
 2989TIP3    H2 8911   6.653   2.347   3.136
 2990TIP3   OH2 8912   6.609   2.548   2.891
 2990TIP3    H1 8913   6.557   2.613   2.843
 2990TIP3    H2 8914   6.698   2.561   2.860
 2991TIP3   OH2 8915   5.856   2.083   3.348
 2991TIP3    H1 8916   5.785   2.021   3.365
 2991TIP3    H2 8917   5.885   2.063   3.259
 2992TIP3   OH2 8918   6.107   1.547   3.000
 2992TIP3    H1 8919   6.062   1.629   2.979
 2992TIP3    H2 8920   6.042   1.479   2.985
 2993TIP3   OH2 8921   6.227   2.039   3.200
 2993TIP3    H1 8922   6.216   2.026   3.295
 2993TIP3    H2 8923   6.140   2.022   3.163
 2994TIP3   OH2 8924   6.474   1.993   3.074
 2994TIP3    H1 8925   6.394   1.993   3.127
 2994TIP3    H2 8926   6.544   1.970   3.134
 2995TIP3   OH2 8927   6.709   1.958   3.223
 2995TIP3    H1 8928   6.723   1.864   3.229
 2995TIP3    H2 8929   6.705   1.988   3.314
 2996TIP3   OH2 8930   5.686   1.863   3.405
 2996TIP3    H1 8931   5.694   1.775   3.368
 2996TIP3    H2 8932   5.726   1.856   3.492
 2997TIP3   OH2 8933   6.170   1.540   3.266
 2997TIP3    H1 8934   6.240   1.475   3.262
 2997TIP3    H2 8935   6.140   1.549   3.176
 2998TIP3   OH2 8936   6.263   1.759   3.407
 2998TIP3    H1 8937   6.233   1.687   3.352
 2998TIP3    H2 8938   6.191   1.821   3.407
 2999TIP3   OH2 8939   5.519   3.001   1.514
 2999TIP3    H1 8940   5.603   2.974   1.476
 2999TIP3    H2 8941   5.477   3.052   1.445
 3000TIP3   OH2 8942   4.888   2.977   2.154
 3000TIP3    H1 8943   4.824   2.922   2.108
 3000TIP3    H2 8944   4.931   2.917   2.215
 3001TIP3   OH2 8945   5.030   2.811   2.323
 3001TIP3    H1 8946   5.022   2.742   2.389
 3001TIP3    H2 8947   5.083   2.879   2.366
 3002TIP3   OH2 8948   6.767   3.212   2.130
 3002TIP3    H1 8949   6.783   3.236   2.222
 3002TIP3    H2 8950   6.820   3.274   2.080
 3003TIP3   OH2 8951   6.787   3.242   2.409
 3003TIP3    H1 8952   6.739   3.160   2.406
 3003TIP3    H2 8953   6.854   3.229   2.475
 3004TIP3   OH2 8954   6.836   2.946   2.978
 3004TIP3    H1 8955   6.764   2.953   3.041
 3004TIP3    H2 8956   6.881   3.030   2.984
 3005TIP3   OH2 8957   6.672   2.471   1.591
 3005TIP3    H1 8958   6.733   2.540   1.563
 3005TIP3    H2 8959   6.712   2.434   1.669
 3006TIP3   OH2 8960   6.783   2.328   1.796
 3006TIP3    H1 8961   6.718   2.285   1.851
 3006TIP3    H2 8962   6.849   2.360   1.857
 3007TIP3   OH2 8963   6.834   2.724   2.223
 3007TIP3    H1 8964   6.885   2.653   2.185
 3007TIP3    H2 8965   6.837   2.793   2.158
 3008TIP3   OH2 8966   6.645   3.003   2.415
 3008TIP3    H1 8967   6.578   3.047   2.467
 3008TIP3    H2 8968   6.597   2.961   2.343
 3009TIP3   OH2 8969   6.660   2.230   1.457
 3009TIP3    H1 8970   6.583   2.247   1.404
 3009TIP3    H2 8971   6.669   2.307   1.513
 3010TIP3   OH2 8972   6.517   1.914   1.418
 3010TIP3    H1 8973   6.450   1.943   1.356
 3010TIP3    H2 8974   6.510   1.819   1.418
 3011TIP3   OH2 8975   6.582   2.176   1.921
 3011TIP3    H1 8976   6.581   2.081   1.911
 3011TIP3    H2 8977   6.566   2.191   2.014
 3012TIP3   OH2 8978   5.206   2.246   2.699
 3012TIP3    H1 8979   5.198   2.212   2.610
 3012TIP3    H2 8980   5.299   2.241   2.719
 3013TIP3   OH2 8981   6.862   2.595   2.789
 3013TIP3    H1 8982   6.932   2.531   2.773
 3013TIP3    H2 8983   6.860   2.648   2.709
 3014TIP3   OH2 8984   7.045   2.389   2.782
 3014TIP3    H1 8985   6.971   2.347   2.825
 3014TIP3    H2 8986   7.120   2.332   2.802
 3015TIP3   OH2 8987   6.476   1.649   1.399
 3015TIP3    H1 8988   6.555   1.600   1.421
 3015TIP3    H2 8989   6.405   1.586   1.409
 3016TIP3   OH2 8990   6.573   1.895   1.830
 3016TIP3    H1 8991   6.614   1.810   1.842
 3016TIP3    H2 8992   6.618   1.934   1.755
 3017TIP3   OH2 8993   6.732   2.064   2.336
 3017TIP3    H1 8994   6.814   2.084   2.291
 3017TIP3    H2 8995   6.743   2.104   2.423
 3018TIP3   OH2 8996   6.806   2.216   2.564
 3018TIP3    H1 8997   6.733   2.245   2.620
 3018TIP3    H2 8998   6.836   2.296   2.521
 3019TIP3   OH2 8999   5.422   1.919   3.342
 3019TIP3    H1 9000   5.517   1.917   3.360
 3019TIP3    H2 9001   5.389   1.838   3.382
 3020TIP3   OH2 9002   7.266   1.814   3.105
 3020TIP3    H1 9003   7.327   1.756   3.059
 3020TIP3    H2 9004   7.226   1.867   3.036
 3021TIP3   OH2 9005   6.689   1.647   1.870
 3021TIP3    H1 9006   6.733   1.635   1.954
 3021TIP3    H2 9007   6.626   1.575   1.865
 3022TIP3   OH2 9008   5.399   1.636   2.700
 3022TIP3    H1 9009   5.453   1.557   2.704
 3022TIP3    H2 9010   5.461   1.707   2.680
 3023TIP3   OH2 9011   5.181   1.898   2.755
 3023TIP3    H1 9012   5.232   1.892   2.675
 3023TIP3    H2 9013   5.218   1.972   2.802
 3024TIP3   OH2 9014   7.116   1.930   2.909
 3024TIP3    H1 9015   7.032   1.970   2.932
 3024TIP3    H2 9016   7.092   1.855   2.854
 3025TIP3   OH2 9017   6.729   1.550   1.512
 3025TIP3    H1 9018   6.754   1.477   1.455
 3025TIP3    H2 9019   6.796   1.616   1.498
 3026TIP3   OH2 9020   5.167   1.399   2.255
 3026TIP3    H1 9021   5.083   1.390   2.300
 3026TIP3    H2 9022   5.148   1.456   2.181
 3027TIP3   OH2 9023   6.334   3.120   1.775
 3027TIP3    H1 9024   6.393   3.117   1.700
 3027TIP3    H2 9025   6.367   3.193   1.828
 3028TIP3   OH2 9026   5.393   1.456   3.077
 3028TIP3    H1 9027   5.345   1.456   3.159
 3028TIP3    H2 9028   5.339   1.509   3.018
 3029TIP3   OH2 9029   5.420   2.925   3.148
 3029TIP3    H1 9030   5.327   2.904   3.142
 3029TIP3    H2 9031   5.441   2.915   3.241
 3030TIP3   OH2 9032   5.631   2.973   2.702
 3030TIP3    H1 9033   5.582   3.049   2.671
 3030TIP3    H2 9034   5.717   2.981   2.659
 3031TIP3   OH2 9035   6.030   3.201   2.841
 3031TIP3    H1 9036   6.069   3.191   2.928
 3031TIP3    H2 9037   6.094   3.253   2.792
 3032TIP3   OH2 9038   6.223   3.351   2.711
 3032TIP3    H1 9039   6.284   3.293   2.665
 3032TIP3    H2 9040   6.279   3.405   2.766
 3033TIP3   OH2 9041   7.029   1.684   2.800
 3033TIP3    H1 9042   6.942   1.678   2.761
 3033TIP3    H2 9043   7.064   1.595   2.793
 3034TIP3   OH2 9044   5.292   3.216   2.746
 3034TIP3    H1 9045   5.200   3.232   2.726
 3034TIP3    H2 9046   5.313   3.280   2.814
 3035TIP3   OH2 9047   5.523   3.204   2.598
 3035TIP3    H1 9048   5.440   3.208   2.645
 3035TIP3    H2 9049   5.501   3.225   2.507
 3036TIP3   OH2 9050   5.940   3.217   2.387
 3036TIP3    H1 9051   5.865   3.229   2.329
 3036TIP3    H2 9052   5.950   3.302   2.431
 3037TIP3   OH2 9053   6.205   3.153   2.437
 3037TIP3    H1 9054   6.113   3.172   2.418
 3037TIP3    H2 9055   6.253   3.223   2.393
 3038TIP3   OH2 9056   6.405   3.330   2.344
 3038TIP3    H1 9057   6.402   3.417   2.303
 3038TIP3    H2 9058   6.435   3.272   2.274
 3039TIP3   OH2 9059   5.207   2.986   2.468
 3039TIP3    H1 9060   5.230   2.961   2.557
 3039TIP3    H2 9061   5.279   2.953   2.414
 3040TIP3   OH2 9062   5.410   2.870   2.328
 3040TIP3    H1 9063   5.419   2.784   2.371
 3040TIP3    H2 9064   5.497   2.909   2.335
 3041TIP3   OH2 9065   5.676   2.965   2.350
 3041TIP3    H1 9066   5.691   2.872   2.335
 3041TIP3    H2 9067   5.731   2.986   2.425
 3042TIP3   OH2 9068   6.248   1.616   2.433
 3042TIP3    H1 9069   6.205   1.543   2.479
 3042TIP3    H2 9070   6.314   1.573   2.378
 3043TIP3   OH2 9071   6.738   1.524   2.322
 3043TIP3    H1 9072   6.774   1.578   2.252
 3043TIP3    H2 9073   6.645   1.547   2.324
 3044TIP3   OH2 9074   6.851   1.616   2.090
 3044TIP3    H1 9075   6.922   1.556   2.066
 3044TIP3    H2 9076   6.887   1.703   2.072
 3045TIP3   OH2 9077   5.475   1.310   2.432
 3045TIP3    H1 9078   5.386   1.275   2.443
 3045TIP3    H2 9079   5.531   1.232   2.425
 3046TIP3   OH2 9080   5.283   1.206   2.082
 3046TIP3    H1 9081   5.316   1.258   2.009
 3046TIP3    H2 9082   5.251   1.272   2.145
 3047TIP3   OH2 9083   5.952   1.348   2.332
 3047TIP3    H1 9084   5.998   1.397   2.264
 3047TIP3    H2 9085   5.992   1.378   2.414
 3048TIP3   OH2 9086   6.453   1.488   2.298
 3048TIP3    H1 9087   6.467   1.451   2.211
 3048TIP3    H2 9088   6.456   1.412   2.356
 3049TIP3   OH2 9089   6.503   1.439   1.882
 3049TIP3    H1 9090   6.422   1.486   1.901
 3049TIP3    H2 9091   6.491   1.352   1.921
 3050TIP3   OH2 9092   4.967   2.782   1.855
 3050TIP3    H1 9093   4.880   2.754   1.826
 3050TIP3    H2 9094   4.975   2.871   1.821
 3051TIP3   OH2 9095   5.402   1.344   1.855
 3051TIP3    H1 9096   5.445   1.281   1.797
 3051TIP3    H2 9097   5.473   1.399   1.888
 3052TIP3   OH2 9098   5.887   1.538   1.954
 3052TIP3    H1 9099   5.949   1.489   2.009
 3052TIP3    H2 9100   5.898   1.629   1.980
 3053TIP3   OH2 9101   5.761   2.919   1.420
 3053TIP3    H1 9102   5.847   2.950   1.390
 3053TIP3    H2 9103   5.745   2.840   1.369
 3054TIP3   OH2 9104   6.474   3.064   1.540
 3054TIP3    H1 9105   6.450   2.972   1.528
 3054TIP3    H2 9106   6.434   3.109   1.466
 3055TIP3   OH2 9107   5.701   1.591   3.315
 3055TIP3    H1 9108   5.667   1.525   3.375
 3055TIP3    H2 9109   5.794   1.600   3.339
 3056TIP3   OH2 9110   5.950   1.596   3.438
 3056TIP3    H1 9111   6.028   1.574   3.388
 3056TIP3    H2 9112   5.943   1.527   3.504
 3057TIP3   OH2 9113   5.063   2.767   1.496
 3057TIP3    H1 9114   5.069   2.798   1.587
 3057TIP3    H2 9115   5.147   2.725   1.480
 3058TIP3   OH2 9116   6.773   1.687   3.228
 3058TIP3    H1 9117   6.789   1.658   3.317
 3058TIP3    H2 9118   6.858   1.681   3.184
 3059TIP3   OH2 9119   6.693   3.221   2.729
 3059TIP3    H1 9120   6.617   3.190   2.679
 3059TIP3    H2 9121   6.677   3.315   2.741
 3060TIP3   OH2 9122   7.250   2.457   2.258
 3060TIP3    H1 9123   7.281   2.395   2.324
 3060TIP3    H2 9124   7.324   2.516   2.244
 3061TIP3   OH2 9125   7.237   2.887   1.937
 3061TIP3    H1 9126   7.221   2.793   1.948
 3061TIP3    H2 9127   7.332   2.895   1.926
 3062TIP3   OH2 9128   6.943   2.115   1.711
 3062TIP3    H1 9129   6.904   2.200   1.734
 3062TIP3    H2 9130   6.869   2.055   1.708
 3063TIP3   OH2 9131   7.020   2.401   1.928
 3063TIP3    H1 9132   7.067   2.324   1.957
 3063TIP3    H2 9133   7.087   2.467   1.914
 3064TIP3   OH2 9134   7.902   3.319   1.541
 3064TIP3    H1 9135   7.960   3.246   1.519
 3064TIP3    H2 9136   7.919   3.336   1.634
 3065TIP3   OH2 9137   7.741   2.835   1.897
 3065TIP3    H1 9138   7.774   2.777   1.828
 3065TIP3    H2 9139   7.816   2.890   1.919
 3066TIP3   OH2 9140   7.487   1.955   1.922
 3066TIP3    H1 9141   7.493   2.034   1.867
 3066TIP3    H2 9142   7.450   1.889   1.864
 3067TIP3   OH2 9143   7.153   2.179   2.025
 3067TIP3    H1 9144   7.232   2.158   2.075
 3067TIP3    H2 9145   7.158   2.123   1.947
 3068TIP3   OH2 9146   7.586   2.393   1.836
 3068TIP3    H1 9147   7.672   2.369   1.801
 3068TIP3    H2 9148   7.534   2.313   1.829
 3069TIP3   OH2 9149   7.513   1.969   2.368
 3069TIP3    H1 9150   7.462   2.002   2.294
 3069TIP3    H2 9151   7.456   1.984   2.444
 3070TIP3   OH2 9152   7.615   2.745   2.131
 3070TIP3    H1 9153   7.559   2.814   2.166
 3070TIP3    H2 9154   7.657   2.784   2.054
 3071TIP3   OH2 9155   7.383   2.070   2.142
 3071TIP3    H1 9156   7.441   2.145   2.156
 3071TIP3    H2 9157   7.424   2.021   2.072
 3072TIP3   OH2 9158   7.455   2.947   2.228
 3072TIP3    H1 9159   7.441   3.036   2.198
 3072TIP3    H2 9160   7.376   2.926   2.279
 3073TIP3   OH2 9161   6.825   2.675   1.483
 3073TIP3    H1 9162   6.790   2.699   1.398
 3073TIP3    H2 9163   6.857   2.757   1.520
 3074TIP3   OH2 9164   7.380   2.533   1.708
 3074TIP3    H1 9165   7.327   2.471   1.658
 3074TIP3    H2 9166   7.452   2.481   1.743
 3075TIP3   OH2 9167   7.491   2.945   1.834
 3075TIP3    H1 9168   7.473   2.928   1.742
 3075TIP3    H2 9169   7.577   2.905   1.849
 3076TIP3   OH2 9170   7.480   2.517   2.061
 3076TIP3    H1 9171   7.524   2.483   1.983
 3076TIP3    H2 9172   7.530   2.596   2.084
 3077TIP3   OH2 9173   7.641   3.046   2.409
 3077TIP3    H1 9174   7.579   3.105   2.451
 3077TIP3    H2 9175   7.588   2.994   2.349
 3078TIP3   OH2 9176   7.390   2.625   2.500
 3078TIP3    H1 9177   7.393   2.712   2.538
 3078TIP3    H2 9178   7.301   2.595   2.515
 3079TIP3   OH2 9179   7.727   3.142   1.411
 3079TIP3    H1 9180   7.765   3.213   1.464
 3079TIP3    H2 9181   7.667   3.187   1.351
 3080TIP3   OH2 9182   7.436   3.212   2.486
 3080TIP3    H1 9183   7.411   3.221   2.394
 3080TIP3    H2 9184   7.354   3.193   2.531
 3081TIP3   OH2 9185   7.214   2.369   1.557
 3081TIP3    H1 9186   7.132   2.401   1.519
 3081TIP3    H2 9187   7.194   2.279   1.584
 3082TIP3   OH2 9188   7.034   2.766   2.419
 3082TIP3    H1 9189   6.963   2.745   2.357
 3082TIP3    H2 9190   7.065   2.680   2.449
 3083TIP3   OH2 9191   6.882   2.954   2.063
 3083TIP3    H1 9192   6.975   2.969   2.080
 3083TIP3    H2 9193   6.837   3.029   2.102
 3084TIP3   OH2 9194   7.820   3.175   2.242
 3084TIP3    H1 9195   7.832   3.265   2.272
 3084TIP3    H2 9196   7.760   3.137   2.305
 3085TIP3   OH2 9197   7.606   3.308   1.223
 3085TIP3    H1 9198   7.579   3.289   1.134
 3085TIP3    H2 9199   7.576   3.397   1.239
 3086TIP3   OH2 9200   7.054   3.149   1.581
 3086TIP3    H1 9201   7.099   3.140   1.665
 3086TIP3    H2 9202   7.006   3.067   1.571
 3087TIP3   OH2 9203   7.852   3.239   1.111
 3087TIP3    H1 9204   7.778   3.264   1.167
 3087TIP3    H2 9205   7.893   3.165   1.156
 3088TIP3   OH2 9206   7.232   2.954   2.390
 3088TIP3    H1 9207   7.280   2.945   2.472
 3088TIP3    H2 9208   7.161   2.890   2.397
 3089TIP3   OH2 9209   7.598   1.739   2.242
 3089TIP3    H1 9210   7.512   1.721   2.202
 3089TIP3    H2 9211   7.586   1.822   2.288
 3090TIP3   OH2 9212   7.539   2.286   2.200
 3090TIP3    H1 9213   7.496   2.291   2.285
 3090TIP3    H2 9214   7.514   2.367   2.156
 3091TIP3   OH2 9215   7.425   2.184   1.775
 3091TIP3    H1 9216   7.339   2.143   1.788
 3091TIP3    H2 9217   7.440   2.180   1.681
 3092TIP3   OH2 9218   7.381   2.279   2.430
 3092TIP3    H1 9219   7.449   2.324   2.480
 3092TIP3    H2 9220   7.363   2.200   2.481
 3093TIP3   OH2 9221   7.478   1.657   1.227
 3093TIP3    H1 9222   7.541   1.653   1.299
 3093TIP3    H2 9223   7.458   1.751   1.218
 3094TIP3   OH2 9224   6.989   1.832   1.998
 3094TIP3    H1 9225   7.051   1.862   2.064
 3094TIP3    H2 9226   7.043   1.784   1.935
 3095TIP3   OH2 9227   6.931   1.848   1.562
 3095TIP3    H1 9228   6.984   1.908   1.511
 3095TIP3    H2 9229   6.849   1.896   1.578
 3096TIP3   OH2 9230   7.194   2.038   1.789
 3096TIP3    H1 9231   7.105   2.051   1.756
 3096TIP3    H2 9232   7.215   1.947   1.767
 3097TIP3   OH2 9233   7.468   2.157   1.510
 3097TIP3    H1 9234   7.540   2.095   1.498
 3097TIP3    H2 9235   7.429   2.165   1.423
 3098TIP3   OH2 9236   7.376   2.192   1.255
 3098TIP3    H1 9237   7.280   2.189   1.250
 3098TIP3    H2 9238   7.403   2.227   1.170
 3099TIP3   OH2 9239   7.389   2.878   2.622
 3099TIP3    H1 9240   7.469   2.899   2.670
 3099TIP3    H2 9241   7.320   2.876   2.690
 3100TIP3   OH2 9242   7.340   1.784   1.747
 3100TIP3    H1 9243   7.300   1.730   1.814
 3100TIP3    H2 9244   7.393   1.723   1.695
 3101TIP3   OH2 9245   7.807   2.216   2.193
 3101TIP3    H1 9246   7.713   2.231   2.185
 3101TIP3    H2 9247   7.840   2.293   2.238
 3102TIP3   OH2 9248   7.531   2.659   1.267
 3102TIP3    H1 9249   7.475   2.582   1.279
 3102TIP3    H2 9250   7.554   2.686   1.356
 3103TIP3   OH2 9251   7.943   2.916   2.302
 3103TIP3    H1 9252   8.007   2.944   2.367
 3103TIP3    H2 9253   7.909   2.998   2.266
 3104TIP3   OH2 9254   7.238   2.596   1.935
 3104TIP3    H1 9255   7.281   2.586   1.850
 3104TIP3    H2 9256   7.303   2.564   1.999
 3105TIP3   OH2 9257   7.699   2.770   1.065
 3105TIP3    H1 9258   7.666   2.858   1.082
 3105TIP3    H2 9259   7.661   2.716   1.135
 3106TIP3   OH2 9260   7.125   2.540   2.556
 3106TIP3    H1 9261   7.134   2.508   2.645
 3106TIP3    H2 9262   7.055   2.486   2.519
 3107TIP3   OH2 9263   7.883   2.661   2.561
 3107TIP3    H1 9264   7.822   2.638   2.491
 3107TIP3    H2 9265   7.964   2.614   2.539
 3108TIP3   OH2 9266   7.370   2.939   1.582
 3108TIP3    H1 9267   7.370   3.016   1.525
 3108TIP3    H2 9268   7.278   2.925   1.603
 3109TIP3   OH2 9269   6.850   2.305   1.260
 3109TIP3    H1 9270   6.907   2.362   1.312
 3109TIP3    H2 9271   6.790   2.266   1.324
 3110TIP3   OH2 9272   7.515   2.708   1.539
 3110TIP3    H1 9273   7.471   2.792   1.547
 3110TIP3    H2 9274   7.468   2.650   1.598
 3111TIP3   OH2 9275   7.644   3.256   2.041
 3111TIP3    H1 9276   7.682   3.329   1.992
 3111TIP3    H2 9277   7.715   3.223   2.095
 3112TIP3   OH2 9278   7.286   3.167   1.437
 3112TIP3    H1 9279   7.200   3.171   1.478
 3112TIP3    H2 9280   7.317   3.258   1.437
 3113TIP3   OH2 9281   7.339   2.035   2.571
 3113TIP3    H1 9282   7.244   2.044   2.579
 3113TIP3    H2 9283   7.364   1.978   2.643
 3114TIP3   OH2 9284   7.084   3.146   2.201
 3114TIP3    H1 9285   7.135   3.082   2.251
 3114TIP3    H2 9286   7.090   3.227   2.251
 3115TIP3   OH2 9287   7.335   2.834   0.904
 3115TIP3    H1 9288   7.402   2.778   0.865
 3115TIP3    H2 9289   7.341   2.817   0.998
 3116TIP3   OH2 9290   7.303   2.782   1.167
 3116TIP3    H1 9291   7.382   2.747   1.208
 3116TIP3    H2 9292   7.304   2.875   1.189
 3117TIP3   OH2 9293   7.006   2.475   1.410
 3117TIP3    H1 9294   6.954   2.550   1.441
 3117TIP3    H2 9295   7.047   2.506   1.329
 3118TIP3   OH2 9296   7.566   2.999   1.113
 3118TIP3    H1 9297   7.480   3.014   1.153
 3118TIP3    H2 9298   7.591   3.085   1.078
 3119TIP3   OH2 9299   7.308   3.055   1.190
 3119TIP3    H1 9300   7.285   3.123   1.127
 3119TIP3    H2 9301   7.298   3.096   1.276
 3120TIP3   OH2 9302   7.390   1.858   1.472
 3120TIP3    H1 9303   7.350   1.855   1.559
 3120TIP3    H2 9304   7.480   1.885   1.488
 3121TIP3   OH2 9305   7.000   2.754   1.190
 3121TIP3    H1 9306   7.063   2.825   1.178
 3121TIP3    H2 9307   7.052   2.674   1.179
 3122TIP3   OH2 9308   7.043   1.982   1.353
 3122TIP3    H1 9309   7.087   2.055   1.309
 3122TIP3    H2 9310   6.951   1.992   1.328
 3123TIP3   OH2 9311   7.335   1.670   2.171
 3123TIP3    H1 9312   7.315   1.638   2.083
 3123TIP3    H2 9313   7.336   1.591   2.225
 3124TIP3   OH2 9314   6.878   2.933   1.566
 3124TIP3    H1 9315   6.844   2.974   1.645
 3124TIP3    H2 9316   6.829   2.974   1.495
 3125TIP3   OH2 9317   7.079   3.455   2.620
 3125TIP3    H1 9318   7.161   3.458   2.669
 3125TIP3    H2 9319   7.055   3.363   2.619
 3126TIP3   OH2 9320   7.528   3.320   2.725
 3126TIP3    H1 9321   7.623   3.319   2.717
 3126TIP3    H2 9322   7.497   3.287   2.641
 3127TIP3   OH2 9323   7.519   3.025   0.807
 3127TIP3    H1 9324   7.458   2.966   0.851
 3127TIP3    H2 9325   7.585   2.967   0.768
 3128TIP3   OH2 9326   7.188   2.852   2.811
 3128TIP3    H1 9327   7.207   2.759   2.818
 3128TIP3    H2 9328   7.101   2.856   2.771
 3129TIP3   OH2 9329   7.124   2.509   1.162
 3129TIP3    H1 9330   7.214   2.499   1.193
 3129TIP3    H2 9331   7.133   2.528   1.068
 3130TIP3   OH2 9332   7.813   2.933   2.589
 3130TIP3    H1 9333   7.761   2.956   2.512
 3130TIP3    H2 9334   7.837   2.841   2.576
 3131TIP3   OH2 9335   7.859   2.687   0.842
 3131TIP3    H1 9336   7.834   2.740   0.918
 3131TIP3    H2 9337   7.848   2.597   0.871
 3132TIP3   OH2 9338   7.314   2.600   2.817
 3132TIP3    H1 9339   7.391   2.556   2.780
 3132TIP3    H2 9340   7.340   2.622   2.906
 3133TIP3   OH2 9341   7.350   2.461   1.331
 3133TIP3    H1 9342   7.311   2.450   1.417
 3133TIP3    H2 9343   7.358   2.371   1.297
 3134TIP3   OH2 9344   7.601   2.452   2.470
 3134TIP3    H1 9345   7.532   2.516   2.486
 3134TIP3    H2 9346   7.660   2.496   2.409
 3135TIP3   OH2 9347   7.583   2.197   1.047
 3135TIP3    H1 9348   7.557   2.122   0.994
 3135TIP3    H2 9349   7.676   2.208   1.029
 3136TIP3   OH2 9350   7.750   2.270   2.624
 3136TIP3    H1 9351   7.766   2.193   2.570
 3136TIP3    H2 9352   7.704   2.331   2.566
 3137TIP3   OH2 9353   7.762   2.074   2.432
 3137TIP3    H1 9354   7.798   2.092   2.345
 3137TIP3    H2 9355   7.683   2.024   2.416
 3138TIP3   OH2 9356   7.773   2.605   2.310
 3138TIP3    H1 9357   7.857   2.634   2.275
 3138TIP3    H2 9358   7.708   2.651   2.256
 3139TIP3   OH2 9359   7.608   2.366   2.838
 3139TIP3    H1 9360   7.555   2.290   2.861
 3139TIP3    H2 9361   7.658   2.338   2.761
 3140TIP3   OH2 9362   7.476   2.125   2.892
 3140TIP3    H1 9363   7.484   2.039   2.852
 3140TIP3    H2 9364   7.514   2.115   2.979
 3141TIP3   OH2 9365   7.306   3.265   1.007
 3141TIP3    H1 9366   7.400   3.262   0.990
 3141TIP3    H2 9367   7.269   3.309   0.931
 3142TIP3   OH2 9368   6.737   2.705   1.220
 3142TIP3    H1 9369   6.830   2.723   1.206
 3142TIP3    H2 9370   6.724   2.617   1.183
 3143TIP3   OH2 9371   6.677   3.227   1.637
 3143TIP3    H1 9372   6.618   3.169   1.589
 3143TIP3    H2 9373   6.722   3.170   1.700
 3144TIP3   OH2 9374   6.825   3.068   1.809
 3144TIP3    H1 9375   6.821   3.000   1.876
 3144TIP3    H2 9376   6.876   3.139   1.849
 3145TIP3   OH2 9377   6.993   2.503   2.182
 3145TIP3    H1 9378   6.986   2.466   2.094
 3145TIP3    H2 9379   7.086   2.494   2.205
 3146TIP3   OH2 9380   7.214   2.178   2.832
 3146TIP3    H1 9381   7.308   2.176   2.847
 3146TIP3    H2 9382   7.182   2.097   2.871
 3147TIP3   OH2 9383   7.175   1.891   2.195
 3147TIP3    H1 9384   7.228   1.811   2.199
 3147TIP3    H2 9385   7.238   1.962   2.187
 3148TIP3   OH2 9386   6.975   2.157   2.244
 3148TIP3    H1 9387   7.025   2.153   2.162
 3148TIP3    H2 9388   7.020   2.225   2.295
 3149TIP3   OH2 9389   6.951   1.650   1.749
 3149TIP3    H1 9390   6.864   1.642   1.789
 3149TIP3    H2 9391   6.944   1.727   1.692
 3150TIP3   OH2 9392   7.190   1.717   2.567
 3150TIP3    H1 9393   7.140   1.714   2.649
 3150TIP3    H2 9394   7.134   1.767   2.508
 3151TIP3   OH2 9395   7.217   3.174   2.652
 3151TIP3    H1 9396   7.124   3.160   2.635
 3151TIP3    H2 9397   7.227   3.156   2.746
 3152TIP3   OH2 9398   7.422   3.222   2.199
 3152TIP3    H1 9399   7.367   3.292   2.165
 3152TIP3    H2 9400   7.505   3.231   2.152
 3153TIP3   OH2 9401   7.842   3.449   2.315
 3153TIP3    H1 9402   7.874   3.447   2.405
 3153TIP3    H2 9403   7.904   3.504   2.268
 3154TIP3   OH2 9404   8.006   3.644   2.186
 3154TIP3    H1 9405   8.032   3.697   2.110
 3154TIP3    H2 9406   8.034   3.697   2.261
 3155TIP3   OH2 9407   7.081   3.475   2.231
 3155TIP3    H1 9408   6.988   3.489   2.213
 3155TIP3    H2 9409   7.102   3.538   2.300
 3156TIP3   OH2 9410   7.307   3.445   2.082
 3156TIP3    H1 9411   7.225   3.453   2.131
 3156TIP3    H2 9412   7.284   3.469   1.992
 3157TIP3   OH2 9413   7.711   3.469   1.875
 3157TIP3    H1 9414   7.635   3.487   1.820
 3157TIP3    H2 9415   7.723   3.549   1.926
 3158TIP3   OH2 9416   7.954   3.369   1.802
 3158TIP3    H1 9417   7.869   3.402   1.832
 3158TIP3    H2 9418   8.015   3.393   1.873
 3159TIP3   OH2 9419   6.999   3.246   1.953
 3159TIP3    H1 9420   7.021   3.219   2.042
 3159TIP3    H2 9421   7.071   3.211   1.899
 3160TIP3   OH2 9422   7.198   3.127   1.812
 3160TIP3    H1 9423   7.207   3.044   1.859
 3160TIP3    H2 9424   7.285   3.167   1.818
 3161TIP3   OH2 9425   7.462   3.221   1.834
 3161TIP3    H1 9426   7.478   3.128   1.820
 3161TIP3    H2 9427   7.514   3.243   1.911
 3162TIP3   OH2 9428   7.261   1.582   1.917
 3162TIP3    H1 9429   7.175   1.543   1.931
 3162TIP3    H2 9430   7.321   1.508   1.916
 3163TIP3   OH2 9431   7.120   1.471   1.625
 3163TIP3    H1 9432   7.135   1.514   1.541
 3163TIP3    H2 9433   7.060   1.530   1.671
 3164TIP3   OH2 9434   6.741   3.042   1.355
 3164TIP3    H1 9435   6.667   3.005   1.308
 3164TIP3    H2 9436   6.752   3.130   1.318
 3165TIP3   OH2 9437   7.271   1.542   1.391
 3165TIP3    H1 9438   7.253   1.461   1.344
 3165TIP3    H2 9439   7.318   1.596   1.328
 3166TIP3   OH2 9440   7.579   3.240   0.958
 3166TIP3    H1 9441   7.669   3.264   0.937
 3166TIP3    H2 9442   7.558   3.170   0.896
 3167TIP3   OH2 9443   7.476   1.853   2.794
 3167TIP3    H1 9444   7.438   1.784   2.848
 3167TIP3    H2 9445   7.567   1.859   2.824
 3168TIP3   OH2 9446   7.711   1.855   2.940
 3168TIP3    H1 9447   7.799   1.841   2.905
 3168TIP3    H2 9448   7.701   1.788   3.007
 3169TIP3   OH2 9449   6.842   3.058   1.020
 3169TIP3    H1 9450   6.834   3.108   1.102
 3169TIP3    H2 9451   6.930   3.021   1.024
 3170TIP3   OH2 9452   0.426   3.385   3.170
 3170TIP3    H1 9453   0.397   3.470   3.137
 3170TIP3    H2 9454   0.351   3.327   3.157
 3171TIP3   OH2 9455   0.442   3.373   3.584
 3171TIP3    H1 9456   0.491   3.357   3.665
 3171TIP3    H2 9457   0.400   3.289   3.564
 3172TIP3   OH2 9458   8.226   3.341   3.868
 3172TIP3    H1 9459   8.200   3.394   3.944
 3172TIP3    H2 9460   8.318   3.322   3.882
 3173TIP3   OH2 9461   0.686   3.695   3.262
 3173TIP3    H1 9462   0.677   3.626   3.328
 3173TIP3    H2 9463   0.710   3.773   3.312
 3174TIP3   OH2 9464   8.192   3.698   3.522
 3174TIP3    H1 9465   8.181   3.604   3.537
 3174TIP3    H2 9466   8.227   3.731   3.605
 3175TIP3   OH2 9467   7.988   3.138   3.556
 3175TIP3    H1 9468   7.970   3.051   3.591
 3175TIP3    H2 9469   8.081   3.152   3.573
 3176TIP3   OH2 9470   0.354   4.114   3.297
 3176TIP3    H1 9471   0.372   4.055   3.224
 3176TIP3    H2 9472   0.376   4.064   3.375
 3177TIP3   OH2 9473   0.289   3.600   3.606
 3177TIP3    H1 9474   0.334   3.518   3.587
 3177TIP3    H2 9475   0.360   3.660   3.630
 3178TIP3   OH2 9476   1.240   2.903   3.629
 3178TIP3    H1 9477   1.260   2.985   3.674
 3178TIP3    H2 9478   1.266   2.918   3.538
 3179TIP3   OH2 9479   0.643   3.101   3.625
 3179TIP3    H1 9480   0.671   3.015   3.655
 3179TIP3    H2 9481   0.604   3.085   3.540
 3180TIP3   OH2 9482   8.505   2.750   3.563
 3180TIP3    H1 9483   8.485   2.826   3.509
 3180TIP3    H2 9484   8.445   2.682   3.534
 3181TIP3   OH2 9485   0.691   2.856   3.224
 3181TIP3    H1 9486   0.754   2.846   3.296
 3181TIP3    H2 9487   0.743   2.890   3.151
 3182TIP3   OH2 9488   8.133   2.954   3.742
 3182TIP3    H1 9489   8.203   2.909   3.789
 3182TIP3    H2 9490   8.179   3.021   3.691
 3183TIP3   OH2 9491   0.089   3.176   3.471
 3183TIP3    H1 9492   0.178   3.155   3.496
 3183TIP3    H2 9493   0.048   3.091   3.452
 3184TIP3   OH2 9494   1.295   3.129   3.780
 3184TIP3    H1 9495   1.228   3.190   3.749
 3184TIP3    H2 9496   1.262   3.097   3.864
 3185TIP3   OH2 9497   8.522   2.753   4.012
 3185TIP3    H1 9498   8.460   2.781   3.945
 3185TIP3    H2 9499   8.468   2.710   4.078
 3186TIP3   OH2 9500   0.334   3.591   3.011
 3186TIP3    H1 9501   0.301   3.568   2.923
 3186TIP3    H2 9502   0.286   3.670   3.035
 3187TIP3   OH2 9503   0.100   3.512   3.790
 3187TIP3    H1 9504   0.049   3.570   3.847
 3187TIP3    H2 9505   0.162   3.571   3.747
 3188TIP3   OH2 9506   0.848   2.864   3.450
 3188TIP3    H1 9507   0.799   2.854   3.531
 3188TIP3    H2 9508   0.904   2.941   3.464
 3189TIP3   OH2 9509   8.390   2.851   3.789
 3189TIP3    H1 9510   8.443   2.929   3.808
 3189TIP3    H2 9511   8.437   2.807   3.718
 3190TIP3   OH2 9512   8.414   3.664   3.932
 3190TIP3    H1 9513   8.381   3.689   3.845
 3190TIP3    H2 9514   8.343   3.685   3.992
 3191TIP3   OH2 9515   0.721   3.941   3.401
 3191TIP3    H1 9516   0.631   3.933   3.433
 3191TIP3    H2 9517   0.723   4.025   3.355
 3192TIP3   OH2 9518   1.011   2.781   3.766
 3192TIP3    H1 9519   0.945   2.847   3.745
 3192TIP3    H2 9520   1.091   2.813   3.724
 3193TIP3   OH2 9521   0.382   2.466   3.760
 3193TIP3    H1 9522   0.366   2.372   3.774
 3193TIP3    H2 9523   0.306   2.509   3.799
 3194TIP3   OH2 9524   0.436   3.977   3.064
 3194TIP3    H1 9525   0.490   3.898   3.056
 3194TIP3    H2 9526   0.491   4.048   3.032
 3195TIP3   OH2 9527   0.574   3.749   3.018
 3195TIP3    H1 9528   0.517   3.673   3.004
 3195TIP3    H2 9529   0.624   3.726   3.096
 3196TIP3   OH2 9530   0.963   3.832   3.741
 3196TIP3    H1 9531   0.944   3.757   3.684
 3196TIP3    H2 9532   0.946   3.909   3.686
 3197TIP3   OH2 9533   0.242   3.235   3.012
 3197TIP3    H1 9534   0.168   3.289   2.988
 3197TIP3    H2 9535   0.300   3.236   2.935
 3198TIP3   OH2 9536   0.236   3.045   2.718
 3198TIP3    H1 9537   0.303   3.096   2.764
 3198TIP3    H2 9538   0.283   2.970   2.682
 3199TIP3   OH2 9539   1.140   3.497   3.605
 3199TIP3    H1 9540   1.056   3.542   3.604
 3199TIP3    H2 9541   1.175   3.508   3.516
 3200TIP3   OH2 9542   0.616   3.333   2.981
 3200TIP3    H1 9543   0.561   3.354   3.056
 3200TIP3    H2 9544   0.699   3.303   3.019
 3201TIP3   OH2 9545   0.841   3.347   3.923
 3201TIP3    H1 9546   0.837   3.429   3.971
 3201TIP3    H2 9547   0.757   3.341   3.877
 3202TIP3   OH2 9548   8.353   3.282   3.387
 3202TIP3    H1 9549   8.327   3.232   3.309
 3202TIP3    H2 9550   8.442   3.255   3.405
 3203TIP3   OH2 9551   0.045   3.570   3.488
 3203TIP3    H1 9552   0.002   3.543   3.569
 3203TIP3    H2 9553   0.137   3.581   3.512
 3204TIP3   OH2 9554  -0.025   3.289   3.695
 3204TIP3    H1 9555   0.030   3.268   3.620
 3204TIP3    H2 9556   0.020   3.363   3.738
 3205TIP3   OH2 9557   0.476   3.928   3.520
 3205TIP3    H1 9558   0.479   4.008   3.573
 3205TIP3    H2 9559   0.482   3.857   3.584
 3206TIP3   OH2 9560   0.086   3.843   4.049
 3206TIP3    H1 9561   0.033   3.891   4.113
 3206TIP3    H2 9562   0.030   3.770   4.022
 3207TIP3   OH2 9563   0.443   3.200   2.817
 3207TIP3    H1 9564   0.505   3.255   2.865
 3207TIP3    H2 9565   0.469   3.208   2.726
 3208TIP3   OH2 9566   8.347   3.463   4.176
 3208TIP3    H1 9567   8.387   3.538   4.221
 3208TIP3    H2 9568   8.255   3.487   4.167
 3209TIP3   OH2 9569   0.204   3.833   3.036
 3209TIP3    H1 9570   0.282   3.886   3.051
 3209TIP3    H2 9571   0.136   3.875   3.090
 3210TIP3   OH2 9572   8.398   4.033   4.144
 3210TIP3    H1 9573   8.336   3.982   4.092
 3210TIP3    H2 9574   8.367   4.023   4.234
 3211TIP3   OH2 9575   0.951   2.408   2.868
 3211TIP3    H1 9576   0.872   2.430   2.918
 3211TIP3    H2 9577   0.965   2.483   2.811
 3212TIP3   OH2 9578   8.248   3.115   3.188
 3212TIP3    H1 9579   8.169   3.164   3.170
 3212TIP3    H2 9580   8.217   3.030   3.220
 3213TIP3   OH2 9581   0.771   3.779   2.421
 3213TIP3    H1 9582   0.769   3.872   2.397
 3213TIP3    H2 9583   0.860   3.750   2.399
 3214TIP3   OH2 9584   1.194   4.194   3.808
 3214TIP3    H1 9585   1.199   4.099   3.820
 3214TIP3    H2 9586   1.115   4.220   3.856
 3215TIP3   OH2 9587   0.301   3.950   3.923
 3215TIP3    H1 9588   0.310   4.042   3.949
 3215TIP3    H2 9589   0.228   3.917   3.975
 3216TIP3   OH2 9590   0.065   4.066   2.868
 3216TIP3    H1 9591   0.033   4.067   2.778
 3216TIP3    H2 9592   0.053   4.156   2.899
 3217TIP3   OH2 9593   0.292   4.005   2.524
 3217TIP3    H1 9594   0.341   3.931   2.488
 3217TIP3    H2 9595   0.323   4.013   2.614
 3218TIP3   OH2 9596   0.329   4.031   2.798
 3218TIP3    H1 9597   0.240   4.035   2.833
 3218TIP3    H2 9598   0.382   3.999   2.870
 3219TIP3   OH2 9599   1.085   3.312   4.079
 3219TIP3    H1 9600   1.001   3.316   4.034
 3219TIP3    H2 9601   1.110   3.219   4.076
 3220TIP3   OH2 9602   0.159   2.556   3.876
 3220TIP3    H1 9603   0.119   2.476   3.911
 3220TIP3    H2 9604   0.109   2.627   3.915
 3221TIP3   OH2 9605   0.628   2.654   4.095
 3221TIP3    H1 9606   0.694   2.640   4.163
 3221TIP3    H2 9607   0.544   2.638   4.139
 3222TIP3   OH2 9608   0.867   3.076   4.002
 3222TIP3    H1 9609   0.822   3.069   4.087
 3222TIP3    H2 9610   0.846   3.164   3.971
 3223TIP3   OH2 9611   0.512   3.195   2.556
 3223TIP3    H1 9612   0.471   3.179   2.470
 3223TIP3    H2 9613   0.597   3.234   2.535
 3224TIP3   OH2 9614   0.217   2.635   2.856
 3224TIP3    H1 9615   0.191   2.619   2.946
 3224TIP3    H2 9616   0.179   2.562   2.806
 3225TIP3   OH2 9617   0.043   3.069   3.857
 3225TIP3    H1 9618   0.008   3.068   3.946
 3225TIP3    H2 9619   0.020   3.155   3.822
 3226TIP3   OH2 9620   8.433   2.961   3.404
 3226TIP3    H1 9621   8.340   2.943   3.421
 3226TIP3    H2 9622   8.449   2.924   3.317
 3227TIP3   OH2 9623   0.382   3.038   3.148
 3227TIP3    H1 9624   0.328   3.106   3.107
 3227TIP3    H2 9625   0.441   3.009   3.078
 3228TIP3   OH2 9626   0.585   3.292   4.221
 3228TIP3    H1 9627   0.553   3.226   4.283
 3228TIP3    H2 9628   0.677   3.303   4.243
 3229TIP3   OH2 9629   0.545   3.041   3.375
 3229TIP3    H1 9630   0.479   3.065   3.310
 3229TIP3    H2 9631   0.592   2.967   3.336
 3230TIP3   OH2 9632   8.427   3.044   4.102
 3230TIP3    H1 9633   8.386   3.097   4.171
 3230TIP3    H2 9634   8.440   2.958   4.142
 3231TIP3   OH2 9635   7.925   2.565   3.738
 3231TIP3    H1 9636   8.012   2.605   3.750
 3231TIP3    H2 9637   7.907   2.577   3.645
 3232TIP3   OH2 9638   0.591   3.294   3.807
 3232TIP3    H1 9639   0.616   3.228   3.743
 3232TIP3    H2 9640   0.547   3.245   3.877
 3233TIP3   OH2 9641   0.268   2.750   3.469
 3233TIP3    H1 9642   0.187   2.746   3.520
 3233TIP3    H2 9643   0.337   2.742   3.535
 3234TIP3   OH2 9644   8.189   2.844   3.390
 3234TIP3    H1 9645   8.102   2.847   3.428
 3234TIP3    H2 9646   8.220   2.755   3.407
 3235TIP3   OH2 9647   8.442   2.829   3.166
 3235TIP3    H1 9648   8.536   2.837   3.149
 3235TIP3    H2 9649   8.400   2.848   3.082
 3236TIP3   OH2 9650   0.698   2.838   3.682
 3236TIP3    H1 9651   0.684   2.852   3.776
 3236TIP3    H2 9652   0.625   2.782   3.655
 3237TIP3   OH2 9653   8.305   2.880   2.936
 3237TIP3    H1 9654   8.213   2.903   2.925
 3237TIP3    H2 9655   8.346   2.902   2.853
 3238TIP3   OH2 9656   0.912   4.535   3.904
 3238TIP3    H1 9657   0.904   4.553   3.810
 3238TIP3    H2 9658   0.990   4.584   3.931
 3239TIP3   OH2 9659   8.392   3.702   4.305
 3239TIP3    H1 9660   8.340   3.672   4.380
 3239TIP3    H2 9661   8.327   3.732   4.242
 3240TIP3   OH2 9662   0.335   3.108   3.568
 3240TIP3    H1 9663   0.399   3.057   3.519
 3240TIP3    H2 9664   0.332   3.068   3.654
 3241TIP3   OH2 9665   8.303   2.592   3.455
 3241TIP3    H1 9666   8.284   2.516   3.511
 3241TIP3    H2 9667   8.326   2.554   3.370
 3242TIP3   OH2 9668   0.313   3.015   3.828
 3242TIP3    H1 9669   0.222   3.040   3.844
 3242TIP3    H2 9670   0.363   3.068   3.891
 3243TIP3   OH2 9671   8.513   3.405   2.934
 3243TIP3    H1 9672   8.458   3.327   2.922
 3243TIP3    H2 9673   8.498   3.430   3.025
 3244TIP3   OH2 9674   0.902   3.631   3.563
 3244TIP3    H1 9675   0.939   3.679   3.489
 3244TIP3    H2 9676   0.825   3.586   3.528
 3245TIP3   OH2 9677   0.481   2.707   2.863
 3245TIP3    H1 9678   0.386   2.695   2.859
 3245TIP3    H2 9679   0.492   2.801   2.879
 3246TIP3   OH2 9680   0.424   3.697   3.967
 3246TIP3    H1 9681   0.465   3.689   4.053
 3246TIP3    H2 9682   0.385   3.784   3.967
 3247TIP3   OH2 9683   0.549   2.965   2.935
 3247TIP3    H1 9684   0.644   2.965   2.949
 3247TIP3    H2 9685   0.532   3.045   2.885
 3248TIP3   OH2 9686   8.207   3.438   3.602
 3248TIP3    H1 9687   8.266   3.388   3.545
 3248TIP3    H2 9688   8.227   3.405   3.690
 3249TIP3   OH2 9689   0.192   3.536   2.771
 3249TIP3    H1 9690   0.151   3.622   2.772
 3249TIP3    H2 9691   0.134   3.481   2.824
 3250TIP3   OH2 9692   0.372   3.466   4.258
 3250TIP3    H1 9693   0.304   3.400   4.241
 3250TIP3    H2 9694   0.453   3.423   4.231
 3251TIP3   OH2 9695   0.577   3.992   3.855
 3251TIP3    H1 9696   0.483   3.975   3.858
 3251TIP3    H2 9697   0.597   4.035   3.938
 3252TIP3   OH2 9698   0.955   3.042   2.754
 3252TIP3    H1 9699   0.898   2.997   2.692
 3252TIP3    H2 9700   0.961   3.131   2.721
 3253TIP3   OH2 9701   1.206   3.915   3.832
 3253TIP3    H1 9702   1.112   3.899   3.827
 3253TIP3    H2 9703   1.240   3.884   3.749
 3254TIP3   OH2 9704   0.686   3.855   2.682
 3254TIP3    H1 9705   0.667   3.784   2.743
 3254TIP3    H2 9706   0.711   3.811   2.601
 3255TIP3   OH2 9707   0.681   3.491   3.459
 3255TIP3    H1 9708   0.594   3.468   3.492
 3255TIP3    H2 9709   0.714   3.409   3.421
 3256TIP3   OH2 9710   8.234   3.640   3.241
 3256TIP3    H1 9711   8.282   3.687   3.174
 3256TIP3    H2 9712   8.256   3.686   3.323
 3257TIP3   OH2 9713   7.517   1.343   1.383
 3257TIP3    H1 9714   7.611   1.362   1.379
 3257TIP3    H2 9715   7.486   1.393   1.458
 3258TIP3   OH2 9716   8.445   3.463   3.187
 3258TIP3    H1 9717   8.373   3.526   3.197
 3258TIP3    H2 9718   8.453   3.422   3.273
 3259TIP3   OH2 9719   0.134   3.990   3.697
 3259TIP3    H1 9720   0.168   4.074   3.667
 3259TIP3    H2 9721   0.196   3.963   3.765
 3260TIP3   OH2 9722   8.244   3.982   3.081
 3260TIP3    H1 9723   8.171   3.978   3.143
 3260TIP3    H2 9724   8.284   4.068   3.096
 3261TIP3   OH2 9725   0.515   3.718   3.706
 3261TIP3    H1 9726   0.486   3.707   3.797
 3261TIP3    H2 9727   0.606   3.689   3.707
 3262TIP3   OH2 9728   0.452   3.593   2.596
 3262TIP3    H1 9729   0.518   3.571   2.662
 3262TIP3    H2 9730   0.369   3.568   2.637
 3263TIP3   OH2 9731   0.726   4.219   3.751
 3263TIP3    H1 9732   0.655   4.156   3.758
 3263TIP3    H2 9733   0.703   4.272   3.674
 3264TIP3   OH2 9734   0.784   4.049   2.370
 3264TIP3    H1 9735   0.817   4.116   2.310
 3264TIP3    H2 9736   0.710   4.092   2.414
 3265TIP3   OH2 9737   8.381   2.819   4.269
 3265TIP3    H1 9738   8.332   2.768   4.205
 3265TIP3    H2 9739   8.423   2.754   4.324
 3266TIP3   OH2 9740   0.640   3.521   2.778
 3266TIP3    H1 9741   0.624   3.464   2.853
 3266TIP3    H2 9742   0.735   3.524   2.769
 3267TIP3   OH2 9743   8.321   3.537   2.513
 3267TIP3    H1 9744   8.345   3.449   2.485
 3267TIP3    H2 9745   8.313   3.531   2.608
 3268TIP3   OH2 9746   8.321   3.563   2.782
 3268TIP3    H1 9747   8.386   3.524   2.840
 3268TIP3    H2 9748   8.319   3.656   2.807
 3269TIP3   OH2 9749   8.051   3.302   3.125
 3269TIP3    H1 9750   8.055   3.387   3.168
 3269TIP3    H2 9751   8.055   3.323   3.031
 3270TIP3   OH2 9752   0.660   2.888   3.948
 3270TIP3    H1 9753   0.739   2.930   3.982
 3270TIP3    H2 9754   0.647   2.811   4.005
 3271TIP3   OH2 9755   0.539   2.643   3.129
 3271TIP3    H1 9756   0.517   2.663   3.038
 3271TIP3    H2 9757   0.583   2.721   3.162
 3272TIP3   OH2 9758   0.066   3.772   2.805
 3272TIP3    H1 9759   0.108   3.810   2.882
 3272TIP3    H2 9760   0.045   3.846   2.749
 3273TIP3   OH2 9761   0.216   2.830   3.211
 3273TIP3    H1 9762   0.274   2.903   3.191
 3273TIP3    H2 9763   0.231   2.812   3.304
 3274TIP3   OH2 9764   0.499   3.126   4.004
 3274TIP3    H1 9765   0.524   3.174   4.083
 3274TIP3    H2 9766   0.549   3.045   4.009
 3275TIP3   OH2 9767   0.359   2.537   3.312
 3275TIP3    H1 9768   0.336   2.614   3.364
 3275TIP3    H2 9769   0.426   2.569   3.252
 3276TIP3   OH2 9770   8.257   3.843   2.842
 3276TIP3    H1 9771   8.250   3.910   2.774
 3276TIP3    H2 9772   8.235   3.888   2.923
 3277TIP3   OH2 9773   8.377   2.560   3.189
 3277TIP3    H1 9774   8.379   2.656   3.186
 3277TIP3    H2 9775   8.463   2.533   3.157
 3278TIP3   OH2 9776   1.145   3.044   3.996
 3278TIP3    H1 9777   1.050   3.035   3.990
 3278TIP3    H2 9778   1.175   2.959   4.028
 3279TIP3   OH2 9779   0.767   3.233   3.371
 3279TIP3    H1 9780   0.690   3.179   3.385
 3279TIP3    H2 9781   0.835   3.193   3.426
 3280TIP3   OH2 9782   8.070   3.434   2.879
 3280TIP3    H1 9783   8.115   3.517   2.892
 3280TIP3    H2 9784   8.108   3.397   2.800
 3281TIP3   OH2 9785   0.749   4.203   3.313
 3281TIP3    H1 9786   0.709   4.257   3.245
 3281TIP3    H2 9787   0.843   4.214   3.301
 3282TIP3   OH2 9788   8.291   2.463   3.886
 3282TIP3    H1 9789   8.283   2.416   3.803
 3282TIP3    H2 9790   8.359   2.416   3.934
 3283TIP3   OH2 9791   0.077   4.195   4.281
 3283TIP3    H1 9792   0.154   4.139   4.299
 3283TIP3    H2 9793   0.019   4.139   4.230
 3284TIP3   OH2 9794   8.484   3.754   2.472
 3284TIP3    H1 9795   8.436   3.674   2.496
 3284TIP3    H2 9796   8.563   3.722   2.428
 3285TIP3   OH2 9797   0.636   4.101   4.097
 3285TIP3    H1 9798   0.640   4.027   4.157
 3285TIP3    H2 9799   0.712   4.154   4.120
 3286TIP3   OH2 9800   0.412   3.789   2.404
 3286TIP3    H1 9801   0.445   3.727   2.469
 3286TIP3    H2 9802   0.474   3.784   2.332
 3287TIP3   OH2 9803   8.163   3.312   2.647
 3287TIP3    H1 9804   8.151   3.232   2.697
 3287TIP3    H2 9805   8.240   3.295   2.593
 3288TIP3   OH2 9806   0.267   3.723   4.250
 3288TIP3    H1 9807   0.211   3.722   4.173
 3288TIP3    H2 9808   0.310   3.637   4.250
 3289TIP3   OH2 9809   0.156   3.464   2.509
 3289TIP3    H1 9810   0.166   3.487   2.601
 3289TIP3    H2 9811   0.160   3.368   2.508
 3290TIP3   OH2 9812   0.743   3.770   3.894
 3290TIP3    H1 9813   0.823   3.799   3.850
 3290TIP3    H2 9814   0.681   3.842   3.882
 3291TIP3   OH2 9815   8.366   3.361   4.515
 3291TIP3    H1 9816   8.290   3.362   4.458
 3291TIP3    H2 9817   8.341   3.414   4.591
 3292TIP3   OH2 9818   8.365   3.173   2.942
 3292TIP3    H1 9819   8.343   3.150   3.032
 3292TIP3    H2 9820   8.405   3.094   2.906
 3293TIP3   OH2 9821   0.167   3.257   4.187
 3293TIP3    H1 9822   0.130   3.326   4.243
 3293TIP3    H2 9823   0.200   3.304   4.110
 3294TIP3   OH2 9824   8.467   2.978   2.735
 3294TIP3    H1 9825   8.474   2.928   2.653
 3294TIP3    H2 9826   8.556   3.008   2.753
 3295TIP3   OH2 9827   0.632   3.643   4.250
 3295TIP3    H1 9828   0.701   3.606   4.195
 3295TIP3    H2 9829   0.628   3.586   4.326
 3296TIP3   OH2 9830   0.740   3.303   2.439
 3296TIP3    H1 9831   0.729   3.261   2.355
 3296TIP3    H2 9832   0.710   3.393   2.425
 3297TIP3   OH2 9833   0.254   3.015   4.271
 3297TIP3    H1 9834   0.262   2.948   4.204
 3297TIP3    H2 9835   0.222   3.093   4.224
 3298TIP3   OH2 9836   0.276   2.840   4.054
 3298TIP3    H1 9837   0.307   2.877   3.972
 3298TIP3    H2 9838   0.186   2.813   4.037
 3299TIP3   OH2 9839   0.269   3.380   3.968
 3299TIP3    H1 9840   0.349   3.425   3.941
 3299TIP3    H2 9841   0.202   3.412   3.908
 3300TIP3   OH2 9842   0.845   3.317   4.328
 3300TIP3    H1 9843   0.886   3.233   4.346
 3300TIP3    H2 9844   0.918   3.376   4.308
 3301TIP3   OH2 9845   0.859   3.592   4.065
 3301TIP3    H1 9846   0.807   3.653   4.013
 3301TIP3    H2 9847   0.949   3.606   4.034
 3302TIP3   OH2 9848   0.131   3.136   4.505
 3302TIP3    H1 9849   0.089   3.052   4.519
 3302TIP3    H2 9850   0.157   3.136   4.413
 3303TIP3   OH2 9851   0.360   2.595   4.159
 3303TIP3    H1 9852   0.330   2.680   4.125
 3303TIP3    H2 9853   0.296   2.532   4.127
 3304TIP3   OH2 9854   0.499   3.085   4.377
 3304TIP3    H1 9855   0.496   3.073   4.471
 3304TIP3    H2 9856   0.415   3.053   4.345
 3305TIP3   OH2 9857   0.730   3.023   4.231
 3305TIP3    H1 9858   0.653   3.031   4.286
 3305TIP3    H2 9859   0.801   3.004   4.292
 3306TIP3   OH2 9860   0.953   2.995   4.396
 3306TIP3    H1 9861   0.973   2.902   4.408
 3306TIP3    H2 9862   0.947   3.030   4.484
 3307TIP3   OH2 9863   0.012   2.905   4.584
 3307TIP3    H1 9864   0.002   2.826   4.530
 3307TIP3    H2 9865   0.046   2.873   4.667
 3308TIP3   OH2 9866   0.421   2.586   4.430
 3308TIP3    H1 9867   0.494   2.525   4.425
 3308TIP3    H2 9868   0.388   2.590   4.340
 3309TIP3   OH2 9869   0.524   2.806   4.560
 3309TIP3    H1 9870   0.487   2.734   4.509
 3309TIP3    H2 9871   0.452   2.868   4.570
 3310TIP3   OH2 9872   8.264   4.025   2.636
 3310TIP3    H1 9873   8.360   4.018   2.633
 3310TIP3    H2 9874   8.242   4.080   2.561
 3311TIP3   OH2 9875   1.019   4.255   3.307
 3311TIP3    H1 9876   1.037   4.284   3.396
 3311TIP3    H2 9877   1.070   4.314   3.252
 3312TIP3   OH2 9878   1.032   4.290   3.587
 3312TIP3    H1 9879   0.986   4.206   3.582
 3312TIP3    H2 9880   1.103   4.274   3.649
 3313TIP3   OH2 9881   1.079   3.987   4.160
 3313TIP3    H1 9882   1.009   3.994   4.224
 3313TIP3    H2 9883   1.125   4.071   4.166
 3314TIP3   OH2 9884   0.915   3.508   2.768
 3314TIP3    H1 9885   0.974   3.578   2.739
 3314TIP3    H2 9886   0.960   3.469   2.843
 3315TIP3   OH2 9887   1.041   3.363   2.968
 3315TIP3    H1 9888   0.975   3.325   3.026
 3315TIP3    H2 9889   1.107   3.399   3.028
 3316TIP3   OH2 9890   1.083   3.766   3.400
 3316TIP3    H1 9891   1.137   3.698   3.361
 3316TIP3    H2 9892   1.087   3.839   3.338
 3317TIP3   OH2 9893   0.890   4.051   3.594
 3317TIP3    H1 9894   0.823   4.095   3.647
 3317TIP3    H2 9895   0.841   4.010   3.523
 3318TIP3   OH2 9896   0.948   3.281   2.617
 3318TIP3    H1 9897   0.876   3.281   2.554
 3318TIP3    H2 9898   0.934   3.359   2.670
 3319TIP3   OH2 9899   0.802   2.930   2.559
 3319TIP3    H1 9900   0.744   2.958   2.488
 3319TIP3    H2 9901   0.803   2.834   2.552
 3320TIP3   OH2 9902   0.839   3.223   3.105
 3320TIP3    H1 9903   0.846   3.129   3.092
 3320TIP3    H2 9904   0.820   3.233   3.198
 3321TIP3   OH2 9905   1.114   3.642   3.968
 3321TIP3    H1 9906   1.182   3.576   3.953
 3321TIP3    H2 9907   1.128   3.707   3.899
 3322TIP3   OH2 9908   1.296   3.437   3.957
 3322TIP3    H1 9909   1.221   3.391   3.996
 3322TIP3    H2 9910   1.373   3.390   3.989
 3323TIP3   OH2 9911   0.789   2.657   2.526
 3323TIP3    H1 9912   0.848   2.629   2.596
 3323TIP3    H2 9913   0.702   2.631   2.556
 3324TIP3   OH2 9914   0.833   2.948   2.993
 3324TIP3    H1 9915   0.877   2.864   3.006
 3324TIP3    H2 9916   0.876   2.987   2.917
 3325TIP3   OH2 9917   0.979   3.107   3.508
 3325TIP3    H1 9918   1.060   3.126   3.460
 3325TIP3    H2 9919   0.991   3.148   3.593
 3326TIP3   OH2 9920   1.048   3.267   3.729
 3326TIP3    H1 9921   0.980   3.294   3.790
 3326TIP3    H2 9922   1.080   3.348   3.690
 3327TIP3   OH2 9923   8.173   2.878   4.658
 3327TIP3    H1 9924   8.218   2.951   4.615
 3327TIP3    H2 9925   8.098   2.860   4.601
 3328TIP3   OH2 9926   0.944   2.698   3.043
 3328TIP3    H1 9927   0.991   2.682   3.124
 3328TIP3    H2 9928   0.881   2.626   3.037
 3329TIP3   OH2 9929   8.174   2.670   3.758
 3329TIP3    H1 9930   8.209   2.591   3.797
 3329TIP3    H2 9931   8.246   2.733   3.760
 3330TIP3   OH2 9932   1.006   2.604   2.684
 3330TIP3    H1 9933   1.055   2.543   2.628
 3330TIP3    H2 9934   1.061   2.681   2.690
 3331TIP3   OH2 9935   0.570   4.177   2.945
 3331TIP3    H1 9936   0.626   4.164   2.869
 3331TIP3    H2 9937   0.617   4.241   2.998
 3332TIP3   OH2 9938   8.022   2.530   4.237
 3332TIP3    H1 9939   8.068   2.566   4.313
 3332TIP3    H2 9940   8.002   2.606   4.182
 3333TIP3   OH2 9941   8.390   3.987   3.866
 3333TIP3    H1 9942   8.423   4.070   3.832
 3333TIP3    H2 9943   8.465   3.946   3.907
 3334TIP3   OH2 9944   0.354   4.208   3.992
 3334TIP3    H1 9945   0.375   4.210   4.085
 3334TIP3    H2 9946   0.424   4.259   3.950
 3335TIP3   OH2 9947   0.531   4.385   3.881
 3335TIP3    H1 9948   0.607   4.337   3.847
 3335TIP3    H2 9949   0.567   4.448   3.942
 3336TIP3   OH2 9950   8.369   4.204   3.688
 3336TIP3    H1 9951   8.290   4.193   3.741
 3336TIP3    H2 9952   8.363   4.136   3.622
 3337TIP3   OH2 9953   0.216   4.224   3.577
 3337TIP3    H1 9954   0.223   4.248   3.484
 3337TIP3    H2 9955   0.189   4.305   3.620
 3338TIP3   OH2 9956   0.480   4.182   3.618
 3338TIP3    H1 9957   0.387   4.202   3.619
 3338TIP3    H2 9958   0.522   4.258   3.579
 3339TIP3   OH2 9959   0.665   4.365   3.520
 3339TIP3    H1 9960   0.662   4.452   3.481
 3339TIP3    H2 9961   0.693   4.308   3.448
 3340TIP3   OH2 9962   8.166   3.951   3.421
 3340TIP3    H1 9963   8.148   3.861   3.448
 3340TIP3    H2 9964   8.262   3.957   3.422
 3341TIP3   OH2 9965   8.460   4.043   3.488
 3341TIP3    H1 9966   8.467   3.964   3.435
 3341TIP3    H2 9967   8.522   4.030   3.560
 3342TIP3   OH2 9968   0.494   2.665   3.609
 3342TIP3    H1 9969   0.453   2.599   3.665
 3342TIP3    H2 9970   0.555   2.615   3.553
 3343TIP3   OH2 9971   0.981   2.561   3.482
 3343TIP3    H1 9972   1.033   2.600   3.412
 3343TIP3    H2 9973   0.919   2.630   3.507
 3344TIP3   OH2 9974   1.107   2.645   3.259
 3344TIP3    H1 9975   1.175   2.584   3.230
 3344TIP3    H2 9976   1.145   2.731   3.247
 3345TIP3   OH2 9977   8.250   2.369   3.618
 3345TIP3    H1 9978   8.159   2.341   3.627
 3345TIP3    H2 9979   8.300   2.288   3.612
 3346TIP3   OH2 9980   0.194   2.394   3.496
 3346TIP3    H1 9981   0.252   2.444   3.438
 3346TIP3    H2 9982   0.212   2.429   3.583
 3347TIP3   OH2 9983   0.680   2.513   3.479
 3347TIP3    H1 9984   0.715   2.506   3.390
 3347TIP3    H2 9985   0.711   2.433   3.522
 3348TIP3   OH2 9986   0.757   2.490   3.047
 3348TIP3    H1 9987   0.677   2.537   3.071
 3348TIP3    H2 9988   0.744   2.401   3.081
 3349TIP3   OH2 9989   0.155   2.579   3.118
 3349TIP3    H1 9990   0.209   2.525   3.176
 3349TIP3    H2 9991   0.169   2.668   3.148
 3350TIP3   OH2 9992   0.030   3.985   2.604
 3350TIP3    H1 9993   0.117   4.013   2.574
 3350TIP3    H2 9994   0.010   3.908   2.551
 3351TIP3   OH2 9995   0.725   4.123   2.718
 3351TIP3    H1 9996   0.717   4.028   2.712
 3351TIP3    H2 9997   0.690   4.155   2.635
 3352TIP3   OH2 9998   8.483   2.658   4.471
 3352TIP3    H1 9999   8.419   2.631   4.537
 3352TIP3    H210000   8.566   2.623   4.504
 3353TIP3   OH210001   0.214   2.594   4.626
 3353TIP3    H110002   0.289   2.589   4.566
 3353TIP3    H210003   0.219   2.514   4.677
 3354TIP3   OH210004   1.033   2.729   4.418
 3354TIP3    H110005   1.038   2.703   4.510
 3354TIP3    H210006   1.119   2.707   4.382
 3355TIP3   OH210007   0.949   4.263   3.913
 3355TIP3    H110008   0.873   4.233   3.861
 3355TIP3    H210009   0.938   4.357   3.920
 3356TIP3   OH210010   2.219   3.655   2.647
 3356TIP3    H110011   2.187   3.740   2.619
 3356TIP3    H210012   2.149   3.594   2.623
 3357TIP3   OH210013   2.215   3.643   3.074
 3357TIP3    H110014   2.267   3.624   3.152
 3357TIP3    H210015   2.171   3.561   3.054
 3358TIP3   OH210016   1.511   3.501   3.416
 3358TIP3    H110017   1.549   3.450   3.488
 3358TIP3    H210018   1.587   3.526   3.363
 3359TIP3   OH210019   2.484   3.951   2.746
 3359TIP3    H110020   2.471   3.884   2.813
 3359TIP3    H210021   2.505   4.030   2.795
 3360TIP3   OH210022   1.504   3.931   3.103
 3360TIP3    H110023   1.486   3.837   3.110
 3360TIP3    H210024   1.599   3.937   3.097
 3361TIP3   OH210025   1.191   3.136   2.887
 3361TIP3    H110026   1.155   3.221   2.913
 3361TIP3    H210027   1.117   3.089   2.850
 3362TIP3   OH210028   1.270   3.447   3.107
 3362TIP3    H110029   1.320   3.370   3.134
 3362TIP3    H210030   1.337   3.511   3.084
 3363TIP3   OH210031   2.140   4.381   2.758
 3363TIP3    H110032   2.168   4.316   2.694
 3363TIP3    H210033   2.139   4.335   2.841
 3364TIP3   OH210034   2.021   3.865   3.075
 3364TIP3    H110035   2.065   3.784   3.049
 3364TIP3    H210036   2.092   3.922   3.104
 3365TIP3   OH210037   3.055   3.190   3.077
 3365TIP3    H110038   3.069   3.274   3.121
 3365TIP3    H210039   3.077   3.206   2.986
 3366TIP3   OH210040   2.427   3.358   3.112
 3366TIP3    H110041   2.460   3.273   3.141
 3366TIP3    H210042   2.391   3.340   3.025
 3367TIP3   OH210043   1.788   3.017   3.078
 3367TIP3    H110044   1.765   3.088   3.018
 3367TIP3    H210045   1.736   2.942   3.047
 3368TIP3   OH210046   2.486   3.117   2.708
 3368TIP3    H110047   2.549   3.105   2.779
 3368TIP3    H210048   2.539   3.144   2.633
 3369TIP3   OH210049   1.409   3.226   3.199
 3369TIP3    H110050   1.492   3.209   3.244
 3369TIP3    H210051   1.414   3.173   3.120
 3370TIP3   OH210052   1.828   3.427   3.018
 3370TIP3    H110053   1.923   3.411   3.025
 3370TIP3    H210054   1.793   3.345   2.985
 3371TIP3   OH210055   3.080   3.411   3.243
 3371TIP3    H110056   2.993   3.452   3.235
 3371TIP3    H210057   3.084   3.380   3.333
 3372TIP3   OH210058   1.759   3.015   3.530
 3372TIP3    H110059   1.706   3.051   3.458
 3372TIP3    H210060   1.706   3.029   3.608
 3373TIP3   OH210061   2.116   3.871   2.506
 3373TIP3    H110062   2.077   3.840   2.425
 3373TIP3    H210063   2.062   3.945   2.533
 3374TIP3   OH210064   1.859   3.789   3.288
 3374TIP3    H110065   1.805   3.860   3.322
 3374TIP3    H210066   1.907   3.829   3.215
 3375TIP3   OH210067   2.642   3.130   2.931
 3375TIP3    H110068   2.596   3.110   3.013
 3375TIP3    H210069   2.695   3.207   2.951
 3376TIP3   OH210070   1.654   3.125   3.296
 3376TIP3    H110071   1.710   3.198   3.321
 3376TIP3    H210072   1.702   3.081   3.226
 3377TIP3   OH210073   1.702   3.991   3.394
 3377TIP3    H110074   1.689   4.082   3.365
 3377TIP3    H210075   1.624   3.971   3.445
 3378TIP3   OH210076   1.084   3.697   2.650
 3378TIP3    H110077   1.050   3.717   2.563
 3378TIP3    H210078   1.107   3.783   2.687
 3379TIP3   OH210079   2.522   4.198   2.886
 3379TIP3    H110080   2.434   4.190   2.924
 3379TIP3    H210081   2.520   4.282   2.840
 3380TIP3   OH210082   2.830   3.116   3.233
 3380TIP3    H110083   2.745   3.133   3.193
 3380TIP3    H210084   2.894   3.136   3.165
 3381TIP3   OH210085   2.100   2.727   3.236
 3381TIP3    H110086   2.096   2.634   3.259
 3381TIP3    H210087   2.027   2.767   3.283
 3382TIP3   OH210088   2.227   4.229   2.541
 3382TIP3    H110089   2.280   4.150   2.531
 3382TIP3    H210090   2.285   4.300   2.512
 3383TIP3   OH210091   2.367   4.000   2.500
 3383TIP3    H110092   2.294   3.938   2.497
 3383TIP3    H210093   2.417   3.975   2.578
 3384TIP3   OH210094   2.759   4.084   3.232
 3384TIP3    H110095   2.737   4.011   3.174
 3384TIP3    H210096   2.743   4.162   3.179
 3385TIP3   OH210097   2.045   3.490   2.502
 3385TIP3    H110098   1.963   3.533   2.481
 3385TIP3    H210099   2.094   3.488   2.419
 3386TIP3   OH210100   2.015   3.306   2.194
 3386TIP3    H110101   2.081   3.354   2.244
 3386TIP3    H210102   2.064   3.238   2.149
 3387TIP3   OH210103   2.936   3.758   3.095
 3387TIP3    H110104   2.851   3.802   3.092
 3387TIP3    H210105   2.970   3.766   3.006
 3388TIP3   OH210106   2.405   3.583   2.460
 3388TIP3    H110107   2.351   3.612   2.534
 3388TIP3    H210108   2.487   3.553   2.501
 3389TIP3   OH210109   2.627   3.617   3.407
 3389TIP3    H110110   2.620   3.697   3.459
 3389TIP3    H210111   2.543   3.612   3.361
 3390TIP3   OH210112   1.632   3.560   2.866
 3390TIP3    H110113   1.596   3.498   2.802
 3390TIP3    H210114   1.704   3.512   2.907
 3391TIP3   OH210115   1.768   3.981   3.007
 3391TIP3    H110116   1.744   3.967   2.916
 3391TIP3    H210117   1.855   3.942   3.017
 3392TIP3   OH210118   1.726   3.553   3.243
 3392TIP3    H110119   1.766   3.516   3.164
 3392TIP3    H210120   1.775   3.634   3.259
 3393TIP3   OH210121   2.283   4.192   3.015
 3393TIP3    H110122   2.268   4.272   3.066
 3393TIP3    H210123   2.268   4.121   3.077
 3394TIP3   OH210124   1.900   4.087   3.563
 3394TIP3    H110125   1.840   4.145   3.610
 3394TIP3    H210126   1.843   4.037   3.504
 3395TIP3   OH210127   2.236   3.440   2.298
 3395TIP3    H110128   2.297   3.497   2.346
 3395TIP3    H210129   2.264   3.447   2.207
 3396TIP3   OH210130   1.655   3.637   3.702
 3396TIP3    H110131   1.658   3.731   3.723
 3396TIP3    H210132   1.561   3.617   3.698
 3397TIP3   OH210133   1.979   4.110   2.547
 3397TIP3    H110134   2.061   4.158   2.554
 3397TIP3    H210135   1.920   4.170   2.502
 3398TIP3   OH210136   1.698   4.253   3.653
 3398TIP3    H110137   1.674   4.264   3.561
 3398TIP3    H210138   1.615   4.238   3.698
 3399TIP3   OH210139   1.506   3.401   2.666
 3399TIP3    H110140   1.426   3.446   2.638
 3399TIP3    H210141   1.477   3.311   2.684
 3400TIP3   OH210142   2.566   4.041   1.905
 3400TIP3    H110143   2.561   4.135   1.887
 3400TIP3    H210144   2.655   4.017   1.882
 3401TIP3   OH210145   1.285   3.805   3.597
 3401TIP3    H110146   1.216   3.786   3.534
 3401TIP3    H210147   1.320   3.719   3.621
 3402TIP3   OH210148   1.136   3.997   3.244
 3402TIP3    H110149   1.230   4.012   3.253
 3402TIP3    H210150   1.095   4.076   3.280
 3403TIP3   OH210151   2.987   4.457   3.296
 3403TIP3    H110152   2.994   4.362   3.306
 3403TIP3    H210153   2.908   4.480   3.344
 3404TIP3   OH210154   2.092   4.229   3.425
 3404TIP3    H110155   2.084   4.320   3.452
 3404TIP3    H210156   2.022   4.184   3.473
 3405TIP3   OH210157   1.870   4.334   2.378
 3405TIP3    H110158   1.822   4.315   2.297
 3405TIP3    H210159   1.834   4.417   2.409
 3406TIP3   OH210160   1.305   4.190   2.757
 3406TIP3    H110161   1.350   4.183   2.841
 3406TIP3    H210162   1.257   4.107   2.748
 3407TIP3   OH210163   2.072   4.265   2.004
 3407TIP3    H110164   2.122   4.192   1.969
 3407TIP3    H210165   2.106   4.278   2.092
 3408TIP3   OH210166   2.124   4.308   2.274
 3408TIP3    H110167   2.037   4.312   2.315
 3408TIP3    H210168   2.181   4.272   2.341
 3409TIP3   OH210169   2.883   3.559   3.546
 3409TIP3    H110170   2.797   3.574   3.505
 3409TIP3    H210171   2.896   3.464   3.538
 3410TIP3   OH210172   1.485   3.993   3.564
 3410TIP3    H110173   1.535   3.979   3.644
 3410TIP3    H210174   1.413   3.930   3.570
 3411TIP3   OH210175   1.867   2.804   3.378
 3411TIP3    H110176   1.785   2.772   3.342
 3411TIP3    H210177   1.843   2.881   3.429
 3412TIP3   OH210178   2.406   2.904   3.582
 3412TIP3    H110179   2.456   2.868   3.655
 3412TIP3    H210180   2.315   2.895   3.610
 3413TIP3   OH210181   2.639   3.351   3.501
 3413TIP3    H110182   2.593   3.342   3.584
 3413TIP3    H210183   2.616   3.439   3.470
 3414TIP3   OH210184   2.312   3.439   2.037
 3414TIP3    H110185   2.269   3.432   1.952
 3414TIP3    H210186   2.396   3.482   2.018
 3415TIP3   OH210187   2.032   2.833   2.353
 3415TIP3    H110188   1.998   2.842   2.442
 3415TIP3    H210189   1.991   2.753   2.320
 3416TIP3   OH210190   1.809   3.333   3.393
 3416TIP3    H110191   1.763   3.339   3.477
 3416TIP3    H210192   1.787   3.414   3.348
 3417TIP3   OH210193   1.688   3.212   2.912
 3417TIP3    H110194   1.600   3.186   2.938
 3417TIP3    H210195   1.699   3.177   2.824
 3418TIP3   OH210196   2.168   3.283   2.637
 3418TIP3    H110197   2.123   3.356   2.595
 3418TIP3    H210198   2.226   3.248   2.569
 3419TIP3   OH210199   2.356   3.551   3.713
 3419TIP3    H110200   2.327   3.483   3.773
 3419TIP3    H210201   2.448   3.565   3.735
 3420TIP3   OH210202   2.338   3.300   2.859
 3420TIP3    H110203   2.268   3.318   2.796
 3420TIP3    H210204   2.387   3.228   2.820
 3421TIP3   OH210205   1.642   3.345   3.612
 3421TIP3    H110206   1.655   3.409   3.682
 3421TIP3    H210207   1.622   3.263   3.658
 3422TIP3   OH210208   1.690   2.821   2.325
 3422TIP3    H110209   1.681   2.823   2.420
 3422TIP3    H210210   1.614   2.869   2.293
 3423TIP3   OH210211   1.235   2.869   3.185
 3423TIP3    H110212   1.303   2.905   3.242
 3423TIP3    H210213   1.279   2.850   3.103
 3424TIP3   OH210214   1.144   2.844   2.695
 3424TIP3    H110215   1.189   2.882   2.619
 3424TIP3    H210216   1.081   2.912   2.721
 3425TIP3   OH210217   2.376   3.555   3.290
 3425TIP3    H110218   2.402   3.490   3.224
 3425TIP3    H210219   2.335   3.504   3.360
 3426TIP3   OH210220   2.053   3.008   2.961
 3426TIP3    H110221   1.976   3.004   3.018
 3426TIP3    H210222   2.127   3.001   3.021
 3427TIP3   OH210223   1.452   3.084   2.969
 3427TIP3    H110224   1.364   3.087   2.931
 3427TIP3    H210225   1.483   2.995   2.950
 3428TIP3   OH210226   1.700   3.086   2.669
 3428TIP3    H110227   1.795   3.097   2.660
 3428TIP3    H210228   1.665   3.105   2.582
 3429TIP3   OH210229   2.500   3.097   3.171
 3429TIP3    H110230   2.486   3.109   3.265
 3429TIP3    H210231   2.431   3.037   3.144
 3430TIP3   OH210232   1.589   3.117   2.422
 3430TIP3    H110233   1.527   3.067   2.369
 3430TIP3    H210234   1.645   3.162   2.359
 3431TIP3   OH210235   2.699   4.795   3.389
 3431TIP3    H110236   2.696   4.812   3.295
 3431TIP3    H210237   2.778   4.841   3.419
 3432TIP3   OH210238   1.636   3.906   3.794
 3432TIP3    H110239   1.717   3.925   3.842
 3432TIP3    H210240   1.567   3.911   3.861
 3433TIP3   OH210241   2.101   3.374   3.068
 3433TIP3    H110242   2.164   3.321   3.019
 3433TIP3    H210243   2.098   3.334   3.154
 3434TIP3   OH210244   1.603   2.841   2.954
 3434TIP3    H110245   1.566   2.766   3.002
 3434TIP3    H210246   1.657   2.801   2.885
 3435TIP3   OH210247   2.076   3.277   3.331
 3435TIP3    H110248   1.989   3.308   3.358
 3435TIP3    H210249   2.136   3.325   3.387
 3436TIP3   OH210250   1.808   3.626   2.443
 3436TIP3    H110251   1.733   3.571   2.420
 3436TIP3    H210252   1.783   3.667   2.526
 3437TIP3   OH210253   2.696   3.885   3.051
 3437TIP3    H110254   2.729   3.935   2.976
 3437TIP3    H210255   2.617   3.842   3.018
 3438TIP3   OH210256   2.244   2.984   2.270
 3438TIP3    H110257   2.169   2.939   2.309
 3438TIP3    H210258   2.269   3.049   2.336
 3439TIP3   OH210259   2.215   3.965   3.454
 3439TIP3    H110260   2.257   3.952   3.539
 3439TIP3    H210261   2.172   4.051   3.462
 3440TIP3   OH210262   2.335   3.204   2.423
 3440TIP3    H110263   2.430   3.206   2.435
 3440TIP3    H210264   2.316   3.283   2.372
 3441TIP3   OH210265   1.497   3.641   3.094
 3441TIP3    H110266   1.536   3.623   3.008
 3441TIP3    H210267   1.562   3.611   3.157
 3442TIP3   OH210268   1.960   3.788   2.286
 3442TIP3    H110269   1.912   3.870   2.284
 3442TIP3    H210270   1.906   3.730   2.339
 3443TIP3   OH210271   1.381   3.573   3.726
 3443TIP3    H110272   1.383   3.545   3.818
 3443TIP3    H210273   1.306   3.526   3.689
 3444TIP3   OH210274   2.123   3.704   3.745
 3444TIP3    H110275   2.053   3.642   3.720
 3444TIP3    H210276   2.204   3.660   3.718
 3445TIP3   OH210277   2.364   4.253   3.350
 3445TIP3    H110278   2.269   4.238   3.354
 3445TIP3    H210279   2.386   4.293   3.434
 3446TIP3   OH210280   2.757   3.293   2.234
 3446TIP3    H110281   2.702   3.245   2.172
 3446TIP3    H210282   2.757   3.383   2.201
 3447TIP3   OH210283   3.005   4.179   3.317
 3447TIP3    H110284   2.912   4.156   3.319
 3447TIP3    H210285   3.037   4.142   3.235
 3448TIP3   OH210286   2.489   4.112   2.174
 3448TIP3    H110287   2.460   4.045   2.236
 3448TIP3    H210288   2.505   4.065   2.093
 3449TIP3   OH210289   2.469   3.747   2.948
 3449TIP3    H110290   2.379   3.724   2.973
 3449TIP3    H210291   2.504   3.666   2.911
 3450TIP3   OH210292   1.624   3.984   2.763
 3450TIP3    H110293   1.620   4.060   2.705
 3450TIP3    H210294   1.535   3.976   2.798
 3451TIP3   OH210295   1.187   3.269   2.478
 3451TIP3    H110296   1.229   3.352   2.499
 3451TIP3    H210297   1.106   3.270   2.529
 3452TIP3   OH210298   1.709   3.740   2.667
 3452TIP3    H110299   1.692   3.829   2.698
 3452TIP3    H210300   1.685   3.684   2.741
 3453TIP3   OH210301   1.907   4.306   3.217
 3453TIP3    H110302   1.940   4.381   3.168
 3453TIP3    H210303   1.982   4.272   3.265
 3454TIP3   OH210304   1.539   4.208   2.611
 3454TIP3    H110305   1.452   4.214   2.652
 3454TIP3    H210306   1.575   4.296   2.617
 3455TIP3   OH210307   2.258   3.969   3.183
 3455TIP3    H110308   2.245   3.964   3.277
 3455TIP3    H210309   2.328   3.908   3.165
 3456TIP3   OH210310   2.250   3.848   2.058
 3456TIP3    H110311   2.302   3.820   2.133
 3456TIP3    H210312   2.166   3.803   2.070
 3457TIP3   OH210313   2.514   4.467   3.231
 3457TIP3    H110314   2.443   4.406   3.248
 3457TIP3    H210315   2.482   4.521   3.158
 3458TIP3   OH210316   2.566   4.315   1.866
 3458TIP3    H110317   2.588   4.379   1.799
 3458TIP3    H210318   2.493   4.355   1.914
 3459TIP3   OH210319   1.590   3.099   3.743
 3459TIP3    H110320   1.496   3.102   3.761
 3459TIP3    H210321   1.627   3.048   3.816
 3460TIP3   OH210322   2.427   3.764   2.249
 3460TIP3    H110323   2.411   3.711   2.327
 3460TIP3    H210324   2.522   3.771   2.244
 3461TIP3   OH210325   1.334   4.204   3.378
 3461TIP3    H110326   1.385   4.145   3.433
 3461TIP3    H210327   1.348   4.291   3.416
 3462TIP3   OH210328   1.601   3.817   2.074
 3462TIP3    H110329   1.612   3.726   2.048
 3462TIP3    H210330   1.587   3.813   2.169
 3463TIP3   OH210331   1.545   3.831   2.347
 3463TIP3    H110332   1.609   3.804   2.413
 3463TIP3    H210333   1.544   3.926   2.352
 3464TIP3   OH210334   1.279   3.520   2.557
 3464TIP3    H110335   1.215   3.569   2.609
 3464TIP3    H210336   1.299   3.579   2.484
 3465TIP3   OH210337   2.450   3.143   3.439
 3465TIP3    H110338   2.527   3.187   3.476
 3465TIP3    H210339   2.439   3.065   3.492
 3466TIP3   OH210340   2.313   2.916   2.623
 3466TIP3    H110341   2.353   2.896   2.539
 3466TIP3    H210342   2.365   2.989   2.658
 3467TIP3   OH210343   1.813   4.015   2.281
 3467TIP3    H110344   1.729   4.040   2.319
 3467TIP3    H210345   1.837   4.091   2.227
 3468TIP3   OH210346   1.978   3.096   2.708
 3468TIP3    H110347   2.042   3.161   2.681
 3468TIP3    H210348   2.002   3.075   2.798
 3469TIP3   OH210349   2.287   3.383   3.485
 3469TIP3    H110350   2.310   3.423   3.569
 3469TIP3    H210351   2.336   3.300   3.484
 3470TIP3   OH210352   2.143   2.796   2.799
 3470TIP3    H110353   2.120   2.870   2.854
 3470TIP3    H210354   2.208   2.831   2.738
 3471TIP3   OH210355   1.564   4.103   2.359
 3471TIP3    H110356   1.544   4.175   2.299
 3471TIP3    H210357   1.553   4.142   2.446
 3472TIP3   OH210358   1.663   2.813   2.601
 3472TIP3    H110359   1.647   2.900   2.636
 3472TIP3    H210360   1.757   2.801   2.609
 3473TIP3   OH210361   2.897   3.286   3.449
 3473TIP3    H110362   2.807   3.299   3.476
 3473TIP3    H210363   2.892   3.221   3.379
 3474TIP3   OH210364   2.559   3.489   2.859
 3474TIP3    H110365   2.482   3.434   2.868
 3474TIP3    H210366   2.625   3.448   2.915
 3475TIP3   OH210367   1.300   3.699   2.340
 3475TIP3    H110368   1.371   3.763   2.350
 3475TIP3    H210369   1.333   3.636   2.277
 3476TIP3   OH210370   1.206   2.991   2.473
 3476TIP3    H110371   1.222   3.085   2.481
 3476TIP3    H210372   1.145   2.984   2.400
 3477TIP3   OH210373   2.540   4.465   2.802
 3477TIP3    H110374   2.499   4.516   2.732
 3477TIP3    H210375   2.634   4.477   2.787
 3478TIP3   OH210376   1.608   2.719   3.324
 3478TIP3    H110377   1.578   2.688   3.238
 3478TIP3    H210378   1.594   2.644   3.383
 3479TIP3   OH210379   1.131   3.965   2.736
 3479TIP3    H110380   1.091   4.002   2.814
 3479TIP3    H210381   1.089   4.009   2.663
 3480TIP3   OH210382   1.328   4.504   3.791
 3480TIP3    H110383   1.409   4.511   3.841
 3480TIP3    H210384   1.315   4.409   3.780
 3481TIP3   OH210385   1.781   4.418   3.861
 3481TIP3    H110386   1.870   4.450   3.843
 3481TIP3    H210387   1.762   4.360   3.787
 3482TIP3   OH210388   1.758   4.013   1.960
 3482TIP3    H110389   1.711   3.945   2.007
 3482TIP3    H210390   1.833   3.968   1.922
 3483TIP3   OH210391   2.421   4.357   3.598
 3483TIP3    H110392   2.432   4.286   3.662
 3483TIP3    H210393   2.497   4.413   3.611
 3484TIP3   OH210394   2.201   4.054   1.886
 3484TIP3    H110395   2.231   3.990   1.949
 3484TIP3    H210396   2.262   4.047   1.813
 3485TIP3   OH210397   1.434   3.906   3.989
 3485TIP3    H110398   1.456   3.814   3.999
 3485TIP3    H210399   1.347   3.906   3.948
 3486TIP3   OH210400   1.425   3.511   2.188
 3486TIP3    H110401   1.476   3.485   2.266
 3486TIP3    H210402   1.491   3.525   2.120
 3487TIP3   OH210403   2.058   3.975   3.760
 3487TIP3    H110404   2.008   3.997   3.681
 3487TIP3    H210405   2.085   3.884   3.747
 3488TIP3   OH210406   1.990   3.731   2.019
 3488TIP3    H110407   1.969   3.742   2.112
 3488TIP3    H210408   1.974   3.638   2.002
 3489TIP3   OH210409   2.539   4.033   3.395
 3489TIP3    H110410   2.614   4.058   3.341
 3489TIP3    H210411   2.471   4.097   3.373
 3490TIP3   OH210412   1.553   3.657   3.994
 3490TIP3    H110413   1.627   3.623   3.944
 3490TIP3    H210414   1.588   3.670   4.082
 3491TIP3   OH210415   1.596   3.451   2.401
 3491TIP3    H110416   1.575   3.423   2.490
 3491TIP3    H210417   1.647   3.378   2.364
 3492TIP3   OH210418   1.913   3.532   3.655
 3492TIP3    H110419   1.827   3.572   3.664
 3492TIP3    H210420   1.943   3.559   3.568
 3493TIP3   OH210421   1.746   3.268   2.255
 3493TIP3    H110422   1.717   3.277   2.164
 3493TIP3    H210423   1.841   3.277   2.251
 3494TIP3   OH210424   2.426   3.909   3.745
 3494TIP3    H110425   2.491   3.869   3.687
 3494TIP3    H210426   2.424   3.851   3.822
 3495TIP3   OH210427   2.535   3.558   1.922
 3495TIP3    H110428   2.521   3.515   1.837
 3495TIP3    H210429   2.509   3.649   1.907
 3496TIP3   OH210430   2.014   3.301   3.764
 3496TIP3    H110431   2.016   3.229   3.701
 3496TIP3    H210432   1.980   3.375   3.715
 3497TIP3   OH210433   2.019   3.102   3.562
 3497TIP3    H110434   2.045   3.136   3.476
 3497TIP3    H210435   1.928   3.074   3.550
 3498TIP3   OH210436   2.028   3.623   3.426
 3498TIP3    H110437   2.118   3.652   3.410
 3498TIP3    H210438   1.974   3.685   3.378
 3499TIP3   OH210439   2.623   3.568   3.818
 3499TIP3    H110440   2.651   3.478   3.836
 3499TIP3    H210441   2.705   3.615   3.798
 3500TIP3   OH210442   2.655   3.856   3.565
 3500TIP3    H110443   2.606   3.918   3.512
 3500TIP3    H210444   2.745   3.861   3.533
 3501TIP3   OH210445   1.901   3.396   4.004
 3501TIP3    H110446   1.832   3.335   4.030
 3501TIP3    H210447   1.928   3.367   3.917
 3502TIP3   OH210448   2.142   2.868   3.657
 3502TIP3    H110449   2.099   2.949   3.630
 3502TIP3    H210450   2.075   2.801   3.648
 3503TIP3   OH210451   2.270   3.341   3.866
 3503TIP3    H110452   2.261   3.328   3.960
 3503TIP3    H210453   2.183   3.320   3.831
 3504TIP3   OH210454   2.508   3.288   3.728
 3504TIP3    H110455   2.432   3.289   3.786
 3504TIP3    H210456   2.581   3.263   3.784
 3505TIP3   OH210457   2.750   3.268   3.868
 3505TIP3    H110458   2.771   3.175   3.876
 3505TIP3    H210459   2.744   3.300   3.958
 3506TIP3   OH210460   1.739   3.185   4.083
 3506TIP3    H110461   1.739   3.102   4.034
 3506TIP3    H210462   1.778   3.163   4.167
 3507TIP3   OH210463   2.241   2.843   3.911
 3507TIP3    H110464   2.322   2.794   3.894
 3507TIP3    H210465   2.200   2.851   3.825
 3508TIP3   OH210466   2.304   3.059   4.067
 3508TIP3    H110467   2.281   2.990   4.006
 3508TIP3    H210468   2.230   3.120   4.063
 3509TIP3   OH210469   1.561   4.312   2.175
 3509TIP3    H110470   1.650   4.290   2.148
 3509TIP3    H210471   1.524   4.358   2.100
 3510TIP3   OH210472   1.027   3.693   2.358
 3510TIP3    H110473   1.122   3.706   2.356
 3510TIP3    H210474   1.014   3.606   2.322
 3511TIP3   OH210475   0.931   4.277   2.817
 3511TIP3    H110476   0.867   4.222   2.771
 3511TIP3    H210477   0.976   4.216   2.876
 3512TIP3   OH210478   1.076   4.109   2.983
 3512TIP3    H110479   1.068   4.042   3.051
 3512TIP3    H210480   1.128   4.178   3.025
 3513TIP3   OH210481   2.812   4.514   2.794
 3513TIP3    H110482   2.830   4.540   2.885
 3513TIP3    H210483   2.864   4.574   2.741
 3514TIP3   OH210484   2.828   4.546   3.074
 3514TIP3    H110485   2.781   4.463   3.071
 3514TIP3    H210486   2.898   4.531   3.137
 3515TIP3   OH210487   2.879   4.244   3.640
 3515TIP3    H110488   2.803   4.250   3.698
 3515TIP3    H210489   2.924   4.328   3.651
 3516TIP3   OH210490   2.706   3.763   2.252
 3516TIP3    H110491   2.765   3.833   2.225
 3516TIP3    H210492   2.747   3.724   2.329
 3517TIP3   OH210493   2.825   3.619   2.456
 3517TIP3    H110494   2.758   3.577   2.510
 3517TIP3    H210495   2.889   3.652   2.519
 3518TIP3   OH210496   2.879   4.026   2.891
 3518TIP3    H110497   2.930   3.957   2.848
 3518TIP3    H210498   2.880   4.098   2.829
 3519TIP3   OH210499   2.688   4.306   3.083
 3519TIP3    H110500   2.620   4.351   3.134
 3519TIP3    H210501   2.641   4.265   3.011
 3520TIP3   OH210502   2.740   3.535   2.102
 3520TIP3    H110503   2.668   3.534   2.039
 3520TIP3    H210504   2.724   3.613   2.155
 3521TIP3   OH210505   2.605   3.184   2.036
 3521TIP3    H110506   2.551   3.214   1.962
 3521TIP3    H210507   2.598   3.088   2.033
 3522TIP3   OH210508   2.628   3.475   2.590
 3522TIP3    H110509   2.631   3.380   2.575
 3522TIP3    H210510   2.609   3.484   2.683
 3523TIP3   OH210511   1.250   3.550   3.360
 3523TIP3    H110512   1.240   3.514   3.272
 3523TIP3    H210513   1.344   3.542   3.379
 3524TIP3   OH210514   2.910   3.885   3.453
 3524TIP3    H110515   2.981   3.821   3.440
 3524TIP3    H210516   2.910   3.937   3.373
 3525TIP3   OH210517   3.106   3.684   3.447
 3525TIP3    H110518   3.030   3.637   3.480
 3525TIP3    H210519   3.181   3.630   3.472
 3526TIP3   OH210520   2.552   2.914   1.998
 3526TIP3    H110521   2.627   2.892   2.053
 3526TIP3    H210522   2.480   2.860   2.031
 3527TIP3   OH210523   2.624   3.202   2.472
 3527TIP3    H110524   2.669   3.118   2.484
 3527TIP3    H210525   2.667   3.241   2.396
 3528TIP3   OH210526   2.771   3.365   3.002
 3528TIP3    H110527   2.852   3.381   2.954
 3528TIP3    H210528   2.782   3.412   3.084
 3529TIP3   OH210529   2.829   3.532   3.218
 3529TIP3    H110530   2.759   3.560   3.277
 3529TIP3    H210531   2.864   3.614   3.181
 3530TIP3   OH210532   1.480   3.268   4.070
 3530TIP3    H110533   1.571   3.240   4.068
 3530TIP3    H210534   1.431   3.191   4.100
 3531TIP3   OH210535   3.314   3.110   3.758
 3531TIP3    H110536   3.369   3.046   3.713
 3531TIP3    H210537   3.277   3.164   3.689
 3532TIP3   OH210538   2.749   2.960   2.510
 3532TIP3    H110539   2.773   2.929   2.597
 3532TIP3    H210540   2.725   2.881   2.461
 3533TIP3   OH210541   1.443   2.939   3.353
 3533TIP3    H110542   1.498   2.861   3.356
 3533TIP3    H210543   1.504   3.011   3.341
 3534TIP3   OH210544   1.220   3.202   3.411
 3534TIP3    H110545   1.274   3.192   3.332
 3534TIP3    H210546   1.260   3.276   3.457
 3535TIP3   OH210547   3.172   3.252   3.566
 3535TIP3    H110548   3.098   3.283   3.618
 3535TIP3    H210549   3.138   3.176   3.519
 3536TIP3   OH210550   2.792   2.892   2.126
 3536TIP3    H110551   2.778   2.831   2.198
 3536TIP3    H210552   2.859   2.952   2.158
 3537TIP3   OH210553   1.214   2.704   2.919
 3537TIP3    H110554   1.129   2.696   2.961
 3537TIP3    H210555   1.199   2.763   2.845
 3538TIP3   OH210556   2.370   4.430   2.434
 3538TIP3    H110557   2.428   4.419   2.358
 3538TIP3    H210558   2.411   4.499   2.486
 3539TIP3   OH210559   1.423   2.727   3.748
 3539TIP3    H110560   1.412   2.736   3.843
 3539TIP3    H210561   1.358   2.786   3.711
 3540TIP3   OH210562   1.469   4.224   3.810
 3540TIP3    H110563   1.376   4.204   3.801
 3540TIP3    H210564   1.488   4.209   3.903
 3541TIP3   OH210565   1.681   4.267   3.370
 3541TIP3    H110566   1.626   4.337   3.336
 3541TIP3    H210567   1.765   4.278   3.325
 3542TIP3   OH210568   2.083   4.494   3.503
 3542TIP3    H110569   2.119   4.491   3.592
 3542TIP3    H210570   2.144   4.549   3.454
 3543TIP3   OH210571   2.271   4.654   3.380
 3543TIP3    H110572   2.334   4.608   3.325
 3543TIP3    H210573   2.324   4.715   3.432
 3544TIP3   OH210574   3.115   2.977   3.472
 3544TIP3    H110575   3.030   2.949   3.439
 3544TIP3    H210576   3.167   2.897   3.474
 3545TIP3   OH210577   1.336   4.503   3.412
 3545TIP3    H110578   1.245   4.520   3.388
 3545TIP3    H210579   1.359   4.573   3.474
 3546TIP3   OH210580   1.564   4.487   3.258
 3546TIP3    H110581   1.482   4.496   3.306
 3546TIP3    H210582   1.544   4.518   3.170
 3547TIP3   OH210583   1.983   4.517   3.053
 3547TIP3    H110584   1.909   4.529   2.993
 3547TIP3    H210585   1.992   4.602   3.097
 3548TIP3   OH210586   2.246   4.453   3.104
 3548TIP3    H110587   2.155   4.474   3.085
 3548TIP3    H210588   2.296   4.521   3.058
 3549TIP3   OH210589   2.450   4.626   3.007
 3549TIP3    H110590   2.446   4.713   2.968
 3549TIP3    H210591   2.479   4.569   2.936
 3550TIP3   OH210592   1.249   4.289   3.126
 3550TIP3    H110593   1.273   4.266   3.216
 3550TIP3    H210594   1.322   4.257   3.073
 3551TIP3   OH210595   1.453   4.173   2.988
 3551TIP3    H110596   1.464   4.089   3.033
 3551TIP3    H210597   1.539   4.215   2.994
 3552TIP3   OH210598   1.720   4.258   3.014
 3552TIP3    H110599   1.740   4.165   3.000
 3552TIP3    H210600   1.773   4.283   3.089
 3553TIP3   OH210601   2.283   2.920   3.097
 3553TIP3    H110602   2.237   2.849   3.141
 3553TIP3    H210603   2.349   2.877   3.043
 3554TIP3   OH210604   2.781   2.797   2.984
 3554TIP3    H110605   2.819   2.847   2.911
 3554TIP3    H210606   2.692   2.831   2.992
 3555TIP3   OH210607   2.885   2.895   2.748
 3555TIP3    H110608   2.954   2.838   2.713
 3555TIP3    H210609   2.918   2.984   2.738
 3556TIP3   OH210610   1.513   2.616   3.086
 3556TIP3    H110611   1.424   2.581   3.096
 3556TIP3    H210612   1.569   2.539   3.084
 3557TIP3   OH210613   1.328   2.509   2.746
 3557TIP3    H110614   1.365   2.560   2.674
 3557TIP3    H210615   1.299   2.574   2.810
 3558TIP3   OH210616   1.953   2.694   2.985
 3558TIP3    H110617   2.019   2.712   2.917
 3558TIP3    H210618   2.000   2.706   3.067
 3559TIP3   OH210619   2.490   2.797   2.960
 3559TIP3    H110620   2.504   2.758   2.874
 3559TIP3    H210621   2.492   2.723   3.021
 3560TIP3   OH210622   1.017   4.087   2.520
 3560TIP3    H110623   0.937   4.050   2.484
 3560TIP3    H210624   1.019   4.177   2.485
 3561TIP3   OH210625   1.454   2.643   2.522
 3561TIP3    H110626   1.499   2.584   2.462
 3561TIP3    H210627   1.523   2.700   2.556
 3562TIP3   OH210628   1.937   2.842   2.613
 3562TIP3    H110629   1.997   2.794   2.670
 3562TIP3    H210630   1.949   2.934   2.638
 3563TIP3   OH210631   1.816   4.237   2.106
 3563TIP3    H110632   1.900   4.265   2.069
 3563TIP3    H210633   1.787   4.166   2.049
 3564TIP3   OH210634   2.524   4.382   2.206
 3564TIP3    H110635   2.516   4.286   2.200
 3564TIP3    H210636   2.478   4.414   2.128
 3565TIP3   OH210637   1.732   2.944   3.953
 3565TIP3    H110638   1.684   2.865   3.975
 3565TIP3    H210639   1.821   2.927   3.982
 3566TIP3   OH210640   1.977   2.903   4.099
 3566TIP3    H110641   2.059   2.877   4.059
 3566TIP3    H210642   1.955   2.831   4.157
 3567TIP3   OH210643   1.123   4.082   2.163
 3567TIP3    H110644   1.127   4.097   2.258
 3567TIP3    H210645   1.205   4.036   2.143
 3568TIP3   OH210646   2.831   3.013   3.907
 3568TIP3    H110647   2.840   2.970   3.992
 3568TIP3    H210648   2.906   2.981   3.857
 3569TIP3   OH210649   2.736   4.521   3.394
 3569TIP3    H110650   2.662   4.491   3.342
 3569TIP3    H210651   2.723   4.616   3.401
 3570TIP3   OH210652   4.016   3.911   2.139
 3570TIP3    H110653   3.986   3.997   2.109
 3570TIP3    H210654   3.947   3.851   2.111
 3571TIP3   OH210655   3.997   3.912   2.546
 3571TIP3    H110656   4.037   3.882   2.628
 3571TIP3    H210657   3.952   3.835   2.511
 3572TIP3   OH210658   3.311   3.789   2.896
 3572TIP3    H110659   3.337   3.730   2.966
 3572TIP3    H210660   3.393   3.812   2.852
 3573TIP3   OH210661   4.278   4.204   2.230
 3573TIP3    H110662   4.259   4.138   2.296
 3573TIP3    H210663   4.301   4.282   2.280
 3574TIP3   OH210664   3.302   4.195   2.596
 3574TIP3    H110665   3.285   4.101   2.604
 3574TIP3    H210666   3.396   4.202   2.584
 3575TIP3   OH210667   2.987   3.402   2.373
 3575TIP3    H110668   2.942   3.483   2.399
 3575TIP3    H210669   2.919   3.347   2.336
 3576TIP3   OH210670   3.054   3.695   2.598
 3576TIP3    H110671   3.105   3.619   2.625
 3576TIP3    H210672   3.118   3.753   2.557
 3577TIP3   OH210673   3.929   4.643   2.239
 3577TIP3    H110674   3.961   4.576   2.179
 3577TIP3    H210675   3.916   4.597   2.322
 3578TIP3   OH210676   3.799   4.124   2.554
 3578TIP3    H110677   3.847   4.047   2.524
 3578TIP3    H210678   3.867   4.183   2.586
 3579TIP3   OH210679   4.845   3.440   2.580
 3579TIP3    H110680   4.871   3.520   2.626
 3579TIP3    H210681   4.874   3.453   2.490
 3580TIP3   OH210682   4.230   3.612   2.611
 3580TIP3    H110683   4.268   3.528   2.636
 3580TIP3    H210684   4.194   3.597   2.523
 3581TIP3   OH210685   3.592   3.250   2.578
 3581TIP3    H110686   3.574   3.327   2.524
 3581TIP3    H210687   3.535   3.182   2.542
 3582TIP3   OH210688   4.275   3.370   2.194
 3582TIP3    H110689   4.339   3.360   2.264
 3582TIP3    H210690   4.326   3.404   2.120
 3583TIP3   OH210691   3.202   3.482   2.688
 3583TIP3    H110692   3.283   3.459   2.734
 3583TIP3    H210693   3.205   3.430   2.608
 3584TIP3   OH210694   3.629   3.676   2.494
 3584TIP3    H110695   3.723   3.660   2.502
 3584TIP3    H210696   3.592   3.593   2.465
 3585TIP3   OH210697   4.923   3.656   2.744
 3585TIP3    H110698   4.831   3.682   2.738
 3585TIP3    H210699   4.953   3.691   2.828
 3586TIP3   OH210700   3.916   4.126   1.995
 3586TIP3    H110701   3.874   4.095   1.914
 3586TIP3    H210702   3.862   4.200   2.022
 3587TIP3   OH210703   3.660   4.041   2.780
 3587TIP3    H110704   3.603   4.108   2.816
 3587TIP3    H210705   3.699   4.082   2.702
 3588TIP3   OH210706   4.435   3.386   2.414
 3588TIP3    H110707   4.399   3.366   2.500
 3588TIP3    H210708   4.495   3.459   2.429
 3589TIP3   OH210709   3.443   3.376   2.784
 3589TIP3    H110710   3.501   3.442   2.823
 3589TIP3    H210711   3.497   3.334   2.717
 3590TIP3   OH210712   3.500   4.244   2.880
 3590TIP3    H110713   3.484   4.333   2.848
 3590TIP3    H210714   3.423   4.223   2.934
 3591TIP3   OH210715   2.879   3.953   2.136
 3591TIP3    H110716   2.840   3.972   2.050
 3591TIP3    H210717   2.901   4.039   2.172
 3592TIP3   OH210718   4.329   4.448   2.378
 3592TIP3    H110719   4.242   4.441   2.417
 3592TIP3    H210720   4.325   4.529   2.325
 3593TIP3   OH210721   4.631   3.338   2.742
 3593TIP3    H110722   4.548   3.349   2.696
 3593TIP3    H210723   4.697   3.364   2.678
 3594TIP3   OH210724   3.908   2.960   2.740
 3594TIP3    H110725   3.899   2.868   2.766
 3594TIP3    H210726   3.830   3.003   2.775
 3595TIP3   OH210727   4.026   4.485   2.032
 3595TIP3    H110728   4.078   4.406   2.018
 3595TIP3    H210729   4.081   4.557   2.001
 3596TIP3   OH210730   4.164   4.256   1.982
 3596TIP3    H110731   4.090   4.195   1.980
 3596TIP3    H210732   4.214   4.230   2.060
 3597TIP3   OH210733   4.583   4.360   2.673
 3597TIP3    H110734   4.656   4.339   2.615
 3597TIP3    H210735   4.557   4.449   2.649
 3598TIP3   OH210736   3.844   3.749   1.991
 3598TIP3    H110737   3.760   3.790   1.973
 3598TIP3    H210738   3.887   3.745   1.905
 3599TIP3   OH210739   3.806   3.554   1.677
 3599TIP3    H110740   3.872   3.602   1.727
 3599TIP3    H210741   3.854   3.486   1.631
 3600TIP3   OH210742   4.715   3.990   2.582
 3600TIP3    H110743   4.630   4.031   2.567
 3600TIP3    H210744   4.766   4.010   2.503
 3601TIP3   OH210745   4.197   3.836   1.947
 3601TIP3    H110746   4.145   3.866   2.021
 3601TIP3    H210747   4.281   3.811   1.986
 3602TIP3   OH210748   3.425   3.814   2.358
 3602TIP3    H110749   3.386   3.755   2.293
 3602TIP3    H210750   3.499   3.764   2.394
 3603TIP3   OH210751   3.557   4.246   2.490
 3603TIP3    H110752   3.531   4.229   2.399
 3603TIP3    H210753   3.641   4.202   2.499
 3604TIP3   OH210754   3.539   3.798   2.729
 3604TIP3    H110755   3.572   3.764   2.646
 3604TIP3    H210756   3.586   3.880   2.742
 3605TIP3   OH210757   4.097   4.432   2.512
 3605TIP3    H110758   4.070   4.515   2.552
 3605TIP3    H210759   4.066   4.365   2.573
 3606TIP3   OH210760   3.699   4.348   3.043
 3606TIP3    H110761   3.640   4.406   3.091
 3606TIP3    H210762   3.641   4.296   2.986
 3607TIP3   OH210763   4.029   3.694   1.779
 3607TIP3    H110764   4.088   3.754   1.826
 3607TIP3    H210765   4.058   3.699   1.688
 3608TIP3   OH210766   3.456   3.888   3.185
 3608TIP3    H110767   3.468   3.979   3.211
 3608TIP3    H210768   3.361   3.874   3.187
 3609TIP3   OH210769   3.778   4.364   2.039
 3609TIP3    H110770   3.859   4.415   2.043
 3609TIP3    H210771   3.717   4.419   1.991
 3610TIP3   OH210772   3.489   4.503   3.136
 3610TIP3    H110773   3.461   4.513   3.045
 3610TIP3    H210774   3.408   4.487   3.185
 3611TIP3   OH210775   4.538   2.925   1.843
 3611TIP3    H110776   4.462   2.944   1.897
 3611TIP3    H210777   4.548   3.001   1.786
 3612TIP3   OH210778   3.298   3.658   2.156
 3612TIP3    H110779   3.221   3.704   2.124
 3612TIP3    H210780   3.267   3.569   2.175
 3613TIP3   OH210781   4.363   4.300   1.391
 3613TIP3    H110782   4.358   4.394   1.371
 3613TIP3    H210783   4.452   4.275   1.368
 3614TIP3   OH210784   3.083   4.057   3.086
 3614TIP3    H110785   3.012   4.042   3.023
 3614TIP3    H210786   3.117   3.969   3.105
 3615TIP3   OH210787   2.922   4.260   2.737
 3615TIP3    H110788   3.013   4.283   2.756
 3615TIP3    H210789   2.872   4.336   2.765
 3616TIP3   OH210790   4.787   4.732   2.784
 3616TIP3    H110791   4.799   4.638   2.797
 3616TIP3    H210792   4.705   4.753   2.828
 3617TIP3   OH210793   3.896   4.484   2.907
 3617TIP3    H110794   3.888   4.575   2.937
 3617TIP3    H210795   3.828   4.437   2.955
 3618TIP3   OH210796   3.669   4.591   1.865
 3618TIP3    H110797   3.620   4.571   1.785
 3618TIP3    H210798   3.632   4.674   1.895
 3619TIP3   OH210799   3.101   4.445   2.241
 3619TIP3    H110800   3.145   4.438   2.326
 3619TIP3    H210801   3.051   4.364   2.233
 3620TIP3   OH210802   3.867   4.523   1.489
 3620TIP3    H110803   3.918   4.450   1.454
 3620TIP3    H210804   3.902   4.536   1.577
 3621TIP3   OH210805   3.921   4.566   1.759
 3621TIP3    H110806   3.836   4.569   1.801
 3621TIP3    H210807   3.981   4.533   1.826
 3622TIP3   OH210808   4.663   3.816   3.080
 3622TIP3    H110809   4.587   3.774   3.039
 3622TIP3    H210810   4.706   3.746   3.129
 3623TIP3   OH210811   3.285   4.243   3.053
 3623TIP3    H110812   3.336   4.230   3.134
 3623TIP3    H210813   3.212   4.181   3.061
 3624TIP3   OH210814   3.663   3.079   2.821
 3624TIP3    H110815   3.577   3.038   2.827
 3624TIP3    H210816   3.654   3.143   2.750
 3625TIP3   OH210817   4.198   3.163   3.062
 3625TIP3    H110818   4.268   3.142   3.124
 3625TIP3    H210819   4.117   3.149   3.111
 3626TIP3   OH210820   4.451   3.677   2.966
 3626TIP3    H110821   4.410   3.638   3.043
 3626TIP3    H210822   4.382   3.675   2.899
 3627TIP3   OH210823   4.110   3.673   1.517
 3627TIP3    H110824   4.064   3.677   1.434
 3627TIP3    H210825   4.191   3.723   1.502
 3628TIP3   OH210826   3.821   3.094   1.834
 3628TIP3    H110827   3.783   3.103   1.921
 3628TIP3    H210828   3.782   3.014   1.799
 3629TIP3   OH210829   3.603   3.579   2.890
 3629TIP3    H110830   3.549   3.589   2.968
 3629TIP3    H210831   3.584   3.656   2.837
 3630TIP3   OH210832   3.497   3.448   2.409
 3630TIP3    H110833   3.406   3.429   2.433
 3630TIP3    H210834   3.504   3.418   2.318
 3631TIP3   OH210835   3.970   3.547   2.130
 3631TIP3    H110836   3.922   3.618   2.089
 3631TIP3    H210837   4.026   3.512   2.060
 3632TIP3   OH210838   4.160   3.817   3.197
 3632TIP3    H110839   4.136   3.745   3.255
 3632TIP3    H210840   4.251   3.837   3.219
 3633TIP3   OH210841   4.136   3.555   2.355
 3633TIP3    H110842   4.068   3.578   2.292
 3633TIP3    H210843   4.181   3.480   2.316
 3634TIP3   OH210844   3.420   3.621   3.093
 3634TIP3    H110845   3.438   3.698   3.147
 3634TIP3    H210846   3.360   3.568   3.144
 3635TIP3   OH210847   3.486   3.080   1.811
 3635TIP3    H110848   3.475   3.082   1.906
 3635TIP3    H210849   3.407   3.123   1.777
 3636TIP3   OH210850   3.020   3.119   2.676
 3636TIP3    H110851   3.097   3.150   2.722
 3636TIP3    H210852   3.053   3.089   2.591
 3637TIP3   OH210853   2.965   3.111   2.190
 3637TIP3    H110854   3.004   3.143   2.109
 3637TIP3    H210855   2.893   3.173   2.208
 3638TIP3   OH210856   4.117   3.807   2.766
 3638TIP3    H110857   4.163   3.746   2.709
 3638TIP3    H210858   4.103   3.759   2.847
 3639TIP3   OH210859   3.855   3.258   2.448
 3639TIP3    H110860   3.777   3.252   2.504
 3639TIP3    H210861   3.929   3.249   2.509
 3640TIP3   OH210862   3.245   3.344   2.454
 3640TIP3    H110863   3.157   3.353   2.418
 3640TIP3    H210864   3.267   3.251   2.441
 3641TIP3   OH210865   3.503   3.346   2.153
 3641TIP3    H110866   3.597   3.357   2.138
 3641TIP3    H210867   3.463   3.363   2.068
 3642TIP3   OH210868   4.319   3.353   2.669
 3642TIP3    H110869   4.310   3.366   2.763
 3642TIP3    H210870   4.248   3.292   2.647
 3643TIP3   OH210871   3.384   3.369   1.907
 3643TIP3    H110872   3.319   3.319   1.857
 3643TIP3    H210873   3.437   3.413   1.841
 3644TIP3   OH210874   4.496   5.052   2.875
 3644TIP3    H110875   4.488   5.076   2.783
 3644TIP3    H210876   4.574   5.100   2.905
 3645TIP3   OH210877   3.447   4.156   3.284
 3645TIP3    H110878   3.526   4.176   3.334
 3645TIP3    H210879   3.376   4.162   3.348
 3646TIP3   OH210880   3.898   3.626   2.553
 3646TIP3    H110881   3.967   3.575   2.508
 3646TIP3    H210882   3.898   3.591   2.642
 3647TIP3   OH210883   3.401   3.091   2.447
 3647TIP3    H110884   3.367   3.018   2.497
 3647TIP3    H210885   3.411   3.057   2.358
 3648TIP3   OH210886   3.875   3.538   2.827
 3648TIP3    H110887   3.787   3.570   2.850
 3648TIP3    H210888   3.934   3.591   2.881
 3649TIP3   OH210889   3.604   3.880   1.936
 3649TIP3    H110890   3.529   3.825   1.912
 3649TIP3    H210891   3.578   3.921   2.018
 3650TIP3   OH210892   4.461   4.129   2.542
 3650TIP3    H110893   4.507   4.173   2.471
 3650TIP3    H210894   4.394   4.076   2.499
 3651TIP3   OH210895   4.071   3.201   1.836
 3651TIP3    H110896   3.978   3.177   1.833
 3651TIP3    H210897   4.071   3.296   1.850
 3652TIP3   OH210898   4.049   4.210   2.951
 3652TIP3    H110899   4.031   4.156   3.028
 3652TIP3    H210900   4.003   4.292   2.967
 3653TIP3   OH210901   4.127   3.466   1.910
 3653TIP3    H110902   4.222   3.471   1.918
 3653TIP3    H210903   4.103   3.543   1.857
 3654TIP3   OH210904   3.303   3.911   2.588
 3654TIP3    H110905   3.341   3.886   2.503
 3654TIP3    H210906   3.356   3.864   2.652
 3655TIP3   OH210907   3.755   4.043   1.778
 3655TIP3    H110908   3.708   4.127   1.775
 3655TIP3    H210909   3.700   3.986   1.831
 3656TIP3   OH210910   3.184   3.816   3.211
 3656TIP3    H110911   3.184   3.791   3.304
 3656TIP3    H210912   3.105   3.777   3.175
 3657TIP3   OH210913   3.941   3.994   3.169
 3657TIP3    H110914   3.871   3.929   3.176
 3657TIP3    H210915   4.021   3.944   3.182
 3658TIP3   OH210916   4.166   4.505   2.834
 3658TIP3    H110917   4.071   4.495   2.839
 3658TIP3    H210918   4.190   4.550   2.915
 3659TIP3   OH210919   4.544   3.551   1.724
 3659TIP3    H110920   4.489   3.505   1.660
 3659TIP3    H210921   4.549   3.641   1.690
 3660TIP3   OH210922   4.820   4.457   2.820
 3660TIP3    H110923   4.733   4.430   2.852
 3660TIP3    H210924   4.832   4.408   2.739
 3661TIP3   OH210925   4.285   4.370   1.660
 3661TIP3    H110926   4.255   4.302   1.720
 3661TIP3    H210927   4.301   4.323   1.577
 3662TIP3   OH210928   4.255   3.989   2.428
 3662TIP3    H110929   4.164   3.970   2.448
 3662TIP3    H210930   4.288   3.909   2.388
 3663TIP3   OH210931   3.414   4.238   2.248
 3663TIP3    H110932   3.411   4.315   2.190
 3663TIP3    H210933   3.325   4.229   2.281
 3664TIP3   OH210934   2.977   3.525   1.964
 3664TIP3    H110935   3.020   3.608   1.986
 3664TIP3    H210936   2.896   3.526   2.015
 3665TIP3   OH210937   3.509   3.994   2.161
 3665TIP3    H110938   3.487   4.083   2.188
 3665TIP3    H210939   3.480   3.939   2.235
 3666TIP3   OH210940   3.704   4.562   2.707
 3666TIP3    H110941   3.737   4.637   2.657
 3666TIP3    H210942   3.779   4.531   2.757
 3667TIP3   OH210943   3.336   4.463   2.098
 3667TIP3    H110944   3.249   4.469   2.137
 3667TIP3    H210945   3.371   4.552   2.104
 3668TIP3   OH210946   4.037   4.208   2.672
 3668TIP3    H110947   4.039   4.209   2.768
 3668TIP3    H210948   4.064   4.120   2.647
 3669TIP3   OH210949   4.048   4.105   1.542
 3669TIP3    H110950   4.098   4.076   1.618
 3669TIP3    H210951   3.963   4.061   1.551
 3670TIP3   OH210952   4.295   4.742   2.722
 3670TIP3    H110953   4.223   4.678   2.729
 3670TIP3    H210954   4.271   4.796   2.646
 3671TIP3   OH210955   4.366   4.574   1.353
 3671TIP3    H110956   4.404   4.645   1.301
 3671TIP3    H210957   4.290   4.614   1.396
 3672TIP3   OH210958   4.223   4.015   1.734
 3672TIP3    H110959   4.207   3.963   1.813
 3672TIP3    H210960   4.318   4.024   1.730
 3673TIP3   OH210961   3.131   4.452   2.864
 3673TIP3    H110962   3.183   4.391   2.916
 3673TIP3    H210963   3.144   4.537   2.906
 3674TIP3   OH210964   3.400   4.069   1.558
 3674TIP3    H110965   3.410   3.977   1.532
 3674TIP3    H210966   3.383   4.065   1.653
 3675TIP3   OH210967   3.339   4.087   1.829
 3675TIP3    H110968   3.401   4.060   1.898
 3675TIP3    H210969   3.338   4.183   1.835
 3676TIP3   OH210970   3.074   3.777   2.042
 3676TIP3    H110971   3.009   3.824   2.094
 3676TIP3    H210972   3.092   3.834   1.968
 3677TIP3   OH210973   4.275   3.395   2.939
 3677TIP3    H110974   4.310   3.437   3.017
 3677TIP3    H210975   4.242   3.311   2.969
 3678TIP3   OH210976   4.128   3.152   2.105
 3678TIP3    H110977   4.107   3.169   2.013
 3678TIP3    H210978   4.170   3.232   2.136
 3679TIP3   OH210979   3.612   4.274   1.771
 3679TIP3    H110980   3.527   4.297   1.807
 3679TIP3    H210981   3.635   4.348   1.715
 3680TIP3   OH210982   3.786   3.351   2.194
 3680TIP3    H110983   3.847   3.421   2.170
 3680TIP3    H210984   3.807   3.331   2.286
 3681TIP3   OH210985   4.086   3.649   2.986
 3681TIP3    H110986   4.105   3.706   3.060
 3681TIP3    H210987   4.135   3.569   3.004
 3682TIP3   OH210988   3.943   3.048   2.283
 3682TIP3    H110989   3.919   3.125   2.333
 3682TIP3    H210990   4.011   3.078   2.222
 3683TIP3   OH210991   3.361   4.360   1.845
 3683TIP3    H110992   3.340   4.431   1.785
 3683TIP3    H210993   3.350   4.398   1.932
 3684TIP3   OH210994   3.457   3.073   2.088
 3684TIP3    H110995   3.443   3.162   2.119
 3684TIP3    H210996   3.551   3.058   2.095
 3685TIP3   OH210997   4.684   3.519   2.955
 3685TIP3    H110998   4.601   3.567   2.958
 3685TIP3    H210999   4.670   3.452   2.888
 3686TIP3   OH211000   4.356   3.738   2.343
 3686TIP3    H111001   4.282   3.678   2.353
 3686TIP3    H211002   4.427   3.698   2.394
 3687TIP3   OH211003   3.095   3.953   1.824
 3687TIP3    H111004   3.166   4.017   1.832
 3687TIP3    H211005   3.127   3.890   1.760
 3688TIP3   OH211006   3.008   3.248   1.955
 3688TIP3    H111007   3.014   3.343   1.962
 3688TIP3    H211008   2.928   3.233   1.904
 3689TIP3   OH211009   4.339   4.712   2.283
 3689TIP3    H111010   4.296   4.764   2.216
 3689TIP3    H211011   4.432   4.729   2.272
 3690TIP3   OH211012   3.412   2.966   2.826
 3690TIP3    H111013   3.378   2.938   2.741
 3690TIP3    H211014   3.402   2.890   2.883
 3691TIP3   OH211015   2.926   4.223   2.217
 3691TIP3    H111016   2.881   4.259   2.294
 3691TIP3    H211017   2.884   4.265   2.142
 3692TIP3   OH211018   3.126   4.757   3.286
 3692TIP3    H111019   3.209   4.760   3.334
 3692TIP3    H211020   3.106   4.664   3.278
 3693TIP3   OH211021   3.591   4.671   3.330
 3693TIP3    H111022   3.684   4.648   3.337
 3693TIP3    H211023   3.558   4.615   3.260
 3694TIP3   OH211024   3.555   4.269   1.448
 3694TIP3    H111025   3.507   4.199   1.493
 3694TIP3    H211026   3.629   4.225   1.408
 3695TIP3   OH211027   4.221   4.616   3.077
 3695TIP3    H111028   4.229   4.549   3.145
 3695TIP3    H211029   4.293   4.677   3.095
 3696TIP3   OH211030   3.997   4.312   1.370
 3696TIP3    H111031   4.029   4.248   1.433
 3696TIP3    H211032   4.057   4.307   1.297
 3697TIP3   OH211033   3.236   4.162   3.470
 3697TIP3    H111034   3.257   4.069   3.479
 3697TIP3    H211035   3.149   4.163   3.430
 3698TIP3   OH211036   3.222   3.765   1.674
 3698TIP3    H111037   3.272   3.740   1.752
 3698TIP3    H211038   3.289   3.778   1.606
 3699TIP3   OH211039   3.855   4.248   3.244
 3699TIP3    H111040   3.803   4.271   3.167
 3699TIP3    H211041   3.890   4.161   3.225
 3700TIP3   OH211042   3.793   3.988   1.511
 3700TIP3    H111043   3.769   3.999   1.603
 3700TIP3    H211044   3.773   3.896   1.493
 3701TIP3   OH211045   4.302   4.267   2.829
 3701TIP3    H111046   4.263   4.355   2.827
 3701TIP3    H211047   4.245   4.216   2.886
 3702TIP3   OH211048   3.354   3.910   3.476
 3702TIP3    H111049   3.424   3.857   3.438
 3702TIP3    H211050   3.380   3.921   3.568
 3703TIP3   OH211051   3.394   3.705   1.888
 3703TIP3    H111052   3.371   3.674   1.976
 3703TIP3    H211053   3.440   3.631   1.848
 3704TIP3   OH211054   3.721   3.774   3.146
 3704TIP3    H111055   3.636   3.817   3.157
 3704TIP3    H211056   3.748   3.795   3.057
 3705TIP3   OH211057   3.534   3.520   1.732
 3705TIP3    H111058   3.503   3.524   1.642
 3705TIP3    H211059   3.629   3.528   1.726
 3706TIP3   OH211060   4.246   4.170   3.268
 3706TIP3    H111061   4.339   4.169   3.289
 3706TIP3    H211062   4.207   4.106   3.328
 3707TIP3   OH211063   4.329   3.810   1.412
 3707TIP3    H111064   4.315   3.770   1.326
 3707TIP3    H211065   4.305   3.902   1.399
 3708TIP3   OH211066   3.751   3.523   3.261
 3708TIP3    H111067   3.765   3.459   3.191
 3708TIP3    H211068   3.743   3.607   3.216
 3709TIP3   OH211069   3.800   3.349   3.033
 3709TIP3    H111070   3.840   3.397   2.961
 3709TIP3    H211071   3.716   3.318   2.998
 3710TIP3   OH211072   3.820   3.851   2.903
 3710TIP3    H111073   3.909   3.871   2.874
 3710TIP3    H211074   3.767   3.921   2.865
 3711TIP3   OH211075   4.420   3.834   3.302
 3711TIP3    H111076   4.444   3.772   3.371
 3711TIP3    H211077   4.504   3.858   3.262
 3712TIP3   OH211078   3.606   3.706   3.491
 3712TIP3    H111079   3.550   3.695   3.568
 3712TIP3    H211080   3.673   3.769   3.519
 3713TIP3   OH211081   3.931   3.123   3.142
 3713TIP3    H111082   3.889   3.202   3.107
 3713TIP3    H211083   3.867   3.054   3.130
 3714TIP3   OH211084   4.103   3.578   3.319
 3714TIP3    H111085   4.089   3.594   3.412
 3714TIP3    H211086   4.020   3.543   3.287
 3715TIP3   OH211087   4.332   3.534   3.169
 3715TIP3    H111088   4.259   3.542   3.231
 3715TIP3    H211089   4.408   3.516   3.224
 3716TIP3   OH211090   4.555   3.499   3.327
 3716TIP3    H111091   4.568   3.408   3.353
 3716TIP3    H211092   4.536   3.546   3.408
 3717TIP3   OH211093   3.614   3.407   3.545
 3717TIP3    H111094   3.649   3.319   3.534
 3717TIP3    H211095   3.606   3.419   3.640
 3718TIP3   OH211096   4.003   3.130   3.410
 3718TIP3    H111097   4.072   3.064   3.412
 3718TIP3    H211098   3.972   3.130   3.320
 3719TIP3   OH211099   4.085   3.347   3.570
 3719TIP3    H111100   4.050   3.279   3.513
 3719TIP3    H211101   4.018   3.414   3.573
 3720TIP3   OH211102   3.358   4.569   1.662
 3720TIP3    H111103   3.447   4.547   1.635
 3720TIP3    H211104   3.320   4.614   1.587
 3721TIP3   OH211105   2.821   3.953   1.841
 3721TIP3    H111106   2.916   3.964   1.840
 3721TIP3    H211107   2.806   3.866   1.804
 3722TIP3   OH211108   2.728   4.536   2.303
 3722TIP3    H111109   2.663   4.482   2.257
 3722TIP3    H211110   2.772   4.475   2.362
 3723TIP3   OH211111   2.872   4.368   2.470
 3723TIP3    H111112   2.862   4.299   2.535
 3723TIP3    H211113   2.923   4.435   2.513
 3724TIP3   OH211114   4.608   4.770   2.282
 3724TIP3    H111115   4.623   4.806   2.369
 3724TIP3    H211116   4.658   4.827   2.223
 3725TIP3   OH211117   4.619   4.821   2.559
 3725TIP3    H111118   4.573   4.738   2.562
 3725TIP3    H211119   4.693   4.810   2.620
 3726TIP3   OH211120   4.682   4.482   3.109
 3726TIP3    H111121   4.612   4.488   3.174
 3726TIP3    H211122   4.728   4.566   3.115
 3727TIP3   OH211123   4.504   4.016   1.741
 3727TIP3    H111124   4.560   4.088   1.712
 3727TIP3    H211125   4.550   3.980   1.817
 3728TIP3   OH211126   4.635   3.876   1.945
 3728TIP3    H111127   4.566   3.838   1.999
 3728TIP3    H211128   4.697   3.914   2.007
 3729TIP3   OH211129   4.653   4.269   2.394
 3729TIP3    H111130   4.711   4.207   2.351
 3729TIP3    H211131   4.654   4.346   2.337
 3730TIP3   OH211132   4.474   4.586   2.576
 3730TIP3    H111133   4.406   4.633   2.624
 3730TIP3    H211134   4.429   4.547   2.501
 3731TIP3   OH211135   4.538   3.791   1.588
 3731TIP3    H111136   4.466   3.791   1.525
 3731TIP3    H211137   4.523   3.869   1.641
 3732TIP3   OH211138   4.397   3.437   1.522
 3732TIP3    H111139   4.347   3.477   1.451
 3732TIP3    H211140   4.387   3.343   1.510
 3733TIP3   OH211141   4.427   3.737   2.074
 3733TIP3    H111142   4.431   3.642   2.057
 3733TIP3    H211143   4.407   3.743   2.167
 3734TIP3   OH211144   3.043   3.805   2.848
 3734TIP3    H111145   3.032   3.768   2.761
 3734TIP3    H211146   3.138   3.809   2.860
 3735TIP3   OH211147   4.865   3.969   2.969
 3735TIP3    H111148   4.788   3.921   2.999
 3735TIP3    H211149   4.937   3.906   2.978
 3736TIP3   OH211150   4.355   3.165   1.493
 3736TIP3    H111151   4.417   3.143   1.563
 3736TIP3    H211152   4.271   3.132   1.524
 3737TIP3   OH211153   4.420   3.461   1.964
 3737TIP3    H111154   4.464   3.377   1.978
 3737TIP3    H211155   4.461   3.498   1.886
 3738TIP3   OH211156   4.576   3.618   2.474
 3738TIP3    H111157   4.655   3.638   2.423
 3738TIP3    H211158   4.595   3.649   2.562
 3739TIP3   OH211159   4.663   3.750   2.707
 3739TIP3    H111160   4.609   3.773   2.783
 3739TIP3    H211161   4.684   3.833   2.665
 3740TIP3   OH211162   3.302   3.497   3.525
 3740TIP3    H111163   3.394   3.473   3.520
 3740TIP3    H211164   3.256   3.414   3.541
 3741TIP3   OH211165   5.099   3.384   3.246
 3741TIP3    H111166   5.166   3.324   3.214
 3741TIP3    H211167   5.066   3.427   3.167
 3742TIP3   OH211168   4.533   3.211   2.016
 3742TIP3    H111169   4.580   3.196   2.098
 3742TIP3    H211170   4.470   3.139   2.011
 3743TIP3   OH211171   3.240   3.188   2.832
 3743TIP3    H111172   3.293   3.109   2.845
 3743TIP3    H211173   3.304   3.259   2.825
 3744TIP3   OH211174   3.015   3.449   2.900
 3744TIP3    H111175   3.066   3.444   2.819
 3744TIP3    H211176   3.049   3.526   2.945
 3745TIP3   OH211177   4.948   3.488   3.038
 3745TIP3    H111178   4.859   3.521   3.045
 3745TIP3    H211179   4.939   3.405   2.991
 3746TIP3   OH211180   4.579   3.124   1.656
 3746TIP3    H111181   4.627   3.064   1.599
 3746TIP3    H211182   4.634   3.202   1.660
 3747TIP3   OH211183   3.026   2.981   2.420
 3747TIP3    H111184   2.938   2.960   2.452
 3747TIP3    H211185   3.011   3.032   2.340
 3748TIP3   OH211186   4.166   4.684   1.919
 3748TIP3    H111187   4.224   4.675   1.843
 3748TIP3    H211188   4.205   4.754   1.971
 3749TIP3   OH211189   3.215   3.003   3.206
 3749TIP3    H111190   3.176   3.009   3.294
 3749TIP3    H211191   3.164   3.064   3.153
 3750TIP3   OH211192   3.266   4.475   3.304
 3750TIP3    H111193   3.172   4.458   3.292
 3750TIP3    H211194   3.280   4.463   3.397
 3751TIP3   OH211195   3.473   4.522   2.852
 3751TIP3    H111196   3.422   4.596   2.821
 3751TIP3    H211197   3.559   4.532   2.810
 3752TIP3   OH211198   3.879   4.751   2.984
 3752TIP3    H111199   3.913   4.747   3.073
 3752TIP3    H211200   3.941   4.807   2.937
 3753TIP3   OH211201   4.071   4.912   2.866
 3753TIP3    H111202   4.141   4.865   2.821
 3753TIP3    H211203   4.116   4.975   2.922
 3754TIP3   OH211204   4.875   3.226   2.952
 3754TIP3    H111205   4.784   3.206   2.930
 3754TIP3    H211206   4.920   3.142   2.949
 3755TIP3   OH211207   3.134   4.768   2.899
 3755TIP3    H111208   3.043   4.783   2.875
 3755TIP3    H211209   3.154   4.834   2.964
 3756TIP3   OH211210   3.365   4.755   2.749
 3756TIP3    H111211   3.283   4.761   2.797
 3756TIP3    H211212   3.343   4.780   2.660
 3757TIP3   OH211213   3.779   4.771   2.540
 3757TIP3    H111214   3.705   4.786   2.480
 3757TIP3    H211215   3.792   4.856   2.583
 3758TIP3   OH211216   4.040   4.695   2.580
 3758TIP3    H111217   3.949   4.720   2.566
 3758TIP3    H211218   4.091   4.763   2.537
 3759TIP3   OH211219   4.238   4.873   2.485
 3759TIP3    H111220   4.243   4.962   2.451
 3759TIP3    H211221   4.270   4.818   2.414
 3760TIP3   OH211222   3.045   4.545   2.614
 3760TIP3    H111223   3.068   4.520   2.704
 3760TIP3    H211224   3.117   4.513   2.561
 3761TIP3   OH211225   3.249   4.432   2.474
 3761TIP3    H111226   3.259   4.349   2.521
 3761TIP3    H211227   3.335   4.474   2.480
 3762TIP3   OH211228   3.516   4.521   2.501
 3762TIP3    H111229   3.534   4.428   2.486
 3762TIP3    H211230   3.569   4.543   2.578
 3763TIP3   OH211231   4.081   3.171   2.595
 3763TIP3    H111232   4.042   3.098   2.643
 3763TIP3    H211233   4.149   3.132   2.542
 3764TIP3   OH211234   4.579   3.080   2.472
 3764TIP3    H111235   4.615   3.130   2.398
 3764TIP3    H211236   4.486   3.101   2.472
 3765TIP3   OH211237   4.694   3.158   2.235
 3765TIP3    H111238   4.763   3.097   2.210
 3765TIP3    H211239   4.734   3.245   2.223
 3766TIP3   OH211240   3.318   2.868   2.586
 3766TIP3    H111241   3.226   2.839   2.586
 3766TIP3    H211242   3.368   2.787   2.580
 3767TIP3   OH211243   3.171   2.788   2.260
 3767TIP3    H111244   3.173   2.832   2.175
 3767TIP3    H211245   3.121   2.848   2.316
 3768TIP3   OH211246   3.800   2.905   2.481
 3768TIP3    H111247   3.847   2.951   2.411
 3768TIP3    H211248   3.845   2.929   2.561
 3769TIP3   OH211249   4.292   3.054   2.459
 3769TIP3    H111250   4.296   3.020   2.370
 3769TIP3    H211251   4.297   2.976   2.515
 3770TIP3   OH211252   4.348   3.000   2.027
 3770TIP3    H111253   4.268   3.046   2.050
 3770TIP3    H211254   4.337   2.913   2.065
 3771TIP3   OH211255   2.812   4.343   1.997
 3771TIP3    H111256   2.727   4.310   1.968
 3771TIP3    H211257   2.814   4.433   1.966
 3772TIP3   OH211258   3.245   2.908   1.998
 3772TIP3    H111259   3.290   2.844   1.943
 3772TIP3    H211260   3.315   2.962   2.036
 3773TIP3   OH211261   3.732   3.100   2.096
 3773TIP3    H111262   3.788   3.046   2.151
 3773TIP3    H211263   3.748   3.190   2.125
 3774TIP3   OH211264   3.613   4.493   1.593
 3774TIP3    H111265   3.696   4.521   1.555
 3774TIP3    H211266   3.584   4.422   1.537
 3775TIP3   OH211267   4.320   4.639   1.692
 3775TIP3    H111268   4.313   4.543   1.685
 3775TIP3    H211269   4.276   4.672   1.614
 3776TIP3   OH211270   3.769   3.179   3.580
 3776TIP3    H111271   3.848   3.150   3.535
 3776TIP3    H211272   3.744   3.105   3.636
 3777TIP3   OH211273   2.918   4.337   1.651
 3777TIP3    H111274   2.917   4.345   1.746
 3777TIP3    H211275   3.000   4.291   1.631
 3778TIP3   OH211276   4.614   3.234   3.376
 3778TIP3    H111277   4.629   3.208   3.467
 3778TIP3    H211278   4.701   3.230   3.335
 3779TIP3   OH211279   4.529   4.780   2.878
 3779TIP3    H111280   4.450   4.753   2.832
 3779TIP3    H211281   4.521   4.875   2.888
 3780TIP3   OH211282   5.810   4.163   1.623
 3780TIP3    H111283   5.779   4.250   1.597
 3780TIP3    H211284   5.737   4.105   1.600
 3781TIP3   OH211285   5.809   4.154   2.045
 3781TIP3    H111286   5.860   4.138   2.124
 3781TIP3    H211287   5.764   4.072   2.028
 3782TIP3   OH211288   5.105   4.019   2.399
 3782TIP3    H111289   5.144   3.965   2.468
 3782TIP3    H211290   5.178   4.043   2.343
 3783TIP3   OH211291   6.082   4.461   1.716
 3783TIP3    H111292   6.066   4.396   1.784
 3783TIP3    H211293   6.099   4.543   1.764
 3784TIP3   OH211294   5.099   4.442   2.077
 3784TIP3    H111295   5.082   4.348   2.084
 3784TIP3    H211296   5.195   4.448   2.069
 3785TIP3   OH211297   4.781   3.648   1.861
 3785TIP3    H111298   4.743   3.733   1.886
 3785TIP3    H211299   4.708   3.601   1.821
 3786TIP3   OH211300   4.860   3.967   2.095
 3786TIP3    H111301   4.910   3.889   2.117
 3786TIP3    H211302   4.926   4.031   2.068
 3787TIP3   OH211303   5.727   4.898   1.730
 3787TIP3    H111304   5.760   4.829   1.671
 3787TIP3    H211305   5.724   4.857   1.816
 3788TIP3   OH211306   5.615   4.376   2.052
 3788TIP3    H111307   5.660   4.296   2.023
 3788TIP3    H211308   5.685   4.433   2.084
 3789TIP3   OH211309   6.641   3.702   2.069
 3789TIP3    H111310   6.660   3.784   2.114
 3789TIP3    H211311   6.661   3.720   1.977
 3790TIP3   OH211312   6.021   3.867   2.085
 3790TIP3    H111313   6.054   3.782   2.115
 3790TIP3    H211314   5.983   3.849   1.999
 3791TIP3   OH211315   5.375   3.525   2.045
 3791TIP3    H111316   5.354   3.598   1.987
 3791TIP3    H211317   5.320   3.453   2.014
 3792TIP3   OH211318   6.074   3.625   1.682
 3792TIP3    H111319   6.137   3.618   1.754
 3792TIP3    H211320   6.125   3.660   1.609
 3793TIP3   OH211321   5.003   3.741   2.171
 3793TIP3    H111322   5.085   3.720   2.214
 3793TIP3    H211323   5.006   3.691   2.089
 3794TIP3   OH211324   5.419   3.939   1.992
 3794TIP3    H111325   5.513   3.924   1.999
 3794TIP3    H211326   5.384   3.857   1.957
 3795TIP3   OH211327   6.702   3.922   2.229
 3795TIP3    H111328   6.611   3.952   2.229
 3795TIP3    H211329   6.737   3.953   2.313
 3796TIP3   OH211330   5.360   3.527   2.496
 3796TIP3    H111331   5.306   3.563   2.425
 3796TIP3    H211332   5.308   3.541   2.575
 3797TIP3   OH211333   5.704   4.380   1.486
 3797TIP3    H111334   5.662   4.355   1.403
 3797TIP3    H211335   5.654   4.456   1.516
 3798TIP3   OH211336   5.451   4.302   2.263
 3798TIP3    H111337   5.398   4.374   2.298
 3798TIP3    H211338   5.500   4.341   2.191
 3799TIP3   OH211339   6.235   3.642   1.902
 3799TIP3    H111340   6.189   3.622   1.984
 3799TIP3    H211341   6.288   3.719   1.923
 3800TIP3   OH211342   5.246   3.634   2.266
 3800TIP3    H111343   5.302   3.709   2.290
 3800TIP3    H211344   5.293   3.591   2.195
 3801TIP3   OH211345   5.294   4.505   2.370
 3801TIP3    H111346   5.279   4.594   2.340
 3801TIP3    H211347   5.217   4.484   2.423
 3802TIP3   OH211348   4.672   4.208   1.623
 3802TIP3    H111349   4.636   4.229   1.537
 3802TIP3    H211350   4.696   4.293   1.660
 3803TIP3   OH211351   6.111   4.707   1.856
 3803TIP3    H111352   6.025   4.700   1.898
 3803TIP3    H211353   6.109   4.791   1.811
 3804TIP3   OH211354   6.438   3.589   2.231
 3804TIP3    H111355   6.354   3.615   2.194
 3804TIP3    H211356   6.503   3.618   2.167
 3805TIP3   OH211357   5.698   3.220   2.227
 3805TIP3    H111358   5.693   3.129   2.255
 3805TIP3    H211359   5.621   3.262   2.267
 3806TIP3   OH211360   5.825   4.729   1.532
 3806TIP3    H111361   5.878   4.651   1.515
 3806TIP3    H211362   5.883   4.802   1.510
 3807TIP3   OH211363   5.978   4.512   1.466
 3807TIP3    H111364   5.919   4.438   1.451
 3807TIP3    H211365   6.023   4.490   1.547
 3808TIP3   OH211366   6.344   4.601   2.202
 3808TIP3    H111367   6.328   4.525   2.145
 3808TIP3    H211368   6.328   4.677   2.146
 3809TIP3   OH211369   5.634   4.000   1.478
 3809TIP3    H111370   5.553   4.046   1.456
 3809TIP3    H211371   5.682   3.996   1.395
 3810TIP3   OH211372   5.601   3.812   1.161
 3810TIP3    H111373   5.666   3.859   1.214
 3810TIP3    H211374   5.652   3.744   1.116
 3811TIP3   OH211375   6.533   4.258   2.058
 3811TIP3    H111376   6.449   4.303   2.060
 3811TIP3    H211377   6.568   4.274   1.971
 3812TIP3   OH211378   5.994   4.079   1.441
 3812TIP3    H111379   5.940   4.111   1.514
 3812TIP3    H211380   6.076   4.054   1.482
 3813TIP3   OH211381   6.224   4.125   2.378
 3813TIP3    H111382   6.222   4.207   2.427
 3813TIP3    H211383   6.141   4.123   2.331
 3814TIP3   OH211384   5.223   4.074   1.838
 3814TIP3    H111385   5.187   4.012   1.774
 3814TIP3    H211386   5.295   4.026   1.879
 3815TIP3   OH211387   5.362   4.493   1.982
 3815TIP3    H111388   5.339   4.479   1.890
 3815TIP3    H211389   5.449   4.455   1.991
 3816TIP3   OH211390   5.317   4.067   2.216
 3816TIP3    H111391   5.356   4.031   2.137
 3816TIP3    H211392   5.366   4.148   2.233
 3817TIP3   OH211393   5.878   4.702   1.994
 3817TIP3    H111394   5.863   4.783   2.042
 3817TIP3    H211395   5.860   4.632   2.057
 3818TIP3   OH211396   5.495   4.604   2.535
 3818TIP3    H111397   5.436   4.663   2.583
 3818TIP3    H211398   5.438   4.553   2.478
 3819TIP3   OH211399   5.821   3.948   1.274
 3819TIP3    H111400   5.882   4.004   1.323
 3819TIP3    H211401   5.850   3.954   1.183
 3820TIP3   OH211402   5.258   4.160   2.673
 3820TIP3    H111403   5.259   4.253   2.696
 3820TIP3    H211404   5.165   4.138   2.668
 3821TIP3   OH211405   5.570   4.620   1.533
 3821TIP3    H111406   5.653   4.667   1.542
 3821TIP3    H211407   5.512   4.683   1.491
 3822TIP3   OH211408   5.287   4.765   2.621
 3822TIP3    H111409   5.260   4.775   2.530
 3822TIP3    H211410   5.206   4.747   2.669
 3823TIP3   OH211411   6.337   3.183   1.332
 3823TIP3    H111412   6.260   3.206   1.386
 3823TIP3    H211413   6.347   3.258   1.273
 3824TIP3   OH211414   5.097   3.915   1.637
 3824TIP3    H111415   5.019   3.963   1.608
 3824TIP3    H211416   5.065   3.827   1.656
 3825TIP3   OH211417   6.180   4.530   1.009
 3825TIP3    H111418   6.159   4.610   0.962
 3825TIP3    H211419   6.238   4.482   0.950
 3826TIP3   OH211420   4.867   4.309   2.591
 3826TIP3    H111421   4.833   4.278   2.507
 3826TIP3    H211422   4.912   4.233   2.628
 3827TIP3   OH211423   4.711   4.509   2.246
 3827TIP3    H111424   4.804   4.530   2.249
 3827TIP3    H211425   4.667   4.591   2.267
 3828TIP3   OH211426   6.577   4.959   2.272
 3828TIP3    H111427   6.581   4.865   2.289
 3828TIP3    H211428   6.497   4.988   2.317
 3829TIP3   OH211429   5.682   4.753   2.399
 3829TIP3    H111430   5.678   4.841   2.435
 3829TIP3    H211431   5.616   4.704   2.448
 3830TIP3   OH211432   5.451   4.842   1.372
 3830TIP3    H111433   5.404   4.823   1.290
 3830TIP3    H211434   5.414   4.926   1.401
 3831TIP3   OH211435   4.894   4.701   1.732
 3831TIP3    H111436   4.940   4.694   1.815
 3831TIP3    H211437   4.846   4.619   1.723
 3832TIP3   OH211438   5.664   4.726   1.038
 3832TIP3    H111439   5.729   4.664   1.006
 3832TIP3    H211440   5.698   4.755   1.122
 3833TIP3   OH211441   5.710   4.820   1.290
 3833TIP3    H111442   5.621   4.825   1.327
 3833TIP3    H211443   5.763   4.785   1.361
 3834TIP3   OH211444   6.477   4.072   2.534
 3834TIP3    H111445   6.388   4.081   2.500
 3834TIP3    H211446   6.492   3.978   2.539
 3835TIP3   OH211447   5.078   4.496   2.544
 3835TIP3    H111448   5.130   4.490   2.624
 3835TIP3    H211449   5.004   4.438   2.559
 3836TIP3   OH211450   5.461   3.312   2.350
 3836TIP3    H111451   5.376   3.278   2.322
 3836TIP3    H211452   5.440   3.392   2.398
 3837TIP3   OH211453   6.004   3.430   2.553
 3837TIP3    H111454   6.074   3.407   2.613
 3837TIP3    H211455   5.924   3.415   2.602
 3838TIP3   OH211456   6.230   3.861   2.464
 3838TIP3    H111457   6.186   3.854   2.549
 3838TIP3    H211458   6.213   3.951   2.436
 3839TIP3   OH211459   5.893   3.948   1.014
 3839TIP3    H111460   5.846   3.931   0.932
 3839TIP3    H211461   5.936   4.032   0.999
 3840TIP3   OH211462   5.614   3.351   1.324
 3840TIP3    H111463   5.578   3.359   1.412
 3840TIP3    H211464   5.577   3.269   1.290
 3841TIP3   OH211465   5.400   3.844   2.360
 3841TIP3    H111466   5.357   3.851   2.445
 3841TIP3    H211467   5.378   3.926   2.315
 3842TIP3   OH211468   5.280   3.724   1.882
 3842TIP3    H111469   5.191   3.701   1.907
 3842TIP3    H211470   5.290   3.691   1.793
 3843TIP3   OH211471   5.761   3.796   1.610
 3843TIP3    H111472   5.714   3.869   1.571
 3843TIP3    H211473   5.819   3.764   1.541
 3844TIP3   OH211474   5.950   4.065   2.686
 3844TIP3    H111475   5.923   3.996   2.747
 3844TIP3    H211476   6.042   4.080   2.707
 3845TIP3   OH211477   5.928   3.812   1.834
 3845TIP3    H111478   5.859   3.832   1.771
 3845TIP3    H211479   5.975   3.738   1.795
 3846TIP3   OH211480   5.240   3.854   2.585
 3846TIP3    H111481   5.277   3.911   2.652
 3846TIP3    H211482   5.223   3.771   2.630
 3847TIP3   OH211483   5.279   3.333   1.297
 3847TIP3    H111484   5.270   3.339   1.392
 3847TIP3    H211485   5.201   3.378   1.263
 3848TIP3   OH211486   4.830   3.380   2.164
 3848TIP3    H111487   4.899   3.416   2.220
 3848TIP3    H211488   4.873   3.366   2.080
 3849TIP3   OH211489   4.734   3.356   1.666
 3849TIP3    H111490   4.778   3.391   1.589
 3849TIP3    H211491   4.671   3.423   1.692
 3850TIP3   OH211492   5.969   4.066   2.262
 3850TIP3    H111493   5.995   4.000   2.198
 3850TIP3    H211494   5.928   4.017   2.333
 3851TIP3   OH211495   5.642   3.517   1.935
 3851TIP3    H111496   5.564   3.516   1.990
 3851TIP3    H211497   5.715   3.506   1.997
 3852TIP3   OH211498   5.041   3.599   1.939
 3852TIP3    H111499   4.953   3.603   1.902
 3852TIP3    H211500   5.070   3.509   1.924
 3853TIP3   OH211501   5.294   3.599   1.637
 3853TIP3    H111502   5.388   3.611   1.627
 3853TIP3    H211503   5.258   3.617   1.550
 3854TIP3   OH211504   6.090   3.602   2.137
 3854TIP3    H111505   6.077   3.617   2.231
 3854TIP3    H211506   6.020   3.541   2.113
 3855TIP3   OH211507   5.181   3.622   1.389
 3855TIP3    H111508   5.117   3.574   1.336
 3855TIP3    H211509   5.234   3.670   1.325
 3856TIP3   OH211510   6.295   5.309   2.355
 3856TIP3    H111511   6.290   5.330   2.261
 3856TIP3    H211512   6.373   5.357   2.385
 3857TIP3   OH211513   5.238   4.421   2.776
 3857TIP3    H111514   5.322   4.442   2.818
 3857TIP3    H211515   5.173   4.434   2.845
 3858TIP3   OH211516   5.692   3.885   2.042
 3858TIP3    H111517   5.759   3.835   1.995
 3858TIP3    H211518   5.690   3.847   2.130
 3859TIP3   OH211519   5.184   3.350   1.929
 3859TIP3    H111520   5.156   3.276   1.982
 3859TIP3    H211521   5.209   3.312   1.845
 3860TIP3   OH211522   5.669   3.792   2.307
 3860TIP3    H111523   5.582   3.823   2.332
 3860TIP3    H211524   5.729   3.842   2.362
 3861TIP3   OH211525   5.407   4.143   1.409
 3861TIP3    H111526   5.332   4.089   1.386
 3861TIP3    H211527   5.381   4.185   1.491
 3862TIP3   OH211528   6.295   4.394   2.023
 3862TIP3    H111529   6.330   4.444   1.949
 3862TIP3    H211530   6.214   4.356   1.990
 3863TIP3   OH211531   5.867   3.455   1.321
 3863TIP3    H111532   5.774   3.433   1.320
 3863TIP3    H211533   5.869   3.550   1.334
 3864TIP3   OH211534   5.809   4.479   2.440
 3864TIP3    H111535   5.863   4.465   2.518
 3864TIP3    H211536   5.772   4.566   2.452
 3865TIP3   OH211537   5.925   3.718   1.395
 3865TIP3    H111538   6.021   3.723   1.404
 3865TIP3    H211539   5.902   3.795   1.344
 3866TIP3   OH211540   5.087   4.151   2.068
 3866TIP3    H111541   5.126   4.135   1.981
 3866TIP3    H211542   5.155   4.123   2.129
 3867TIP3   OH211543   5.564   4.304   1.248
 3867TIP3    H111544   5.513   4.385   1.252
 3867TIP3    H211545   5.513   4.241   1.299
 3868TIP3   OH211546   4.984   4.101   2.728
 3868TIP3    H111547   5.015   4.105   2.818
 3868TIP3    H211548   4.917   4.033   2.727
 3869TIP3   OH211549   5.718   4.220   2.720
 3869TIP3    H111550   5.652   4.160   2.685
 3869TIP3    H211551   5.802   4.181   2.695
 3870TIP3   OH211552   5.951   4.762   2.314
 3870TIP3    H111553   5.856   4.752   2.319
 3870TIP3    H211554   5.976   4.800   2.398
 3871TIP3   OH211555   6.351   3.806   1.224
 3871TIP3    H111556   6.293   3.760   1.163
 3871TIP3    H211557   6.358   3.894   1.187
 3872TIP3   OH211558   6.589   4.674   2.300
 3872TIP3    H111559   6.494   4.664   2.292
 3872TIP3    H211560   6.624   4.649   2.215
 3873TIP3   OH211561   6.029   4.640   1.216
 3873TIP3    H111562   6.017   4.586   1.295
 3873TIP3    H211563   6.075   4.583   1.155
 3874TIP3   OH211564   6.062   4.261   1.921
 3874TIP3    H111565   5.973   4.241   1.949
 3874TIP3    H211566   6.095   4.179   1.885
 3875TIP3   OH211567   5.219   4.494   1.738
 3875TIP3    H111568   5.214   4.571   1.681
 3875TIP3    H211569   5.130   4.484   1.773
 3876TIP3   OH211570   4.777   3.782   1.449
 3876TIP3    H111571   4.819   3.865   1.471
 3876TIP3    H211572   4.696   3.782   1.500
 3877TIP3   OH211573   5.304   4.252   1.636
 3877TIP3    H111574   5.287   4.341   1.666
 3877TIP3    H211575   5.278   4.196   1.709
 3878TIP3   OH211576   5.498   4.821   2.193
 3878TIP3    H111577   5.534   4.894   2.142
 3878TIP3    H211578   5.572   4.791   2.245
 3879TIP3   OH211579   5.131   4.716   1.592
 3879TIP3    H111580   5.043   4.723   1.629
 3879TIP3    H211581   5.166   4.805   1.597
 3880TIP3   OH211582   5.848   4.481   2.167
 3880TIP3    H111583   5.833   4.478   2.262
 3880TIP3    H211584   5.929   4.432   2.154
 3881TIP3   OH211585   5.807   4.365   1.100
 3881TIP3    H111586   5.876   4.350   1.164
 3881TIP3    H211587   5.726   4.346   1.147
 3882TIP3   OH211588   6.106   4.978   2.201
 3882TIP3    H111589   6.034   4.916   2.217
 3882TIP3    H211590   6.074   5.034   2.130
 3883TIP3   OH211591   6.136   4.800   0.924
 3883TIP3    H111592   6.163   4.828   0.836
 3883TIP3    H211593   6.090   4.875   0.960
 3884TIP3   OH211594   5.196   3.601   2.709
 3884TIP3    H111595   5.101   3.607   2.715
 3884TIP3    H211596   5.222   3.547   2.784
 3885TIP3   OH211597   6.010   4.284   1.259
 3885TIP3    H111598   6.003   4.215   1.325
 3885TIP3    H211599   6.104   4.292   1.241
 3886TIP3   OH211600   4.925   4.722   2.350
 3886TIP3    H111601   4.982   4.667   2.403
 3886TIP3    H211602   4.937   4.810   2.385
 3887TIP3   OH211603   5.190   4.324   1.051
 3887TIP3    H111604   5.206   4.234   1.021
 3887TIP3    H211605   5.175   4.316   1.145
 3888TIP3   OH211606   5.136   4.337   1.322
 3888TIP3    H111607   5.199   4.309   1.389
 3888TIP3    H211608   5.135   4.432   1.328
 3889TIP3   OH211609   4.870   4.034   1.529
 3889TIP3    H111610   4.805   4.081   1.581
 3889TIP3    H211611   4.888   4.092   1.455
 3890TIP3   OH211612   6.044   3.657   2.400
 3890TIP3    H111613   6.116   3.707   2.439
 3890TIP3    H211614   6.031   3.583   2.459
 3891TIP3   OH211615   5.925   3.409   1.592
 3891TIP3    H111616   5.904   3.428   1.500
 3891TIP3    H211617   5.968   3.489   1.623
 3892TIP3   OH211618   5.409   4.523   1.269
 3892TIP3    H111619   5.324   4.544   1.309
 3892TIP3    H211620   5.431   4.600   1.216
 3893TIP3   OH211621   5.573   3.607   1.681
 3893TIP3    H111622   5.636   3.675   1.655
 3893TIP3    H211623   5.594   3.588   1.772
 3894TIP3   OH211624   5.876   3.902   2.464
 3894TIP3    H111625   5.900   3.949   2.543
 3894TIP3    H211626   5.926   3.820   2.468
 3895TIP3   OH211627   5.739   3.310   1.772
 3895TIP3    H111628   5.715   3.387   1.824
 3895TIP3    H211629   5.808   3.341   1.713
 3896TIP3   OH211630   5.156   4.608   1.343
 3896TIP3    H111631   5.137   4.680   1.284
 3896TIP3    H211632   5.146   4.645   1.431
 3897TIP3   OH211633   5.251   3.326   1.575
 3897TIP3    H111634   5.238   3.416   1.604
 3897TIP3    H211635   5.346   3.312   1.583
 3898TIP3   OH211636   6.489   3.786   2.435
 3898TIP3    H111637   6.397   3.807   2.451
 3898TIP3    H211638   6.486   3.718   2.368
 3899TIP3   OH211639   6.151   4.001   1.833
 3899TIP3    H111640   6.073   3.948   1.847
 3899TIP3    H211641   6.217   3.962   1.891
 3900TIP3   OH211642   4.890   4.209   1.312
 3900TIP3    H111643   4.961   4.273   1.321
 3900TIP3    H211644   4.922   4.147   1.247
 3901TIP3   OH211645   4.797   3.503   1.444
 3901TIP3    H111646   4.813   3.597   1.453
 3901TIP3    H211647   4.731   3.497   1.375
 3902TIP3   OH211648   6.130   4.972   1.774
 3902TIP3    H111649   6.088   5.029   1.710
 3902TIP3    H211650   6.224   4.988   1.762
 3903TIP3   OH211651   5.198   3.225   2.317
 3903TIP3    H111652   5.168   3.192   2.232
 3903TIP3    H211653   5.192   3.150   2.376
 3904TIP3   OH211654   4.722   4.476   1.710
 3904TIP3    H111655   4.678   4.513   1.786
 3904TIP3    H211656   4.681   4.519   1.635
 3905TIP3   OH211657   4.923   5.011   2.770
 3905TIP3    H111658   5.006   5.010   2.818
 3905TIP3    H211659   4.896   4.920   2.767
 3906TIP3   OH211660   5.395   4.928   2.816
 3906TIP3    H111661   5.484   4.894   2.828
 3906TIP3    H211662   5.360   4.877   2.743
 3907TIP3   OH211663   5.372   4.510   0.964
 3907TIP3    H111664   5.313   4.448   1.006
 3907TIP3    H211665   5.448   4.458   0.939
 3908TIP3   OH211666   6.007   4.862   2.560
 3908TIP3    H111667   6.024   4.793   2.624
 3908TIP3    H211668   6.076   4.927   2.576
 3909TIP3   OH211669   5.827   4.549   0.895
 3909TIP3    H111670   5.837   4.485   0.965
 3909TIP3    H211671   5.884   4.517   0.824
 3910TIP3   OH211672   5.043   4.418   2.974
 3910TIP3    H111673   5.060   4.323   2.976
 3910TIP3    H211674   4.961   4.426   2.926
 3911TIP3   OH211675   5.016   4.020   1.162
 3911TIP3    H111676   5.068   3.998   1.240
 3911TIP3    H211677   5.082   4.033   1.093
 3912TIP3   OH211678   5.649   4.495   2.738
 3912TIP3    H111679   5.605   4.516   2.656
 3912TIP3    H211680   5.685   4.408   2.724
 3913TIP3   OH211681   5.528   4.246   0.975
 3913TIP3    H111682   5.538   4.254   1.070
 3913TIP3    H211683   5.526   4.152   0.959
 3914TIP3   OH211684   6.122   4.538   2.355
 3914TIP3    H111685   6.200   4.567   2.308
 3914TIP3    H211686   6.057   4.607   2.338
 3915TIP3   OH211687   5.145   4.155   2.961
 3915TIP3    H111688   5.226   4.136   2.914
 3915TIP3    H211689   5.173   4.174   3.051
 3916TIP3   OH211690   5.195   3.966   1.372
 3916TIP3    H111691   5.173   3.937   1.461
 3916TIP3    H211692   5.240   3.892   1.333
 3917TIP3   OH211693   5.497   4.031   2.619
 3917TIP3    H111694   5.419   4.084   2.633
 3917TIP3    H211695   5.535   4.066   2.538
 3918TIP3   OH211696   5.331   3.777   1.219
 3918TIP3    H111697   5.300   3.780   1.129
 3918TIP3    H211698   5.426   3.786   1.212
 3919TIP3   OH211699   6.006   4.412   2.710
 3919TIP3    H111700   6.078   4.373   2.660
 3919TIP3    H211701   6.004   4.363   2.792
 3920TIP3   OH211702   6.174   4.028   0.883
 3920TIP3    H111703   6.133   3.988   0.806
 3920TIP3    H211704   6.114   4.098   0.908
 3921TIP3   OH211705   5.608   3.808   2.734
 3921TIP3    H111706   5.614   3.737   2.670
 3921TIP3    H211707   5.573   3.882   2.684
 3922TIP3   OH211708   5.619   3.612   2.531
 3922TIP3    H111709   5.647   3.649   2.447
 3922TIP3    H211710   5.528   3.585   2.516
 3923TIP3   OH211711   5.624   4.145   2.409
 3923TIP3    H111712   5.713   4.180   2.396
 3923TIP3    H211713   5.568   4.204   2.359
 3924TIP3   OH211714   6.208   4.102   2.793
 3924TIP3    H111715   6.237   4.032   2.851
 3924TIP3    H211716   6.284   4.160   2.786
 3925TIP3   OH211717   6.247   4.366   2.527
 3925TIP3    H111718   6.194   4.427   2.476
 3925TIP3    H211719   6.337   4.381   2.496
 3926TIP3   OH211720   5.482   3.893   2.969
 3926TIP3    H111721   5.414   3.829   2.990
 3926TIP3    H211722   5.516   3.864   2.884
 3927TIP3   OH211723   5.739   3.381   2.635
 3927TIP3    H111724   5.699   3.461   2.602
 3927TIP3    H211725   5.672   3.314   2.623
 3928TIP3   OH211726   5.864   3.854   2.838
 3928TIP3    H111727   5.853   3.840   2.932
 3928TIP3    H211728   5.779   3.831   2.800
 3929TIP3   OH211729   6.097   3.796   2.689
 3929TIP3    H111730   6.027   3.799   2.754
 3929TIP3    H211731   6.175   3.773   2.740
 3930TIP3   OH211732   6.351   3.753   2.810
 3930TIP3    H111733   6.362   3.662   2.839
 3930TIP3    H211734   6.330   3.801   2.890
 3931TIP3   OH211735   5.309   3.681   3.040
 3931TIP3    H111736   5.317   3.592   3.005
 3931TIP3    H211737   5.349   3.676   3.128
 3932TIP3   OH211738   5.809   3.365   2.900
 3932TIP3    H111739   5.876   3.297   2.896
 3932TIP3    H211740   5.778   3.374   2.810
 3933TIP3   OH211741   5.901   3.581   3.047
 3933TIP3    H111742   5.874   3.508   2.991
 3933TIP3    H211743   5.827   3.642   3.044
 3934TIP3   OH211744   5.151   4.825   1.176
 3934TIP3    H111745   5.239   4.804   1.144
 3934TIP3    H211746   5.111   4.875   1.105
 3935TIP3   OH211747   4.616   4.208   1.327
 3935TIP3    H111748   4.711   4.219   1.325
 3935TIP3    H211749   4.601   4.122   1.289
 3936TIP3   OH211750   4.527   4.791   1.789
 3936TIP3    H111751   4.461   4.738   1.743
 3936TIP3    H211752   4.569   4.729   1.848
 3937TIP3   OH211753   4.662   4.618   1.960
 3937TIP3    H111754   4.645   4.553   2.027
 3937TIP3    H211755   4.717   4.684   2.003
 3938TIP3   OH211756   6.399   5.030   1.769
 3938TIP3    H111757   6.417   5.059   1.858
 3938TIP3    H211758   6.451   5.087   1.713
 3939TIP3   OH211759   6.416   5.063   2.048
 3939TIP3    H111760   6.370   4.978   2.044
 3939TIP3    H211761   6.488   5.048   2.109
 3940TIP3   OH211762   6.467   4.765   2.619
 3940TIP3    H111763   6.394   4.778   2.679
 3940TIP3    H211764   6.517   4.847   2.624
 3941TIP3   OH211765   6.290   4.258   1.247
 3941TIP3    H111766   6.345   4.331   1.219
 3941TIP3    H211767   6.336   4.220   1.322
 3942TIP3   OH211768   6.425   4.132   1.459
 3942TIP3    H111769   6.352   4.079   1.492
 3942TIP3    H211770   6.445   4.192   1.531
 3943TIP3   OH211771   6.479   4.531   1.862
 3943TIP3    H111772   6.535   4.470   1.814
 3943TIP3    H211773   6.479   4.611   1.809
 3944TIP3   OH211774   6.278   4.820   2.050
 3944TIP3    H111775   6.211   4.865   2.103
 3944TIP3    H211776   6.229   4.780   1.978
 3945TIP3   OH211777   6.351   4.041   1.087
 3945TIP3    H111778   6.289   4.034   1.015
 3945TIP3    H211779   6.323   4.120   1.135
 3946TIP3   OH211780   6.193   3.696   1.030
 3946TIP3    H111781   6.152   3.752   0.964
 3946TIP3    H211782   6.175   3.607   1.002
 3947TIP3   OH211783   6.221   3.983   1.567
 3947TIP3    H111784   6.223   3.888   1.552
 3947TIP3    H211785   6.201   3.992   1.660
 3948TIP3   OH211786   4.843   4.073   2.349
 3948TIP3    H111787   4.832   4.038   2.261
 3948TIP3    H211788   4.936   4.063   2.368
 3949TIP3   OH211789   6.506   4.414   2.432
 3949TIP3    H111790   6.572   4.348   2.416
 3949TIP3    H211791   6.529   4.486   2.373
 3950TIP3   OH211792   6.685   4.204   2.418
 3950TIP3    H111793   6.610   4.161   2.459
 3950TIP3    H211794   6.759   4.147   2.437
 3951TIP3   OH211795   6.150   3.422   0.983
 3951TIP3    H111796   6.212   3.402   1.052
 3951TIP3    H211797   6.067   3.384   1.013
 3952TIP3   OH211798   6.217   3.716   1.455
 3952TIP3    H111799   6.260   3.631   1.466
 3952TIP3    H211800   6.261   3.755   1.379
 3953TIP3   OH211801   6.364   3.879   1.975
 3953TIP3    H111802   6.445   3.895   1.928
 3953TIP3    H211803   6.377   3.919   2.061
 3954TIP3   OH211804   6.440   4.033   2.197
 3954TIP3    H111805   6.372   4.062   2.258
 3954TIP3    H211806   6.472   4.113   2.156
 3955TIP3   OH211807   5.042   3.747   2.987
 3955TIP3    H111808   5.137   3.744   3.001
 3955TIP3    H211809   5.010   3.664   3.024
 3956TIP3   OH211810   6.908   3.632   2.740
 3956TIP3    H111811   6.970   3.571   2.700
 3956TIP3    H211812   6.871   3.680   2.666
 3957TIP3   OH211813   6.330   3.467   1.502
 3957TIP3    H111814   6.377   3.453   1.584
 3957TIP3    H211815   6.267   3.395   1.498
 3958TIP3   OH211816   5.036   3.451   2.336
 3958TIP3    H111817   5.089   3.372   2.342
 3958TIP3    H211818   5.099   3.521   2.317
 3959TIP3   OH211819   4.819   3.713   2.382
 3959TIP3    H111820   4.869   3.709   2.301
 3959TIP3    H211821   4.864   3.778   2.435
 3960TIP3   OH211822   6.757   3.755   2.548
 3960TIP3    H111823   6.690   3.795   2.604
 3960TIP3    H211824   6.708   3.696   2.491
 3961TIP3   OH211825   6.376   3.379   1.143
 3961TIP3    H111826   6.424   3.318   1.088
 3961TIP3    H211827   6.431   3.457   1.146
 3962TIP3   OH211828   4.805   3.212   1.888
 3962TIP3    H111829   4.720   3.205   1.932
 3962TIP3    H211830   4.788   3.271   1.814
 3963TIP3   OH211831   5.962   4.942   1.446
 3963TIP3    H111832   6.020   4.935   1.371
 3963TIP3    H211833   5.997   5.016   1.497
 3964TIP3   OH211834   5.027   3.282   2.720
 3964TIP3    H111835   4.975   3.268   2.799
 3964TIP3    H211836   4.968   3.328   2.660
 3965TIP3   OH211837   5.068   4.726   2.789
 3965TIP3    H111838   4.973   4.721   2.781
 3965TIP3    H211839   5.085   4.725   2.883
 3966TIP3   OH211840   5.268   4.781   2.339
 3966TIP3    H111841   5.217   4.856   2.307
 3966TIP3    H211842   5.353   4.790   2.296
 3967TIP3   OH211843   5.675   5.014   2.497
 3967TIP3    H111844   5.715   5.008   2.584
 3967TIP3    H211845   5.736   5.067   2.446
 3968TIP3   OH211846   5.859   5.164   2.355
 3968TIP3    H111847   5.916   5.112   2.299
 3968TIP3    H211848   5.920   5.214   2.411
 3969TIP3   OH211849   6.663   3.492   2.441
 3969TIP3    H111850   6.573   3.477   2.414
 3969TIP3    H211851   6.704   3.405   2.436
 3970TIP3   OH211852   4.928   5.017   2.389
 3970TIP3    H111853   4.837   5.034   2.364
 3970TIP3    H211854   4.950   5.085   2.452
 3971TIP3   OH211855   5.160   5.013   2.238
 3971TIP3    H111856   5.077   5.018   2.285
 3971TIP3    H211857   5.139   5.040   2.149
 3972TIP3   OH211858   5.575   5.031   2.027
 3972TIP3    H111859   5.503   5.043   1.966
 3972TIP3    H211860   5.586   5.117   2.068
 3973TIP3   OH211861   5.838   4.964   2.078
 3973TIP3    H111862   5.747   4.986   2.058
 3973TIP3    H211863   5.889   5.030   2.032
 3974TIP3   OH211864   6.036   5.133   1.978
 3974TIP3    H111865   6.040   5.221   1.942
 3974TIP3    H211866   6.067   5.076   1.907
 3975TIP3   OH211867   4.838   4.796   2.097
 3975TIP3    H111868   4.862   4.776   2.187
 3975TIP3    H211869   4.911   4.765   2.044
 3976TIP3   OH211870   5.046   4.684   1.962
 3976TIP3    H111871   5.057   4.600   2.007
 3976TIP3    H211872   5.132   4.726   1.967
 3977TIP3   OH211873   5.313   4.770   1.989
 3977TIP3    H111874   5.333   4.678   1.975
 3977TIP3    H211875   5.367   4.795   2.064
 3978TIP3   OH211876   5.865   3.422   2.075
 3978TIP3    H111877   5.827   3.352   2.128
 3978TIP3    H211878   5.935   3.379   2.026
 3979TIP3   OH211879   6.374   3.333   1.952
 3979TIP3    H111880   6.411   3.385   1.881
 3979TIP3    H211881   6.284   3.364   1.961
 3980TIP3   OH211882   6.491   3.415   1.718
 3980TIP3    H111883   6.560   3.353   1.693
 3980TIP3    H211884   6.531   3.501   1.705
 3981TIP3   OH211885   5.112   3.124   2.074
 3981TIP3    H111886   5.023   3.089   2.083
 3981TIP3    H211887   5.168   3.047   2.068
 3982TIP3   OH211888   4.936   3.022   1.721
 3982TIP3    H111889   4.960   3.074   1.645
 3982TIP3    H211890   4.897   3.086   1.782
 3983TIP3   OH211891   5.594   3.161   1.966
 3983TIP3    H111892   5.641   3.214   1.902
 3983TIP3    H211893   5.631   3.187   2.051
 3984TIP3   OH211894   6.081   3.307   1.946
 3984TIP3    H111895   6.094   3.271   1.859
 3984TIP3    H211896   6.090   3.231   2.005
 3985TIP3   OH211897   6.145   3.256   1.515
 3985TIP3    H111898   6.066   3.305   1.537
 3985TIP3    H211899   6.133   3.172   1.558
 3986TIP3   OH211900   4.609   4.595   1.491
 3986TIP3    H111901   4.524   4.561   1.462
 3986TIP3    H211902   4.611   4.686   1.459
 3987TIP3   OH211903   5.042   3.155   1.485
 3987TIP3    H111904   5.089   3.096   1.426
 3987TIP3    H211905   5.111   3.213   1.520
 3988TIP3   OH211906   5.527   3.355   1.587
 3988TIP3    H111907   5.587   3.305   1.643
 3988TIP3    H211908   5.539   3.446   1.614
 3989TIP3   OH211909   5.401   4.748   1.099
 3989TIP3    H111910   5.492   4.765   1.078
 3989TIP3    H211911   5.376   4.675   1.043
 3990TIP3   OH211912   6.106   4.902   1.216
 3990TIP3    H111913   6.083   4.809   1.213
 3990TIP3    H211914   6.062   4.940   1.140
 3991TIP3   OH211915   5.334   3.412   2.951
 3991TIP3    H111916   5.300   3.346   3.011
 3991TIP3    H211917   5.427   3.420   2.973
 3992TIP3   OH211918   5.584   3.412   3.068
 3992TIP3    H111919   5.665   3.393   3.020
 3992TIP3    H211920   5.579   3.343   3.134
 3993TIP3   OH211921   4.712   4.594   1.143
 3993TIP3    H111922   4.713   4.604   1.238
 3993TIP3    H211923   4.793   4.547   1.123
 3994TIP3   OH211924   6.411   3.488   2.864
 3994TIP3    H111925   6.426   3.462   2.955
 3994TIP3    H211926   6.499   3.487   2.824
 3995TIP3   OH211927   6.328   5.036   2.364
 3995TIP3    H111928   6.253   5.006   2.313
 3995TIP3    H211929   6.318   5.131   2.366
 3996TIP3   OH211930   7.609   4.373   1.148
 3996TIP3    H111931   7.587   4.465   1.137
 3996TIP3    H211932   7.543   4.326   1.098
 3997TIP3   OH211933   7.575   4.424   1.501
 3997TIP3    H111934   7.587   4.398   1.592
 3997TIP3    H211935   7.540   4.346   1.458
 3998TIP3   OH211936   6.929   4.313   1.881
 3998TIP3    H111937   6.944   4.232   1.930
 3998TIP3    H211938   6.969   4.382   1.935
 3999TIP3   OH211939   7.910   4.671   1.238
 3999TIP3    H111940   7.871   4.619   1.308
 3999TIP3    H211941   7.907   4.761   1.271
 4000TIP3   OH211942   6.905   4.692   1.543
 4000TIP3    H111943   6.894   4.602   1.574
 4000TIP3    H211944   7.000   4.704   1.540
 4001TIP3   OH211945   6.590   3.922   1.359
 4001TIP3    H111946   6.540   3.997   1.390
 4001TIP3    H211947   6.524   3.865   1.319
 4002TIP3   OH211948   6.696   4.226   1.561
 4002TIP3    H111949   6.727   4.141   1.591
 4002TIP3    H211950   6.665   4.209   1.472
 4003TIP3   OH211951   7.430   5.098   1.300
 4003TIP3    H111952   7.508   5.067   1.253
 4003TIP3    H211953   7.435   5.053   1.384
 4004TIP3   OH211954   7.404   4.638   1.549
 4004TIP3    H111955   7.449   4.564   1.509
 4004TIP3    H211956   7.474   4.691   1.587
 4005TIP3   OH211957   7.753   4.153   1.574
 4005TIP3    H111958   7.797   4.080   1.617
 4005TIP3    H211959   7.739   4.123   1.484
 4006TIP3   OH211960   7.127   3.780   1.539
 4006TIP3    H111961   7.087   3.846   1.482
 4006TIP3    H211962   7.085   3.698   1.513
 4007TIP3   OH211963   7.871   3.908   1.169
 4007TIP3    H111964   7.950   3.862   1.197
 4007TIP3    H211965   7.904   3.989   1.129
 4008TIP3   OH211966   6.793   3.991   1.663
 4008TIP3    H111967   6.872   3.972   1.713
 4008TIP3    H211968   6.802   3.940   1.583
 4009TIP3   OH211969   7.151   3.785   1.988
 4009TIP3    H111970   7.100   3.826   1.918
 4009TIP3    H211971   7.097   3.796   2.066
 4010TIP3   OH211972   7.515   4.607   1.039
 4010TIP3    H111973   7.464   4.582   0.962
 4010TIP3    H211974   7.459   4.670   1.085
 4011TIP3   OH211975   7.237   4.554   1.759
 4011TIP3    H111976   7.179   4.623   1.790
 4011TIP3    H211977   7.280   4.591   1.682
 4012TIP3   OH211978   7.036   3.902   1.768
 4012TIP3    H111979   7.089   3.981   1.781
 4012TIP3    H211980   7.077   3.858   1.694
 4013TIP3   OH211981   7.084   4.758   1.860
 4013TIP3    H111982   7.075   4.848   1.828
 4013TIP3    H211983   7.006   4.744   1.913
 4014TIP3   OH211984   6.477   4.442   1.162
 4014TIP3    H111985   6.435   4.459   1.077
 4014TIP3    H211986   6.499   4.529   1.195
 4015TIP3   OH211987   7.883   4.922   1.331
 4015TIP3    H111988   7.802   4.933   1.382
 4015TIP3    H211989   7.916   5.011   1.318
 4016TIP3   OH211990   7.475   3.475   1.711
 4016TIP3    H111991   7.472   3.383   1.737
 4016TIP3    H211992   7.399   3.515   1.753
 4017TIP3   OH211993   7.631   5.004   1.146
 4017TIP3    H111994   7.680   4.922   1.137
 4017TIP3    H211995   7.623   5.037   1.056
 4018TIP3   OH211996   7.744   4.765   1.049
 4018TIP3    H111997   7.669   4.707   1.037
 4018TIP3    H211998   7.802   4.717   1.109
 4019TIP3   OH211999   8.149   4.836   1.702
 4019TIP3    H112000   8.126   4.905   1.639
 4019TIP3    H212001   8.212   4.878   1.761
 4020TIP3   OH212002   7.451   4.247   0.962
 4020TIP3    H112003   7.360   4.274   0.960
 4020TIP3    H212004   7.484   4.266   0.874
 4021TIP3   OH212005   7.403   4.068   0.669
 4021TIP3    H112006   7.470   4.129   0.702
 4021TIP3    H212007   7.453   3.995   0.633
 4022TIP3   OH212008   7.789   4.308   0.950
 4022TIP3    H112009   7.733   4.338   1.021
 4022TIP3    H212010   7.855   4.253   0.993
 4023TIP3   OH212011   7.907   4.408   1.836
 4023TIP3    H112012   7.930   4.463   1.911
 4023TIP3    H212013   7.816   4.431   1.816
 4024TIP3   OH212014   7.166   4.743   1.464
 4024TIP3    H112015   7.155   4.727   1.370
 4024TIP3    H212016   7.253   4.709   1.484
 4025TIP3   OH212017   7.661   4.949   1.490
 4025TIP3    H112018   7.659   5.029   1.543
 4025TIP3    H212019   7.650   4.878   1.553
 4026TIP3   OH212020   7.287   4.858   2.024
 4026TIP3    H112021   7.226   4.917   2.070
 4026TIP3    H212022   7.231   4.806   1.966
 4027TIP3   OH212023   7.625   4.236   0.736
 4027TIP3    H112024   7.683   4.270   0.804
 4027TIP3    H212025   7.626   4.303   0.668
 4028TIP3   OH212026   7.030   4.423   2.126
 4028TIP3    H112027   7.042   4.511   2.162
 4028TIP3    H212028   6.942   4.398   2.153
 4029TIP3   OH212029   7.393   4.828   1.150
 4029TIP3    H112030   7.454   4.900   1.165
 4029TIP3    H212031   7.351   4.850   1.066
 4030TIP3   OH212032   7.079   5.018   2.112
 4030TIP3    H112033   7.056   5.028   2.020
 4030TIP3    H212034   6.995   5.003   2.157
 4031TIP3   OH212035   6.898   4.117   1.125
 4031TIP3    H112036   6.822   4.176   1.120
 4031TIP3    H212037   6.860   4.031   1.139
 4032TIP3   OH212038   6.673   4.571   2.062
 4032TIP3    H112039   6.603   4.554   1.999
 4032TIP3    H212040   6.704   4.484   2.089
 4033TIP3   OH212041   6.514   4.777   1.731
 4033TIP3    H112042   6.603   4.807   1.752
 4033TIP3    H212043   6.458   4.851   1.754
 4034TIP3   OH212044   7.479   4.996   1.883
 4034TIP3    H112045   7.475   5.087   1.914
 4034TIP3    H212046   7.411   4.951   1.934
 4035TIP3   OH212047   7.273   5.139   0.707
 4035TIP3    H112048   7.206   5.071   0.697
 4035TIP3    H212049   7.224   5.221   0.706
 4036TIP3   OH212050   6.662   4.954   1.245
 4036TIP3    H112051   6.717   4.951   1.323
 4036TIP3    H212052   6.620   4.868   1.242
 4037TIP3   OH212053   7.471   4.950   0.622
 4037TIP3    H112054   7.406   5.020   0.622
 4037TIP3    H212055   7.518   4.961   0.705
 4038TIP3   OH212056   6.868   4.763   2.030
 4038TIP3    H112057   6.920   4.753   2.110
 4038TIP3    H212058   6.797   4.700   2.039
 4039TIP3   OH212059   7.248   3.571   1.840
 4039TIP3    H112060   7.163   3.537   1.811
 4039TIP3    H212061   7.226   3.648   1.892
 4040TIP3   OH212062   7.760   3.673   2.048
 4040TIP3    H112063   7.831   3.661   2.111
 4040TIP3    H212064   7.680   3.662   2.100
 4041TIP3   OH212065   8.129   4.138   1.989
 4041TIP3    H112066   8.120   4.208   2.054
 4041TIP3    H212067   8.052   4.148   1.933
 4042TIP3   OH212068   7.414   3.606   0.813
 4042TIP3    H112069   7.376   3.617   0.900
 4042TIP3    H212070   7.374   3.525   0.780
 4043TIP3   OH212071   7.182   4.128   1.840
 4043TIP3    H112072   7.136   4.124   1.924
 4043TIP3    H212073   7.185   4.222   1.819
 4044TIP3   OH212074   7.140   4.008   1.360
 4044TIP3    H112075   7.068   4.070   1.373
 4044TIP3    H212076   7.113   3.956   1.284
 4045TIP3   OH212077   7.568   4.038   1.084
 4045TIP3    H112078   7.522   4.112   1.044
 4045TIP3    H212079   7.628   4.007   1.016
 4046TIP3   OH212080   7.710   4.323   2.162
 4046TIP3    H112081   7.683   4.261   2.230
 4046TIP3    H212082   7.802   4.342   2.182
 4047TIP3   OH212083   7.705   4.075   1.321
 4047TIP3    H112084   7.650   4.094   1.245
 4047TIP3    H212085   7.756   3.999   1.295
 4048TIP3   OH212086   7.020   4.110   2.061
 4048TIP3    H112087   7.029   4.171   2.134
 4048TIP3    H212088   7.003   4.025   2.102
 4049TIP3   OH212089   7.073   3.592   0.787
 4049TIP3    H112090   7.063   3.599   0.882
 4049TIP3    H212091   6.997   3.638   0.752
 4050TIP3   OH212092   6.625   3.636   1.642
 4050TIP3    H112093   6.694   3.672   1.698
 4050TIP3    H212094   6.670   3.617   1.559
 4051TIP3   OH212095   6.533   3.609   1.156
 4051TIP3    H112096   6.574   3.644   1.077
 4051TIP3    H212097   6.472   3.677   1.183
 4052TIP3   OH212098   7.647   4.328   1.752
 4052TIP3    H112099   7.695   4.274   1.689
 4052TIP3    H212100   7.640   4.274   1.830
 4053TIP3   OH212101   7.386   3.820   1.449
 4053TIP3    H112102   7.312   3.776   1.490
 4053TIP3    H212103   7.463   3.770   1.478
 4054TIP3   OH212104   6.853   3.859   1.430
 4054TIP3    H112105   6.766   3.872   1.392
 4054TIP3    H212106   6.876   3.769   1.405
 4055TIP3   OH212107   7.090   3.857   1.136
 4055TIP3    H112108   7.183   3.870   1.116
 4055TIP3    H212109   7.045   3.876   1.054
 4056TIP3   OH212110   7.829   3.889   1.606
 4056TIP3    H112111   7.795   3.881   1.695
 4056TIP3    H212112   7.875   3.807   1.589
 4057TIP3   OH212113   6.971   3.871   0.891
 4057TIP3    H112114   6.907   3.827   0.835
 4057TIP3    H212115   7.028   3.919   0.831
 4058TIP3   OH212116   8.088   5.543   1.879
 4058TIP3    H112117   8.103   5.559   1.786
 4058TIP3    H212118   8.174   5.553   1.920
 4059TIP3   OH212119   7.031   4.672   2.256
 4059TIP3    H112120   7.112   4.692   2.303
 4059TIP3    H212121   6.963   4.678   2.323
 4060TIP3   OH212122   7.457   4.095   1.512
 4060TIP3    H112123   7.551   4.101   1.492
 4060TIP3    H212124   7.453   4.087   1.607
 4061TIP3   OH212125   6.967   3.597   1.404
 4061TIP3    H112126   6.940   3.522   1.457
 4061TIP3    H212127   6.992   3.560   1.320
 4062TIP3   OH212128   7.443   4.055   1.785
 4062TIP3    H112129   7.358   4.090   1.813
 4062TIP3    H212130   7.506   4.096   1.844
 4063TIP3   OH212131   7.199   4.338   0.953
 4063TIP3    H112132   7.119   4.306   0.912
 4063TIP3    H212133   7.171   4.371   1.038
 4064TIP3   OH212134   8.068   4.650   1.479
 4064TIP3    H112135   8.084   4.682   1.391
 4064TIP3    H212136   7.992   4.593   1.471
 4065TIP3   OH212137   7.666   3.707   0.798
 4065TIP3    H112138   7.574   3.679   0.799
 4065TIP3    H212139   7.662   3.799   0.772
 4066TIP3   OH212140   7.616   4.735   1.936
 4066TIP3    H112141   7.655   4.720   2.023
 4066TIP3    H212142   7.578   4.823   1.941
 4067TIP3   OH212143   7.725   3.997   0.861
 4067TIP3    H112144   7.820   4.011   0.857
 4067TIP3    H212145   7.688   4.062   0.801
 4068TIP3   OH212146   6.887   4.427   1.620
 4068TIP3    H112147   6.824   4.363   1.587
 4068TIP3    H212148   6.918   4.389   1.702
 4069TIP3   OH212149   7.355   4.526   0.823
 4069TIP3    H112150   7.297   4.568   0.760
 4069TIP3    H212151   7.300   4.462   0.867
 4070TIP3   OH212152   6.771   4.336   2.185
 4070TIP3    H112153   6.773   4.313   2.278
 4070TIP3    H212154   6.696   4.289   2.150
 4071TIP3   OH212155   7.488   4.484   2.211
 4071TIP3    H112156   7.419   4.423   2.185
 4071TIP3    H212157   7.569   4.445   2.178
 4072TIP3   OH212158   7.751   4.990   1.806
 4072TIP3    H112159   7.655   4.990   1.800
 4072TIP3    H212160   7.770   5.037   1.887
 4073TIP3   OH212161   7.834   4.503   1.440
 4073TIP3    H112162   7.741   4.488   1.457
 4073TIP3    H212163   7.863   4.423   1.395
 4074TIP3   OH212164   6.986   4.724   1.240
 4074TIP3    H112165   6.972   4.812   1.205
 4074TIP3    H212166   6.930   4.721   1.318
 4075TIP3   OH212167   6.583   4.027   0.941
 4075TIP3    H112168   6.631   4.104   0.972
 4075TIP3    H212169   6.501   4.028   0.991
 4076TIP3   OH212170   7.129   4.455   1.193
 4076TIP3    H112171   7.147   4.529   1.136
 4076TIP3    H212172   7.060   4.486   1.252
 4077TIP3   OH212173   7.296   5.063   1.680
 4077TIP3    H112174   7.328   5.145   1.642
 4077TIP3    H212175   7.369   5.031   1.733
 4078TIP3   OH212176   6.907   4.969   1.133
 4078TIP3    H112177   6.816   4.968   1.163
 4078TIP3    H212178   6.930   5.062   1.129
 4079TIP3   OH212179   7.641   4.727   1.661
 4079TIP3    H112180   7.633   4.727   1.756
 4079TIP3    H212181   7.725   4.684   1.644
 4080TIP3   OH212182   7.904   5.233   1.692
 4080TIP3    H112183   7.826   5.179   1.700
 4080TIP3    H212184   7.881   5.300   1.628
 4081TIP3   OH212185   6.977   3.860   2.190
 4081TIP3    H112186   6.882   3.870   2.197
 4081TIP3    H212187   7.003   3.816   2.271
 4082TIP3   OH212188   7.834   4.512   0.770
 4082TIP3    H112189   7.817   4.451   0.841
 4082TIP3    H212190   7.923   4.491   0.741
 4083TIP3   OH212191   6.718   4.970   1.842
 4083TIP3    H112192   6.775   4.914   1.896
 4083TIP3    H212193   6.732   5.058   1.877
 4084TIP3   OH212194   7.116   4.429   0.627
 4084TIP3    H112195   7.094   4.368   0.557
 4084TIP3    H212196   7.082   4.513   0.598
 4085TIP3   OH212197   6.903   4.552   0.814
 4085TIP3    H112198   6.979   4.505   0.779
 4085TIP3    H212199   6.937   4.639   0.836
 4086TIP3   OH212200   6.669   4.261   1.072
 4086TIP3    H112201   6.605   4.313   1.120
 4086TIP3    H212202   6.688   4.312   0.994
 4087TIP3   OH212203   7.767   3.882   1.873
 4087TIP3    H112204   7.854   3.918   1.891
 4087TIP3    H212205   7.759   3.808   1.934
 4088TIP3   OH212206   7.679   3.718   1.081
 4088TIP3    H112207   7.685   3.710   0.986
 4088TIP3    H212208   7.741   3.788   1.103
 4089TIP3   OH212209   7.159   4.694   0.709
 4089TIP3    H112210   7.109   4.775   0.720
 4089TIP3    H212211   7.208   4.707   0.628
 4090TIP3   OH212212   7.371   3.875   1.175
 4090TIP3    H112213   7.440   3.926   1.131
 4090TIP3    H212214   7.417   3.826   1.243
 4091TIP3   OH212215   7.644   4.148   1.961
 4091TIP3    H112216   7.661   4.210   2.032
 4091TIP3    H212217   7.665   4.063   1.999
 4092TIP3   OH212218   7.530   3.572   1.255
 4092TIP3    H112219   7.562   3.604   1.339
 4092TIP3    H212220   7.585   3.616   1.190
 4093TIP3   OH212221   6.936   4.806   0.917
 4093TIP3    H112222   6.893   4.845   0.842
 4093TIP3    H212223   6.936   4.875   0.984
 4094TIP3   OH212224   7.045   3.585   1.069
 4094TIP3    H112225   7.032   3.676   1.097
 4094TIP3    H212226   7.139   3.571   1.073
 4095TIP3   OH212227   7.928   4.255   1.343
 4095TIP3    H112228   7.847   4.204   1.349
 4095TIP3    H212229   7.970   4.244   1.428
 4096TIP3   OH212230   6.684   4.394   0.835
 4096TIP3    H112231   6.748   4.465   0.839
 4096TIP3    H212232   6.713   4.339   0.762
 4097TIP3   OH212233   6.601   3.751   0.934
 4097TIP3    H112234   6.615   3.845   0.947
 4097TIP3    H212235   6.557   3.745   0.850
 4098TIP3   OH212236   7.977   5.179   1.312
 4098TIP3    H112237   7.915   5.249   1.290
 4098TIP3    H212238   8.062   5.212   1.284
 4099TIP3   OH212239   6.991   3.481   1.799
 4099TIP3    H112240   6.960   3.447   1.715
 4099TIP3    H212241   6.983   3.407   1.859
 4100TIP3   OH212242   6.532   4.705   1.241
 4100TIP3    H112243   6.497   4.741   1.323
 4100TIP3    H212244   6.474   4.738   1.173
 4101TIP3   OH212245   6.722   5.272   2.261
 4101TIP3    H112246   6.804   5.277   2.309
 4101TIP3    H212247   6.706   5.179   2.248
 4102TIP3   OH212248   7.188   5.181   2.305
 4102TIP3    H112249   7.278   5.150   2.314
 4102TIP3    H212250   7.151   5.129   2.234
 4103TIP3   OH212251   7.775   5.108   2.048
 4103TIP3    H112252   7.787   5.047   2.121
 4103TIP3    H212253   7.845   5.173   2.059
 4104TIP3   OH212254   6.827   4.670   2.446
 4104TIP3    H112255   6.848   4.577   2.456
 4104TIP3    H212256   6.738   4.670   2.411
 4105TIP3   OH212257   6.824   4.254   0.643
 4105TIP3    H112258   6.880   4.238   0.719
 4105TIP3    H212259   6.884   4.266   0.570
 4106TIP3   OH212260   7.445   4.760   2.226
 4106TIP3    H112261   7.398   4.782   2.146
 4106TIP3    H212262   7.473   4.669   2.214
 4107TIP3   OH212263   7.368   4.456   0.489
 4107TIP3    H112264   7.436   4.519   0.513
 4107TIP3    H212265   7.307   4.457   0.564
 4108TIP3   OH212266   7.919   4.771   1.846
 4108TIP3    H112267   7.994   4.810   1.801
 4108TIP3    H212268   7.848   4.835   1.835
 4109TIP3   OH212269   6.950   4.415   2.453
 4109TIP3    H112270   7.029   4.373   2.420
 4109TIP3    H212271   6.971   4.438   2.544
 4110TIP3   OH212272   6.975   4.200   0.868
 4110TIP3    H112273   6.955   4.167   0.955
 4110TIP3    H212274   7.031   4.133   0.829
 4111TIP3   OH212275   7.287   4.304   2.111
 4111TIP3    H112276   7.203   4.349   2.115
 4111TIP3    H212277   7.323   4.326   2.026
 4112TIP3   OH212278   7.130   4.021   0.726
 4112TIP3    H112279   7.095   4.022   0.637
 4112TIP3    H212280   7.224   4.036   0.715
 4113TIP3   OH212281   7.784   4.660   2.203
 4113TIP3    H112282   7.859   4.626   2.154
 4113TIP3    H212283   7.786   4.613   2.286
 4114TIP3   OH212284   7.391   4.074   2.225
 4114TIP3    H112285   7.397   4.004   2.160
 4114TIP3    H212286   7.357   4.149   2.176
 4115TIP3   OH212287   7.408   3.875   2.021
 4115TIP3    H112288   7.435   3.904   1.934
 4115TIP3    H212289   7.317   3.847   2.009
 4116TIP3   OH212290   7.395   4.370   1.873
 4116TIP3    H112291   7.481   4.386   1.835
 4116TIP3    H212292   7.340   4.439   1.836
 4117TIP3   OH212293   7.957   4.324   2.285
 4117TIP3    H112294   7.975   4.262   2.355
 4117TIP3    H212295   8.043   4.347   2.251
 4118TIP3   OH212296   7.991   4.581   2.030
 4118TIP3    H112297   7.962   4.659   1.983
 4118TIP3    H212298   8.078   4.563   1.995
 4119TIP3   OH212299   7.270   4.163   2.460
 4119TIP3    H112300   7.205   4.097   2.486
 4119TIP3    H212301   7.302   4.133   2.375
 4120TIP3   OH212302   7.504   3.634   2.138
 4120TIP3    H112303   7.466   3.715   2.103
 4120TIP3    H212304   7.438   3.567   2.119
 4121TIP3   OH212305   7.648   4.118   2.328
 4121TIP3    H112306   7.662   4.102   2.422
 4121TIP3    H212307   7.558   4.093   2.312
 4122TIP3   OH212308   7.856   4.021   2.175
 4122TIP3    H112309   7.783   4.062   2.221
 4122TIP3    H212310   7.911   3.985   2.245
 4123TIP3   OH212311   8.003   3.925   2.381
 4123TIP3    H112312   8.052   3.861   2.432
 4123TIP3    H212313   7.997   4.002   2.438
 4124TIP3   OH212314   7.120   3.933   2.526
 4124TIP3    H112315   7.125   3.844   2.492
 4124TIP3    H212316   7.156   3.928   2.614
 4125TIP3   OH212317   7.600   3.595   2.391
 4125TIP3    H112318   7.672   3.534   2.377
 4125TIP3    H212319   7.561   3.607   2.304
 4126TIP3   OH212320   7.671   3.819   2.534
 4126TIP3    H112321   7.649   3.746   2.477
 4126TIP3    H212322   7.596   3.878   2.528
 4127TIP3   OH212323   6.900   5.057   0.522
 4127TIP3    H112324   6.943   5.057   0.437
 4127TIP3    H212325   6.938   5.132   0.569
 4128TIP3   OH212326   6.416   4.393   0.888
 4128TIP3    H112327   6.511   4.389   0.884
 4128TIP3    H212328   6.387   4.318   0.836
 4129TIP3   OH212329   6.330   5.037   1.289
 4129TIP3    H112330   6.256   4.988   1.253
 4129TIP3    H212331   6.374   4.975   1.347
 4130TIP3   OH212332   6.465   4.867   1.465
 4130TIP3    H112333   6.456   4.808   1.540
 4130TIP3    H212334   6.516   4.940   1.498
 4131TIP3   OH212335   8.241   5.310   1.515
 4131TIP3    H112336   8.201   5.226   1.537
 4131TIP3    H212337   8.327   5.307   1.558
 4132TIP3   OH212338   8.169   5.057   2.018
 4132TIP3    H112339   8.187   5.113   2.093
 4132TIP3    H212340   8.158   5.117   1.944
 4133TIP3   OH212341   8.085   5.073   1.559
 4133TIP3    H112342   8.023   5.122   1.613
 4133TIP3    H212343   8.051   5.081   1.470
 4134TIP3   OH212344   7.981   4.157   1.091
 4134TIP3    H112345   8.071   4.176   1.068
 4134TIP3    H212346   7.968   4.202   1.175
 4135TIP3   OH212347   6.658   4.314   1.819
 4135TIP3    H112348   6.659   4.287   1.727
 4135TIP3    H212349   6.751   4.323   1.842
 4136TIP3   OH212350   6.859   3.995   2.461
 4136TIP3    H112351   6.952   3.994   2.484
 4136TIP3    H212352   6.824   3.915   2.500
 4137TIP3   OH212353   6.830   3.708   1.814
 4137TIP3    H112354   6.883   3.628   1.822
 4137TIP3    H212355   6.895   3.778   1.809
 4138TIP3   OH212356   6.607   3.963   1.876
 4138TIP3    H112357   6.661   3.961   1.796
 4138TIP3    H212358   6.633   4.044   1.920
 4139TIP3   OH212359   6.602   3.467   1.378
 4139TIP3    H112360   6.517   3.461   1.421
 4139TIP3    H212361   6.587   3.523   1.302
 4140TIP3   OH212362   7.654   5.222   0.959
 4140TIP3    H112363   7.665   5.168   0.880
 4140TIP3    H212364   7.743   5.240   0.988
 4141TIP3   OH212365   6.816   3.534   2.204
 4141TIP3    H112366   6.768   3.529   2.287
 4141TIP3    H212367   6.759   3.585   2.147
 4142TIP3   OH212368   6.853   4.990   2.276
 4142TIP3    H112369   6.759   4.970   2.267
 4142TIP3    H212370   6.871   4.978   2.369
 4143TIP3   OH212371   7.069   5.032   1.832
 4143TIP3    H112372   7.019   5.108   1.803
 4143TIP3    H212373   7.151   5.037   1.784
 4144TIP3   OH212374   7.465   5.263   1.966
 4144TIP3    H112375   7.501   5.258   2.055
 4144TIP3    H212376   7.529   5.316   1.917
 4145TIP3   OH212377   7.654   5.422   1.843
 4145TIP3    H112378   7.715   5.372   1.788
 4145TIP3    H212379   7.710   5.482   1.892
 4146TIP3   OH212380   6.721   5.263   1.885
 4146TIP3    H112381   6.632   5.284   1.855
 4146TIP3    H212382   6.743   5.335   1.945
 4147TIP3   OH212383   6.958   5.264   1.745
 4147TIP3    H112384   6.873   5.267   1.789
 4147TIP3    H212385   6.938   5.288   1.654
 4148TIP3   OH212386   7.386   5.290   1.556
 4148TIP3    H112387   7.306   5.300   1.503
 4148TIP3    H212388   7.399   5.376   1.595
 4149TIP3   OH212389   7.638   5.201   1.602
 4149TIP3    H112390   7.546   5.226   1.592
 4149TIP3    H212391   7.684   5.255   1.538
 4150TIP3   OH212392   7.819   5.411   1.498
 4150TIP3    H112393   7.860   5.496   1.478
 4150TIP3    H212394   7.765   5.392   1.421
 4151TIP3   OH212395   6.632   5.060   1.592
 4151TIP3    H112396   6.656   5.037   1.682
 4151TIP3    H212397   6.705   5.028   1.539
 4152TIP3   OH212398   6.831   4.938   1.457
 4152TIP3    H112399   6.846   4.852   1.496
 4152TIP3    H212400   6.917   4.981   1.460
 4153TIP3   OH212401   7.092   5.006   1.497
 4153TIP3    H112402   7.123   4.917   1.480
 4153TIP3    H212403   7.157   5.043   1.556
 4154TIP3   OH212404   7.587   3.645   1.515
 4154TIP3    H112405   7.566   3.593   1.592
 4154TIP3    H212406   7.680   3.629   1.499
 4155TIP3   OH212407   6.901   3.377   1.559
 4155TIP3    H112408   6.813   3.341   1.567
 4155TIP3    H212409   6.957   3.300   1.552
 4156TIP3   OH212410   6.742   3.280   1.215
 4156TIP3    H112411   6.763   3.332   1.137
 4156TIP3    H212412   6.700   3.342   1.274
 4157TIP3   OH212413   7.363   3.430   1.447
 4157TIP3    H112414   7.413   3.476   1.379
 4157TIP3    H212415   7.408   3.452   1.529
 4158TIP3   OH212416   7.833   3.561   1.432
 4158TIP3    H112417   7.873   3.555   1.345
 4158TIP3    H212418   7.856   3.479   1.475
 4159TIP3   OH212419   6.384   4.802   1.044
 4159TIP3    H112420   6.297   4.774   1.016
 4159TIP3    H212421   6.390   4.893   1.017
 4160TIP3   OH212422   6.837   3.417   0.984
 4160TIP3    H112423   6.882   3.357   0.924
 4160TIP3    H212424   6.906   3.475   1.016
 4161TIP3   OH212425   7.319   3.618   1.074
 4161TIP3    H112426   7.380   3.570   1.130
 4161TIP3    H212427   7.332   3.710   1.097
 4162TIP3   OH212428   7.132   3.663   2.440
 4162TIP3    H112429   7.096   3.596   2.498
 4162TIP3    H212430   7.224   3.670   2.466
 4163TIP3   OH212431   7.379   3.665   2.561
 4163TIP3    H112432   7.458   3.636   2.515
 4163TIP3    H212433   7.368   3.601   2.631
 4164TIP3   OH212434   6.481   4.811   0.499
 4164TIP3    H112435   6.456   4.887   0.552
 4164TIP3    H212436   6.524   4.751   0.560
 4165TIP3   OH212437   8.134   5.263   1.839
 4165TIP3    H112438   8.052   5.252   1.791
 4165TIP3    H212439   8.142   5.358   1.850
 4166TIP3   OH212440   0.073   5.229   2.840
 4166TIP3    H112441   0.035   5.313   2.816
 4166TIP3    H212442   0.013   5.164   2.803
 4167TIP3   OH212443   0.125   5.185   3.111
 4167TIP3    H112444   0.056   5.232   3.157
 4167TIP3    H212445   0.103   5.195   3.018
 4168TIP3   OH212446   0.324   5.507   2.883
 4168TIP3    H112447   0.340   5.442   2.952
 4168TIP3    H212448   0.351   5.590   2.921
 4169TIP3   OH212449   0.007   5.973   2.881
 4169TIP3    H112450   0.054   5.902   2.837
 4169TIP3    H212451  -0.030   5.932   2.960
 4170TIP3   OH212452   8.440   5.320   3.269
 4170TIP3    H112453   8.356   5.319   3.223
 4170TIP3    H212454   8.461   5.413   3.279
 4171TIP3   OH212455   0.901   4.738   3.241
 4171TIP3    H112456   0.918   4.819   3.288
 4171TIP3    H212457   0.931   4.755   3.152
 4172TIP3   OH212458   0.279   4.907   3.267
 4172TIP3    H112459   0.313   4.819   3.287
 4172TIP3    H212460   0.269   4.907   3.172
 4173TIP3   OH212461   0.336   4.642   2.851
 4173TIP3    H112462   0.398   4.638   2.924
 4173TIP3    H212463   0.385   4.684   2.780
 4174TIP3   OH212464   0.955   4.946   3.419
 4174TIP3    H112465   0.879   5.001   3.399
 4174TIP3    H212466   1.002   4.994   3.487
 4175TIP3   OH212467   8.427   5.420   2.695
 4175TIP3    H112468   8.362   5.489   2.704
 4175TIP3    H212469   8.508   5.465   2.672
 4176TIP3   OH212470   0.483   4.689   3.077
 4176TIP3    H112471   0.447   4.664   3.162
 4176TIP3    H212472   0.545   4.758   3.097
 4177TIP3   OH212473   0.387   5.753   3.006
 4177TIP3    H112474   0.340   5.752   3.089
 4177TIP3    H212475   0.372   5.841   2.971
 4178TIP3   OH212476   0.703   4.618   3.410
 4178TIP3    H112477   0.624   4.671   3.403
 4178TIP3    H212478   0.761   4.651   3.341
 4179TIP3   OH212479   8.483   4.304   3.406
 4179TIP3    H112480   8.488   4.211   3.431
 4179TIP3    H212481   8.493   4.352   3.488
 4180TIP3   OH212482   0.103   5.780   2.714
 4180TIP3    H112483   0.134   5.691   2.695
 4180TIP3    H212484   0.172   5.837   2.681
 4181TIP3   OH212485   0.179   5.523   2.653
 4181TIP3    H112486   0.229   5.478   2.585
 4181TIP3    H212487   0.232   5.513   2.732
 4182TIP3   OH212488   0.595   5.666   3.390
 4182TIP3    H112489   0.579   5.588   3.337
 4182TIP3    H212490   0.585   5.740   3.330
 4183TIP3   OH212491   8.430   5.060   2.680
 4183TIP3    H112492   8.338   5.044   2.700
 4183TIP3    H212493   8.438   5.040   2.587
 4184TIP3   OH212494   8.404   4.796   2.372
 4184TIP3    H112495   8.452   4.863   2.421
 4184TIP3    H212496   8.471   4.749   2.323
 4185TIP3   OH212497   0.789   5.301   3.246
 4185TIP3    H112498   0.707   5.352   3.251
 4185TIP3    H212499   0.823   5.319   3.159
 4186TIP3   OH212500   0.243   5.151   2.624
 4186TIP3    H112501   0.195   5.181   2.701
 4186TIP3    H212502   0.325   5.116   2.659
 4187TIP3   OH212503   0.540   5.187   3.561
 4187TIP3    H112504   0.514   5.265   3.610
 4187TIP3    H212505   0.457   5.147   3.535
 4188TIP3   OH212506   0.056   5.790   3.098
 4188TIP3    H112507   0.107   5.867   3.124
 4188TIP3    H212508   0.078   5.724   3.163
 4189TIP3   OH212509   0.089   4.991   2.456
 4189TIP3    H112510   0.140   5.057   2.503
 4189TIP3    H212511   0.116   5.001   2.365
 4190TIP3   OH212512   0.599   4.212   2.485
 4190TIP3    H112513   0.525   4.226   2.544
 4190TIP3    H212514   0.605   4.293   2.435
 4191TIP3   OH212515   0.403   5.579   2.057
 4191TIP3    H112516   0.398   5.671   2.031
 4191TIP3    H212517   0.493   5.553   2.037
 4192TIP3   OH212518   0.837   6.012   3.452
 4192TIP3    H112519   0.841   5.917   3.462
 4192TIP3    H212520   0.758   6.037   3.500
 4193TIP3   OH212521   8.406   5.850   2.206
 4193TIP3    H112522   8.482   5.811   2.162
 4193TIP3    H212523   8.443   5.922   2.257
 4194TIP3   OH212524   0.726   5.129   3.750
 4194TIP3    H112525   0.660   5.144   3.683
 4194TIP3    H212526   0.748   5.036   3.741
 4195TIP3   OH212527   0.330   4.472   3.706
 4195TIP3    H112528   0.404   4.449   3.761
 4195TIP3    H212529   0.253   4.456   3.761
 4196TIP3   OH212530   0.498   4.859   3.566
 4196TIP3    H112531   0.490   4.856   3.662
 4196TIP3    H212532   0.445   4.934   3.540
 4197TIP3   OH212533   0.187   4.970   2.199
 4197TIP3    H112534   0.125   4.981   2.127
 4197TIP3    H212535   0.262   5.023   2.174
 4198TIP3   OH212536   8.366   4.426   2.435
 4198TIP3    H112537   8.369   4.437   2.530
 4198TIP3    H212538   8.350   4.333   2.421
 4199TIP3   OH212539   0.083   4.865   2.781
 4199TIP3    H112540   0.029   4.940   2.755
 4199TIP3    H212541   0.120   4.832   2.699
 4200TIP3   OH212542   0.251   5.123   3.842
 4200TIP3    H112543   0.237   5.035   3.877
 4200TIP3    H212544   0.342   5.143   3.862
 4201TIP3   OH212545   0.238   4.870   3.001
 4201TIP3    H112546   0.180   4.888   2.928
 4201TIP3    H212547   0.286   4.791   2.975
 4202TIP3   OH212548   0.314   5.053   3.492
 4202TIP3    H112549   0.297   5.005   3.411
 4202TIP3    H212550   0.257   5.129   3.488
 4203TIP3   OH212551   8.400   4.513   3.130
 4203TIP3    H112552   8.350   4.516   3.211
 4203TIP3    H212553   8.490   4.532   3.157
 4204TIP3   OH212554   0.348   4.644   3.318
 4204TIP3    H112555   0.328   4.657   3.411
 4204TIP3    H212556   0.281   4.584   3.287
 4205TIP3   OH212557   0.532   6.348   3.548
 4205TIP3    H112558   0.534   6.357   3.453
 4205TIP3    H212559   0.606   6.400   3.579
 4206TIP3   OH212560  -0.006   4.817   3.144
 4206TIP3    H112561   0.077   4.847   3.106
 4206TIP3    H212562   0.015   4.800   3.236
 4207TIP3   OH212563   8.488   4.769   3.419
 4207TIP3    H112564   8.454   4.859   3.420
 4207TIP3    H212565   8.565   4.772   3.476
 4208TIP3   OH212566   0.563   5.458   3.216
 4208TIP3    H112567   0.602   5.505   3.142
 4208TIP3    H212568   0.488   5.412   3.177
 4209TIP3   OH212569   0.129   4.507   2.486
 4209TIP3    H112570   0.036   4.505   2.463
 4209TIP3    H212571   0.148   4.599   2.501
 4210TIP3   OH212572   0.025   5.488   3.572
 4210TIP3    H112573   0.063   5.524   3.653
 4210TIP3    H212574  -0.059   5.533   3.563
 4211TIP3   OH212575   0.205   4.761   2.555
 4211TIP3    H112576   0.300   4.766   2.569
 4211TIP3    H212577   0.185   4.840   2.504
 4212TIP3   OH212578   8.175   5.360   2.493
 4212TIP3    H112579   8.245   5.424   2.478
 4212TIP3    H212580   8.194   5.325   2.580
 4213TIP3   OH212581   0.040   5.305   3.932
 4213TIP3    H112582  -0.038   5.291   3.879
 4213TIP3    H212583   0.109   5.255   3.887
 4214TIP3   OH212584   0.233   5.869   3.504
 4214TIP3    H112585   0.150   5.826   3.528
 4214TIP3    H212586   0.266   5.904   3.587
 4215TIP3   OH212587   0.593   4.857   2.390
 4215TIP3    H112588   0.535   4.810   2.331
 4215TIP3    H212589   0.599   4.945   2.354
 4216TIP3   OH212590   0.849   5.735   3.469
 4216TIP3    H112591   0.755   5.720   3.469
 4216TIP3    H212592   0.879   5.703   3.384
 4217TIP3   OH212593   0.347   5.653   2.321
 4217TIP3    H112594   0.318   5.573   2.364
 4217TIP3    H212595   0.364   5.628   2.231
 4218TIP3   OH212596   0.370   5.311   3.082
 4218TIP3    H112597   0.283   5.281   3.107
 4218TIP3    H212598   0.414   5.233   3.048
 4219TIP3   OH212599   0.242   5.517   3.367
 4219TIP3    H112600   0.147   5.535   3.365
 4219TIP3    H212601   0.248   5.423   3.385
 4220TIP3   OH212602   0.116   5.433   2.260
 4220TIP3    H112603   0.181   5.414   2.328
 4220TIP3    H212604   0.040   5.379   2.283
 4221TIP3   OH212605   0.392   6.045   3.359
 4221TIP3    H112606   0.321   5.997   3.402
 4221TIP3    H212607   0.348   6.109   3.304
 4222TIP3   OH212608   0.398   5.857   2.041
 4222TIP3    H112609   0.395   5.893   1.952
 4222TIP3    H212610   0.331   5.906   2.089
 4223TIP3   OH212611   0.296   5.365   2.454
 4223TIP3    H112612   0.271   5.289   2.507
 4223TIP3    H212613   0.389   5.352   2.434
 4224TIP3   OH212614   0.267   4.707   3.580
 4224TIP3    H112615   0.351   4.752   3.586
 4224TIP3    H212616   0.280   4.625   3.626
 4225TIP3   OH212617   0.211   4.421   2.735
 4225TIP3    H112618   0.176   4.443   2.649
 4225TIP3    H212619   0.255   4.501   2.765
 4226TIP3   OH212620   8.269   4.647   2.877
 4226TIP3    H112621   8.224   4.713   2.928
 4226TIP3    H212622   8.355   4.639   2.918
 4227TIP3   OH212623   0.107   4.927   3.667
 4227TIP3    H112624   0.165   5.002   3.656
 4227TIP3    H212625   0.162   4.851   3.653
 4228TIP3   OH212626   0.051   4.329   2.946
 4228TIP3    H112627   0.018   4.409   2.986
 4228TIP3    H212628   0.112   4.359   2.878
 4229TIP3   OH212629   0.765   4.877   3.630
 4229TIP3    H112630   0.675   4.859   3.605
 4229TIP3    H212631   0.814   4.874   3.548
 4230TIP3   OH212632   0.448   5.055   3.004
 4230TIP3    H112633   0.366   5.007   3.016
 4230TIP3    H212634   0.511   5.011   3.061
 4231TIP3   OH212635   0.386   6.030   2.956
 4231TIP3    H112636   0.343   6.078   2.885
 4231TIP3    H212637   0.479   6.040   2.939
 4232TIP3   OH212638   0.265   5.981   3.752
 4232TIP3    H112639   0.243   5.918   3.821
 4232TIP3    H212640   0.348   6.019   3.780
 4233TIP3   OH212641   0.068   5.648   2.076
 4233TIP3    H112642   0.106   5.586   2.139
 4233TIP3    H212643   0.115   5.632   1.995
 4234TIP3   OH212644   8.240   5.284   2.166
 4234TIP3    H112645   8.272   5.300   2.255
 4234TIP3    H212646   8.319   5.278   2.112
 4235TIP3   OH212647   0.405   5.609   3.582
 4235TIP3    H112648   0.473   5.640   3.523
 4235TIP3    H212649   0.331   5.588   3.525
 4236TIP3   OH212650   7.998   4.867   2.430
 4236TIP3    H112651   7.998   4.868   2.335
 4236TIP3    H212652   8.063   4.933   2.455
 4237TIP3   OH212653   0.334   5.471   3.966
 4237TIP3    H112654   0.404   5.435   3.911
 4237TIP3    H212655   0.314   5.401   4.028
 4238TIP3   OH212656   0.380   5.124   2.075
 4238TIP3    H112657   0.368   5.079   1.991
 4238TIP3    H212658   0.341   5.210   2.061
 4239TIP3   OH212659   8.370   4.572   3.609
 4239TIP3    H112660   8.367   4.594   3.516
 4239TIP3    H212661   8.350   4.654   3.653
 4240TIP3   OH212662   8.358   5.189   3.506
 4240TIP3    H112663   8.421   5.128   3.468
 4240TIP3    H212664   8.364   5.267   3.451
 4241TIP3   OH212665   0.516   5.126   3.951
 4241TIP3    H112666   0.539   5.034   3.965
 4241TIP3    H212667   0.589   5.163   3.903
 4242TIP3   OH212668   0.521   5.412   3.728
 4242TIP3    H112669   0.465   5.478   3.687
 4242TIP3    H212670   0.607   5.425   3.687
 4243TIP3   OH212671   0.051   4.404   3.714
 4243TIP3    H112672  -0.015   4.468   3.686
 4243TIP3    H212673  -0.000   4.327   3.740
 4244TIP3   OH212674   0.225   4.870   3.951
 4244TIP3    H112675   0.212   4.896   4.043
 4244TIP3    H212676   0.168   4.794   3.940
 4245TIP3   OH212677   0.459   4.833   3.827
 4245TIP3    H112678   0.374   4.839   3.872
 4245TIP3    H212679   0.521   4.813   3.897
 4246TIP3   OH212680   0.630   4.808   4.037
 4246TIP3    H112681   0.635   4.713   4.050
 4246TIP3    H212682   0.617   4.843   4.125
 4247TIP3   OH212683   0.196   4.431   3.960
 4247TIP3    H112684   0.263   4.366   3.983
 4247TIP3    H212685   0.119   4.379   3.936
 4248TIP3   OH212686   0.205   4.627   4.159
 4248TIP3    H112687   0.205   4.564   4.087
 4248TIP3    H212688   0.113   4.635   4.183
 4249TIP3   OH212689   0.657   6.078   2.944
 4249TIP3    H112690   0.684   6.111   3.030
 4249TIP3    H212691   0.716   6.122   2.883
 4250TIP3   OH212692   0.702   6.113   3.225
 4250TIP3    H112693   0.651   6.032   3.213
 4250TIP3    H212694   0.765   6.092   3.293
 4251TIP3   OH212695   0.734   5.796   3.772
 4251TIP3    H112696   0.641   5.792   3.792
 4251TIP3    H212697   0.759   5.886   3.794
 4252TIP3   OH212698   0.561   5.317   2.409
 4252TIP3    H112699   0.618   5.388   2.379
 4252TIP3    H212700   0.609   5.276   2.481
 4253TIP3   OH212701   0.686   5.173   2.606
 4253TIP3    H112702   0.618   5.138   2.663
 4253TIP3    H212703   0.750   5.212   2.666
 4254TIP3   OH212704   0.725   5.582   3.035
 4254TIP3    H112705   0.778   5.512   2.996
 4254TIP3    H212706   0.728   5.653   2.970
 4255TIP3   OH212707   0.561   5.877   3.209
 4255TIP3    H112708   0.487   5.918   3.253
 4255TIP3    H212709   0.523   5.832   3.133
 4256TIP3   OH212710   0.589   5.095   2.250
 4256TIP3    H112711   0.519   5.100   2.185
 4256TIP3    H212712   0.577   5.172   2.304
 4257TIP3   OH212713   0.436   4.737   2.204
 4257TIP3    H112714   0.393   4.775   2.127
 4257TIP3    H212715   0.436   4.643   2.187
 4258TIP3   OH212716   0.473   5.035   2.732
 4258TIP3    H112717   0.485   4.941   2.720
 4258TIP3    H212718   0.471   5.047   2.827
 4259TIP3   OH212719   0.761   5.453   3.601
 4259TIP3    H112720   0.823   5.381   3.584
 4259TIP3    H212721   0.769   5.510   3.525
 4260TIP3   OH212722   0.930   5.236   3.596
 4260TIP3    H112723   0.865   5.200   3.656
 4260TIP3    H212724   1.009   5.185   3.613
 4261TIP3   OH212725   0.411   4.465   2.157
 4261TIP3    H112726   0.475   4.443   2.224
 4261TIP3    H212727   0.329   4.424   2.187
 4262TIP3   OH212728   0.479   4.754   2.627
 4262TIP3    H112729   0.524   4.670   2.638
 4262TIP3    H212730   0.523   4.795   2.553
 4263TIP3   OH212731   0.632   4.914   3.156
 4263TIP3    H112732   0.713   4.933   3.110
 4263TIP3    H212733   0.643   4.955   3.242
 4264TIP3   OH212734   0.713   5.073   3.375
 4264TIP3    H112735   0.653   5.106   3.441
 4264TIP3    H212736   0.742   5.151   3.328
 4265TIP3   OH212737   1.160   4.674   3.920
 4265TIP3    H112738   1.222   4.616   3.875
 4265TIP3    H212739   1.119   4.725   3.851
 4266TIP3   OH212740   0.585   4.501   2.677
 4266TIP3    H112741   0.632   4.492   2.760
 4266TIP3    H212742   0.532   4.421   2.670
 4267TIP3   OH212743   1.013   4.784   3.722
 4267TIP3    H112744   0.931   4.829   3.744
 4267TIP3    H212745   0.986   4.709   3.669
 4268TIP3   OH212746   0.632   4.427   2.317
 4268TIP3    H112747   0.682   4.366   2.262
 4268TIP3    H212748   0.686   4.505   2.321
 4269TIP3   OH212749   0.256   5.978   2.605
 4269TIP3    H112750   0.319   5.953   2.537
 4269TIP3    H212751   0.188   6.027   2.558
 4270TIP3   OH212752   0.917   4.545   3.613
 4270TIP3    H112753   0.833   4.547   3.568
 4270TIP3    H212754   0.946   4.454   3.606
 4271TIP3   OH212755   0.111   6.060   3.174
 4271TIP3    H112756   0.053   6.087   3.104
 4271TIP3    H212757   0.186   6.119   3.168
 4272TIP3   OH212758   0.332   6.233   3.139
 4272TIP3    H112759   0.316   6.314   3.089
 4272TIP3    H212760   0.354   6.168   3.072
 4273TIP3   OH212761   0.152   4.469   3.239
 4273TIP3    H112762   0.101   4.405   3.289
 4273TIP3    H212763   0.213   4.416   3.189
 4274TIP3   OH212764   0.634   4.374   3.134
 4274TIP3    H112765   0.670   4.428   3.064
 4274TIP3    H212766   0.542   4.401   3.139
 4275TIP3   OH212767   0.743   4.462   2.899
 4275TIP3    H112768   0.811   4.400   2.874
 4275TIP3    H212769   0.782   4.548   2.886
 4276TIP3   OH212770   8.377   4.213   3.139
 4276TIP3    H112771   8.457   4.225   3.087
 4276TIP3    H212772   8.405   4.226   3.230
 4277TIP3   OH212773   0.349   4.324   3.116
 4277TIP3    H112774   0.377   4.282   3.035
 4277TIP3    H212775   0.354   4.255   3.182
 4278TIP3   OH212776   0.425   4.267   2.683
 4278TIP3    H112777   0.344   4.316   2.699
 4278TIP3    H212778   0.414   4.186   2.732
 4279TIP3   OH212779   8.399   4.434   2.708
 4279TIP3    H112780   8.387   4.371   2.780
 4279TIP3    H212781   8.445   4.507   2.748
 4280TIP3   OH212782   0.383   5.921   2.366
 4280TIP3    H112783   0.375   5.826   2.354
 4280TIP3    H212784   0.324   5.958   2.300
 4281TIP3   OH212785   0.678   4.539   4.052
 4281TIP3    H112786   0.696   4.510   4.142
 4281TIP3    H212787   0.764   4.536   4.009
 4282TIP3   OH212788   0.590   6.079   3.553
 4282TIP3    H112789   0.526   6.049   3.489
 4282TIP3    H212790   0.569   6.172   3.566
 4283TIP3   OH212791   1.857   5.467   2.283
 4283TIP3    H112792   1.826   5.553   2.256
 4283TIP3    H212793   1.786   5.408   2.260
 4284TIP3   OH212794   1.859   5.457   2.714
 4284TIP3    H112795   1.910   5.437   2.792
 4284TIP3    H212796   1.813   5.375   2.694
 4285TIP3   OH212797   1.144   5.311   3.066
 4285TIP3    H112798   1.172   5.255   3.138
 4285TIP3    H212799   1.225   5.349   3.031
 4286TIP3   OH212800   2.120   5.765   2.384
 4286TIP3    H112801   2.108   5.698   2.451
 4286TIP3    H212802   2.141   5.845   2.432
 4287TIP3   OH212803   1.139   5.744   2.742
 4287TIP3    H112804   1.122   5.650   2.750
 4287TIP3    H212805   1.234   5.750   2.735
 4288TIP3   OH212806   0.830   4.946   2.524
 4288TIP3    H112807   0.795   5.031   2.551
 4288TIP3    H212808   0.756   4.902   2.483
 4289TIP3   OH212809   0.912   5.264   2.744
 4289TIP3    H112810   0.961   5.187   2.773
 4289TIP3    H212811   0.978   5.330   2.725
 4290TIP3   OH212812   1.779   6.196   2.394
 4290TIP3    H112813   1.804   6.131   2.329
 4290TIP3    H212814   1.779   6.148   2.477
 4291TIP3   OH212815   1.658   5.678   2.715
 4291TIP3    H112816   1.703   5.599   2.687
 4291TIP3    H212817   1.728   5.736   2.746
 4292TIP3   OH212818   2.692   5.000   2.732
 4292TIP3    H112819   2.709   5.083   2.776
 4292TIP3    H212820   2.709   5.018   2.640
 4293TIP3   OH212821   2.066   5.165   2.750
 4293TIP3    H112822   2.099   5.079   2.777
 4293TIP3    H212823   2.031   5.150   2.662
 4294TIP3   OH212824   1.421   4.829   2.713
 4294TIP3    H112825   1.399   4.901   2.655
 4294TIP3    H212826   1.364   4.757   2.684
 4295TIP3   OH212827   2.119   4.926   2.342
 4295TIP3    H112828   2.182   4.919   2.413
 4295TIP3    H212829   2.169   4.961   2.268
 4296TIP3   OH212830   1.045   5.041   2.838
 4296TIP3    H112831   1.127   5.025   2.885
 4296TIP3    H212832   1.052   4.989   2.758
 4297TIP3   OH212833   1.470   5.243   2.647
 4297TIP3    H112834   1.563   5.226   2.657
 4297TIP3    H212835   1.433   5.160   2.616
 4298TIP3   OH212836   2.749   5.221   2.895
 4298TIP3    H112837   2.659   5.254   2.891
 4298TIP3    H212838   2.783   5.255   2.978
 4299TIP3   OH212839   1.408   4.830   3.164
 4299TIP3    H112840   1.353   4.869   3.096
 4299TIP3    H212841   1.358   4.842   3.245
 4300TIP3   OH212842   1.755   5.684   2.144
 4300TIP3    H112843   1.715   5.655   2.063
 4300TIP3    H212844   1.701   5.758   2.173
 4301TIP3   OH212845   1.506   5.600   2.935
 4301TIP3    H112846   1.449   5.670   2.967
 4301TIP3    H212847   1.552   5.639   2.861
 4302TIP3   OH212848   2.283   4.948   2.559
 4302TIP3    H112849   2.237   4.925   2.640
 4302TIP3    H212850   2.336   5.024   2.582
 4303TIP3   OH212851   1.289   4.939   2.936
 4303TIP3    H112852   1.341   5.014   2.963
 4303TIP3    H212853   1.339   4.898   2.866
 4304TIP3   OH212854   1.341   5.804   3.031
 4304TIP3    H112855   1.325   5.893   3.000
 4304TIP3    H212856   1.264   5.783   3.084
 4305TIP3   OH212857   0.725   5.508   2.295
 4305TIP3    H112858   0.687   5.521   2.208
 4305TIP3    H212859   0.744   5.597   2.326
 4306TIP3   OH212860   2.157   6.013   2.523
 4306TIP3    H112861   2.070   6.005   2.562
 4306TIP3    H212862   2.155   6.097   2.477
 4307TIP3   OH212863   2.493   4.891   2.902
 4307TIP3    H112864   2.407   4.913   2.867
 4307TIP3    H212865   2.555   4.919   2.835
 4308TIP3   OH212866   1.744   4.519   2.891
 4308TIP3    H112867   1.735   4.428   2.918
 4308TIP3    H212868   1.669   4.563   2.932
 4309TIP3   OH212869   1.862   6.046   2.174
 4309TIP3    H112870   1.915   5.966   2.166
 4309TIP3    H212871   1.921   6.116   2.146
 4310TIP3   OH212872   2.003   5.815   2.138
 4310TIP3    H112873   1.929   5.754   2.136
 4310TIP3    H212874   2.052   5.791   2.216
 4311TIP3   OH212875   2.393   5.901   2.867
 4311TIP3    H112876   2.374   5.826   2.811
 4311TIP3    H212877   2.377   5.978   2.811
 4312TIP3   OH212878   1.683   5.304   2.138
 4312TIP3    H112879   1.600   5.349   2.120
 4312TIP3    H212880   1.729   5.303   2.054
 4313TIP3   OH212881   1.648   5.112   1.828
 4313TIP3    H112882   1.713   5.160   1.878
 4313TIP3    H212883   1.697   5.044   1.783
 4314TIP3   OH212884   2.573   5.561   2.733
 4314TIP3    H112885   2.488   5.606   2.733
 4314TIP3    H212886   2.608   5.575   2.645
 4315TIP3   OH212887   2.042   5.392   2.096
 4315TIP3    H112888   1.987   5.422   2.168
 4315TIP3    H212889   2.125   5.367   2.136
 4316TIP3   OH212890   2.271   5.424   3.042
 4316TIP3    H112891   2.266   5.506   3.090
 4316TIP3    H212892   2.188   5.419   2.995
 4317TIP3   OH212893   1.268   5.375   2.503
 4317TIP3    H112894   1.231   5.314   2.440
 4317TIP3    H212895   1.341   5.328   2.542
 4318TIP3   OH212896   1.402   5.796   2.646
 4318TIP3    H112897   1.379   5.781   2.554
 4318TIP3    H212898   1.489   5.757   2.655
 4319TIP3   OH212899   1.366   5.371   2.871
 4319TIP3    H112900   1.406   5.338   2.791
 4319TIP3    H212901   1.417   5.450   2.893
 4320TIP3   OH212902   1.919   6.007   2.654
 4320TIP3    H112903   1.906   6.086   2.706
 4320TIP3    H212904   1.904   5.935   2.716
 4321TIP3   OH212905   1.539   5.906   3.198
 4321TIP3    H112906   1.478   5.963   3.244
 4321TIP3    H212907   1.483   5.853   3.141
 4322TIP3   OH212908   1.871   5.253   1.930
 4322TIP3    H112909   1.930   5.311   1.977
 4322TIP3    H212910   1.900   5.257   1.839
 4323TIP3   OH212911   1.287   5.495   3.306
 4323TIP3    H112912   1.287   5.583   3.344
 4323TIP3    H212913   1.197   5.464   3.316
 4324TIP3   OH212914   1.616   5.920   2.188
 4324TIP3    H112915   1.696   5.974   2.191
 4324TIP3    H212916   1.554   5.972   2.136
 4325TIP3   OH212917   1.330   6.067   3.282
 4325TIP3    H112918   1.304   6.073   3.190
 4325TIP3    H212919   1.248   6.050   3.329
 4326TIP3   OH212920   2.380   4.480   1.988
 4326TIP3    H112921   2.304   4.500   2.043
 4326TIP3    H212922   2.391   4.557   1.932
 4327TIP3   OH212923   1.141   5.216   2.305
 4327TIP3    H112924   1.065   5.265   2.272
 4327TIP3    H212925   1.106   5.130   2.326
 4328TIP3   OH212926   2.205   5.855   1.542
 4328TIP3    H112927   2.198   5.948   1.523
 4328TIP3    H212928   2.294   5.831   1.518
 4329TIP3   OH212929   0.923   5.626   3.231
 4329TIP3    H112930   0.855   5.604   3.167
 4329TIP3    H212931   0.956   5.541   3.262
 4330TIP3   OH212932   0.776   5.810   2.877
 4330TIP3    H112933   0.871   5.823   2.883
 4330TIP3    H212934   0.739   5.886   2.921
 4331TIP3   OH212935   2.623   6.266   2.936
 4331TIP3    H112936   2.628   6.171   2.948
 4331TIP3    H212937   2.544   6.292   2.983
 4332TIP3   OH212938   1.727   6.051   3.061
 4332TIP3    H112939   1.719   6.142   3.091
 4332TIP3    H212940   1.660   6.004   3.109
 4333TIP3   OH212941   1.504   6.150   2.008
 4333TIP3    H112942   1.454   6.129   1.929
 4333TIP3    H212943   1.466   6.232   2.039
 4334TIP3   OH212944   0.941   6.003   2.394
 4334TIP3    H112945   0.983   5.994   2.479
 4334TIP3    H212946   0.889   5.923   2.384
 4335TIP3   OH212947   1.704   6.081   1.641
 4335TIP3    H112948   1.754   6.007   1.608
 4335TIP3    H212949   1.735   6.094   1.731
 4336TIP3   OH212950   1.758   6.123   1.911
 4336TIP3    H112951   1.670   6.128   1.948
 4336TIP3    H212952   1.812   6.085   1.981
 4337TIP3   OH212953   2.514   5.374   3.202
 4337TIP3    H112954   2.431   5.385   3.155
 4337TIP3    H212955   2.530   5.280   3.199
 4338TIP3   OH212956   1.120   5.815   3.201
 4338TIP3    H112957   1.170   5.806   3.282
 4338TIP3    H212958   1.050   5.750   3.208
 4339TIP3   OH212959   1.506   4.608   3.016
 4339TIP3    H112960   1.418   4.583   2.989
 4339TIP3    H212961   1.495   4.692   3.061
 4340TIP3   OH212962   2.050   4.730   3.220
 4340TIP3    H112963   2.118   4.708   3.284
 4340TIP3    H212964   1.967   4.714   3.267
 4341TIP3   OH212965   2.270   5.159   3.138
 4341TIP3    H112966   2.223   5.152   3.222
 4341TIP3    H212967   2.249   5.248   3.107
 4342TIP3   OH212968   1.952   5.229   1.668
 4342TIP3    H112969   1.905   5.234   1.585
 4342TIP3    H212970   2.032   5.279   1.653
 4343TIP3   OH212971   1.658   4.655   1.986
 4343TIP3    H112972   1.622   4.661   2.074
 4343TIP3    H212973   1.622   4.573   1.951
 4344TIP3   OH212974   1.448   5.150   3.015
 4344TIP3    H112975   1.450   5.184   3.104
 4344TIP3    H212976   1.416   5.223   2.962
 4345TIP3   OH212977   1.327   5.026   2.546
 4345TIP3    H112978   1.238   5.002   2.572
 4345TIP3    H212979   1.336   4.991   2.457
 4346TIP3   OH212980   1.805   5.099   2.275
 4346TIP3    H112981   1.758   5.172   2.235
 4346TIP3    H212982   1.863   5.067   2.206
 4347TIP3   OH212983   1.983   5.370   3.362
 4347TIP3    H112984   1.947   5.305   3.422
 4347TIP3    H212985   2.076   5.375   3.383
 4348TIP3   OH212986   1.976   5.115   2.496
 4348TIP3    H112987   1.906   5.135   2.434
 4348TIP3    H212988   2.022   5.040   2.457
 4349TIP3   OH212989   1.244   5.143   3.264
 4349TIP3    H112990   1.327   5.187   3.283
 4349TIP3    H212991   1.250   5.060   3.311
 4350TIP3   OH212992   1.324   4.634   1.961
 4350TIP3    H112993   1.315   4.639   2.056
 4350TIP3    H212994   1.246   4.679   1.927
 4351TIP3   OH212995   0.875   4.683   2.825
 4351TIP3    H112996   0.942   4.720   2.883
 4351TIP3    H212997   0.921   4.672   2.741
 4352TIP3   OH212998   0.781   4.660   2.328
 4352TIP3    H112999   0.825   4.695   2.251
 4352TIP3    H213000   0.719   4.729   2.354
 4353TIP3   OH213001   2.018   5.362   2.930
 4353TIP3    H113002   2.041   5.294   2.865
 4353TIP3    H213003   1.978   5.313   3.002
 4354TIP3   OH213004   1.687   4.815   2.597
 4354TIP3    H113005   1.610   4.816   2.654
 4354TIP3    H213006   1.761   4.805   2.657
 4355TIP3   OH213007   1.089   4.900   2.607
 4355TIP3    H113008   1.002   4.903   2.569
 4355TIP3    H213009   1.119   4.810   2.592
 4356TIP3   OH213010   1.338   4.900   2.301
 4356TIP3    H113011   1.433   4.911   2.291
 4356TIP3    H213012   1.302   4.918   2.214
 4357TIP3   OH213013   2.139   4.899   2.790
 4357TIP3    H113014   2.131   4.910   2.884
 4357TIP3    H213015   2.066   4.841   2.766
 4358TIP3   OH213016   1.225   4.923   2.053
 4358TIP3    H113017   1.162   4.875   2.000
 4358TIP3    H213018   1.279   4.970   1.988
 4359TIP3   OH213019   2.338   6.609   3.029
 4359TIP3    H113020   2.338   6.625   2.934
 4359TIP3    H213021   2.417   6.653   3.060
 4360TIP3   OH213022   1.273   5.740   3.438
 4360TIP3    H113023   1.355   5.750   3.486
 4360TIP3    H213024   1.205   5.736   3.505
 4361TIP3   OH213025   1.741   5.189   2.706
 4361TIP3    H113026   1.807   5.138   2.660
 4361TIP3    H213027   1.738   5.152   2.794
 4362TIP3   OH213028   1.229   4.652   2.596
 4362TIP3    H113029   1.201   4.577   2.648
 4362TIP3    H213030   1.257   4.615   2.512
 4363TIP3   OH213031   1.717   5.096   2.969
 4363TIP3    H113032   1.628   5.121   2.992
 4363TIP3    H213033   1.772   5.145   3.031
 4364TIP3   OH213034   1.449   5.443   2.083
 4364TIP3    H113035   1.375   5.386   2.061
 4364TIP3    H213036   1.422   5.485   2.165
 4365TIP3   OH213037   2.336   5.697   2.689
 4365TIP3    H113038   2.371   5.746   2.615
 4365TIP3    H213039   2.257   5.656   2.656
 4366TIP3   OH213040   1.910   4.760   1.984
 4366TIP3    H113041   1.817   4.738   1.983
 4366TIP3    H213042   1.912   4.854   2.000
 4367TIP3   OH213043   1.855   5.785   3.098
 4367TIP3    H113044   1.899   5.769   3.181
 4367TIP3    H213045   1.812   5.869   3.109
 4368TIP3   OH213046   1.968   5.023   2.058
 4368TIP3    H113047   2.063   5.027   2.069
 4368TIP3    H213048   1.947   5.101   2.008
 4369TIP3   OH213049   1.132   5.452   2.733
 4369TIP3    H113050   1.172   5.436   2.648
 4369TIP3    H213051   1.198   5.423   2.796
 4370TIP3   OH213052   1.597   5.607   1.924
 4370TIP3    H113053   1.551   5.690   1.921
 4370TIP3    H213054   1.542   5.550   1.977
 4371TIP3   OH213055   1.027   5.415   3.379
 4371TIP3    H113056   1.058   5.399   3.468
 4371TIP3    H213057   0.967   5.342   3.361
 4372TIP3   OH213058   1.760   5.531   3.383
 4372TIP3    H113059   1.698   5.486   3.326
 4372TIP3    H213060   1.843   5.486   3.370
 4373TIP3   OH213061   1.999   6.071   2.985
 4373TIP3    H113062   1.905   6.055   2.989
 4373TIP3    H213063   2.021   6.105   3.072
 4374TIP3   OH213064   2.386   5.109   1.873
 4374TIP3    H113065   2.331   5.062   1.810
 4374TIP3    H213066   2.390   5.198   1.841
 4375TIP3   OH213067   2.638   5.987   2.957
 4375TIP3    H113068   2.544   5.970   2.952
 4375TIP3    H213069   2.672   5.956   2.873
 4376TIP3   OH213070   2.130   5.928   1.812
 4376TIP3    H113071   2.098   5.862   1.874
 4376TIP3    H213072   2.143   5.879   1.730
 4377TIP3   OH213073   2.107   5.562   2.586
 4377TIP3    H113074   2.018   5.540   2.614
 4377TIP3    H213075   2.142   5.481   2.548
 4378TIP3   OH213076   1.258   5.798   2.402
 4378TIP3    H113077   1.254   5.875   2.345
 4378TIP3    H213078   1.167   5.785   2.432
 4379TIP3   OH213079   0.829   5.085   2.112
 4379TIP3    H113080   0.870   5.170   2.132
 4379TIP3    H213081   0.748   5.086   2.162
 4380TIP3   OH213082   1.348   5.556   2.306
 4380TIP3    H113083   1.329   5.645   2.336
 4380TIP3    H213084   1.322   5.500   2.380
 4381TIP3   OH213085   1.543   6.121   2.854
 4381TIP3    H113086   1.580   6.193   2.803
 4381TIP3    H213087   1.616   6.088   2.905
 4382TIP3   OH213088   1.178   6.022   2.254
 4382TIP3    H113089   1.090   6.028   2.291
 4382TIP3    H213090   1.211   6.112   2.257
 4383TIP3   OH213091   1.893   5.784   2.825
 4383TIP3    H113092   1.881   5.782   2.920
 4383TIP3    H213093   1.966   5.724   2.808
 4384TIP3   OH213094   1.889   5.661   1.693
 4384TIP3    H113095   1.940   5.632   1.769
 4384TIP3    H213096   1.804   5.618   1.703
 4385TIP3   OH213097   2.152   6.279   2.869
 4385TIP3    H113098   2.084   6.215   2.889
 4385TIP3    H213099   2.115   6.332   2.798
 4386TIP3   OH213100   2.199   6.129   1.499
 4386TIP3    H113101   2.212   6.187   1.425
 4386TIP3    H213102   2.130   6.170   1.551
 4387TIP3   OH213103   1.242   4.882   3.383
 4387TIP3    H113104   1.147   4.887   3.393
 4387TIP3    H213105   1.272   4.831   3.459
 4388TIP3   OH213106   2.065   5.572   1.884
 4388TIP3    H113107   2.049   5.521   1.963
 4388TIP3    H213108   2.161   5.582   1.880
 4389TIP3   OH213109   0.973   6.007   3.019
 4389TIP3    H113110   1.023   5.943   3.070
 4389TIP3    H213111   0.983   6.089   3.067
 4390TIP3   OH213112   1.249   5.626   1.715
 4390TIP3    H113113   1.260   5.535   1.688
 4390TIP3    H213114   1.233   5.621   1.809
 4391TIP3   OH213115   1.186   5.640   1.984
 4391TIP3    H113116   1.242   5.612   2.056
 4391TIP3    H213117   1.185   5.736   1.990
 4392TIP3   OH213118   0.919   5.338   2.190
 4392TIP3    H113119   0.857   5.386   2.244
 4392TIP3    H213120   0.935   5.397   2.116
 4393TIP3   OH213121   2.112   4.941   3.053
 4393TIP3    H113122   2.166   5.003   3.100
 4393TIP3    H213123   2.088   4.875   3.118
 4394TIP3   OH213124   1.970   4.708   2.254
 4394TIP3    H113125   1.949   4.728   2.162
 4394TIP3    H213126   2.013   4.787   2.286
 4395TIP3   OH213127   1.457   5.839   1.917
 4395TIP3    H113128   1.373   5.857   1.958
 4395TIP3    H213129   1.471   5.912   1.857
 4396TIP3   OH213130   1.618   4.908   2.345
 4396TIP3    H113131   1.680   4.977   2.320
 4396TIP3    H213132   1.639   4.888   2.436
 4397TIP3   OH213133   1.915   5.213   3.139
 4397TIP3    H113134   1.926   5.267   3.217
 4397TIP3    H213135   1.945   5.126   3.166
 4398TIP3   OH213136   1.783   4.605   2.433
 4398TIP3    H113137   1.761   4.682   2.485
 4398TIP3    H213138   1.853   4.636   2.374
 4399TIP3   OH213139   1.207   5.912   2.005
 4399TIP3    H113140   1.181   5.980   1.943
 4399TIP3    H213141   1.195   5.951   2.091
 4400TIP3   OH213142   1.296   4.627   2.239
 4400TIP3    H113143   1.284   4.717   2.269
 4400TIP3    H213144   1.391   4.612   2.246
 4401TIP3   OH213145   2.531   5.095   3.111
 4401TIP3    H113146   2.438   5.110   3.125
 4401TIP3    H213147   2.535   5.033   3.039
 4402TIP3   OH213148   2.198   5.304   2.497
 4402TIP3    H113149   2.121   5.249   2.508
 4402TIP3    H213150   2.265   5.264   2.553
 4403TIP3   OH213151   0.932   5.515   1.971
 4403TIP3    H113152   0.995   5.586   1.977
 4403TIP3    H213153   0.971   5.452   1.910
 4404TIP3   OH213154   0.846   4.806   2.105
 4404TIP3    H113155   0.863   4.899   2.120
 4404TIP3    H213156   0.797   4.804   2.023
 4405TIP3   OH213157   2.179   6.280   2.441
 4405TIP3    H113158   2.137   6.332   2.372
 4405TIP3    H213159   2.272   6.292   2.426
 4406TIP3   OH213160   1.241   4.530   2.979
 4406TIP3    H113161   1.213   4.496   2.894
 4406TIP3    H213162   1.235   4.454   3.037
 4407TIP3   OH213163   0.765   5.782   2.364
 4407TIP3    H113164   0.714   5.819   2.437
 4407TIP3    H213165   0.725   5.820   2.286
 4408TIP3   OH213166   0.973   6.314   3.434
 4408TIP3    H113167   1.056   6.319   3.483
 4408TIP3    H213168   0.957   6.221   3.423
 4409TIP3   OH213169   1.436   6.227   3.478
 4409TIP3    H113170   1.527   6.197   3.487
 4409TIP3    H213171   1.401   6.175   3.406
 4410TIP3   OH213172   1.396   5.830   1.600
 4410TIP3    H113173   1.350   5.760   1.647
 4410TIP3    H213174   1.471   5.786   1.561
 4411TIP3   OH213175   2.054   6.166   3.237
 4411TIP3    H113176   2.069   6.096   3.300
 4411TIP3    H213177   2.128   6.226   3.249
 4412TIP3   OH213178   1.838   5.872   1.527
 4412TIP3    H113179   1.869   5.806   1.589
 4412TIP3    H213180   1.898   5.866   1.453
 4413TIP3   OH213181   1.075   5.715   3.630
 4413TIP3    H113182   1.094   5.622   3.637
 4413TIP3    H213183   0.988   5.718   3.589
 4414TIP3   OH213184   1.075   5.326   1.834
 4414TIP3    H113185   1.127   5.305   1.912
 4414TIP3    H213186   1.140   5.339   1.765
 4415TIP3   OH213187   1.691   5.802   3.404
 4415TIP3    H113188   1.645   5.820   3.322
 4415TIP3    H213189   1.726   5.714   3.393
 4416TIP3   OH213190   1.634   5.545   1.660
 4416TIP3    H113191   1.609   5.558   1.751
 4416TIP3    H213192   1.613   5.453   1.642
 4417TIP3   OH213193   2.171   5.845   3.024
 4417TIP3    H113194   2.247   5.873   2.974
 4417TIP3    H213195   2.104   5.911   3.006
 4418TIP3   OH213196   1.200   5.458   3.619
 4418TIP3    H113197   1.279   5.425   3.577
 4418TIP3    H213198   1.225   5.474   3.710
 4419TIP3   OH213199   1.244   5.263   2.044
 4419TIP3    H113200   1.220   5.232   2.131
 4419TIP3    H213201   1.288   5.187   2.003
 4420TIP3   OH213202   1.469   5.305   3.239
 4420TIP3    H113203   1.412   5.376   3.267
 4420TIP3    H213204   1.545   5.349   3.202
 4421TIP3   OH213205   1.376   5.076   1.882
 4421TIP3    H113206   1.346   5.082   1.791
 4421TIP3    H213207   1.471   5.086   1.876
 4422TIP3   OH213208   2.050   5.719   3.379
 4422TIP3    H113209   2.114   5.675   3.323
 4422TIP3    H213210   2.045   5.663   3.457
 4423TIP3   OH213211   2.169   5.368   1.561
 4423TIP3    H113212   2.156   5.328   1.475
 4423TIP3    H213213   2.144   5.460   1.548
 4424TIP3   OH213214   1.683   4.855   3.132
 4424TIP3    H113215   1.702   4.927   3.071
 4424TIP3    H213216   1.589   4.864   3.150
 4425TIP3   OH213217   1.663   5.447   3.108
 4425TIP3    H113218   1.752   5.458   3.076
 4425TIP3    H213219   1.610   5.503   3.050
 4426TIP3   OH213220   2.255   5.386   3.450
 4426TIP3    H113221   2.287   5.297   3.460
 4426TIP3    H213222   2.334   5.437   3.428
 4427TIP3   OH213223   2.292   5.665   3.189
 4427TIP3    H113224   2.239   5.728   3.140
 4427TIP3    H213225   2.381   5.679   3.157
 4428TIP3   OH213226   1.524   5.228   3.650
 4428TIP3    H113227   1.480   5.143   3.655
 4428TIP3    H213228   1.604   5.210   3.600
 4429TIP3   OH213229   1.787   4.659   3.290
 4429TIP3    H113230   1.754   4.732   3.237
 4429TIP3    H213231   1.719   4.592   3.283
 4430TIP3   OH213232   2.145   5.101   3.369
 4430TIP3    H113233   2.064   5.101   3.420
 4430TIP3    H213234   2.213   5.076   3.432
 4431TIP3   OH213235   2.391   5.080   3.520
 4431TIP3    H113236   2.403   4.985   3.525
 4431TIP3    H213237   2.385   5.109   3.611
 4432TIP3   OH213238   1.378   4.993   3.712
 4432TIP3    H113239   1.385   4.907   3.670
 4432TIP3    H213240   1.416   4.981   3.799
 4433TIP3   OH213241   1.860   4.657   3.555
 4433TIP3    H113242   1.930   4.593   3.544
 4433TIP3    H213243   1.822   4.668   3.468
 4434TIP3   OH213244   1.884   4.876   3.721
 4434TIP3    H113245   1.885   4.809   3.653
 4434TIP3    H213246   1.877   4.959   3.674
 4435TIP3   OH213247   1.169   6.113   1.822
 4435TIP3    H113248   1.250   6.120   1.771
 4435TIP3    H213249   1.100   6.138   1.760
 4436TIP3   OH213250   0.663   5.486   2.017
 4436TIP3    H113251   0.755   5.507   2.001
 4436TIP3    H213252   0.650   5.402   1.974
 4437TIP3   OH213253   0.568   6.101   2.455
 4437TIP3    H113254   0.505   6.045   2.409
 4437TIP3    H213255   0.614   6.041   2.515
 4438TIP3   OH213256   0.710   5.931   2.621
 4438TIP3    H113257   0.699   5.860   2.684
 4438TIP3    H213258   0.763   5.996   2.666
 4439TIP3   OH213259   2.451   6.329   2.433
 4439TIP3    H113260   2.468   6.352   2.525
 4439TIP3    H213261   2.502   6.392   2.383
 4440TIP3   OH213262   2.470   6.359   2.712
 4440TIP3    H113263   2.421   6.276   2.709
 4440TIP3    H213264   2.538   6.343   2.778
 4441TIP3   OH213265   2.523   6.064   3.283
 4441TIP3    H113266   2.452   6.072   3.347
 4441TIP3    H213267   2.568   6.148   3.286
 4442TIP3   OH213268   2.346   5.576   1.890
 4442TIP3    H113269   2.403   5.648   1.862
 4442TIP3    H213270   2.389   5.538   1.966
 4443TIP3   OH213271   2.472   5.433   2.093
 4443TIP3    H113272   2.404   5.395   2.149
 4443TIP3    H213273   2.536   5.470   2.154
 4444TIP3   OH213274   2.516   5.837   2.527
 4444TIP3    H113275   2.569   5.769   2.485
 4444TIP3    H213276   2.517   5.910   2.464
 4445TIP3   OH213277   2.325   6.122   2.716
 4445TIP3    H113278   2.258   6.166   2.769
 4445TIP3    H213279   2.276   6.081   2.645
 4446TIP3   OH213280   2.378   5.349   1.738
 4446TIP3    H113281   2.305   5.349   1.675
 4446TIP3    H213282   2.364   5.427   1.791
 4447TIP3   OH213283   2.240   4.995   1.671
 4447TIP3    H113284   2.189   5.034   1.600
 4447TIP3    H213285   2.230   4.901   1.660
 4448TIP3   OH213286   2.268   5.295   2.228
 4448TIP3    H113287   2.272   5.200   2.216
 4448TIP3    H213288   2.248   5.305   2.322
 4449TIP3   OH213289   0.887   5.363   2.998
 4449TIP3    H113290   0.880   5.329   2.909
 4449TIP3    H213291   0.980   5.354   3.020
 4450TIP3   OH213292   2.549   5.711   3.091
 4450TIP3    H113293   2.615   5.644   3.075
 4450TIP3    H213294   2.560   5.773   3.019
 4451TIP3   OH213295   2.726   5.500   3.082
 4451TIP3    H113296   2.651   5.457   3.125
 4451TIP3    H213297   2.801   5.444   3.103
 4452TIP3   OH213298   2.196   4.723   1.642
 4452TIP3    H113299   2.259   4.700   1.710
 4452TIP3    H213300   2.112   4.689   1.674
 4453TIP3   OH213301   2.260   5.017   2.113
 4453TIP3    H113302   2.305   4.933   2.126
 4453TIP3    H213303   2.303   5.055   2.037
 4454TIP3   OH213304   2.413   5.182   2.637
 4454TIP3    H113305   2.495   5.199   2.590
 4454TIP3    H213306   2.426   5.222   2.723
 4455TIP3   OH213307   2.488   5.332   2.865
 4455TIP3    H113308   2.416   5.359   2.921
 4455TIP3    H213309   2.518   5.412   2.824
 4456TIP3   OH213310   1.111   5.031   3.637
 4456TIP3    H113311   1.204   5.038   3.660
 4456TIP3    H213312   1.082   4.950   3.680
 4457TIP3   OH213313   2.951   4.929   3.406
 4457TIP3    H113314   3.015   4.872   3.363
 4457TIP3    H213315   2.912   4.979   3.335
 4458TIP3   OH213316   2.376   4.767   2.164
 4458TIP3    H113317   2.421   4.753   2.248
 4458TIP3    H213318   2.313   4.695   2.159
 4459TIP3   OH213319   1.079   4.754   3.000
 4459TIP3    H113320   1.134   4.676   3.005
 4459TIP3    H213321   1.141   4.826   2.985
 4460TIP3   OH213322   0.868   5.015   3.056
 4460TIP3    H113323   0.918   5.010   2.975
 4460TIP3    H213324   0.898   5.094   3.100
 4461TIP3   OH213325   2.800   5.049   3.213
 4461TIP3    H113326   2.722   5.089   3.252
 4461TIP3    H213327   2.766   4.981   3.155
 4462TIP3   OH213328   2.420   4.682   1.804
 4462TIP3    H113329   2.468   4.620   1.748
 4462TIP3    H213330   2.476   4.759   1.809
 4463TIP3   OH213331   0.852   4.515   2.550
 4463TIP3    H113332   0.767   4.506   2.593
 4463TIP3    H213333   0.835   4.575   2.477
 4464TIP3   OH213334   2.012   6.244   2.072
 4464TIP3    H113335   2.068   6.234   1.995
 4464TIP3    H213336   2.053   6.314   2.123
 4465TIP3   OH213337   1.073   4.568   3.375
 4465TIP3    H113338   1.026   4.569   3.459
 4465TIP3    H213339   1.019   4.620   3.317
 4466TIP3   OH213340   1.109   6.039   3.449
 4466TIP3    H113341   1.016   6.019   3.443
 4466TIP3    H213342   1.133   6.020   3.540
 4467TIP3   OH213343   1.314   6.081   3.000
 4467TIP3    H113344   1.262   6.155   2.969
 4467TIP3    H213345   1.398   6.090   2.957
 4468TIP3   OH213346   1.713   6.317   3.142
 4468TIP3    H113347   1.751   6.308   3.230
 4468TIP3    H213348   1.776   6.371   3.094
 4469TIP3   OH213349   1.905   6.470   3.015
 4469TIP3    H113350   1.967   6.415   2.967
 4469TIP3    H213351   1.960   6.528   3.068
 4470TIP3   OH213352   2.711   4.800   3.100
 4470TIP3    H113353   2.625   4.796   3.059
 4470TIP3    H213354   2.744   4.711   3.095
 4471TIP3   OH213355   0.977   6.333   3.046
 4471TIP3    H113356   0.884   6.348   3.029
 4471TIP3    H213357   0.999   6.397   3.114
 4472TIP3   OH213358   1.207   6.315   2.899
 4472TIP3    H113359   1.124   6.321   2.946
 4472TIP3    H213360   1.185   6.337   2.808
 4473TIP3   OH213361   1.622   6.331   2.690
 4473TIP3    H113362   1.548   6.341   2.629
 4473TIP3    H213363   1.631   6.416   2.732
 4474TIP3   OH213364   1.886   6.270   2.740
 4474TIP3    H113365   1.794   6.288   2.720
 4474TIP3    H213366   1.934   6.338   2.694
 4475TIP3   OH213367   2.089   6.444   2.644
 4475TIP3    H113368   2.085   6.530   2.603
 4475TIP3    H213369   2.118   6.385   2.575
 4476TIP3   OH213370   0.887   6.102   2.772
 4476TIP3    H113371   0.913   6.077   2.860
 4476TIP3    H213372   0.957   6.069   2.715
 4477TIP3   OH213373   1.087   5.987   2.628
 4477TIP3    H113374   1.098   5.902   2.671
 4477TIP3    H213375   1.174   6.028   2.631
 4478TIP3   OH213376   1.356   6.073   2.650
 4478TIP3    H113377   1.374   5.981   2.636
 4478TIP3    H213378   1.410   6.097   2.726
 4479TIP3   OH213379   1.915   4.722   2.731
 4479TIP3    H113380   1.879   4.653   2.787
 4479TIP3    H213381   1.985   4.678   2.681
 4480TIP3   OH213382   2.421   4.636   2.622
 4480TIP3    H113383   2.456   4.687   2.550
 4480TIP3    H213384   2.328   4.659   2.626
 4481TIP3   OH213385   2.535   4.716   2.386
 4481TIP3    H113386   2.604   4.656   2.360
 4481TIP3    H213387   2.573   4.803   2.373
 4482TIP3   OH213388   1.157   4.423   2.737
 4482TIP3    H113389   1.068   4.389   2.747
 4482TIP3    H213390   1.212   4.345   2.730
 4483TIP3   OH213391   0.971   4.322   2.381
 4483TIP3    H113392   1.002   4.373   2.306
 4483TIP3    H213393   0.936   4.387   2.442
 4484TIP3   OH213394   1.637   4.462   2.631
 4484TIP3    H113395   1.685   4.511   2.564
 4484TIP3    H213396   1.675   4.491   2.714
 4485TIP3   OH213397   2.132   4.605   2.603
 4485TIP3    H113398   2.147   4.568   2.516
 4485TIP3    H213399   2.137   4.530   2.662
 4486TIP3   OH213400   2.190   4.557   2.173
 4486TIP3    H113401   2.110   4.604   2.197
 4486TIP3    H213402   2.179   4.470   2.212
 4487TIP3   OH213403   0.657   5.893   2.137
 4487TIP3    H113404   0.568   5.867   2.112
 4487TIP3    H213405   0.663   5.985   2.113
 4488TIP3   OH213406   1.087   4.458   2.152
 4488TIP3    H113407   1.133   4.398   2.094
 4488TIP3    H213408   1.155   4.515   2.188
 4489TIP3   OH213409   1.572   4.656   2.249
 4489TIP3    H113410   1.631   4.604   2.304
 4489TIP3    H213411   1.585   4.746   2.277
 4490TIP3   OH213412   1.443   6.061   1.740
 4490TIP3    H113413   1.526   6.087   1.700
 4490TIP3    H213414   1.411   5.990   1.684
 4491TIP3   OH213415   2.163   6.197   1.842
 4491TIP3    H113416   2.155   6.102   1.836
 4491TIP3    H213417   2.116   6.230   1.765
 4492TIP3   OH213418   1.370   4.714   3.607
 4492TIP3    H113419   1.334   4.648   3.666
 4492TIP3    H213420   1.461   4.723   3.634
 4493TIP3   OH213421   1.610   4.727   3.740
 4493TIP3    H113422   1.699   4.727   3.707
 4493TIP3    H213423   1.608   4.656   3.805
 4494TIP3   OH213424   0.782   5.918   1.823
 4494TIP3    H113425   0.759   5.906   1.915
 4494TIP3    H213426   0.856   5.858   1.809
 4495TIP3   OH213427   2.455   4.807   3.526
 4495TIP3    H113428   2.471   4.777   3.616
 4495TIP3    H213429   2.541   4.801   3.484
 4496TIP3   OH213430   2.373   6.335   3.033
 4496TIP3    H113431   2.298   6.305   2.981
 4496TIP3    H213432   2.360   6.429   3.042
 4497TIP3   OH213433   3.652   5.719   1.771
 4497TIP3    H113434   3.620   5.806   1.745
 4497TIP3    H213435   3.579   5.660   1.751
 4498TIP3   OH213436   3.634   5.714   2.191
 4498TIP3    H113437   3.687   5.701   2.269
 4498TIP3    H213438   3.593   5.628   2.175
 4499TIP3   OH213439   2.946   5.577   2.540
 4499TIP3    H113440   2.983   5.525   2.611
 4499TIP3    H213441   3.022   5.603   2.487
 4500TIP3   OH213442   3.914   6.026   1.872
 4500TIP3    H113443   3.908   5.957   1.939
 4500TIP3    H213444   3.938   6.104   1.921
 4501TIP3   OH213445   2.941   6.001   2.223
 4501TIP3    H113446   2.921   5.908   2.233
 4501TIP3    H213447   3.037   6.005   2.228
 4502TIP3   OH213448   2.623   5.208   2.010
 4502TIP3    H113449   2.584   5.292   2.036
 4502TIP3    H213450   2.550   5.159   1.972
 4503TIP3   OH213451   2.702   5.518   2.234
 4503TIP3    H113452   2.752   5.441   2.261
 4503TIP3    H213453   2.769   5.582   2.209
 4504TIP3   OH213454   3.528   6.481   1.875
 4504TIP3    H113455   3.586   6.420   1.829
 4504TIP3    H213456   3.543   6.464   1.968
 4505TIP3   OH213457   3.463   5.940   2.205
 4505TIP3    H113458   3.505   5.859   2.180
 4505TIP3    H213459   3.533   5.994   2.241
 4506TIP3   OH213460   4.489   5.256   2.220
 4506TIP3    H113461   4.506   5.339   2.265
 4506TIP3    H213462   4.509   5.274   2.128
 4507TIP3   OH213463   3.859   5.420   2.234
 4507TIP3    H113464   3.894   5.336   2.264
 4507TIP3    H213465   3.824   5.402   2.147
 4508TIP3   OH213466   3.218   5.082   2.194
 4508TIP3    H113467   3.196   5.155   2.137
 4508TIP3    H213468   3.161   5.011   2.165
 4509TIP3   OH213469   3.916   5.182   1.831
 4509TIP3    H113470   3.979   5.175   1.903
 4509TIP3    H213471   3.966   5.218   1.758
 4510TIP3   OH213472   2.842   5.297   2.326
 4510TIP3    H113473   2.925   5.279   2.370
 4510TIP3    H213474   2.845   5.245   2.246
 4511TIP3   OH213475   3.262   5.497   2.139
 4511TIP3    H113476   3.356   5.480   2.147
 4511TIP3    H213477   3.226   5.415   2.106
 4512TIP3   OH213478   4.544   5.476   2.383
 4512TIP3    H113479   4.458   5.518   2.374
 4512TIP3    H213480   4.582   5.514   2.462
 4513TIP3   OH213481   3.198   5.087   2.648
 4513TIP3    H113482   3.148   5.122   2.575
 4513TIP3    H213483   3.143   5.102   2.725
 4514TIP3   OH213484   3.550   5.937   1.627
 4514TIP3    H113485   3.512   5.901   1.547
 4514TIP3    H213486   3.501   6.017   1.644
 4515TIP3   OH213487   3.294   5.861   2.412
 4515TIP3    H113488   3.242   5.933   2.448
 4515TIP3    H213489   3.347   5.902   2.344
 4516TIP3   OH213490   4.077   5.202   2.051
 4516TIP3    H113491   4.032   5.181   2.133
 4516TIP3    H213492   4.130   5.279   2.071
 4517TIP3   OH213493   3.090   5.193   2.416
 4517TIP3    H113494   3.144   5.268   2.440
 4517TIP3    H213495   3.138   5.151   2.345
 4518TIP3   OH213496   3.138   6.065   2.517
 4518TIP3    H113497   3.124   6.156   2.489
 4518TIP3    H213498   3.061   6.044   2.570
 4519TIP3   OH213499   2.516   5.769   1.772
 4519TIP3    H113500   2.476   5.788   1.687
 4519TIP3    H213501   2.540   5.855   1.807
 4520TIP3   OH213502   3.952   6.274   2.010
 4520TIP3    H113503   3.866   6.263   2.050
 4520TIP3    H213504   3.947   6.358   1.965
 4521TIP3   OH213505   4.293   5.131   2.382
 4521TIP3    H113506   4.207   5.163   2.354
 4521TIP3    H213507   4.354   5.165   2.316
 4522TIP3   OH213508   3.540   4.779   2.379
 4522TIP3    H113509   3.531   4.687   2.405
 4522TIP3    H213510   3.464   4.822   2.418
 4523TIP3   OH213511   3.670   6.312   1.711
 4523TIP3    H113512   3.718   6.230   1.694
 4523TIP3    H213513   3.721   6.379   1.665
 4524TIP3   OH213514   3.791   6.081   1.634
 4524TIP3    H113515   3.725   6.012   1.626
 4524TIP3    H213516   3.844   6.054   1.709
 4525TIP3   OH213517   4.192   6.157   2.359
 4525TIP3    H113518   4.170   6.081   2.305
 4525TIP3    H213519   4.174   6.233   2.303
 4526TIP3   OH213520   3.470   5.559   1.630
 4526TIP3    H113521   3.389   5.603   1.608
 4526TIP3    H213522   3.519   5.556   1.548
 4527TIP3   OH213523   3.447   5.361   1.322
 4527TIP3    H113524   3.513   5.408   1.374
 4527TIP3    H213525   3.498   5.295   1.274
 4528TIP3   OH213526   4.372   5.813   2.222
 4528TIP3    H113527   4.288   5.859   2.224
 4528TIP3    H213528   4.406   5.830   2.134
 4529TIP3   OH213529   3.840   5.655   1.585
 4529TIP3    H113530   3.786   5.681   1.659
 4529TIP3    H213531   3.923   5.628   1.624
 4530TIP3   OH213532   4.055   5.655   2.498
 4530TIP3    H113533   4.061   5.735   2.551
 4530TIP3    H213534   3.969   5.661   2.456
 4531TIP3   OH213535   3.067   5.632   1.987
 4531TIP3    H113536   3.029   5.570   1.925
 4531TIP3    H213537   3.138   5.584   2.029
 4532TIP3   OH213538   3.211   6.053   2.131
 4532TIP3    H113539   3.191   6.026   2.041
 4532TIP3    H213540   3.298   6.016   2.148
 4533TIP3   OH213541   3.162   5.626   2.364
 4533TIP3    H113542   3.202   5.590   2.285
 4533TIP3    H213543   3.212   5.706   2.381
 4534TIP3   OH213544   3.716   6.256   2.145
 4534TIP3    H113545   3.702   6.339   2.191
 4534TIP3    H213546   3.702   6.189   2.212
 4535TIP3   OH213547   3.340   6.167   2.682
 4535TIP3    H113548   3.280   6.223   2.732
 4535TIP3    H213549   3.283   6.114   2.627
 4536TIP3   OH213550   3.663   5.511   1.432
 4536TIP3    H113551   3.724   5.569   1.479
 4536TIP3    H213552   3.690   5.517   1.340
 4537TIP3   OH213553   3.089   5.709   2.827
 4537TIP3    H113554   3.093   5.803   2.846
 4537TIP3    H213555   2.995   5.690   2.822
 4538TIP3   OH213556   3.429   6.191   1.668
 4538TIP3    H113557   3.510   6.231   1.700
 4538TIP3    H213558   3.370   6.195   1.743
 4539TIP3   OH213559   3.122   6.318   2.769
 4539TIP3    H113560   3.096   6.327   2.677
 4539TIP3    H213561   3.040   6.303   2.816
 4540TIP3   OH213562   4.177   4.735   1.475
 4540TIP3    H113563   4.101   4.757   1.528
 4540TIP3    H213564   4.189   4.811   1.418
 4541TIP3   OH213565   2.937   5.472   1.790
 4541TIP3    H113566   2.859   5.519   1.760
 4541TIP3    H213567   2.906   5.384   1.811
 4542TIP3   OH213568   3.991   6.114   1.053
 4542TIP3    H113569   3.987   6.210   1.053
 4542TIP3    H213570   4.081   6.093   1.031
 4543TIP3   OH213571   2.719   5.877   2.721
 4543TIP3    H113572   2.648   5.858   2.659
 4543TIP3    H213573   2.752   5.791   2.746
 4544TIP3   OH213574   2.562   6.074   2.373
 4544TIP3    H113575   2.652   6.095   2.395
 4544TIP3    H213576   2.511   6.149   2.403
 4545TIP3   OH213577   4.417   6.527   2.425
 4545TIP3    H113578   4.424   6.433   2.435
 4545TIP3    H213579   4.338   6.551   2.474
 4546TIP3   OH213580   3.523   6.315   2.538
 4546TIP3    H113581   3.517   6.402   2.577
 4546TIP3    H213582   3.463   6.262   2.590
 4547TIP3   OH213583   3.257   6.505   1.490
 4547TIP3    H113584   3.249   6.451   1.412
 4547TIP3    H213585   3.179   6.483   1.542
 4548TIP3   OH213586   2.747   6.258   1.876
 4548TIP3    H113587   2.786   6.250   1.963
 4548TIP3    H213588   2.694   6.178   1.866
 4549TIP3   OH213589   3.510   6.336   1.161
 4549TIP3    H113590   3.556   6.269   1.109
 4549TIP3    H213591   3.555   6.336   1.245
 4550TIP3   OH213592   3.531   6.407   1.455
 4550TIP3    H113593   3.506   6.320   1.485
 4550TIP3    H213594   3.624   6.415   1.479
 4551TIP3   OH213595   4.318   5.637   2.705
 4551TIP3    H113596   4.235   5.663   2.666
 4551TIP3    H213597   4.326   5.544   2.684
 4552TIP3   OH213598   2.918   6.063   2.686
 4552TIP3    H113599   2.969   6.053   2.766
 4552TIP3    H213600   2.847   6.000   2.694
 4553TIP3   OH213601   3.304   4.870   2.505
 4553TIP3    H113602   3.220   4.837   2.473
 4553TIP3    H213603   3.281   4.951   2.552
 4554TIP3   OH213604   3.847   4.983   2.705
 4554TIP3    H113605   3.916   4.964   2.769
 4554TIP3    H213606   3.766   4.972   2.754
 4555TIP3   OH213607   4.066   5.401   2.612
 4555TIP3    H113608   4.026   5.403   2.698
 4555TIP3    H213609   4.051   5.489   2.576
 4556TIP3   OH213610   3.743   5.509   1.175
 4556TIP3    H113611   3.692   5.501   1.095
 4556TIP3    H213612   3.823   5.553   1.148
 4557TIP3   OH213613   3.455   4.910   1.472
 4557TIP3    H113614   3.419   4.918   1.560
 4557TIP3    H213615   3.418   4.829   1.437
 4558TIP3   OH213616   3.241   5.404   2.512
 4558TIP3    H113617   3.196   5.411   2.596
 4558TIP3    H213618   3.220   5.485   2.467
 4559TIP3   OH213619   3.121   5.282   2.032
 4559TIP3    H113620   3.032   5.257   2.059
 4559TIP3    H213621   3.130   5.248   1.944
 4560TIP3   OH213622   3.600   5.354   1.761
 4560TIP3    H113623   3.552   5.427   1.721
 4560TIP3    H213624   3.658   5.323   1.691
 4561TIP3   OH213625   3.780   5.621   2.830
 4561TIP3    H113626   3.762   5.555   2.896
 4561TIP3    H213627   3.870   5.649   2.846
 4562TIP3   OH213628   3.769   5.367   1.983
 4562TIP3    H113629   3.699   5.388   1.920
 4562TIP3    H213630   3.817   5.295   1.943
 4563TIP3   OH213631   3.077   5.418   2.732
 4563TIP3    H113632   3.094   5.481   2.802
 4563TIP3    H213633   3.058   5.336   2.778
 4564TIP3   OH213634   3.121   4.893   1.448
 4564TIP3    H113635   3.112   4.896   1.543
 4564TIP3    H213636   3.042   4.936   1.415
 4565TIP3   OH213637   2.668   4.937   2.309
 4565TIP3    H113638   2.740   4.972   2.361
 4565TIP3    H213639   2.708   4.915   2.225
 4566TIP3   OH213640   2.576   4.913   1.817
 4566TIP3    H113641   2.621   4.948   1.740
 4566TIP3    H213642   2.514   4.981   1.841
 4567TIP3   OH213643   3.791   5.621   2.402
 4567TIP3    H113644   3.819   5.553   2.341
 4567TIP3    H213645   3.755   5.573   2.477
 4568TIP3   OH213646   3.484   5.070   2.083
 4568TIP3    H113647   3.406   5.071   2.139
 4568TIP3    H213648   3.557   5.063   2.144
 4569TIP3   OH213649   2.882   5.158   2.092
 4569TIP3    H113650   2.794   5.162   2.056
 4569TIP3    H213651   2.909   5.067   2.078
 4570TIP3   OH213652   3.135   5.157   1.788
 4570TIP3    H113653   3.229   5.168   1.777
 4570TIP3    H213654   3.099   5.175   1.701
 4571TIP3   OH213655   3.932   5.157   2.285
 4571TIP3    H113656   3.917   5.172   2.378
 4571TIP3    H213657   3.862   5.098   2.258
 4572TIP3   OH213658   3.021   5.182   1.539
 4572TIP3    H113659   2.958   5.133   1.487
 4572TIP3    H213660   3.075   5.228   1.475
 4573TIP3   OH213661   4.131   6.868   2.516
 4573TIP3    H113662   4.131   6.881   2.421
 4573TIP3    H213663   4.211   6.912   2.546
 4574TIP3   OH213664   3.072   5.976   2.921
 4574TIP3    H113665   3.153   5.996   2.968
 4574TIP3    H213666   3.004   5.985   2.987
 4575TIP3   OH213667   3.532   5.440   2.191
 4575TIP3    H113668   3.603   5.394   2.147
 4575TIP3    H213669   3.530   5.403   2.279
 4576TIP3   OH213670   3.025   4.908   2.080
 4576TIP3    H113671   2.997   4.833   2.132
 4576TIP3    H213672   3.048   4.871   1.995
 4577TIP3   OH213673   3.508   5.347   2.457
 4577TIP3    H113674   3.422   5.380   2.482
 4577TIP3    H213675   3.569   5.398   2.511
 4578TIP3   OH213676   3.237   5.699   1.567
 4578TIP3    H113677   3.163   5.642   1.544
 4578TIP3    H213678   3.211   5.739   1.650
 4579TIP3   OH213679   4.136   5.953   2.179
 4579TIP3    H113680   4.172   6.002   2.105
 4579TIP3    H213681   4.056   5.914   2.145
 4580TIP3   OH213682   3.707   5.015   1.472
 4580TIP3    H113683   3.614   4.994   1.471
 4580TIP3    H213684   3.710   5.110   1.487
 4581TIP3   OH213685   3.658   6.030   2.606
 4581TIP3    H113686   3.727   6.008   2.668
 4581TIP3    H213687   3.628   6.117   2.633
 4582TIP3   OH213688   3.767   5.277   1.546
 4582TIP3    H113689   3.862   5.281   1.557
 4582TIP3    H213690   3.745   5.357   1.497
 4583TIP3   OH213691   2.932   5.712   2.217
 4583TIP3    H113692   2.971   5.694   2.132
 4583TIP3    H213693   2.997   5.682   2.280
 4584TIP3   OH213694   3.393   5.858   1.412
 4584TIP3    H113695   3.345   5.940   1.408
 4584TIP3    H213696   3.336   5.800   1.463
 4585TIP3   OH213697   2.814   5.645   2.853
 4585TIP3    H113698   2.819   5.621   2.945
 4585TIP3    H213699   2.739   5.596   2.819
 4586TIP3   OH213700   3.554   5.779   2.876
 4586TIP3    H113701   3.485   5.718   2.848
 4586TIP3    H213702   3.635   5.739   2.846
 4587TIP3   OH213703   3.795   6.327   2.464
 4587TIP3    H113704   3.701   6.312   2.472
 4587TIP3    H213705   3.822   6.357   2.551
 4588TIP3   OH213706   4.180   5.365   1.361
 4588TIP3    H113707   4.124   5.319   1.298
 4588TIP3    H213708   4.184   5.455   1.328
 4589TIP3   OH213709   4.438   6.252   2.438
 4589TIP3    H113710   4.345   6.232   2.444
 4589TIP3    H213711   4.466   6.213   2.355
 4590TIP3   OH213712   3.896   6.163   1.314
 4590TIP3    H113713   3.878   6.091   1.375
 4590TIP3    H213714   3.921   6.121   1.233
 4591TIP3   OH213715   3.906   5.821   2.069
 4591TIP3    H113716   3.817   5.803   2.098
 4591TIP3    H213717   3.938   5.738   2.035
 4592TIP3   OH213718   3.052   6.061   1.879
 4592TIP3    H113719   3.040   6.140   1.826
 4592TIP3    H213720   2.970   6.053   1.929
 4593TIP3   OH213721   2.616   5.339   1.600
 4593TIP3    H113722   2.659   5.422   1.622
 4593TIP3    H213723   2.535   5.339   1.651
 4594TIP3   OH213724   3.141   5.816   1.791
 4594TIP3    H113725   3.115   5.903   1.820
 4594TIP3    H213726   3.118   5.758   1.863
 4595TIP3   OH213727   3.342   6.386   2.337
 4595TIP3    H113728   3.382   6.456   2.286
 4595TIP3    H213729   3.412   6.353   2.392
 4596TIP3   OH213730   2.979   6.299   1.734
 4596TIP3    H113731   2.892   6.296   1.774
 4596TIP3    H213732   3.005   6.391   1.739
 4597TIP3   OH213733   3.693   6.041   2.330
 4597TIP3    H113734   3.672   6.037   2.424
 4597TIP3    H213735   3.785   6.013   2.326
 4598TIP3   OH213736   3.680   5.915   1.191
 4598TIP3    H113737   3.733   5.893   1.267
 4598TIP3    H213738   3.597   5.868   1.204
 4599TIP3   OH213739   3.945   6.537   2.357
 4599TIP3    H113740   3.882   6.468   2.379
 4599TIP3    H213741   3.905   6.584   2.285
 4600TIP3   OH213742   4.011   6.388   1.046
 4600TIP3    H113743   4.061   6.468   1.032
 4600TIP3    H213744   3.925   6.419   1.076
 4601TIP3   OH213745   3.024   5.165   2.853
 4601TIP3    H113746   2.929   5.175   2.858
 4601TIP3    H213747   3.048   5.116   2.931
 4602TIP3   OH213748   3.863   5.851   1.386
 4602TIP3    H113749   3.845   5.792   1.459
 4602TIP3    H213750   3.959   5.852   1.378
 4603TIP3   OH213751   2.770   6.258   2.503
 4603TIP3    H113752   2.821   6.196   2.555
 4603TIP3    H213753   2.780   6.342   2.549
 4604TIP3   OH213754   3.037   5.885   1.197
 4604TIP3    H113755   3.048   5.794   1.170
 4604TIP3    H213756   3.022   5.880   1.292
 4605TIP3   OH213757   2.978   5.904   1.469
 4605TIP3    H113758   3.040   5.875   1.536
 4605TIP3    H213759   2.978   5.999   1.476
 4606TIP3   OH213760   2.711   5.591   1.679
 4606TIP3    H113761   2.646   5.639   1.731
 4606TIP3    H213762   2.730   5.649   1.606
 4607TIP3   OH213763   3.880   5.208   2.547
 4607TIP3    H113764   3.953   5.259   2.582
 4607TIP3    H213765   3.871   5.135   2.609
 4608TIP3   OH213766   3.766   4.965   1.742
 4608TIP3    H113767   3.746   4.985   1.650
 4608TIP3    H213768   3.810   5.045   1.774
 4609TIP3   OH213769   3.249   6.087   1.404
 4609TIP3    H113770   3.166   6.110   1.445
 4609TIP3    H213771   3.267   6.160   1.345
 4610TIP3   OH213772   3.414   5.164   1.831
 4610TIP3    H113773   3.476   5.232   1.806
 4610TIP3    H213774   3.436   5.144   1.922
 4611TIP3   OH213775   3.712   5.459   2.612
 4611TIP3    H113776   3.733   5.512   2.689
 4611TIP3    H213777   3.764   5.380   2.622
 4612TIP3   OH213778   3.580   4.862   1.919
 4612TIP3    H113779   3.556   4.938   1.971
 4612TIP3    H213780   3.649   4.892   1.861
 4613TIP3   OH213781   3.003   6.180   1.488
 4613TIP3    H113782   2.980   6.251   1.428
 4613TIP3    H213783   2.990   6.216   1.575
 4614TIP3   OH213784   3.093   4.884   1.726
 4614TIP3    H113785   3.081   4.974   1.756
 4614TIP3    H213786   3.187   4.869   1.733
 4615TIP3   OH213787   4.335   5.374   2.599
 4615TIP3    H113788   4.240   5.367   2.609
 4615TIP3    H213789   4.353   5.350   2.509
 4616TIP3   OH213790   3.993   5.560   1.984
 4616TIP3    H113791   3.916   5.506   1.998
 4616TIP3    H213792   4.061   5.522   2.040
 4617TIP3   OH213793   2.734   5.768   1.463
 4617TIP3    H113794   2.806   5.831   1.470
 4617TIP3    H213795   2.766   5.704   1.398
 4618TIP3   OH213796   2.639   5.061   1.594
 4618TIP3    H113797   2.653   5.155   1.603
 4618TIP3    H213798   2.569   5.054   1.529
 4619TIP3   OH213799   3.965   6.543   1.919
 4619TIP3    H113800   3.927   6.594   1.848
 4619TIP3    H213801   4.059   6.557   1.911
 4620TIP3   OH213802   3.044   4.782   2.462
 4620TIP3    H113803   3.014   4.749   2.378
 4620TIP3    H213804   3.034   4.708   2.522
 4621TIP3   OH213805   2.565   6.042   1.850
 4621TIP3    H113806   2.518   6.075   1.926
 4621TIP3    H213807   2.521   6.082   1.775
 4622TIP3   OH213808   2.765   6.576   2.922
 4622TIP3    H113809   2.847   6.581   2.971
 4622TIP3    H213810   2.748   6.482   2.914
 4623TIP3   OH213811   3.227   6.487   2.959
 4623TIP3    H113812   3.315   6.453   2.975
 4623TIP3    H213813   3.193   6.432   2.888
 4624TIP3   OH213814   3.187   6.093   1.093
 4624TIP3    H113815   3.139   6.022   1.135
 4624TIP3    H213816   3.263   6.050   1.052
 4625TIP3   OH213817   3.860   6.415   2.711
 4625TIP3    H113818   3.850   6.349   2.779
 4625TIP3    H213819   3.939   6.464   2.737
 4626TIP3   OH213820   3.628   6.130   1.026
 4626TIP3    H113821   3.662   6.061   1.084
 4626TIP3    H213822   3.680   6.121   0.946
 4627TIP3   OH213823   2.868   5.975   3.112
 4627TIP3    H113824   2.887   5.882   3.123
 4627TIP3    H213825   2.781   5.977   3.072
 4628TIP3   OH213826   2.858   5.578   1.310
 4628TIP3    H113827   2.908   5.552   1.388
 4628TIP3    H213828   2.924   5.591   1.243
 4629TIP3   OH213829   3.485   6.057   2.892
 4629TIP3    H113830   3.447   6.080   2.808
 4629TIP3    H213831   3.525   5.971   2.877
 4630TIP3   OH213832   3.422   5.794   1.148
 4630TIP3    H113833   3.400   5.807   1.240
 4630TIP3    H213834   3.403   5.702   1.131
 4631TIP3   OH213835   3.950   6.081   2.486
 4631TIP3    H113836   4.040   6.108   2.468
 4631TIP3    H213837   3.900   6.162   2.485
 4632TIP3   OH213838   2.984   5.719   3.120
 4632TIP3    H113839   3.061   5.703   3.065
 4632TIP3    H213840   3.020   5.739   3.207
 4633TIP3   OH213841   3.030   5.519   1.523
 4633TIP3    H113842   3.009   5.489   1.611
 4633TIP3    H213843   3.078   5.447   1.484
 4634TIP3   OH213844   3.345   5.598   2.778
 4634TIP3    H113845   3.261   5.643   2.787
 4634TIP3    H213846   3.378   5.628   2.693
 4635TIP3   OH213847   3.172   5.336   1.369
 4635TIP3    H113848   3.144   5.340   1.278
 4635TIP3    H213849   3.268   5.340   1.364
 4636TIP3   OH213850   3.851   6.001   2.854
 4636TIP3    H113851   3.936   6.044   2.861
 4636TIP3    H213852   3.848   5.941   2.928
 4637TIP3   OH213853   3.960   5.632   1.051
 4637TIP3    H113854   3.939   5.577   0.976
 4637TIP3    H213855   3.927   5.719   1.026
 4638TIP3   OH213856   3.451   5.369   2.887
 4638TIP3    H113857   3.455   5.299   2.822
 4638TIP3    H213858   3.417   5.445   2.839
 4639TIP3   OH213859   3.459   5.170   2.683
 4639TIP3    H113860   3.486   5.209   2.600
 4639TIP3    H213861   3.368   5.145   2.669
 4640TIP3   OH213862   3.464   5.697   2.555
 4640TIP3    H113863   3.553   5.732   2.548
 4640TIP3    H213864   3.410   5.759   2.506
 4641TIP3   OH213865   4.045   5.684   2.902
 4641TIP3    H113866   4.121   5.628   2.919
 4641TIP3    H213867   4.079   5.752   2.843
 4642TIP3   OH213868   4.095   5.862   2.670
 4642TIP3    H113869   4.031   5.933   2.669
 4642TIP3    H213870   4.179   5.905   2.652
 4643TIP3   OH213871   3.336   5.454   3.130
 4643TIP3    H113872   3.265   5.393   3.149
 4643TIP3    H213873   3.364   5.430   3.041
 4644TIP3   OH213874   3.579   4.938   2.785
 4644TIP3    H113875   3.540   5.018   2.752
 4644TIP3    H213876   3.512   4.871   2.772
 4645TIP3   OH213877   3.709   5.408   2.988
 4645TIP3    H113878   3.700   5.397   3.083
 4645TIP3    H213879   3.622   5.389   2.953
 4646TIP3   OH213880   3.950   5.360   2.852
 4646TIP3    H113881   3.873   5.366   2.909
 4646TIP3    H213882   4.024   5.350   2.913
 4647TIP3   OH213883   4.187   5.335   3.007
 4647TIP3    H113884   4.199   5.240   3.018
 4647TIP3    H213885   4.180   5.368   3.097
 4648TIP3   OH213886   3.166   5.234   3.192
 4648TIP3    H113887   3.172   5.146   3.157
 4648TIP3    H213888   3.205   5.228   3.279
 4649TIP3   OH213889   3.650   4.913   3.049
 4649TIP3    H113890   3.718   4.846   3.041
 4649TIP3    H213891   3.618   4.926   2.960
 4650TIP3   OH213892   3.741   5.128   3.198
 4650TIP3    H113893   3.711   5.057   3.141
 4650TIP3    H213894   3.670   5.192   3.197
 4651TIP3   OH213895   3.011   6.412   1.325
 4651TIP3    H113896   3.092   6.377   1.288
 4651TIP3    H213897   2.962   6.445   1.249
 4652TIP3   OH213898   2.460   5.768   1.474
 4652TIP3    H113899   2.555   5.777   1.475
 4652TIP3    H213900   2.445   5.681   1.438
 4653TIP3   OH213901   2.366   6.351   1.941
 4653TIP3    H113902   2.301   6.297   1.895
 4653TIP3    H213903   2.409   6.290   2.001
 4654TIP3   OH213904   2.511   6.185   2.108
 4654TIP3    H113905   2.501   6.115   2.172
 4654TIP3    H213906   2.563   6.252   2.153
 4655TIP3   OH213907   4.232   6.607   1.916
 4655TIP3    H113908   4.262   6.623   2.005
 4655TIP3    H213909   4.303   6.641   1.860
 4656TIP3   OH213910   4.269   6.614   2.198
 4656TIP3    H113911   4.221   6.532   2.192
 4656TIP3    H213912   4.335   6.598   2.266
 4657TIP3   OH213913   4.324   6.310   2.743
 4657TIP3    H113914   4.256   6.269   2.797
 4657TIP3    H213915   4.348   6.389   2.792
 4658TIP3   OH213916   4.140   5.834   1.381
 4658TIP3    H113917   4.198   5.905   1.352
 4658TIP3    H213918   4.186   5.795   1.456
 4659TIP3   OH213919   4.271   5.689   1.579
 4659TIP3    H113920   4.204   5.652   1.638
 4659TIP3    H213921   4.336   5.726   1.638
 4660TIP3   OH213922   4.310   6.088   2.010
 4660TIP3    H113923   4.364   6.018   1.974
 4660TIP3    H213924   4.319   6.160   1.947
 4661TIP3   OH213925   4.122   6.378   2.204
 4661TIP3    H113926   4.055   6.421   2.258
 4661TIP3    H213927   4.073   6.337   2.133
 4662TIP3   OH213928   4.168   5.608   1.229
 4662TIP3    H113929   4.091   5.606   1.172
 4662TIP3    H213930   4.155   5.686   1.284
 4663TIP3   OH213931   4.028   5.253   1.163
 4663TIP3    H113932   3.984   5.291   1.086
 4663TIP3    H213933   4.018   5.158   1.152
 4664TIP3   OH213934   4.065   5.552   1.716
 4664TIP3    H113935   4.070   5.458   1.703
 4664TIP3    H213936   4.045   5.563   1.809
 4665TIP3   OH213937   2.682   5.617   2.489
 4665TIP3    H113938   2.673   5.583   2.400
 4665TIP3    H213939   2.776   5.613   2.506
 4666TIP3   OH213940   4.337   5.959   2.579
 4666TIP3    H113941   4.408   5.899   2.555
 4666TIP3    H213942   4.348   6.034   2.521
 4667TIP3   OH213943   4.520   5.754   2.561
 4667TIP3    H113944   4.452   5.716   2.616
 4667TIP3    H213945   4.600   5.706   2.584
 4668TIP3   OH213946   3.991   4.979   1.141
 4668TIP3    H113947   4.053   4.958   1.210
 4668TIP3    H213948   3.907   4.946   1.173
 4669TIP3   OH213949   4.057   5.273   1.601
 4669TIP3    H113950   4.102   5.190   1.614
 4669TIP3    H213951   4.099   5.312   1.524
 4670TIP3   OH213952   4.209   5.437   2.122
 4670TIP3    H113953   4.290   5.455   2.075
 4670TIP3    H213954   4.222   5.477   2.208
 4671TIP3   OH213955   4.285   5.582   2.350
 4671TIP3    H113956   4.207   5.606   2.402
 4671TIP3    H213957   4.315   5.665   2.313
 4672TIP3   OH213958   2.902   5.293   3.130
 4672TIP3    H113959   2.996   5.290   3.149
 4672TIP3    H213960   2.868   5.212   3.169
 4673TIP3   OH213961   4.751   5.181   2.897
 4673TIP3    H113962   4.815   5.127   2.851
 4673TIP3    H213963   4.711   5.235   2.829
 4674TIP3   OH213964   4.174   5.024   1.653
 4674TIP3    H113965   4.219   5.010   1.736
 4674TIP3    H213966   4.111   4.952   1.647
 4675TIP3   OH213967   2.881   5.007   2.473
 4675TIP3    H113968   2.934   4.928   2.482
 4675TIP3    H213969   2.944   5.078   2.459
 4676TIP3   OH213970   2.661   5.265   2.543
 4676TIP3    H113971   2.712   5.260   2.462
 4676TIP3    H213972   2.689   5.347   2.585
 4677TIP3   OH213973   4.599   5.313   2.714
 4677TIP3    H113974   4.531   5.355   2.767
 4677TIP3    H213975   4.551   5.256   2.653
 4678TIP3   OH213976   4.219   4.935   1.292
 4678TIP3    H113977   4.263   4.877   1.230
 4678TIP3    H213978   4.274   5.012   1.296
 4679TIP3   OH213979   2.647   4.779   2.044
 4679TIP3    H113980   2.561   4.768   2.086
 4679TIP3    H213981   2.629   4.834   1.968
 4680TIP3   OH213982   3.778   6.501   1.550
 4680TIP3    H113983   3.851   6.482   1.492
 4680TIP3    H213984   3.809   6.574   1.605
 4681TIP3   OH213985   2.870   4.831   2.864
 4681TIP3    H113986   2.821   4.830   2.947
 4681TIP3    H213987   2.814   4.883   2.805
 4682TIP3   OH213988   2.898   6.292   2.935
 4682TIP3    H113989   2.805   6.273   2.930
 4682TIP3    H213990   2.920   6.282   3.028
 4683TIP3   OH213991   3.112   6.339   2.485
 4683TIP3    H113992   3.060   6.414   2.454
 4683TIP3    H213993   3.198   6.352   2.444
 4684TIP3   OH213994   3.516   6.577   2.633
 4684TIP3    H113995   3.554   6.560   2.719
 4684TIP3    H213996   3.584   6.626   2.587
 4685TIP3   OH213997   3.712   6.721   2.501
 4685TIP3    H113998   3.778   6.661   2.465
 4685TIP3    H213999   3.762   6.781   2.556
 4686TIP3   OH214000   4.498   5.075   2.585
 4686TIP3    H114001   4.418   5.081   2.533
 4686TIP3    H214002   4.526   4.984   2.576
 4687TIP3   OH214003   2.770   6.590   2.532
 4687TIP3    H114004   2.677   6.604   2.512
 4687TIP3    H214005   2.790   6.654   2.600
 4688TIP3   OH214006   3.000   6.571   2.384
 4688TIP3    H114007   2.919   6.577   2.434
 4688TIP3    H214008   2.976   6.596   2.295
 4689TIP3   OH214009   3.417   6.595   2.161
 4689TIP3    H114010   3.337   6.606   2.111
 4689TIP3    H214011   3.424   6.675   2.214
 4690TIP3   OH214012   3.680   6.524   2.211
 4690TIP3    H114013   3.589   6.552   2.198
 4690TIP3    H214014   3.732   6.597   2.178
 4691TIP3   OH214015   3.879   6.702   2.127
 4691TIP3    H114016   3.882   6.790   2.089
 4691TIP3    H214017   3.911   6.644   2.058
 4692TIP3   OH214018   2.688   6.358   2.253
 4692TIP3    H114019   2.709   6.332   2.343
 4692TIP3    H214020   2.760   6.324   2.201
 4693TIP3   OH214021   2.890   6.243   2.111
 4693TIP3    H114022   2.898   6.158   2.156
 4693TIP3    H214023   2.976   6.283   2.120
 4694TIP3   OH214024   3.156   6.325   2.140
 4694TIP3    H114025   3.176   6.232   2.128
 4694TIP3    H214026   3.210   6.352   2.214
 4695TIP3   OH214027   3.711   4.981   2.221
 4695TIP3    H114028   3.674   4.910   2.273
 4695TIP3    H214029   3.780   4.939   2.169
 4696TIP3   OH214030   4.218   4.887   2.108
 4696TIP3    H114031   4.256   4.939   2.037
 4696TIP3    H214032   4.128   4.917   2.114
 4697TIP3   OH214033   4.333   4.971   1.873
 4697TIP3    H114034   4.402   4.910   1.846
 4697TIP3    H214035   4.371   5.058   1.861
 4698TIP3   OH214036   2.954   4.680   2.221
 4698TIP3    H114037   2.865   4.647   2.232
 4698TIP3    H214038   3.008   4.601   2.213
 4699TIP3   OH214039   2.769   4.586   1.873
 4699TIP3    H114040   2.796   4.637   1.797
 4699TIP3    H214041   2.733   4.651   1.934
 4700TIP3   OH214042   3.435   4.717   2.118
 4700TIP3    H114043   3.482   4.767   2.050
 4700TIP3    H214044   3.473   4.748   2.200
 4701TIP3   OH214045   3.927   4.868   2.088
 4701TIP3    H114046   3.941   4.834   2.000
 4701TIP3    H214047   3.931   4.792   2.145
 4702TIP3   OH214048   3.987   4.815   1.659
 4702TIP3    H114049   3.907   4.862   1.683
 4702TIP3    H214050   3.975   4.728   1.697
 4703TIP3   OH214051   2.447   6.156   1.628
 4703TIP3    H114052   2.362   6.125   1.598
 4703TIP3    H214053   2.451   6.248   1.600
 4704TIP3   OH214054   2.880   4.718   1.638
 4704TIP3    H114055   2.926   4.656   1.581
 4704TIP3    H214056   2.950   4.774   1.674
 4705TIP3   OH214057   3.368   4.912   1.735
 4705TIP3    H114058   3.427   4.860   1.790
 4705TIP3    H214059   3.382   5.003   1.763
 4706TIP3   OH214060   3.250   6.316   1.239
 4706TIP3    H114061   3.338   6.336   1.207
 4706TIP3    H214062   3.217   6.249   1.179
 4707TIP3   OH214063   3.957   6.425   1.355
 4707TIP3    H114064   3.944   6.331   1.348
 4707TIP3    H214065   3.909   6.463   1.281
 4708TIP3   OH214066   3.180   4.963   3.105
 4708TIP3    H114067   3.145   4.896   3.164
 4708TIP3    H214068   3.272   4.970   3.130
 4709TIP3   OH214069   3.428   4.968   3.226
 4709TIP3    H114070   3.507   4.945   3.177
 4709TIP3    H214071   3.420   4.900   3.292
 4710TIP3   OH214072   2.560   6.148   1.288
 4710TIP3    H114073   2.556   6.153   1.383
 4710TIP3    H214074   2.642   6.102   1.270
 4711TIP3   OH214075   4.252   5.063   3.017
 4711TIP3    H114076   4.270   5.033   3.107
 4711TIP3    H214077   4.337   5.059   2.973
 4712TIP3   OH214078   4.166   6.593   2.523
 4712TIP3    H114079   4.092   6.563   2.471
 4712TIP3    H214080   4.152   6.688   2.533
 4713TIP3   OH214081   5.417   5.979   1.336
 4713TIP3    H114082   5.387   6.064   1.304
 4713TIP3    H214083   5.360   5.916   1.293
 4714TIP3   OH214084   5.445   5.972   1.687
 4714TIP3    H114085   5.494   5.953   1.767
 4714TIP3    H214086   5.400   5.889   1.666
 4715TIP3   OH214087   4.742   5.834   2.027
 4715TIP3    H114088   4.777   5.783   2.099
 4715TIP3    H214089   4.819   5.863   1.978
 4716TIP3   OH214090   5.739   6.265   1.372
 4716TIP3    H114091   5.724   6.203   1.442
 4716TIP3    H214092   5.763   6.347   1.416
 4717TIP3   OH214093   4.729   6.255   1.720
 4717TIP3    H114094   4.713   6.161   1.726
 4717TIP3    H214095   4.824   6.263   1.716
 4718TIP3   OH214096   4.420   5.465   1.492
 4718TIP3    H114097   4.382   5.548   1.521
 4718TIP3    H214098   4.346   5.415   1.457
 4719TIP3   OH214099   4.499   5.776   1.719
 4719TIP3    H114100   4.549   5.699   1.747
 4719TIP3    H214101   4.566   5.842   1.700
 4720TIP3   OH214102   5.314   6.733   1.401
 4720TIP3    H114103   5.377   6.667   1.372
 4720TIP3    H214104   5.293   6.708   1.491
 4721TIP3   OH214105   5.252   6.193   1.688
 4721TIP3    H114106   5.296   6.113   1.658
 4721TIP3    H214107   5.323   6.247   1.722
 4722TIP3   OH214108   6.284   5.509   1.711
 4722TIP3    H114109   6.298   5.595   1.752
 4722TIP3    H214110   6.321   5.519   1.623
 4723TIP3   OH214111   5.667   5.679   1.737
 4723TIP3    H114112   5.699   5.594   1.766
 4723TIP3    H214113   5.617   5.660   1.657
 4724TIP3   OH214114   5.013   5.334   1.687
 4724TIP3    H114115   4.992   5.410   1.632
 4724TIP3    H214116   4.957   5.264   1.652
 4725TIP3   OH214117   5.701   5.430   1.369
 4725TIP3    H114118   5.770   5.419   1.435
 4725TIP3    H214119   5.747   5.462   1.291
 4726TIP3   OH214120   4.637   5.555   1.814
 4726TIP3    H114121   4.720   5.538   1.859
 4726TIP3    H214122   4.641   5.503   1.734
 4727TIP3   OH214123   5.063   5.758   1.631
 4727TIP3    H114124   5.157   5.743   1.637
 4727TIP3    H214125   5.027   5.675   1.600
 4728TIP3   OH214126   6.336   5.727   1.879
 4728TIP3    H114127   6.252   5.771   1.867
 4728TIP3    H214128   6.377   5.773   1.953
 4729TIP3   OH214129   4.994   5.342   2.136
 4729TIP3    H114130   4.944   5.380   2.062
 4729TIP3    H214131   4.939   5.359   2.212
 4730TIP3   OH214132   5.314   6.180   1.172
 4730TIP3    H114133   5.308   6.168   1.077
 4730TIP3    H214134   5.243   6.241   1.194
 4731TIP3   OH214135   5.088   6.120   1.900
 4731TIP3    H114136   5.035   6.191   1.935
 4731TIP3    H214137   5.137   6.159   1.828
 4732TIP3   OH214138   5.892   5.444   1.563
 4732TIP3    H114139   5.840   5.434   1.643
 4732TIP3    H214140   5.941   5.525   1.576
 4733TIP3   OH214141   4.884   5.450   1.905
 4733TIP3    H114142   4.939   5.526   1.928
 4733TIP3    H214143   4.932   5.407   1.834
 4734TIP3   OH214144   4.929   6.319   2.009
 4734TIP3    H114145   4.915   6.409   1.980
 4734TIP3    H214146   4.853   6.299   2.063
 4735TIP3   OH214147   4.309   6.025   1.272
 4735TIP3    H114148   4.283   6.054   1.184
 4735TIP3    H214149   4.338   6.105   1.316
 4736TIP3   OH214150   5.755   6.512   1.505
 4736TIP3    H114151   5.668   6.503   1.544
 4736TIP3    H214152   5.755   6.599   1.466
 4737TIP3   OH214153   6.087   5.390   1.872
 4737TIP3    H114154   6.002   5.417   1.839
 4737TIP3    H214155   6.149   5.422   1.807
 4738TIP3   OH214156   5.336   5.034   1.870
 4738TIP3    H114157   5.327   4.942   1.895
 4738TIP3    H214158   5.260   5.076   1.909
 4739TIP3   OH214159   5.492   6.574   1.276
 4739TIP3    H114160   5.514   6.484   1.251
 4739TIP3    H214161   5.567   6.626   1.248
 4740TIP3   OH214162   5.549   6.323   1.187
 4740TIP3    H114163   5.483   6.254   1.199
 4740TIP3    H214164   5.622   6.297   1.243
 4741TIP3   OH214165   5.986   6.408   1.851
 4741TIP3    H114166   5.966   6.332   1.796
 4741TIP3    H214167   5.970   6.484   1.795
 4742TIP3   OH214168   5.277   5.827   1.158
 4742TIP3    H114169   5.186   5.854   1.145
 4742TIP3    H214170   5.318   5.838   1.072
 4743TIP3   OH214171   5.239   5.650   0.905
 4743TIP3    H114172   5.319   5.698   0.926
 4743TIP3    H214173   5.266   5.558   0.902
 4744TIP3   OH214174   6.165   6.068   1.715
 4744TIP3    H114175   6.080   6.113   1.718
 4744TIP3    H214176   6.197   6.085   1.627
 4745TIP3   OH214177   5.604   5.881   1.164
 4745TIP3    H114178   5.552   5.914   1.238
 4745TIP3    H214179   5.682   5.843   1.203
 4746TIP3   OH214180   5.860   5.933   2.020
 4746TIP3    H114181   5.859   6.017   2.065
 4746TIP3    H214182   5.778   5.931   1.971
 4747TIP3   OH214183   4.856   5.885   1.492
 4747TIP3    H114184   4.813   5.817   1.440
 4747TIP3    H214185   4.933   5.841   1.529
 4748TIP3   OH214186   4.997   6.306   1.632
 4748TIP3    H114187   4.972   6.297   1.540
 4748TIP3    H214188   5.086   6.270   1.637
 4749TIP3   OH214189   4.958   5.884   1.854
 4749TIP3    H114190   4.997   5.849   1.775
 4749TIP3    H214191   5.006   5.966   1.870
 4750TIP3   OH214192   5.519   6.508   1.638
 4750TIP3    H114193   5.498   6.590   1.683
 4750TIP3    H214194   5.498   6.440   1.701
 4751TIP3   OH214195   5.129   6.417   2.176
 4751TIP3    H114196   5.069   6.474   2.223
 4751TIP3    H214197   5.073   6.365   2.118
 4752TIP3   OH214198   5.458   5.800   0.945
 4752TIP3    H114199   5.511   5.813   1.024
 4752TIP3    H214200   5.521   5.797   0.874
 4753TIP3   OH214201   4.890   5.967   2.308
 4753TIP3    H114202   4.894   6.059   2.334
 4753TIP3    H214203   4.797   5.947   2.302
 4754TIP3   OH214204   5.177   6.429   1.253
 4754TIP3    H114205   5.261   6.474   1.264
 4754TIP3    H214206   5.122   6.491   1.207
 4755TIP3   OH214207   4.918   6.573   2.262
 4755TIP3    H114208   4.891   6.584   2.171
 4755TIP3    H214209   4.836   6.560   2.310
 4756TIP3   OH214210   5.979   5.015   0.995
 4756TIP3    H114211   5.894   5.014   1.039
 4756TIP3    H214212   5.991   5.105   0.967
 4757TIP3   OH214213   4.707   5.705   1.336
 4757TIP3    H114214   4.639   5.758   1.296
 4757TIP3    H214215   4.663   5.622   1.357
 4758TIP3   OH214216   4.513   6.129   2.206
 4758TIP3    H114217   4.441   6.107   2.147
 4758TIP3    H214218   4.547   6.044   2.234
 4759TIP3   OH214219   4.392   6.308   1.852
 4759TIP3    H114220   4.486   6.300   1.834
 4759TIP3    H214221   4.386   6.382   1.912
 4760TIP3   OH214222   6.216   6.777   1.909
 4760TIP3    H114223   6.220   6.682   1.920
 4760TIP3    H214224   6.136   6.803   1.954
 4761TIP3   OH214225   5.319   6.560   2.038
 4761TIP3    H114226   5.312   6.651   2.066
 4761TIP3    H214227   5.251   6.514   2.088
 4762TIP3   OH214228   5.054   6.627   1.097
 4762TIP3    H114229   5.103   6.682   1.035
 4762TIP3    H214230   4.987   6.686   1.133
 4763TIP3   OH214231   4.521   6.512   1.394
 4763TIP3    H114232   4.570   6.507   1.476
 4763TIP3    H214233   4.479   6.426   1.386
 4764TIP3   OH214234   5.351   6.541   0.770
 4764TIP3    H114235   5.310   6.460   0.737
 4764TIP3    H214236   5.377   6.519   0.860
 4765TIP3   OH214237   5.351   6.710   1.073
 4765TIP3    H114238   5.337   6.620   1.045
 4765TIP3    H214239   5.403   6.703   1.154
 4766TIP3   OH214240   6.104   5.893   2.184
 4766TIP3    H114241   6.022   5.905   2.136
 4766TIP3    H214242   6.122   5.799   2.177
 4767TIP3   OH214243   4.713   6.315   2.181
 4767TIP3    H114244   4.760   6.305   2.264
 4767TIP3    H214245   4.641   6.253   2.186
 4768TIP3   OH214246   5.099   5.126   1.993
 4768TIP3    H114247   5.016   5.093   1.960
 4768TIP3    H214248   5.077   5.207   2.038
 4769TIP3   OH214249   5.641   5.245   2.194
 4769TIP3    H114250   5.709   5.221   2.257
 4769TIP3    H214251   5.559   5.230   2.241
 4770TIP3   OH214252   5.861   5.666   2.106
 4770TIP3    H114253   5.826   5.664   2.195
 4770TIP3    H214254   5.848   5.757   2.077
 4771TIP3   OH214255   5.464   5.774   0.495
 4771TIP3    H114256   5.414   5.814   0.424
 4771TIP3    H214257   5.549   5.820   0.493
 4772TIP3   OH214258   5.212   5.177   0.953
 4772TIP3    H114259   5.190   5.187   1.046
 4772TIP3    H214260   5.193   5.086   0.933
 4773TIP3   OH214261   5.036   5.661   2.000
 4773TIP3    H114262   4.990   5.669   2.084
 4773TIP3    H214263   5.016   5.743   1.954
 4774TIP3   OH214264   4.919   5.542   1.536
 4774TIP3    H114265   4.829   5.522   1.559
 4774TIP3    H214266   4.931   5.507   1.448
 4775TIP3   OH214267   5.394   5.614   1.273
 4775TIP3    H114268   5.348   5.690   1.237
 4775TIP3    H214269   5.462   5.595   1.209
 4776TIP3   OH214270   5.585   5.877   2.318
 4776TIP3    H114271   5.561   5.809   2.382
 4776TIP3    H214272   5.676   5.897   2.338
 4777TIP3   OH214273   5.552   5.623   1.498
 4777TIP3    H114274   5.487   5.645   1.430
 4777TIP3    H214275   5.600   5.549   1.462
 4778TIP3   OH214276   4.872   5.677   2.221
 4778TIP3    H114277   4.880   5.741   2.291
 4778TIP3    H214278   4.853   5.594   2.267
 4779TIP3   OH214279   4.886   5.130   0.966
 4779TIP3    H114280   4.882   5.157   1.058
 4779TIP3    H214281   4.818   5.182   0.923
 4780TIP3   OH214282   4.466   5.193   1.800
 4780TIP3    H114283   4.535   5.230   1.855
 4780TIP3    H214284   4.508   5.179   1.715
 4781TIP3   OH214285   4.369   5.168   1.304
 4781TIP3    H114286   4.414   5.202   1.227
 4781TIP3    H214287   4.306   5.236   1.328
 4782TIP3   OH214288   5.606   5.884   1.903
 4782TIP3    H114289   5.634   5.816   1.841
 4782TIP3    H214290   5.560   5.836   1.972
 4783TIP3   OH214291   5.278   5.325   1.577
 4783TIP3    H114292   5.200   5.326   1.633
 4783TIP3    H214293   5.352   5.321   1.637
 4784TIP3   OH214294   4.677   5.415   1.582
 4784TIP3    H114295   4.590   5.418   1.543
 4784TIP3    H214296   4.709   5.327   1.563
 4785TIP3   OH214297   4.935   5.409   1.300
 4785TIP3    H114298   5.029   5.419   1.282
 4785TIP3    H214299   4.893   5.424   1.216
 4786TIP3   OH214300   5.731   5.414   1.786
 4786TIP3    H114301   5.710   5.430   1.878
 4786TIP3    H214302   5.661   5.355   1.756
 4787TIP3   OH214303   4.803   5.424   1.065
 4787TIP3    H114304   4.737   5.388   1.006
 4787TIP3    H214305   4.862   5.474   1.008
 4788TIP3   OH214306   5.929   7.118   2.014
 4788TIP3    H114307   5.924   7.134   1.920
 4788TIP3    H214308   6.009   7.164   2.042
 4789TIP3   OH214309   4.862   6.220   2.423
 4789TIP3    H114310   4.941   6.245   2.470
 4789TIP3    H214311   4.792   6.223   2.489
 4790TIP3   OH214312   5.333   5.700   1.680
 4790TIP3    H114313   5.400   5.654   1.630
 4790TIP3    H214314   5.332   5.656   1.765
 4791TIP3   OH214315   4.820   5.167   1.560
 4791TIP3    H114316   4.794   5.089   1.610
 4791TIP3    H214317   4.840   5.133   1.473
 4792TIP3   OH214318   5.302   5.599   1.945
 4792TIP3    H114319   5.215   5.634   1.967
 4792TIP3    H214320   5.362   5.653   1.997
 4793TIP3   OH214321   5.025   5.914   1.126
 4793TIP3    H114322   4.947   5.864   1.102
 4793TIP3    H214323   4.995   5.973   1.194
 4794TIP3   OH214324   5.922   6.197   1.685
 4794TIP3    H114325   5.959   6.247   1.612
 4794TIP3    H214326   5.842   6.158   1.650
 4795TIP3   OH214327   5.478   5.274   1.015
 4795TIP3    H114328   5.396   5.254   0.971
 4795TIP3    H214329   5.524   5.334   0.956
 4796TIP3   OH214330   5.442   6.292   2.081
 4796TIP3    H114331   5.496   6.286   2.160
 4796TIP3    H214332   5.405   6.380   2.084
 4797TIP3   OH214333   5.590   5.567   1.091
 4797TIP3    H114334   5.680   5.553   1.118
 4797TIP3    H214335   5.587   5.537   1.000
 4798TIP3   OH214336   4.719   5.967   1.716
 4798TIP3    H114337   4.760   5.949   1.631
 4798TIP3    H214338   4.784   5.939   1.780
 4799TIP3   OH214339   5.110   6.044   0.911
 4799TIP3    H114340   5.128   6.135   0.934
 4799TIP3    H214341   5.086   6.002   0.993
 4800TIP3   OH214342   4.619   5.903   2.340
 4800TIP3    H114343   4.633   5.886   2.433
 4800TIP3    H214344   4.543   5.850   2.317
 4801TIP3   OH214345   5.352   6.033   2.363
 4801TIP3    H114346   5.282   5.974   2.335
 4801TIP3    H214347   5.433   5.992   2.332
 4802TIP3   OH214348   5.590   6.575   1.966
 4802TIP3    H114349   5.495   6.566   1.967
 4802TIP3    H214350   5.612   6.614   2.050
 4803TIP3   OH214351   6.230   6.497   1.937
 4803TIP3    H114352   6.136   6.482   1.933
 4803TIP3    H214353   6.263   6.466   1.852
 4804TIP3   OH214354   5.791   6.425   0.763
 4804TIP3    H114355   5.849   6.358   0.798
 4804TIP3    H214356   5.706   6.405   0.800
 4805TIP3   OH214357   5.696   6.072   1.573
 4805TIP3    H114358   5.604   6.053   1.595
 4805TIP3    H214359   5.730   5.989   1.540
 4806TIP3   OH214360   4.844   6.319   1.401
 4806TIP3    H114361   4.842   6.398   1.347
 4806TIP3    H214362   4.755   6.312   1.436
 4807TIP3   OH214363   4.416   5.597   1.110
 4807TIP3    H114364   4.459   5.680   1.132
 4807TIP3    H214365   4.333   5.600   1.157
 4808TIP3   OH214366   4.911   6.078   1.300
 4808TIP3    H114367   4.901   6.167   1.335
 4808TIP3    H214368   4.892   6.021   1.375
 4809TIP3   OH214369   5.134   6.632   1.833
 4809TIP3    H114370   5.170   6.708   1.786
 4809TIP3    H214371   5.209   6.599   1.883
 4810TIP3   OH214372   4.759   6.543   1.269
 4810TIP3    H114373   4.673   6.559   1.308
 4810TIP3    H214374   4.796   6.630   1.257
 4811TIP3   OH214375   5.483   6.291   1.808
 4811TIP3    H114376   5.471   6.287   1.903
 4811TIP3    H214377   5.564   6.242   1.793
 4812TIP3   OH214378   5.514   6.234   0.594
 4812TIP3    H114379   5.476   6.154   0.630
 4812TIP3    H214380   5.452   6.260   0.525
 4813TIP3   OH214381   5.743   6.783   1.855
 4813TIP3    H114382   5.675   6.719   1.874
 4813TIP3    H214383   5.709   6.835   1.783
 4814TIP3   OH214384   4.821   5.422   2.339
 4814TIP3    H114385   4.726   5.432   2.345
 4814TIP3    H214386   4.846   5.382   2.423
 4815TIP3   OH214387   5.684   6.056   0.970
 4815TIP3    H114388   5.636   6.009   1.038
 4815TIP3    H214389   5.755   5.996   0.945
 4816TIP3   OH214390   4.553   6.524   2.000
 4816TIP3    H114391   4.606   6.463   2.051
 4816TIP3    H214392   4.570   6.609   2.040
 4817TIP3   OH214393   4.907   6.229   0.767
 4817TIP3    H114394   4.942   6.152   0.721
 4817TIP3    H214395   4.878   6.195   0.852
 4818TIP3   OH214396   4.800   6.146   1.014
 4818TIP3    H114397   4.843   6.114   1.094
 4818TIP3    H214398   4.756   6.226   1.041
 4819TIP3   OH214399   4.507   5.844   1.202
 4819TIP3    H114400   4.441   5.900   1.243
 4819TIP3    H214401   4.536   5.893   1.125
 4820TIP3   OH214402   5.670   5.477   2.045
 4820TIP3    H114403   5.747   5.523   2.076
 4820TIP3    H214404   5.663   5.400   2.103
 4821TIP3   OH214405   5.564   5.214   1.265
 4821TIP3    H114406   5.529   5.242   1.180
 4821TIP3    H214407   5.603   5.293   1.302
 4822TIP3   OH214408   5.106   6.317   0.971
 4822TIP3    H114409   5.024   6.358   0.998
 4822TIP3    H214410   5.118   6.344   0.880
 4823TIP3   OH214411   5.213   5.416   1.322
 4823TIP3    H114412   5.275   5.485   1.298
 4823TIP3    H214413   5.235   5.395   1.413
 4824TIP3   OH214414   5.507   5.714   2.096
 4824TIP3    H114415   5.533   5.759   2.176
 4824TIP3    H214416   5.559   5.633   2.096
 4825TIP3   OH214417   5.364   5.111   1.419
 4825TIP3    H114418   5.338   5.189   1.469
 4825TIP3    H214419   5.439   5.140   1.367
 4826TIP3   OH214420   4.670   6.381   1.063
 4826TIP3    H114421   4.748   6.424   1.027
 4826TIP3    H214422   4.656   6.423   1.147
 4827TIP3   OH214423   4.886   5.138   1.254
 4827TIP3    H114424   4.881   5.231   1.278
 4827TIP3    H214425   4.980   5.121   1.245
 4828TIP3   OH214426   6.130   5.624   2.096
 4828TIP3    H114427   6.034   5.622   2.101
 4828TIP3    H214428   6.149   5.595   2.007
 4829TIP3   OH214429   5.785   5.813   1.495
 4829TIP3    H114430   5.707   5.762   1.518
 4829TIP3    H214431   5.854   5.776   1.550
 4830TIP3   OH214432   4.520   6.047   0.984
 4830TIP3    H114433   4.592   6.110   0.982
 4830TIP3    H214434   4.555   5.970   0.939
 4831TIP3   OH214435   4.447   5.317   1.089
 4831TIP3    H114436   4.466   5.405   1.120
 4831TIP3    H214437   4.387   5.330   1.015
 4832TIP3   OH214438   5.771   6.777   1.437
 4832TIP3    H114439   5.726   6.837   1.376
 4832TIP3    H214440   5.864   6.794   1.422
 4833TIP3   OH214441   4.839   5.038   1.948
 4833TIP3    H114442   4.810   5.008   1.862
 4833TIP3    H214443   4.828   4.962   2.005
 4834TIP3   OH214444   4.370   6.276   1.378
 4834TIP3    H114445   4.327   6.316   1.454
 4834TIP3    H214446   4.332   6.320   1.302
 4835TIP3   OH214447   4.560   6.833   2.413
 4835TIP3    H114448   4.643   6.837   2.461
 4835TIP3    H214449   4.541   6.740   2.406
 4836TIP3   OH214450   5.026   6.742   2.452
 4836TIP3    H114451   5.118   6.717   2.461
 4836TIP3    H214452   4.993   6.686   2.382
 4837TIP3   OH214453   4.953   6.418   0.566
 4837TIP3    H114454   4.901   6.355   0.615
 4837TIP3    H214455   4.996   6.366   0.498
 4838TIP3   OH214456   5.646   6.682   2.211
 4838TIP3    H114457   5.660   6.613   2.275
 4838TIP3    H214458   5.720   6.742   2.223
 4839TIP3   OH214459   4.653   6.230   2.610
 4839TIP3    H114460   4.622   6.169   2.677
 4839TIP3    H214461   4.577   6.244   2.553
 4840TIP3   OH214462   4.606   5.799   0.919
 4840TIP3    H114463   4.680   5.785   0.978
 4840TIP3    H214464   4.639   5.772   0.833
 4841TIP3   OH214465   5.285   6.311   2.379
 4841TIP3    H114466   5.240   6.333   2.297
 4841TIP3    H214467   5.320   6.224   2.365
 4842TIP3   OH214468   5.096   6.060   0.643
 4842TIP3    H114469   5.118   6.047   0.735
 4842TIP3    H214470   5.116   5.977   0.602
 4843TIP3   OH214471   5.755   6.351   1.994
 4843TIP3    H114472   5.834   6.380   1.949
 4843TIP3    H214473   5.692   6.422   1.980
 4844TIP3   OH214474   4.805   5.908   2.603
 4844TIP3    H114475   4.872   5.940   2.542
 4844TIP3    H214476   4.813   5.966   2.679
 4845TIP3   OH214477   4.813   5.750   1.084
 4845TIP3    H114478   4.795   5.712   1.170
 4845TIP3    H214479   4.868   5.686   1.040
 4846TIP3   OH214480   5.147   5.858   2.263
 4846TIP3    H114481   5.061   5.899   2.272
 4846TIP3    H214482   5.179   5.888   2.178
 4847TIP3   OH214483   4.969   5.586   0.928
 4847TIP3    H114484   4.940   5.635   0.851
 4847TIP3    H214485   5.063   5.602   0.932
 4848TIP3   OH214486   5.639   6.233   2.349
 4848TIP3    H114487   5.708   6.194   2.295
 4848TIP3    H214488   5.636   6.178   2.427
 4849TIP3   OH214489   5.710   5.902   0.498
 4849TIP3    H114490   5.775   5.868   0.436
 4849TIP3    H214491   5.726   5.997   0.499
 4850TIP3   OH214492   5.251   5.627   2.370
 4850TIP3    H114493   5.251   5.557   2.305
 4850TIP3    H214494   5.216   5.703   2.323
 4851TIP3   OH214495   5.255   5.424   2.170
 4851TIP3    H114496   5.281   5.464   2.087
 4851TIP3    H214497   5.163   5.399   2.157
 4852TIP3   OH214498   5.263   5.959   2.038
 4852TIP3    H114499   5.349   5.999   2.030
 4852TIP3    H214500   5.204   6.018   1.990
 4853TIP3   OH214501   5.851   5.927   2.414
 4853TIP3    H114502   5.902   5.846   2.413
 4853TIP3    H214503   5.916   5.997   2.409
 4854TIP3   OH214504   5.883   6.177   2.158
 4854TIP3    H114505   5.828   6.238   2.108
 4854TIP3    H214506   5.972   6.194   2.127
 4855TIP3   OH214507   5.140   5.703   2.617
 4855TIP3    H114508   5.063   5.649   2.635
 4855TIP3    H214509   5.163   5.683   2.526
 4856TIP3   OH214510   5.376   5.194   2.276
 4856TIP3    H114511   5.337   5.275   2.242
 4856TIP3    H214512   5.309   5.127   2.262
 4857TIP3   OH214513   5.506   5.664   2.474
 4857TIP3    H114514   5.492   5.652   2.568
 4857TIP3    H214515   5.421   5.645   2.435
 4858TIP3   OH214516   5.761   5.626   2.354
 4858TIP3    H114517   5.681   5.624   2.406
 4858TIP3    H214518   5.829   5.593   2.412
 4859TIP3   OH214519   5.993   5.557   2.504
 4859TIP3    H114520   6.007   5.464   2.521
 4859TIP3    H214521   5.987   5.597   2.591
 4860TIP3   OH214522   4.961   5.490   2.677
 4860TIP3    H114523   4.967   5.400   2.644
 4860TIP3    H214524   4.998   5.486   2.765
 4861TIP3   OH214525   5.444   5.169   2.541
 4861TIP3    H114526   5.513   5.103   2.536
 4861TIP3    H214527   5.414   5.180   2.451
 4862TIP3   OH214528   5.551   5.385   2.675
 4862TIP3    H114529   5.517   5.312   2.623
 4862TIP3    H214530   5.479   5.447   2.680
 4863TIP3   OH214531   4.820   6.649   0.695
 4863TIP3    H114532   4.914   6.632   0.689
 4863TIP3    H214533   4.792   6.661   0.604
 4864TIP3   OH214534   4.247   6.049   0.989
 4864TIP3    H114535   4.343   6.054   0.981
 4864TIP3    H214536   4.226   5.960   0.961
 4865TIP3   OH214537   4.164   6.584   1.430
 4865TIP3    H114538   4.095   6.527   1.394
 4865TIP3    H214539   4.208   6.529   1.494
 4866TIP3   OH214540   4.304   6.430   1.610
 4866TIP3    H114541   4.301   6.365   1.680
 4866TIP3    H214542   4.352   6.504   1.649
 4867TIP3   OH214543   6.029   6.855   1.420
 4867TIP3    H114544   6.050   6.873   1.512
 4867TIP3    H214545   6.074   6.923   1.371
 4868TIP3   OH214546   6.038   6.878   1.697
 4868TIP3    H114547   6.003   6.789   1.698
 4868TIP3    H214548   6.121   6.872   1.743
 4869TIP3   OH214549   6.115   6.571   2.258
 4869TIP3    H114550   6.041   6.581   2.319
 4869TIP3    H214551   6.159   6.656   2.260
 4870TIP3   OH214552   5.971   6.058   0.911
 4870TIP3    H114553   6.023   6.134   0.883
 4870TIP3    H214554   5.991   6.049   1.005
 4871TIP3   OH214555   6.001   6.001   1.169
 4871TIP3    H114556   5.956   5.927   1.210
 4871TIP3    H214557   6.091   5.996   1.201
 4872TIP3   OH214558   6.095   6.336   1.527
 4872TIP3    H114559   6.146   6.269   1.481
 4872TIP3    H214560   6.105   6.415   1.473
 4873TIP3   OH214561   5.918   6.627   1.703
 4873TIP3    H114562   5.849   6.671   1.753
 4873TIP3    H214563   5.872   6.587   1.629
 4874TIP3   OH214564   5.928   5.915   0.683
 4874TIP3    H114565   5.861   5.975   0.651
 4874TIP3    H214566   5.969   5.961   0.757
 4875TIP3   OH214567   5.801   5.554   0.654
 4875TIP3    H114568   5.870   5.615   0.628
 4875TIP3    H214569   5.845   5.470   0.662
 4876TIP3   OH214570   5.854   5.775   1.236
 4876TIP3    H114571   5.868   5.680   1.227
 4876TIP3    H214572   5.840   5.788   1.329
 4877TIP3   OH214573   4.478   5.871   1.975
 4877TIP3    H114574   4.469   5.839   1.886
 4877TIP3    H214575   4.572   5.868   1.993
 4878TIP3   OH214576   6.139   6.225   2.066
 4878TIP3    H114577   6.207   6.159   2.048
 4878TIP3    H214578   6.152   6.291   1.998
 4879TIP3   OH214579   6.316   6.013   2.059
 4879TIP3    H114580   6.243   5.973   2.106
 4879TIP3    H214581   6.392   5.958   2.081
 4880TIP3   OH214582   5.778   5.268   0.634
 4880TIP3    H114583   5.849   5.207   0.614
 4880TIP3    H214584   5.730   5.226   0.705
 4881TIP3   OH214585   5.855   5.506   1.153
 4881TIP3    H114586   5.893   5.420   1.171
 4881TIP3    H214587   5.893   5.532   1.069
 4882TIP3   OH214588   6.006   5.692   1.622
 4882TIP3    H114589   6.086   5.713   1.573
 4882TIP3    H214590   6.019   5.733   1.707
 4883TIP3   OH214591   6.079   5.842   1.847
 4883TIP3    H114592   6.006   5.874   1.901
 4883TIP3    H214593   6.111   5.921   1.803
 4884TIP3   OH214594   4.700   5.547   2.608
 4884TIP3    H114595   4.792   5.549   2.631
 4884TIP3    H214596   4.665   5.471   2.654
 4885TIP3   OH214597   6.546   5.445   2.379
 4885TIP3    H114598   6.609   5.388   2.336
 4885TIP3    H214599   6.507   5.496   2.308
 4886TIP3   OH214600   5.955   5.260   1.199
 4886TIP3    H114601   6.007   5.239   1.276
 4886TIP3    H214602   5.895   5.186   1.189
 4887TIP3   OH214603   4.676   5.264   1.966
 4887TIP3    H114604   4.731   5.186   1.972
 4887TIP3    H214605   4.738   5.335   1.951
 4888TIP3   OH214606   4.454   5.524   2.029
 4888TIP3    H114607   4.508   5.522   1.950
 4888TIP3    H214608   4.476   5.608   2.071
 4889TIP3   OH214609   6.392   5.561   2.185
 4889TIP3    H114610   6.311   5.602   2.216
 4889TIP3    H214611   6.363   5.491   2.127
 4890TIP3   OH214612   5.918   5.273   0.885
 4890TIP3    H114613   5.920   5.220   0.806
 4890TIP3    H214614   5.962   5.355   0.861
 4891TIP3   OH214615   4.441   5.028   1.527
 4891TIP3    H114616   4.356   5.021   1.571
 4891TIP3    H214617   4.424   5.085   1.452
 4892TIP3   OH214618   5.668   6.742   1.155
 4892TIP3    H114619   5.763   6.734   1.153
 4892TIP3    H214620   5.652   6.833   1.179
 4893TIP3   OH214621   4.665   5.083   2.350
 4893TIP3    H114622   4.621   5.092   2.435
 4893TIP3    H214623   4.612   5.136   2.291
 4894TIP3   OH214624   4.693   6.549   2.428
 4894TIP3    H114625   4.600   6.531   2.420
 4894TIP3    H214626   4.712   6.540   2.522
 4895TIP3   OH214627   4.904   6.594   1.979
 4895TIP3    H114628   4.854   6.669   1.946
 4895TIP3    H214629   4.990   6.603   1.938
 4896TIP3   OH214630   5.306   6.827   2.114
 4896TIP3    H114631   5.343   6.821   2.202
 4896TIP3    H214632   5.370   6.880   2.066
 4897TIP3   OH214633   5.500   6.980   1.989
 4897TIP3    H114634   5.564   6.928   1.941
 4897TIP3    H214635   5.553   7.038   2.044
 4898TIP3   OH214636   6.301   5.321   2.067
 4898TIP3    H114637   6.217   5.325   2.020
 4898TIP3    H214638   6.327   5.229   2.062
 4899TIP3   OH214639   4.567   6.837   2.026
 4899TIP3    H114640   4.476   6.858   2.004
 4899TIP3    H214641   4.591   6.902   2.092
 4900TIP3   OH214642   4.795   6.823   1.874
 4900TIP3    H114643   4.713   6.830   1.923
 4900TIP3    H214644   4.773   6.851   1.785
 4901TIP3   OH214645   5.210   6.843   1.669
 4901TIP3    H114646   5.133   6.856   1.613
 4901TIP3    H214647   5.226   6.928   1.709
 4902TIP3   OH214648   5.467   6.764   1.728
 4902TIP3    H114649   5.378   6.793   1.707
 4902TIP3    H214650   5.524   6.829   1.687
 4903TIP3   OH214651   5.665   6.932   1.638
 4903TIP3    H114652   5.662   7.022   1.606
 4903TIP3    H214653   5.702   6.881   1.566
 4904TIP3   OH214654   4.474   6.616   1.750
 4904TIP3    H114655   4.499   6.592   1.839
 4904TIP3    H214656   4.547   6.587   1.696
 4905TIP3   OH214657   4.681   6.502   1.615
 4905TIP3    H114658   4.693   6.417   1.657
 4905TIP3    H214659   4.767   6.542   1.616
 4906TIP3   OH214660   4.948   6.583   1.633
 4906TIP3    H114661   4.969   6.491   1.617
 4906TIP3    H214662   5.003   6.607   1.708
 4907TIP3   OH214663   5.509   5.241   1.715
 4907TIP3    H114664   5.471   5.168   1.763
 4907TIP3    H214665   5.576   5.201   1.660
 4908TIP3   OH214666   6.015   5.159   1.611
 4908TIP3    H114667   6.062   5.206   1.543
 4908TIP3    H214668   5.928   5.199   1.611
 4909TIP3   OH214669   6.151   5.227   1.384
 4909TIP3    H114670   6.218   5.165   1.353
 4909TIP3    H214671   6.184   5.313   1.359
 4910TIP3   OH214672   4.751   4.938   1.705
 4910TIP3    H114673   4.662   4.905   1.716
 4910TIP3    H214674   4.805   4.859   1.699
 4911TIP3   OH214675   4.554   4.831   1.359
 4911TIP3    H114676   4.593   4.882   1.287
 4911TIP3    H214677   4.522   4.897   1.420
 4912TIP3   OH214678   5.224   4.970   1.615
 4912TIP3    H114679   5.267   5.019   1.545
 4912TIP3    H214680   5.265   5.002   1.695
 4913TIP3   OH214681   5.719   5.127   1.580
 4913TIP3    H114682   5.738   5.095   1.491
 4913TIP3    H214683   5.727   5.049   1.635
 4914TIP3   OH214684   5.770   5.056   1.170
 4914TIP3    H114685   5.694   5.107   1.196
 4914TIP3    H214686   5.757   4.971   1.211
 4915TIP3   OH214687   4.266   6.395   1.159
 4915TIP3    H114688   4.178   6.363   1.142
 4915TIP3    H214689   4.261   6.489   1.142
 4916TIP3   OH214690   4.686   4.969   1.148
 4916TIP3    H114691   4.734   4.919   1.082
 4916TIP3    H214692   4.751   5.026   1.188
 4917TIP3   OH214693   5.161   5.166   1.226
 4917TIP3    H114694   5.221   5.113   1.278
 4917TIP3    H214695   5.180   5.256   1.252
 4918TIP3   OH214696   5.076   6.597   0.748
 4918TIP3    H114697   5.170   6.608   0.760
 4918TIP3    H214698   5.068   6.526   0.683
 4919TIP3   OH214699   5.776   6.700   0.759
 4919TIP3    H114700   5.793   6.612   0.725
 4919TIP3    H214701   5.777   6.756   0.682
 4920TIP3   OH214702   4.978   5.217   2.591
 4920TIP3    H114703   4.943   5.150   2.650
 4920TIP3    H214704   5.070   5.226   2.617
 4921TIP3   OH214705   5.226   5.223   2.716
 4921TIP3    H114706   5.303   5.201   2.664
 4921TIP3    H214707   5.218   5.151   2.779
 4922TIP3   OH214708   4.302   6.381   0.877
 4922TIP3    H114709   4.311   6.378   0.972
 4922TIP3    H214710   4.357   6.309   0.845
 4923TIP3   OH214711   6.068   5.275   2.510
 4923TIP3    H114712   6.098   5.209   2.572
 4923TIP3    H214713   6.146   5.294   2.456
 4924TIP3   OH214714   5.968   6.844   2.011
 4924TIP3    H114715   5.892   6.814   1.960
 4924TIP3    H214716   5.955   6.939   2.020
 4925TIP3   OH214717   7.120   6.139   1.313
 4925TIP3    H114718   7.213   6.140   1.291
 4925TIP3    H214719   7.096   6.046   1.309
 4926TIP3   OH214720   6.509   6.060   1.560
 4926TIP3    H114721   6.546   6.008   1.632
 4926TIP3    H214722   6.585   6.098   1.516
 4927TIP3   OH214723   6.471   6.482   1.384
 4927TIP3    H114724   6.468   6.390   1.358
 4927TIP3    H214725   6.555   6.492   1.429
 4928TIP3   OH214726   6.261   5.980   1.240
 4928TIP3    H114727   6.315   5.905   1.264
 4928TIP3    H214728   6.300   6.012   1.158
 4929TIP3   OH214729   7.166   6.461   1.115
 4929TIP3    H114730   7.085   6.418   1.086
 4929TIP3    H214731   7.168   6.447   1.209
 4930TIP3   OH214732   8.090   5.796   1.229
 4930TIP3    H114733   8.167   5.847   1.256
 4930TIP3    H214734   8.046   5.852   1.165
 4931TIP3   OH214735   7.527   5.892   1.298
 4931TIP3    H114736   7.514   5.819   1.358
 4931TIP3    H214737   7.544   5.852   1.213
 4932TIP3   OH214738   6.846   5.568   1.286
 4932TIP3    H114739   6.862   5.626   1.212
 4932TIP3    H214740   6.792   5.498   1.249
 4933TIP3   OH214741   7.487   5.743   0.817
 4933TIP3    H114742   7.577   5.718   0.839
 4933TIP3    H214743   7.487   5.752   0.722
 4934TIP3   OH214744   6.416   5.771   1.310
 4934TIP3    H114745   6.508   5.759   1.335
 4934TIP3    H214746   6.407   5.719   1.230
 4935TIP3   OH214747   6.810   5.980   1.208
 4935TIP3    H114748   6.894   5.991   1.162
 4935TIP3    H214749   6.757   5.928   1.148
 4936TIP3   OH214750   6.784   5.593   1.641
 4936TIP3    H114751   6.735   5.634   1.570
 4936TIP3    H214752   6.730   5.605   1.718
 4937TIP3   OH214753   6.893   6.346   1.483
 4937TIP3    H114754   6.817   6.391   1.520
 4937TIP3    H214755   6.945   6.415   1.442
 4938TIP3   OH214756   7.672   5.832   1.055
 4938TIP3    H114757   7.701   5.750   1.013
 4938TIP3    H214758   7.752   5.871   1.089
 4939TIP3   OH214759   6.662   5.710   1.420
 4939TIP3    H114760   6.711   5.789   1.446
 4939TIP3    H214761   6.724   5.659   1.369
 4940TIP3   OH214762   6.704   6.543   1.540
 4940TIP3    H114763   6.708   6.619   1.482
 4940TIP3    H214764   6.631   6.562   1.599
 4941TIP3   OH214765   6.125   6.264   0.843
 4941TIP3    H114766   6.093   6.295   0.758
 4941TIP3    H214767   6.215   6.297   0.848
 4942TIP3   OH214768   7.956   5.665   1.442
 4942TIP3    H114769   7.882   5.722   1.422
 4942TIP3    H214770   8.019   5.683   1.372
 4943TIP3   OH214771   7.155   5.326   1.421
 4943TIP3    H114772   7.146   5.260   1.353
 4943TIP3    H214773   7.065   5.344   1.448
 4944TIP3   OH214774   7.995   6.278   1.168
 4944TIP3    H114775   7.938   6.325   1.107
 4944TIP3    H214776   8.082   6.285   1.130
 4945TIP3   OH214777   7.604   6.193   1.589
 4945TIP3    H114778   7.640   6.259   1.648
 4945TIP3    H214779   7.510   6.197   1.602
 4946TIP3   OH214780   6.679   6.197   1.025
 4946TIP3    H114781   6.605   6.148   0.987
 4946TIP3    H214782   6.736   6.130   1.062
 4947TIP3   OH214783   6.730   6.485   1.227
 4947TIP3    H114784   6.653   6.437   1.195
 4947TIP3    H214785   6.722   6.572   1.187
 4948TIP3   OH214786   6.737   6.131   1.415
 4948TIP3    H114787   6.772   6.089   1.336
 4948TIP3    H214788   6.798   6.203   1.433
 4949TIP3   OH214789   7.362   6.749   1.105
 4949TIP3    H114790   7.399   6.829   1.069
 4949TIP3    H214791   7.425   6.722   1.172
 4950TIP3   OH214792   6.911   6.669   1.681
 4950TIP3    H114793   6.859   6.721   1.741
 4950TIP3    H214794   6.848   6.610   1.639
 4951TIP3   OH214795   6.671   6.238   1.812
 4951TIP3    H114796   6.669   6.332   1.830
 4951TIP3    H214797   6.579   6.213   1.805
 4952TIP3   OH214798   6.719   6.810   1.818
 4952TIP3    H114799   6.681   6.851   1.740
 4952TIP3    H214800   6.644   6.793   1.875
 4953TIP3   OH214801   6.525   6.075   0.823
 4953TIP3    H114802   6.500   6.134   0.752
 4953TIP3    H214803   6.455   6.010   0.828
 4954TIP3   OH214804   6.310   6.389   1.701
 4954TIP3    H114805   6.239   6.368   1.641
 4954TIP3    H214806   6.344   6.303   1.728
 4955TIP3   OH214807   6.206   6.560   1.398
 4955TIP3    H114808   6.297   6.529   1.392
 4955TIP3    H214809   6.213   6.643   1.445
 4956TIP3   OH214810   7.136   6.803   1.594
 4956TIP3    H114811   7.119   6.897   1.593
 4956TIP3    H214812   7.053   6.764   1.621
 4957TIP3   OH214813   6.350   6.725   0.892
 4957TIP3    H114814   6.440   6.697   0.875
 4957TIP3    H214815   6.350   6.818   0.871
 4958TIP3   OH214816   7.937   6.180   1.653
 4958TIP3    H114817   7.877   6.182   1.579
 4958TIP3    H214818   7.956   6.087   1.667
 4959TIP3   OH214819   6.491   6.593   1.697
 4959TIP3    H114820   6.537   6.580   1.780
 4959TIP3    H214821   6.426   6.523   1.695
 4960TIP3   OH214822   6.889   5.369   1.505
 4960TIP3    H114823   6.809   5.339   1.463
 4960TIP3    H214824   6.868   5.456   1.540
 4961TIP3   OH214825   7.436   5.519   1.700
 4961TIP3    H114826   7.505   5.490   1.759
 4961TIP3    H214827   7.355   5.495   1.745
 4962TIP3   OH214828   7.677   5.922   1.612
 4962TIP3    H114829   7.637   5.905   1.697
 4962TIP3    H214830   7.657   6.014   1.594
 4963TIP3   OH214831   6.828   5.902   1.532
 4963TIP3    H114832   6.780   5.903   1.615
 4963TIP3    H214833   6.801   5.982   1.488
 4964TIP3   OH214834   6.703   5.917   0.963
 4964TIP3    H114835   6.645   5.972   0.911
 4964TIP3    H214836   6.783   5.910   0.911
 4965TIP3   OH214837   7.403   6.136   1.835
 4965TIP3    H114838   7.369   6.071   1.896
 4965TIP3    H214839   7.496   6.144   1.858
 4966TIP3   OH214840   7.301   5.929   0.884
 4966TIP3    H114841   7.319   6.019   0.857
 4966TIP3    H214842   7.378   5.880   0.854
 4967TIP3   OH214843   6.651   5.908   1.743
 4967TIP3    H114844   6.710   5.959   1.798
 4967TIP3    H214845   6.638   5.826   1.791
 4968TIP3   OH214846   6.264   5.458   1.298
 4968TIP3    H114847   6.326   5.490   1.364
 4968TIP3    H214848   6.276   5.517   1.223
 4969TIP3   OH214849   6.271   5.431   0.850
 4969TIP3    H114850   6.293   5.398   0.763
 4969TIP3    H214851   6.252   5.524   0.837
 4970TIP3   OH214852   7.328   6.199   1.544
 4970TIP3    H114853   7.352   6.184   1.452
 4970TIP3    H214854   7.323   6.111   1.582
 4971TIP3   OH214855   7.093   5.495   1.179
 4971TIP3    H114856   7.011   5.501   1.227
 4971TIP3    H214857   7.157   5.539   1.236
 4972TIP3   OH214858   6.325   5.626   1.082
 4972TIP3    H114859   6.278   5.658   1.005
 4972TIP3    H214860   6.418   5.639   1.059
 4973TIP3   OH214861   6.794   5.657   0.736
 4973TIP3    H114862   6.874   5.709   0.731
 4973TIP3    H214863   6.735   5.698   0.674
 4974TIP3   OH214864   7.566   5.584   1.331
 4974TIP3    H114865   7.538   5.613   1.417
 4974TIP3    H214866   7.510   5.508   1.312
 4975TIP3   OH214867   6.658   6.497   1.912
 4975TIP3    H114868   6.741   6.516   1.955
 4975TIP3    H214869   6.592   6.504   1.981
 4976TIP3   OH214870   7.199   5.880   1.219
 4976TIP3    H114871   7.292   5.856   1.214
 4976TIP3    H214872   7.171   5.849   1.305
 4977TIP3   OH214873   6.686   5.419   1.132
 4977TIP3    H114874   6.646   5.335   1.156
 4977TIP3    H214875   6.729   5.402   1.049
 4978TIP3   OH214876   7.095   5.865   1.473
 4978TIP3    H114877   7.005   5.886   1.495
 4978TIP3    H214878   7.148   5.913   1.536
 4979TIP3   OH214879   7.751   6.389   1.102
 4979TIP3    H114880   7.730   6.482   1.097
 4979TIP3    H214881   7.717   6.361   1.186
 4980TIP3   OH214882   7.233   6.533   1.610
 4980TIP3    H114883   7.292   6.521   1.685
 4980TIP3    H214884   7.207   6.625   1.614
 4981TIP3   OH214885   6.506   6.233   1.304
 4981TIP3    H114886   6.472   6.192   1.224
 4981TIP3    H214887   6.582   6.179   1.328
 4982TIP3   OH214888   6.401   6.164   1.838
 4982TIP3    H114889   6.406   6.132   1.927
 4982TIP3    H214890   6.333   6.110   1.797
 4983TIP3   OH214891   7.171   6.294   1.852
 4983TIP3    H114892   7.117   6.256   1.782
 4983TIP3    H214893   7.259   6.260   1.835
 4984TIP3   OH214894   7.403   6.797   1.533
 4984TIP3    H114895   7.309   6.804   1.549
 4984TIP3    H214896   7.442   6.852   1.602
 4985TIP3   OH214897   7.436   6.381   1.143
 4985TIP3    H114898   7.345   6.412   1.148
 4985TIP3    H214899   7.451   6.370   1.049
 4986TIP3   OH214900   6.579   6.590   0.843
 4986TIP3    H114901   6.664   6.628   0.821
 4986TIP3    H214902   6.593   6.545   0.926
 4987TIP3   OH214903   6.220   5.841   0.452
 4987TIP3    H114904   6.298   5.894   0.466
 4987TIP3    H214905   6.202   5.802   0.538
 4988TIP3   OH214906   6.745   6.307   0.776
 4988TIP3    H114907   6.777   6.382   0.826
 4988TIP3    H214908   6.710   6.248   0.842
 4989TIP3   OH214909   6.970   6.896   1.339
 4989TIP3    H114910   6.998   6.958   1.271
 4989TIP3    H214911   7.039   6.829   1.339
 4990TIP3   OH214912   7.413   6.582   1.358
 4990TIP3    H114913   7.378   6.647   1.419
 4990TIP3    H214914   7.346   6.514   1.355
 4991TIP3   OH214915   6.614   5.653   1.852
 4991TIP3    H114916   6.519   5.663   1.856
 4991TIP3    H214917   6.636   5.599   1.928
 4992TIP3   OH214918   6.336   6.769   1.538
 4992TIP3    H114919   6.394   6.717   1.593
 4992TIP3    H214920   6.327   6.852   1.585
 4993TIP3   OH214921   6.387   6.181   0.594
 4993TIP3    H114922   6.313   6.134   0.631
 4993TIP3    H214923   6.351   6.265   0.567
 4994TIP3   OH214924   7.475   5.734   1.541
 4994TIP3    H114925   7.550   5.784   1.573
 4994TIP3    H214926   7.462   5.666   1.607
 4995TIP3   OH214927   7.072   5.601   0.763
 4995TIP3    H114928   7.133   5.654   0.711
 4995TIP3    H214929   7.088   5.629   0.854
 4996TIP3   OH214930   7.311   5.943   1.632
 4996TIP3    H114931   7.344   5.966   1.719
 4996TIP3    H214932   7.363   5.868   1.605
 4997TIP3   OH214933   7.111   5.369   0.939
 4997TIP3    H114934   7.117   5.402   1.029
 4997TIP3    H214935   7.180   5.416   0.892
 4998TIP3   OH214936   6.735   5.367   0.659
 4998TIP3    H114937   6.677   5.439   0.681
 4998TIP3    H214938   6.720   5.301   0.727
 4999TIP3   OH214939   7.956   5.914   1.594
 4999TIP3    H114940   7.861   5.902   1.602
 4999TIP3    H214941   7.990   5.827   1.575
 5000TIP3   OH214942   7.678   5.998   0.827
 5000TIP3    H114943   7.661   5.940   0.901
 5000TIP3    H214944   7.668   6.086   0.863
 5001TIP3   OH214945   6.220   5.561   0.511
 5001TIP3    H114946   6.261   5.599   0.589
 5001TIP3    H214947   6.139   5.612   0.501
 5002TIP3   OH214948   6.624   5.300   1.445
 5002TIP3    H114949   6.594   5.268   1.360
 5002TIP3    H214950   6.619   5.223   1.502
 5003TIP3   OH214951   6.188   6.562   0.755
 5003TIP3    H114952   6.112   6.553   0.811
 5003TIP3    H214953   6.237   6.635   0.793
 5004TIP3   OH214954   6.355   7.096   1.908
 5004TIP3    H114955   6.437   7.092   1.957
 5004TIP3    H214956   6.340   7.006   1.878
 5005TIP3   OH214957   6.833   7.018   1.958
 5005TIP3    H114958   6.927   7.003   1.961
 5005TIP3    H214959   6.798   6.945   1.907
 5006TIP3   OH214960   7.476   6.932   1.763
 5006TIP3    H114961   7.433   6.855   1.802
 5006TIP3    H214962   7.558   6.942   1.812
 5007TIP3   OH214963   6.455   6.480   2.100
 5007TIP3    H114964   6.472   6.386   2.107
 5007TIP3    H214965   6.370   6.486   2.056
 5008TIP3   OH214966   7.080   6.562   1.876
 5008TIP3    H114967   7.039   6.586   1.793
 5008TIP3    H214968   7.122   6.477   1.859
 5009TIP3   OH214969   7.643   6.577   1.502
 5009TIP3    H114970   7.667   6.670   1.504
 5009TIP3    H214971   7.562   6.574   1.451
 5010TIP3   OH214972   6.576   6.224   2.101
 5010TIP3    H114973   6.648   6.221   2.037
 5010TIP3    H214974   6.619   6.251   2.182
 5011TIP3   OH214975   6.881   6.066   1.786
 5011TIP3    H114976   6.815   6.134   1.797
 5011TIP3    H214977   6.945   6.105   1.727
 5012TIP3   OH214978   7.436   6.471   1.838
 5012TIP3    H114979   7.522   6.454   1.801
 5012TIP3    H214980   7.433   6.418   1.918
 5013TIP3   OH214981   7.045   5.864   1.869
 5013TIP3    H114982   7.048   5.791   1.806
 5013TIP3    H214983   6.991   5.930   1.825
 5014TIP3   OH214984   7.047   5.667   1.668
 5014TIP3    H114985   7.070   5.711   1.586
 5014TIP3    H214986   6.955   5.642   1.657
 5015TIP3   OH214987   7.063   6.184   1.622
 5015TIP3    H114988   7.151   6.195   1.588
 5015TIP3    H214989   7.008   6.238   1.566
 5016TIP3   OH214990   7.667   6.165   1.925
 5016TIP3    H114991   7.718   6.085   1.941
 5016TIP3    H214992   7.733   6.233   1.911
 5017TIP3   OH214993   7.693   6.422   1.713
 5017TIP3    H114994   7.661   6.480   1.643
 5017TIP3    H214995   7.788   6.426   1.705
 5018TIP3   OH214996   6.925   5.966   2.108
 5018TIP3    H114997   6.853   5.905   2.125
 5018TIP3    H214998   6.949   5.949   2.017
 5019TIP3   OH214999   7.174   5.444   1.768
 5019TIP3    H115000   7.133   5.522   1.731
 5019TIP3    H215001   7.110   5.374   1.755
 5020TIP3   OH215002   7.297   5.919   1.966
 5020TIP3    H115003   7.288   5.909   2.060
 5020TIP3    H215004   7.211   5.898   1.931
 5021TIP3   OH215005   7.533   5.856   1.832
 5021TIP3    H115006   7.456   5.863   1.889
 5021TIP3    H215007   7.607   5.847   1.892
 5022TIP3   OH215008   7.766   5.847   1.979
 5022TIP3    H115009   7.786   5.754   1.977
 5022TIP3    H215010   7.765   5.869   2.072
 5023TIP3   OH215011   6.756   5.748   2.166
 5023TIP3    H115012   6.763   5.660   2.128
 5023TIP3    H215013   6.794   5.739   2.253
 5024TIP3   OH215014   7.240   5.424   2.031
 5024TIP3    H115015   7.308   5.357   2.024
 5024TIP3    H215016   7.208   5.436   1.942
 5025TIP3   OH215017   7.328   5.640   2.178
 5025TIP3    H115018   7.301   5.568   2.121
 5025TIP3    H215019   7.255   5.702   2.174
 5026TIP3   OH215020   5.986   6.820   0.881
 5026TIP3    H115021   5.927   6.780   0.818
 5026TIP3    H215022   5.989   6.759   0.954
 5027TIP3   OH215023   5.937   6.735   1.150
 5027TIP3    H115024   6.014   6.683   1.126
 5027TIP3    H215025   5.972   6.819   1.178
 5028TIP3   OH215026   6.262   6.128   1.467
 5028TIP3    H115027   6.254   6.085   1.382
 5028TIP3    H215028   6.355   6.122   1.489
 5029TIP3   OH215029   7.952   6.466   1.643
 5029TIP3    H115030   7.989   6.378   1.649
 5029TIP3    H215031   7.945   6.483   1.549
 5030TIP3   OH215032   7.969   5.951   1.031
 5030TIP3    H115033   8.041   5.999   0.989
 5030TIP3    H215034   7.904   6.018   1.050
 5031TIP3   OH215035   7.841   6.138   1.373
 5031TIP3    H115036   7.756   6.179   1.387
 5031TIP3    H215037   7.851   6.133   1.278
 5032TIP3   OH215038   6.493   5.807   2.106
 5032TIP3    H115039   6.587   5.805   2.123
 5032TIP3    H215040   6.459   5.727   2.145
 5033TIP3   OH215041   6.459   5.520   1.489
 5033TIP3    H115042   6.518   5.444   1.481
 5033TIP3    H215043   6.516   5.595   1.472
 5034TIP3   OH215044   6.248   5.788   1.529
 5034TIP3    H115045   6.301   5.770   1.451
 5034TIP3    H215046   6.278   5.874   1.559
 5035TIP3   OH215047   6.193   5.256   1.048
 5035TIP3    H115048   6.114   5.266   1.101
 5035TIP3    H215049   6.210   5.344   1.014
 5036TIP3   OH215050   6.463   5.338   1.836
 5036TIP3    H115051   6.415   5.340   1.919
 5036TIP3    H215052   6.410   5.392   1.777
 5037TIP3   OH215053   6.487   6.790   1.960
 5037TIP3    H115054   6.395   6.785   1.932
 5037TIP3    H215055   6.484   6.784   2.055
 5038TIP3   OH215056   6.619   6.912   1.588
 5038TIP3    H115057   6.555   6.961   1.537
 5038TIP3    H215058   6.658   6.851   1.525
 5039TIP3   OH215059   7.178   7.089   1.586
 5039TIP3    H115060   7.191   7.081   1.680
 5039TIP3    H215061   7.253   7.140   1.555
 5040TIP3   OH215062   8.134   5.549   1.614
 5040TIP3    H115063   8.071   5.586   1.552
 5040TIP3    H215064   8.169   5.472   1.569
 5041TIP3   OH215065   6.290   7.024   1.624
 5041TIP3    H115066   6.218   7.067   1.577
 5041TIP3    H215067   6.359   7.091   1.629
 5042TIP3   OH215068   6.492   7.081   1.418
 5042TIP3    H115069   6.405   7.090   1.381
 5042TIP3    H215070   6.526   7.170   1.422
 5043TIP3   OH215071   7.054   7.093   1.148
 5043TIP3    H115072   7.116   7.086   1.075
 5043TIP3    H215073   7.093   7.158   1.207
 5044TIP3   OH215074   6.313   6.881   1.284
 5044TIP3    H115075   6.312   6.857   1.376
 5044TIP3    H215076   6.363   6.812   1.242
 5045TIP3   OH215077   6.449   6.673   1.193
 5045TIP3    H115078   6.463   6.600   1.254
 5045TIP3    H215079   6.525   6.670   1.135
 5046TIP3   OH215080   6.701   6.715   1.088
 5046TIP3    H115081   6.789   6.722   1.052
 5046TIP3    H215082   6.679   6.803   1.117
 5047TIP3   OH215083   7.386   5.389   1.236
 5047TIP3    H115084   7.310   5.400   1.293
 5047TIP3    H215085   7.362   5.318   1.177
 5048TIP3   OH215086   7.852   5.344   1.103
 5048TIP3    H115087   7.897   5.376   1.025
 5048TIP3    H215088   7.808   5.420   1.140
 5049TIP3   OH215089   7.962   5.430   0.871
 5049TIP3    H115090   8.049   5.424   0.832
 5049TIP3    H215091   7.954   5.521   0.897
 5050TIP3   OH215092   6.537   5.194   1.199
 5050TIP3    H115093   6.451   5.160   1.225
 5050TIP3    H215094   6.593   5.116   1.197
 5051TIP3   OH215095   6.363   5.049   0.939
 5051TIP3    H115096   6.313   5.076   0.862
 5051TIP3    H215097   6.333   5.108   1.009
 5052TIP3   OH215098   6.921   5.243   1.133
 5052TIP3    H115099   6.918   5.311   1.065
 5052TIP3    H215100   7.011   5.248   1.167
 5053TIP3   OH215101   7.576   5.476   1.054
 5053TIP3    H115102   7.609   5.399   1.009
 5053TIP3    H215103   7.516   5.442   1.120
 5054TIP3   OH215104   6.388   5.319   0.618
 5054TIP3    H115105   6.388   5.341   0.525
 5054TIP3    H215106   6.454   5.378   0.656
 5055TIP3   OH215107   6.854   5.447   0.911
 5055TIP3    H115108   6.945   5.421   0.896
 5055TIP3    H215109   6.832   5.503   0.836
 5056TIP3   OH215110   6.767   5.476   2.076
 5056TIP3    H115111   6.736   5.409   2.138
 5056TIP3    H215112   6.860   5.485   2.097
 5057TIP3   OH215113   7.017   5.481   2.198
 5057TIP3    H115114   7.096   5.459   2.148
 5057TIP3    H215115   7.010   5.412   2.264
 5058TIP3   OH215116   7.835   5.582   1.979
 5058TIP3    H115117   7.844   5.559   2.071
 5058TIP3    H215118   7.922   5.568   1.941
 5059TIP3   OH215119   0.547   6.559   2.870
 5059TIP3    H115120   0.565   6.645   2.909
 5059TIP3    H215121   0.578   6.566   2.780
 5060TIP3   OH215122   8.456   6.575   2.555
 5060TIP3    H115123   8.513   6.526   2.614
 5060TIP3    H215124   8.495   6.564   2.468
 5061TIP3   OH215125   0.603   6.773   3.045
 5061TIP3    H115126   0.511   6.799   3.042
 5061TIP3    H215127   0.634   6.809   3.128
 5062TIP3   OH215128   0.143   6.490   2.741
 5062TIP3    H115129   0.200   6.413   2.740
 5062TIP3    H215130   0.203   6.565   2.742
 5063TIP3   OH215131   0.320   6.496   3.021
 5063TIP3    H115132   0.247   6.516   2.963
 5063TIP3    H215133   0.398   6.508   2.968
 5064TIP3   OH215134   0.218   7.496   2.986
 5064TIP3    H115135   0.196   7.413   2.946
 5064TIP3    H215136   0.177   7.562   2.929
 5065TIP3   OH215137   0.410   7.102   2.913
 5065TIP3    H115138   0.332   7.157   2.912
 5065TIP3    H215139   0.438   7.098   2.821
 5066TIP3   OH215140   0.222   6.028   2.169
 5066TIP3    H115141   0.152   6.054   2.228
 5066TIP3    H215142   0.250   6.109   2.127
 5067TIP3   OH215143   0.369   6.918   3.347
 5067TIP3    H115144   0.283   6.937   3.386
 5067TIP3    H215145   0.366   6.824   3.330
 5068TIP3   OH215146   0.192   7.258   2.836
 5068TIP3    H115147   0.235   7.297   2.760
 5068TIP3    H215148   0.122   7.205   2.799
 5069TIP3   OH215149   0.460   7.445   3.099
 5069TIP3    H115150   0.371   7.473   3.078
 5069TIP3    H215151   0.499   7.425   3.013
 5070TIP3   OH215152   0.339   6.654   3.264
 5070TIP3    H115153   0.286   6.598   3.319
 5070TIP3    H215154   0.338   6.611   3.178
 5071TIP3   OH215155   0.045   6.816   2.658
 5071TIP3    H115156  -0.003   6.739   2.628
 5071TIP3    H215157   0.124   6.781   2.699
 5072TIP3   OH215158   0.279   6.612   3.679
 5072TIP3    H115159   0.269   6.517   3.681
 5072TIP3    H215160   0.189   6.645   3.678
 5073TIP3   OH215161   0.337   6.960   2.227
 5073TIP3    H115162   0.265   6.930   2.283
 5073TIP3    H215163   0.393   7.010   2.286
 5074TIP3   OH215164   0.342   7.382   2.639
 5074TIP3    H115165   0.421   7.337   2.609
 5074TIP3    H215166   0.316   7.436   2.565
 5075TIP3   OH215167   0.156   6.839   2.395
 5075TIP3    H115168   0.142   6.747   2.373
 5075TIP3    H215169   0.113   6.851   2.480
 5076TIP3   OH215170   0.378   7.240   3.268
 5076TIP3    H115171   0.442   7.172   3.246
 5076TIP3    H215172   0.388   7.306   3.200
 5077TIP3   OH215173   0.582   7.054   3.253
 5077TIP3    H115174   0.507   7.006   3.289
 5077TIP3    H215175   0.657   6.996   3.269
 5078TIP3   OH215176   0.120   6.571   2.317
 5078TIP3    H115177   0.162   6.487   2.335
 5078TIP3    H215178   0.090   6.564   2.227
 5079TIP3   OH215179   0.278   6.725   2.785
 5079TIP3    H115180   0.357   6.746   2.736
 5079TIP3    H215181   0.291   6.765   2.871
 5080TIP3   OH215182   0.340   6.861   3.018
 5080TIP3    H115183   0.286   6.878   3.096
 5080TIP3    H215184   0.363   6.948   2.985
 5081TIP3   OH215185   0.795   6.483   3.550
 5081TIP3    H115186   0.857   6.426   3.505
 5081TIP3    H215187   0.753   6.533   3.480
 5082TIP3   OH215188   0.218   6.318   2.349
 5082TIP3    H115189   0.269   6.301   2.428
 5082TIP3    H215190   0.147   6.254   2.352
 5083TIP3   OH215191   0.639   6.612   3.365
 5083TIP3    H115192   0.575   6.650   3.426
 5083TIP3    H215193   0.589   6.548   3.315
 5084TIP3   OH215194   0.363   6.213   2.009
 5084TIP3    H115195   0.350   6.154   1.934
 5084TIP3    H215196   0.380   6.298   1.970
 5085TIP3   OH215197   0.556   6.346   3.265
 5085TIP3    H115198   0.471   6.317   3.231
 5085TIP3    H215199   0.613   6.270   3.258
 5086TIP3   OH215200   0.269   6.236   2.803
 5086TIP3    H115201   0.320   6.239   2.722
 5086TIP3    H215202   0.181   6.209   2.775
 5087TIP3   OH215203   0.388   6.281   2.563
 5087TIP3    H115204   0.454   6.222   2.527
 5087TIP3    H215205   0.423   6.368   2.548
 5088TIP3   OH215206   0.010   6.187   2.714
 5088TIP3    H115207   0.002   6.172   2.620
 5088TIP3    H215208  -0.001   6.100   2.753
 5089TIP3   OH215209   0.274   6.335   3.674
 5089TIP3    H115210   0.289   6.308   3.764
 5089TIP3    H215211   0.360   6.326   3.632
 5090TIP3   OH215212   1.509   7.236   1.960
 5090TIP3    H115213   1.452   7.310   1.981
 5090TIP3    H215214   1.456   7.179   1.905
 5091TIP3   OH215215   1.482   7.264   2.344
 5091TIP3    H115216   1.530   7.247   2.424
 5091TIP3    H215217   1.440   7.181   2.323
 5092TIP3   OH215218   0.780   7.136   2.697
 5092TIP3    H115219   0.814   7.080   2.767
 5092TIP3    H215220   0.857   7.157   2.643
 5093TIP3   OH215221   1.762   7.540   2.034
 5093TIP3    H115222   1.740   7.479   2.104
 5093TIP3    H215223   1.790   7.620   2.080
 5094TIP3   OH215224   0.877   7.478   2.434
 5094TIP3    H115225   0.834   7.395   2.411
 5094TIP3    H215226   0.905   7.515   2.350
 5095TIP3   OH215227   0.448   6.715   2.170
 5095TIP3    H115228   0.412   6.803   2.174
 5095TIP3    H215229   0.404   6.667   2.240
 5096TIP3   OH215230   0.536   7.067   2.396
 5096TIP3    H115231   0.582   6.985   2.416
 5096TIP3    H215232   0.606   7.126   2.368
 5097TIP3   OH215233   1.323   7.485   2.438
 5097TIP3    H115234   1.346   7.417   2.375
 5097TIP3    H215235   1.407   7.516   2.471
 5098TIP3   OH215236   2.326   6.816   2.369
 5098TIP3    H115237   2.347   6.898   2.413
 5098TIP3    H215238   2.342   6.834   2.276
 5099TIP3   OH215239   1.704   6.980   2.390
 5099TIP3    H115240   1.737   6.895   2.419
 5099TIP3    H215241   1.668   6.964   2.303
 5100TIP3   OH215242   1.063   6.634   2.345
 5100TIP3    H115243   1.038   6.707   2.289
 5100TIP3    H215244   1.010   6.560   2.313
 5101TIP3   OH215245   1.762   6.736   1.985
 5101TIP3    H115246   1.824   6.729   2.058
 5101TIP3    H215247   1.814   6.771   1.913
 5102TIP3   OH215248   0.686   6.846   2.465
 5102TIP3    H115249   0.768   6.824   2.510
 5102TIP3    H215250   0.688   6.794   2.385
 5103TIP3   OH215251   1.109   7.050   2.281
 5103TIP3    H115252   1.202   7.033   2.288
 5103TIP3    H215253   1.071   6.967   2.251
 5104TIP3   OH215254   2.391   7.032   2.535
 5104TIP3    H115255   2.299   7.059   2.535
 5104TIP3    H215256   2.425   7.065   2.618
 5105TIP3   OH215257   1.041   6.640   2.796
 5105TIP3    H115258   0.988   6.672   2.724
 5105TIP3    H215259   0.987   6.653   2.874
 5106TIP3   OH215260   1.491   7.467   1.673
 5106TIP3    H115261   1.404   7.465   1.634
 5106TIP3    H215262   1.485   7.534   1.741
 5107TIP3   OH215263   1.147   7.359   2.594
 5107TIP3    H115264   1.091   7.429   2.627
 5107TIP3    H215265   1.207   7.402   2.534
 5108TIP3   OH215266   1.918   6.758   2.206
 5108TIP3    H115267   1.874   6.737   2.289
 5108TIP3    H215268   1.974   6.833   2.227
 5109TIP3   OH215269   0.929   6.743   2.563
 5109TIP3    H115270   0.986   6.815   2.590
 5109TIP3    H215271   0.978   6.699   2.493
 5110TIP3   OH215272   1.008   7.587   2.644
 5110TIP3    H115273   0.942   7.551   2.585
 5110TIP3    H215274   0.958   7.618   2.720
 5111TIP3   OH215275   2.124   6.704   2.533
 5111TIP3    H115276   2.038   6.725   2.495
 5111TIP3    H215277   2.187   6.732   2.468
 5112TIP3   OH215278   1.383   6.334   2.530
 5112TIP3    H115279   1.375   6.242   2.554
 5112TIP3    H215280   1.306   6.375   2.568
 5113TIP3   OH215281   1.754   7.586   1.736
 5113TIP3    H115282   1.710   7.539   1.665
 5113TIP3    H215283   1.722   7.544   1.816
 5114TIP3   OH215284   2.112   7.688   2.441
 5114TIP3    H115285   2.052   7.620   2.411
 5114TIP3    H215286   2.101   7.759   2.377
 5115TIP3   OH215287   1.353   7.112   1.770
 5115TIP3    H115288   1.270   7.159   1.766
 5115TIP3    H215289   1.388   7.117   1.681
 5116TIP3   OH215290   1.374   6.856   1.560
 5116TIP3    H115291   1.436   6.928   1.566
 5116TIP3    H215292   1.408   6.802   1.488
 5117TIP3   OH215293   2.217   7.363   2.385
 5117TIP3    H115294   2.130   7.402   2.382
 5117TIP3    H215295   2.249   7.369   2.295
 5118TIP3   OH215296   1.695   7.206   1.757
 5118TIP3    H115297   1.637   7.226   1.831
 5118TIP3    H215298   1.775   7.175   1.798
 5119TIP3   OH215299   1.902   7.207   2.658
 5119TIP3    H115300   1.905   7.283   2.716
 5119TIP3    H215301   1.817   7.213   2.615
 5120TIP3   OH215302   0.902   7.177   2.134
 5120TIP3    H115303   0.860   7.113   2.076
 5120TIP3    H215304   0.978   7.131   2.168
 5121TIP3   OH215305   0.980   7.552   2.192
 5121TIP3    H115306   0.997   7.645   2.177
 5121TIP3    H215307   1.067   7.513   2.203
 5122TIP3   OH215308   0.994   7.154   2.506
 5122TIP3    H115309   1.036   7.122   2.427
 5122TIP3    H215310   1.048   7.228   2.534
 5123TIP3   OH215311   1.191   7.638   2.865
 5123TIP3    H115312   1.263   7.700   2.853
 5123TIP3    H215313   1.166   7.614   2.776
 5124TIP3   OH215314   1.563   7.057   1.563
 5124TIP3    H115315   1.608   7.121   1.618
 5124TIP3    H215316   1.600   7.069   1.476
 5125TIP3   OH215317   0.934   7.270   2.965
 5125TIP3    H115318   0.934   7.349   3.019
 5125TIP3    H215319   0.845   7.236   2.972
 5126TIP3   OH215320   2.018   6.296   1.625
 5126TIP3    H115321   1.941   6.314   1.678
 5126TIP3    H215322   2.026   6.373   1.568
 5127TIP3   OH215323   0.768   7.007   1.963
 5127TIP3    H115324   0.731   7.031   1.878
 5127TIP3    H215325   0.728   6.922   1.983
 5128TIP3   OH215326   0.558   7.357   2.860
 5128TIP3    H115327   0.506   7.309   2.796
 5128TIP3    H215328   0.609   7.290   2.906
 5129TIP3   OH215329   2.157   7.175   2.839
 5129TIP3    H115330   2.067   7.184   2.808
 5129TIP3    H215331   2.175   7.081   2.835
 5130TIP3   OH215332   0.742   7.516   2.745
 5130TIP3    H115333   0.793   7.556   2.815
 5130TIP3    H215334   0.674   7.467   2.790
 5131TIP3   OH215335   1.146   6.425   2.652
 5131TIP3    H115336   1.062   6.390   2.622
 5131TIP3    H215337   1.123   6.505   2.700
 5132TIP3   OH215338   1.684   6.545   2.855
 5132TIP3    H115339   1.754   6.522   2.916
 5132TIP3    H215340   1.604   6.529   2.903
 5133TIP3   OH215341   1.912   6.957   2.773
 5133TIP3    H115342   1.868   6.956   2.857
 5133TIP3    H215343   1.891   7.043   2.736
 5134TIP3   OH215344   1.658   7.087   1.298
 5134TIP3    H115345   1.600   7.052   1.230
 5134TIP3    H215346   1.626   7.176   1.313
 5135TIP3   OH215347   1.293   6.480   1.628
 5135TIP3    H115348   1.257   6.490   1.716
 5135TIP3    H215349   1.265   6.393   1.600
 5136TIP3   OH215350   1.083   6.949   2.665
 5136TIP3    H115351   1.036   6.956   2.748
 5136TIP3    H215352   1.053   7.024   2.614
 5137TIP3   OH215353   0.958   6.837   2.194
 5137TIP3    H115354   0.868   6.810   2.214
 5137TIP3    H215355   0.974   6.804   2.105
 5138TIP3   OH215356   1.460   6.901   1.907
 5138TIP3    H115357   1.414   6.971   1.860
 5138TIP3    H215358   1.523   6.866   1.843
 5139TIP3   OH215359   1.653   7.166   2.982
 5139TIP3    H115360   1.619   7.100   3.042
 5139TIP3    H215361   1.744   7.177   3.009
 5140TIP3   OH215362   1.618   6.924   2.137
 5140TIP3    H115363   1.551   6.948   2.072
 5140TIP3    H215364   1.662   6.848   2.098
 5141TIP3   OH215365   0.911   6.965   2.880
 5141TIP3    H115366   0.943   7.021   2.949
 5141TIP3    H215367   0.893   6.881   2.923
 5142TIP3   OH215368   0.946   6.428   1.591
 5142TIP3    H115369   0.926   6.439   1.684
 5142TIP3    H215370   0.860   6.419   1.549
 5143TIP3   OH215371   0.484   6.527   2.495
 5143TIP3    H115372   0.571   6.543   2.531
 5143TIP3    H215373   0.501   6.490   2.408
 5144TIP3   OH215374   0.471   6.490   1.998
 5144TIP3    H115375   0.465   6.503   1.903
 5144TIP3    H215376   0.464   6.578   2.035
 5145TIP3   OH215377   1.642   7.183   2.558
 5145TIP3    H115378   1.669   7.114   2.496
 5145TIP3    H215379   1.601   7.136   2.630
 5146TIP3   OH215380   1.333   6.633   2.240
 5146TIP3    H115381   1.253   6.629   2.293
 5146TIP3    H215382   1.404   6.619   2.303
 5147TIP3   OH215383   0.720   6.703   2.234
 5147TIP3    H115384   0.631   6.693   2.201
 5147TIP3    H215385   0.757   6.615   2.228
 5148TIP3   OH215386   0.993   6.717   1.953
 5148TIP3    H115387   1.087   6.723   1.941
 5148TIP3    H215388   0.956   6.736   1.867
 5149TIP3   OH215389   1.775   6.716   2.443
 5149TIP3    H115390   1.757   6.732   2.536
 5149TIP3    H215391   1.708   6.654   2.416
 5150TIP3   OH215392   0.846   6.748   1.726
 5150TIP3    H115393   0.760   6.706   1.729
 5150TIP3    H215394   0.873   6.740   1.635
 5151TIP3   OH215395   0.919   7.499   3.134
 5151TIP3    H115396   0.989   7.499   3.199
 5151TIP3    H215397   0.839   7.489   3.185
 5152TIP3   OH215398   1.378   6.995   2.339
 5152TIP3    H115399   1.443   6.942   2.293
 5152TIP3    H215400   1.374   6.958   2.427
 5153TIP3   OH215401   0.869   6.464   2.226
 5153TIP3    H115402   0.839   6.391   2.281
 5153TIP3    H215403   0.885   6.425   2.140
 5154TIP3   OH215404   1.351   6.907   2.604
 5154TIP3    H115405   1.264   6.932   2.633
 5154TIP3    H215406   1.411   6.955   2.661
 5155TIP3   OH215407   1.116   7.256   1.768
 5155TIP3    H115408   1.058   7.181   1.753
 5155TIP3    H215409   1.078   7.302   1.842
 5156TIP3   OH215410   1.972   7.479   2.326
 5156TIP3    H115411   2.001   7.519   2.244
 5156TIP3    H215412   1.890   7.435   2.303
 5157TIP3   OH215413   1.549   6.577   1.624
 5157TIP3    H115414   1.455   6.559   1.624
 5157TIP3    H215415   1.556   6.671   1.639
 5158TIP3   OH215416   1.504   7.492   2.764
 5158TIP3    H115417   1.564   7.482   2.837
 5158TIP3    H215418   1.452   7.570   2.785
 5159TIP3   OH215419   1.640   6.832   1.705
 5159TIP3    H115420   1.735   6.831   1.718
 5159TIP3    H215421   1.624   6.909   1.651
 5160TIP3   OH215422   0.766   7.228   2.368
 5160TIP3    H115423   0.798   7.220   2.278
 5160TIP3    H215424   0.834   7.186   2.421
 5161TIP3   OH215425   1.228   7.438   1.596
 5161TIP3    H115426   1.160   7.494   1.558
 5161TIP3    H215427   1.178   7.369   1.641
 5162TIP3   OH215428   0.673   7.165   3.016
 5162TIP3    H115429   0.680   7.143   3.109
 5162TIP3    H215430   0.597   7.116   2.985
 5163TIP3   OH215431   1.409   7.289   3.033
 5163TIP3    H115432   1.351   7.238   2.977
 5163TIP3    H215433   1.497   7.265   3.004
 5164TIP3   OH215434   2.032   6.920   1.520
 5164TIP3    H115435   1.971   6.873   1.463
 5164TIP3    H215436   2.038   7.007   1.483
 5165TIP3   OH215437   2.324   7.715   2.599
 5165TIP3    H115438   2.236   7.724   2.562
 5165TIP3    H215439   2.381   7.703   2.523
 5166TIP3   OH215440   1.739   7.351   2.240
 5166TIP3    H115441   1.648   7.333   2.261
 5166TIP3    H215442   1.772   7.269   2.202
 5167TIP3   OH215443   0.982   7.387   1.971
 5167TIP3    H115444   0.971   7.458   2.035
 5167TIP3    H215445   0.947   7.310   2.015
 5168TIP3   OH215446   1.589   7.524   2.499
 5168TIP3    H115447   1.567   7.519   2.592
 5168TIP3    H215448   1.670   7.473   2.491
 5169TIP3   OH215449   1.549   7.334   1.337
 5169TIP3    H115450   1.602   7.360   1.412
 5169TIP3    H215451   1.461   7.362   1.359
 5170TIP3   OH215452   0.872   6.712   3.004
 5170TIP3    H115453   0.777   6.723   3.010
 5170TIP3    H215454   0.895   6.657   3.078
 5171TIP3   OH215455   1.732   7.357   1.532
 5171TIP3    H115456   1.710   7.315   1.616
 5171TIP3    H215457   1.827   7.365   1.534
 5172TIP3   OH215458   1.717   6.772   2.705
 5172TIP3    H115459   1.796   6.815   2.739
 5172TIP3    H215460   1.705   6.695   2.761
 5173TIP3   OH215461   1.608   6.523   1.893
 5173TIP3    H115462   1.586   6.543   1.802
 5173TIP3    H215463   1.652   6.602   1.924
 5174TIP3   OH215464   1.270   6.719   1.986
 5174TIP3    H115465   1.335   6.783   1.957
 5174TIP3    H215466   1.292   6.702   2.077
 5175TIP3   OH215467   1.564   7.008   2.757
 5175TIP3    H115468   1.594   7.048   2.838
 5175TIP3    H215469   1.611   6.925   2.752
 5176TIP3   OH215470   1.423   6.421   2.074
 5176TIP3    H115471   1.401   6.499   2.125
 5176TIP3    H215472   1.491   6.450   2.013
 5177TIP3   OH215473   0.928   6.452   1.878
 5177TIP3    H115474   0.928   6.541   1.914
 5177TIP3    H215475   1.020   6.427   1.877
 5178TIP3   OH215476   2.172   6.899   2.740
 5178TIP3    H115477   2.079   6.913   2.757
 5178TIP3    H215478   2.175   6.835   2.669
 5179TIP3   OH215479   1.837   7.108   2.142
 5179TIP3    H115480   1.761   7.050   2.147
 5179TIP3    H215481   1.903   7.067   2.197
 5180TIP3   OH215482   0.884   6.338   2.617
 5180TIP3    H115483   0.855   6.306   2.532
 5180TIP3    H215484   0.874   6.263   2.676
 5181TIP3   OH215485   0.683   7.423   3.262
 5181TIP3    H115486   0.731   7.340   3.258
 5181TIP3    H215487   0.613   7.414   3.198
 5182TIP3   OH215488   1.308   7.534   3.092
 5182TIP3    H115489   1.273   7.567   3.009
 5182TIP3    H215490   1.345   7.449   3.071
 5183TIP3   OH215491   1.836   7.584   2.660
 5183TIP3    H115492   1.914   7.640   2.665
 5183TIP3    H215493   1.771   7.629   2.713
 5184TIP3   OH215494   0.871   7.221   3.271
 5184TIP3    H115495   0.954   7.179   3.247
 5184TIP3    H215496   0.887   7.258   3.358
 5185TIP3   OH215497   0.964   7.036   1.724
 5185TIP3    H115498   0.908   6.977   1.775
 5185TIP3    H215499   1.012   6.978   1.665
 5186TIP3   OH215500   1.168   7.131   2.922
 5186TIP3    H115501   1.092   7.188   2.930
 5186TIP3    H215502   1.217   7.166   2.848
 5187TIP3   OH215503   1.109   6.895   1.539
 5187TIP3    H115504   1.124   6.894   1.445
 5187TIP3    H215505   1.195   6.879   1.578
 5188TIP3   OH215506   1.666   7.485   2.995
 5188TIP3    H115507   1.742   7.427   3.000
 5188TIP3    H215508   1.635   7.492   3.086
 5189TIP3   OH215509   1.874   7.206   1.168
 5189TIP3    H115510   1.809   7.144   1.202
 5189TIP3    H215511   1.823   7.286   1.151
 5190TIP3   OH215512   1.291   6.920   3.042
 5190TIP3    H115513   1.297   6.847   2.980
 5190TIP3    H215514   1.249   6.990   2.992
 5191TIP3   OH215515   1.300   6.727   2.834
 5191TIP3    H115516   1.328   6.762   2.750
 5191TIP3    H215517   1.209   6.700   2.820
 5192TIP3   OH215518   1.341   7.245   2.745
 5192TIP3    H115519   1.416   7.304   2.739
 5192TIP3    H215520   1.277   7.281   2.684
 5193TIP3   OH215521   1.909   7.190   3.103
 5193TIP3    H115522   1.957   7.108   3.110
 5193TIP3    H215523   1.976   7.258   3.109
 5194TIP3   OH215524   1.949   7.411   2.833
 5194TIP3    H115525   1.889   7.468   2.786
 5194TIP3    H215526   2.036   7.442   2.809
 5195TIP3   OH215527   1.163   7.016   3.275
 5195TIP3    H115528   1.101   6.947   3.299
 5195TIP3    H215529   1.198   6.988   3.191
 5196TIP3   OH215530   1.420   6.495   2.936
 5196TIP3    H115531   1.379   6.575   2.903
 5196TIP3    H215532   1.355   6.427   2.923
 5197TIP3   OH215533   1.549   6.967   3.138
 5197TIP3    H115534   1.541   6.959   3.233
 5197TIP3    H215535   1.462   6.945   3.105
 5198TIP3   OH215536   1.791   6.906   3.008
 5198TIP3    H115537   1.713   6.909   3.064
 5198TIP3    H215538   1.863   6.889   3.068
 5199TIP3   OH215539   2.033   6.890   3.153
 5199TIP3    H115540   2.047   6.795   3.157
 5199TIP3    H215541   2.027   6.916   3.245
 5200TIP3   OH215542   1.015   6.789   3.342
 5200TIP3    H115543   1.020   6.701   3.305
 5200TIP3    H215544   1.052   6.780   3.430
 5201TIP3   OH215545   1.487   6.476   3.202
 5201TIP3    H115546   1.555   6.409   3.197
 5201TIP3    H215547   1.456   6.486   3.112
 5202TIP3   OH215548   1.578   6.691   3.348
 5202TIP3    H115549   1.549   6.619   3.293
 5202TIP3    H215550   1.504   6.753   3.346
 5203TIP3   OH215551   2.158   7.939   2.861
 5203TIP3    H115552   2.108   7.998   2.918
 5203TIP3    H215553   2.249   7.951   2.889
 5204TIP3   OH215554   2.001   7.371   1.547
 5204TIP3    H115555   2.059   7.438   1.511
 5204TIP3    H215556   2.051   7.333   1.620
 5205TIP3   OH215557   2.125   7.232   1.745
 5205TIP3    H115558   2.055   7.200   1.802
 5205TIP3    H215559   2.184   7.280   1.803
 5206TIP3   OH215560   2.149   7.616   2.153
 5206TIP3    H115561   2.209   7.543   2.137
 5206TIP3    H215562   2.131   7.652   2.066
 5207TIP3   OH215563   2.037   7.156   1.381
 5207TIP3    H115564   1.979   7.170   1.306
 5207TIP3    H215565   2.017   7.229   1.440
 5208TIP3   OH215566   1.872   6.810   1.333
 5208TIP3    H115567   1.818   6.860   1.271
 5208TIP3    H215568   1.865   6.720   1.304
 5209TIP3   OH215569   1.919   7.100   1.879
 5209TIP3    H115570   1.924   7.006   1.862
 5209TIP3    H215571   1.897   7.107   1.972
 5210TIP3   OH215572   0.512   7.131   2.664
 5210TIP3    H115573   0.496   7.111   2.572
 5210TIP3    H215574   0.607   7.141   2.670
 5211TIP3   OH215575   2.189   7.511   2.745
 5211TIP3    H115576   2.252   7.440   2.733
 5211TIP3    H215577   2.218   7.579   2.684
 5212TIP3   OH215578   2.372   7.309   2.743
 5212TIP3    H115579   2.297   7.261   2.778
 5212TIP3    H215580   2.447   7.253   2.759
 5213TIP3   OH215581   1.838   6.538   1.268
 5213TIP3    H115582   1.904   6.520   1.336
 5213TIP3    H215583   1.757   6.504   1.305
 5214TIP3   OH215584   1.916   6.830   1.763
 5214TIP3    H115585   1.959   6.745   1.773
 5214TIP3    H215586   1.958   6.868   1.685
 5215TIP3   OH215587   2.054   6.990   2.276
 5215TIP3    H115588   2.134   7.008   2.227
 5215TIP3    H215589   2.069   7.027   2.363
 5216TIP3   OH215590   2.128   7.130   2.505
 5216TIP3    H115591   2.051   7.153   2.558
 5216TIP3    H215592   2.158   7.214   2.469
 5217TIP3   OH215593   0.754   6.846   3.280
 5217TIP3    H115594   0.848   6.839   3.298
 5217TIP3    H215595   0.717   6.766   3.317
 5218TIP3   OH215596   2.586   6.747   3.041
 5218TIP3    H115597   2.651   6.687   3.006
 5218TIP3    H215598   2.552   6.793   2.965
 5219TIP3   OH215599   2.019   6.575   1.802
 5219TIP3    H115600   2.061   6.560   1.887
 5219TIP3    H215601   1.953   6.506   1.796
 5220TIP3   OH215602   0.722   6.562   2.632
 5220TIP3    H115603   0.773   6.481   2.637
 5220TIP3    H215604   0.786   6.630   2.612
 5221TIP3   OH215605   0.516   6.827   2.692
 5221TIP3    H115606   0.559   6.807   2.608
 5221TIP3    H215607   0.538   6.918   2.709
 5222TIP3   OH215608   2.439   6.866   2.846
 5222TIP3    H115609   2.368   6.905   2.897
 5222TIP3    H215610   2.396   6.801   2.791
 5223TIP3   OH215611   2.057   6.496   1.435
 5223TIP3    H115612   2.108   6.434   1.383
 5223TIP3    H215613   2.114   6.573   1.443
 5224TIP3   OH215614   0.480   6.398   2.256
 5224TIP3    H115615   0.399   6.348   2.263
 5224TIP3    H215616   0.491   6.413   2.162
 5225TIP3   OH215617   0.713   6.404   3.030
 5225TIP3    H115618   0.658   6.396   3.108
 5225TIP3    H215619   0.657   6.449   2.966
 5226TIP3   OH215620   2.348   6.609   2.740
 5226TIP3    H115621   2.258   6.596   2.708
 5226TIP3    H215622   2.387   6.522   2.736
 5227TIP3   OH215623   1.556   6.535   2.379
 5227TIP3    H115624   1.516   6.463   2.428
 5227TIP3    H215625   1.624   6.492   2.326
 5228TIP3   OH215626   2.057   6.451   2.264
 5228TIP3    H115627   2.092   6.502   2.191
 5228TIP3    H215628   1.964   6.470   2.264
 5229TIP3   OH215629   2.172   6.530   2.027
 5229TIP3    H115630   2.242   6.470   2.001
 5229TIP3    H215631   2.208   6.617   2.013
 5230TIP3   OH215632   0.797   6.241   2.375
 5230TIP3    H115633   0.707   6.210   2.379
 5230TIP3    H215634   0.849   6.161   2.363
 5231TIP3   OH215635   0.637   6.145   2.033
 5231TIP3    H115636   0.664   6.189   1.953
 5231TIP3    H215637   0.545   6.170   2.044
 5232TIP3   OH215638   1.276   6.278   2.269
 5232TIP3    H115639   1.325   6.324   2.201
 5232TIP3    H215640   1.317   6.305   2.351
 5233TIP3   OH215641   1.771   6.422   2.244
 5233TIP3    H115642   1.776   6.387   2.155
 5233TIP3    H215643   1.776   6.345   2.301
 5234TIP3   OH215644   1.827   6.370   1.809
 5234TIP3    H115645   1.747   6.418   1.833
 5234TIP3    H215646   1.816   6.283   1.848
 5235TIP3   OH215647   0.721   6.281   1.797
 5235TIP3    H115648   0.782   6.226   1.748
 5235TIP3    H215649   0.775   6.348   1.838
 5236TIP3   OH215650   1.207   6.471   1.890
 5236TIP3    H115651   1.262   6.413   1.942
 5236TIP3    H215652   1.228   6.559   1.921
 5237TIP3   OH215653   1.024   6.521   3.255
 5237TIP3    H115654   0.989   6.453   3.312
 5237TIP3    H215655   1.116   6.528   3.280
 5238TIP3   OH215656   1.271   6.528   3.379
 5238TIP3    H115657   1.348   6.505   3.327
 5238TIP3    H215658   1.264   6.458   3.444
 5239TIP3   OH215659   2.093   6.618   3.163
 5239TIP3    H115660   2.108   6.589   3.253
 5239TIP3    H215661   2.179   6.612   3.121
 5240TIP3   OH215662   3.283   7.506   1.448
 5240TIP3    H115663   3.262   7.591   1.409
 5240TIP3    H215664   3.207   7.451   1.428
 5241TIP3   OH215665   3.302   7.543   1.817
 5241TIP3    H115666   3.334   7.519   1.904
 5241TIP3    H215667   3.266   7.462   1.781
 5242TIP3   OH215668   2.584   7.397   2.195
 5242TIP3    H115669   2.616   7.327   2.252
 5242TIP3    H215670   2.645   7.469   2.208
 5243TIP3   OH215671   3.529   7.799   1.487
 5243TIP3    H115672   3.531   7.733   1.557
 5243TIP3    H215673   3.526   7.883   1.534
 5244TIP3   OH215674   2.606   7.768   1.926
 5244TIP3    H115675   2.586   7.675   1.918
 5244TIP3    H215676   2.690   7.778   1.882
 5245TIP3   OH215677   2.266   7.016   1.648
 5245TIP3    H115678   2.227   7.097   1.681
 5245TIP3    H215679   2.193   6.968   1.609
 5246TIP3   OH215680   2.348   7.332   1.875
 5246TIP3    H115681   2.394   7.251   1.896
 5246TIP3    H215682   2.418   7.396   1.858
 5247TIP3   OH215683   3.127   7.768   1.831
 5247TIP3    H115684   3.167   7.693   1.788
 5247TIP3    H215685   3.199   7.811   1.878
 5248TIP3   OH215686   4.122   7.069   1.856
 5248TIP3    H115687   4.140   7.153   1.898
 5248TIP3    H215688   4.160   7.077   1.769
 5249TIP3   OH215689   3.451   7.223   1.864
 5249TIP3    H115690   3.507   7.154   1.901
 5249TIP3    H215691   3.459   7.212   1.769
 5250TIP3   OH215692   2.834   6.889   1.831
 5250TIP3    H115693   2.816   6.962   1.772
 5250TIP3    H215694   2.776   6.819   1.801
 5251TIP3   OH215695   2.478   7.106   1.960
 5251TIP3    H115696   2.560   7.088   2.005
 5251TIP3    H215697   2.484   7.055   1.879
 5252TIP3   OH215698   2.924   7.287   1.746
 5252TIP3    H115699   3.013   7.254   1.761
 5252TIP3    H215700   2.876   7.211   1.714
 5253TIP3   OH215701   4.181   7.288   2.020
 5253TIP3    H115702   4.093   7.325   2.018
 5253TIP3    H215703   4.221   7.326   2.098
 5254TIP3   OH215704   2.835   6.898   2.286
 5254TIP3    H115705   2.783   6.935   2.215
 5254TIP3    H215706   2.781   6.910   2.364
 5255TIP3   OH215707   3.212   7.719   1.288
 5255TIP3    H115708   3.162   7.706   1.207
 5255TIP3    H215709   3.255   7.803   1.276
 5256TIP3   OH215710   3.002   7.604   2.013
 5256TIP3    H115711   2.936   7.654   2.062
 5256TIP3    H215712   3.039   7.668   1.952
 5257TIP3   OH215713   3.716   6.965   1.698
 5257TIP3    H115714   3.678   6.998   1.779
 5257TIP3    H215715   3.776   7.034   1.670
 5258TIP3   OH215716   2.722   7.005   2.057
 5258TIP3    H115717   2.778   7.079   2.080
 5258TIP3    H215718   2.766   6.963   1.983
 5259TIP3   OH215719   2.814   7.718   2.171
 5259TIP3    H115720   2.803   7.803   2.129
 5259TIP3    H215721   2.738   7.709   2.228
 5260TIP3   OH215722   2.150   7.553   1.407
 5260TIP3    H115723   2.119   7.547   1.316
 5260TIP3    H215724   2.143   7.646   1.428
 5261TIP3   OH215725   3.919   6.960   2.017
 5261TIP3    H115726   3.837   6.998   1.985
 5261TIP3    H215727   3.985   6.988   1.954
 5262TIP3   OH215728   3.162   6.577   2.015
 5262TIP3    H115729   3.159   6.488   2.050
 5262TIP3    H215730   3.089   6.623   2.057
 5263TIP3   OH215731   3.528   7.851   1.215
 5263TIP3    H115732   3.490   7.774   1.172
 5263TIP3    H215733   3.529   7.828   1.308
 5264TIP3   OH215734   3.805   7.994   2.001
 5264TIP3    H115735   3.799   7.922   1.938
 5264TIP3    H215736   3.780   8.072   1.951
 5265TIP3   OH215737   3.087   7.351   1.323
 5265TIP3    H115738   3.013   7.407   1.297
 5265TIP3    H215739   3.142   7.346   1.245
 5266TIP3   OH215740   3.068   7.178   0.986
 5266TIP3    H115741   3.114   7.238   1.045
 5266TIP3    H215742   3.135   7.114   0.961
 5267TIP3   OH215743   4.006   7.627   1.869
 5267TIP3    H115744   3.925   7.678   1.871
 5267TIP3    H215745   4.041   7.641   1.781
 5268TIP3   OH215746   3.472   7.439   1.260
 5268TIP3    H115747   3.420   7.466   1.337
 5268TIP3    H215748   3.559   7.419   1.295
 5269TIP3   OH215749   3.693   7.483   2.155
 5269TIP3    H115750   3.699   7.564   2.207
 5269TIP3    H215751   3.609   7.491   2.110
 5270TIP3   OH215752   2.709   7.433   1.628
 5270TIP3    H115753   2.667   7.373   1.566
 5270TIP3    H215754   2.787   7.386   1.657
 5271TIP3   OH215755   2.849   7.803   1.792
 5271TIP3    H115756   2.842   7.822   1.699
 5271TIP3    H215757   2.943   7.794   1.808
 5272TIP3   OH215758   2.820   7.408   1.968
 5272TIP3    H115759   2.853   7.366   1.888
 5272TIP3    H215760   2.882   7.479   1.985
 5273TIP3   OH215761   3.021   7.839   2.303
 5273TIP3    H115762   2.960   7.910   2.321
 5273TIP3    H215763   2.968   7.771   2.262
 5274TIP3   OH215764   3.265   7.320   1.126
 5274TIP3    H115765   3.342   7.354   1.172
 5274TIP3    H215766   3.283   7.338   1.033
 5275TIP3   OH215767   2.724   7.526   2.431
 5275TIP3    H115768   2.733   7.607   2.481
 5275TIP3    H215769   2.637   7.492   2.455
 5276TIP3   OH215770   3.800   6.534   1.160
 5276TIP3    H115771   3.718   6.555   1.204
 5276TIP3    H215772   3.819   6.611   1.106
 5277TIP3   OH215773   2.569   7.276   1.440
 5277TIP3    H115774   2.499   7.326   1.397
 5277TIP3    H215775   2.527   7.193   1.464
 5278TIP3   OH215776   2.390   7.622   2.345
 5278TIP3    H115777   2.295   7.615   2.337
 5278TIP3    H215778   2.417   7.538   2.382
 5279TIP3   OH215779   3.949   7.451   2.339
 5279TIP3    H115780   3.866   7.460   2.292
 5279TIP3    H215781   3.968   7.357   2.336
 5280TIP3   OH215782   2.580   7.805   2.296
 5280TIP3    H115783   2.529   7.875   2.336
 5280TIP3    H215784   2.521   7.730   2.295
 5281TIP3   OH215785   2.936   6.684   2.140
 5281TIP3    H115786   2.851   6.651   2.112
 5281TIP3    H215787   2.915   6.764   2.188
 5282TIP3   OH215788   3.486   6.792   2.344
 5282TIP3    H115789   3.558   6.769   2.404
 5282TIP3    H215790   3.407   6.777   2.396
 5283TIP3   OH215791   3.707   7.226   2.256
 5283TIP3    H115792   3.663   7.223   2.341
 5283TIP3    H215793   3.687   7.314   2.223
 5284TIP3   OH215794   3.320   7.374   0.872
 5284TIP3    H115795   3.286   7.359   0.784
 5284TIP3    H215796   3.398   7.429   0.859
 5285TIP3   OH215797   3.108   6.710   1.125
 5285TIP3    H115798   3.056   6.727   1.203
 5285TIP3    H215799   3.064   6.635   1.084
 5286TIP3   OH215800   2.876   7.213   2.151
 5286TIP3    H115801   2.827   7.224   2.233
 5286TIP3    H215802   2.849   7.288   2.097
 5287TIP3   OH215803   2.760   7.088   1.659
 5287TIP3    H115804   2.669   7.066   1.681
 5287TIP3    H215805   2.771   7.056   1.569
 5288TIP3   OH215806   3.256   7.142   1.409
 5288TIP3    H115807   3.196   7.212   1.383
 5288TIP3    H215808   3.302   7.118   1.329
 5289TIP3   OH215809   3.436   7.420   2.461
 5289TIP3    H115810   3.412   7.356   2.527
 5289TIP3    H215811   3.526   7.445   2.482
 5290TIP3   OH215812   3.461   7.176   1.595
 5290TIP3    H115813   3.383   7.182   1.540
 5290TIP3    H215814   3.510   7.101   1.560
 5291TIP3   OH215815   2.709   7.219   2.370
 5291TIP3    H115816   2.719   7.281   2.442
 5291TIP3    H215817   2.694   7.135   2.413
 5292TIP3   OH215818   2.751   6.709   1.086
 5292TIP3    H115819   2.737   6.715   1.181
 5292TIP3    H215820   2.676   6.755   1.048
 5293TIP3   OH215821   2.299   6.753   1.946
 5293TIP3    H115822   2.374   6.785   1.996
 5293TIP3    H215823   2.335   6.728   1.861
 5294TIP3   OH215824   2.217   6.723   1.456
 5294TIP3    H115825   2.260   6.757   1.377
 5294TIP3    H215826   2.155   6.792   1.480
 5295TIP3   OH215827   3.423   7.427   2.045
 5295TIP3    H115828   3.443   7.362   1.978
 5295TIP3    H215829   3.396   7.376   2.121
 5296TIP3   OH215830   3.106   6.899   1.771
 5296TIP3    H115831   3.018   6.891   1.806
 5296TIP3    H215832   3.136   6.986   1.799
 5297TIP3   OH215833   2.522   6.968   1.725
 5297TIP3    H115834   2.433   6.975   1.691
 5297TIP3    H215835   2.546   6.876   1.713
 5298TIP3   OH215836   2.785   6.975   1.413
 5298TIP3    H115837   2.877   6.971   1.384
 5298TIP3    H215838   2.736   6.990   1.332
 5299TIP3   OH215839   3.597   6.996   1.946
 5299TIP3    H115840   3.572   7.014   2.037
 5299TIP3    H215841   3.567   6.906   1.931
 5300TIP3   OH215842   2.644   6.989   1.181
 5300TIP3    H115843   2.577   6.943   1.131
 5300TIP3    H215844   2.696   7.034   1.115
 5301TIP3   OH215845   2.730   7.745   2.602
 5301TIP3    H115846   2.808   7.759   2.655
 5301TIP3    H215847   2.657   7.754   2.664
 5302TIP3   OH215848   3.172   7.172   1.839
 5302TIP3    H115849   3.265   7.193   1.834
 5302TIP3    H215850   3.154   7.165   1.933
 5303TIP3   OH215851   2.651   6.714   1.708
 5303TIP3    H115852   2.626   6.639   1.762
 5303TIP3    H215853   2.658   6.679   1.619
 5304TIP3   OH215854   3.140   7.152   2.109
 5304TIP3    H115855   3.054   7.188   2.132
 5304TIP3    H215856   3.202   7.204   2.160
 5305TIP3   OH215857   2.888   7.520   1.223
 5305TIP3    H115858   2.817   7.460   1.199
 5305TIP3    H215859   2.856   7.566   1.300
 5306TIP3   OH215860   3.775   7.780   1.824
 5306TIP3    H115861   3.814   7.820   1.747
 5306TIP3    H215862   3.698   7.735   1.792
 5307TIP3   OH215863   3.372   6.777   1.138
 5307TIP3    H115864   3.278   6.764   1.140
 5307TIP3    H215865   3.384   6.869   1.163
 5308TIP3   OH215866   3.293   7.811   2.250
 5308TIP3    H115867   3.340   7.778   2.326
 5308TIP3    H215868   3.200   7.806   2.275
 5309TIP3   OH215869   3.417   7.050   1.195
 5309TIP3    H115870   3.508   7.071   1.217
 5309TIP3    H215871   3.403   7.091   1.110
 5310TIP3   OH215872   2.576   7.494   1.865
 5310TIP3    H115873   2.614   7.484   1.778
 5310TIP3    H215874   2.643   7.458   1.924
 5311TIP3   OH215875   3.041   7.685   1.063
 5311TIP3    H115876   2.981   7.759   1.055
 5311TIP3    H215877   2.993   7.620   1.114
 5312TIP3   OH215878   2.474   7.412   2.504
 5312TIP3    H115879   2.477   7.395   2.598
 5312TIP3    H215880   2.396   7.367   2.473
 5313TIP3   OH215881   3.193   7.546   2.528
 5313TIP3    H115882   3.126   7.493   2.485
 5313TIP3    H215883   3.275   7.520   2.485
 5314TIP3   OH215884   3.815   7.223   1.068
 5314TIP3    H115885   3.745   7.175   1.024
 5314TIP3    H215886   3.815   7.308   1.026
 5315TIP3   OH215887   4.067   8.005   2.091
 5315TIP3    H115888   3.974   8.018   2.071
 5315TIP3    H215889   4.109   8.002   2.006
 5316TIP3   OH215890   3.551   7.640   1.716
 5316TIP3    H115891   3.463   7.622   1.749
 5316TIP3    H215892   3.584   7.554   1.688
 5317TIP3   OH215893   2.265   7.144   1.231
 5317TIP3    H115894   2.309   7.227   1.247
 5317TIP3    H215895   2.189   7.146   1.289
 5318TIP3   OH215896   2.782   7.633   1.450
 5318TIP3    H115897   2.719   7.703   1.465
 5318TIP3    H215898   2.761   7.568   1.516
 5319TIP3   OH215899   3.342   7.843   1.982
 5319TIP3    H115900   3.322   7.831   2.075
 5319TIP3    H215901   3.437   7.834   1.977
 5320TIP3   OH215902   3.274   7.704   0.881
 5320TIP3    H115903   3.342   7.676   0.943
 5320TIP3    H215904   3.192   7.695   0.930
 5321TIP3   OH215905   2.665   6.971   2.494
 5321TIP3    H115906   2.570   6.981   2.501
 5321TIP3    H215907   2.689   6.923   2.573
 5322TIP3   OH215908   3.464   7.625   1.060
 5322TIP3    H115909   3.456   7.556   1.127
 5322TIP3    H215910   3.558   7.629   1.041
 5323TIP3   OH215911   2.650   7.651   0.882
 5323TIP3    H115912   2.642   7.562   0.849
 5323TIP3    H215913   2.742   7.675   0.864
 5324TIP3   OH215914   2.361   7.401   1.304
 5324TIP3    H115915   2.292   7.443   1.356
 5324TIP3    H215916   2.377   7.461   1.232
 5325TIP3   OH215917   3.517   7.027   2.204
 5325TIP3    H115918   3.591   7.072   2.243
 5325TIP3    H215919   3.505   6.949   2.258
 5326TIP3   OH215920   3.108   6.920   1.492
 5326TIP3    H115921   3.159   6.997   1.466
 5326TIP3    H215922   3.112   6.921   1.588
 5327TIP3   OH215923   3.355   7.258   2.249
 5327TIP3    H115924   3.382   7.305   2.328
 5327TIP3    H215925   3.405   7.177   2.251
 5328TIP3   OH215926   2.713   6.703   1.366
 5328TIP3    H115927   2.700   6.795   1.391
 5328TIP3    H215928   2.807   6.690   1.371
 5329TIP3   OH215929   3.973   7.179   2.244
 5329TIP3    H115930   3.878   7.184   2.253
 5329TIP3    H215931   3.986   7.128   2.164
 5330TIP3   OH215932   3.637   7.385   1.644
 5330TIP3    H115933   3.567   7.321   1.631
 5330TIP3    H215934   3.705   7.338   1.692
 5331TIP3   OH215935   2.370   7.598   1.088
 5331TIP3    H115936   2.414   7.680   1.067
 5331TIP3    H215937   2.423   7.531   1.045
 5332TIP3   OH215938   2.280   6.863   1.231
 5332TIP3    H115939   2.284   6.958   1.232
 5332TIP3    H215940   2.210   6.843   1.168
 5333TIP3   OH215941   2.679   6.593   2.099
 5333TIP3    H115942   2.648   6.559   2.015
 5333TIP3    H215943   2.671   6.519   2.160
 5334TIP3   OH215944   2.518   7.694   2.785
 5334TIP3    H115945   2.566   7.613   2.772
 5334TIP3    H215946   2.452   7.695   2.716
 5335TIP3   OH215947   2.509   7.384   0.998
 5335TIP3    H115948   2.569   7.365   1.070
 5335TIP3    H215949   2.566   7.386   0.920
 5336TIP3   OH215950   3.097   7.803   2.560
 5336TIP3    H115951   3.076   7.826   2.469
 5336TIP3    H215952   3.144   7.720   2.553
 5337TIP3   OH215953   2.920   7.603   0.823
 5337TIP3    H115954   2.983   7.621   0.892
 5337TIP3    H215955   2.943   7.515   0.792
 5338TIP3   OH215956   3.600   7.848   2.121
 5338TIP3    H115957   3.670   7.901   2.085
 5338TIP3    H215958   3.569   7.896   2.198
 5339TIP3   OH215959   2.675   7.469   2.758
 5339TIP3    H115960   2.754   7.424   2.728
 5339TIP3    H215961   2.696   7.498   2.847
 5340TIP3   OH215962   2.696   7.323   1.189
 5340TIP3    H115963   2.668   7.287   1.273
 5340TIP3    H215964   2.731   7.248   1.141
 5341TIP3   OH215965   2.977   7.405   2.405
 5341TIP3    H115966   2.894   7.453   2.405
 5341TIP3    H215967   3.023   7.436   2.327
 5342TIP3   OH215968   2.796   7.134   1.008
 5342TIP3    H115969   2.769   7.137   0.916
 5342TIP3    H215970   2.891   7.145   1.005
 5343TIP3   OH215971   3.441   7.745   2.474
 5343TIP3    H115972   3.521   7.793   2.452
 5343TIP3    H215973   3.459   7.705   2.558
 5344TIP3   OH215974   3.545   7.478   0.754
 5344TIP3    H115975   3.549   7.388   0.721
 5344TIP3    H215976   3.489   7.524   0.691
 5345TIP3   OH215977   3.086   7.185   2.527
 5345TIP3    H115978   3.090   7.110   2.467
 5345TIP3    H215979   3.048   7.255   2.475
 5346TIP3   OH215980   3.094   6.980   2.329
 5346TIP3    H115981   3.120   7.021   2.246
 5346TIP3    H215982   3.003   6.954   2.315
 5347TIP3   OH215983   3.146   7.495   2.212
 5347TIP3    H115984   3.239   7.510   2.195
 5347TIP3    H215985   3.101   7.531   2.136
 5348TIP3   OH215986   3.702   7.451   2.569
 5348TIP3    H115987   3.742   7.366   2.588
 5348TIP3    H215988   3.775   7.506   2.539
 5349TIP3   OH215989   3.751   7.703   2.315
 5349TIP3    H115990   3.691   7.763   2.270
 5349TIP3    H215991   3.838   7.729   2.284
 5350TIP3   OH215992   2.959   7.277   2.762
 5350TIP3    H115993   2.898   7.207   2.787
 5350TIP3    H215994   2.995   7.248   2.678
 5351TIP3   OH215995   3.218   6.746   2.420
 5351TIP3    H115996   3.177   6.828   2.392
 5351TIP3    H215997   3.150   6.680   2.410
 5352TIP3   OH215998   3.346   7.221   2.625
 5352TIP3    H115999   3.338   7.209   2.720
 5352TIP3    H216000   3.258   7.202   2.591
 5353TIP3   OH216001   3.586   7.161   2.489
 5353TIP3    H116002   3.509   7.165   2.546
 5353TIP3    H216003   3.659   7.142   2.548
 5354TIP3   OH216004   3.819   7.138   2.641
 5354TIP3    H116005   3.837   7.045   2.648
 5354TIP3    H216006   3.816   7.169   2.732
 5355TIP3   OH216007   2.811   7.048   2.826
 5355TIP3    H116008   2.816   6.959   2.792
 5355TIP3    H216009   2.845   7.042   2.915
 5356TIP3   OH216010   3.288   6.733   2.686
 5356TIP3    H116011   3.359   6.668   2.684
 5356TIP3    H216012   3.258   6.739   2.596
 5357TIP3   OH216013   3.375   6.950   2.831
 5357TIP3    H116014   3.348   6.876   2.777
 5357TIP3    H216015   3.300   7.010   2.831
 5358TIP3   OH216016   2.105   7.531   1.139
 5358TIP3    H116017   2.190   7.562   1.108
 5358TIP3    H216018   2.086   7.455   1.083
 5359TIP3   OH216019   6.780   0.131   2.382
 5359TIP3    H116020   6.702   0.135   2.326
 5359TIP3    H216021   6.843   0.188   2.339
 5360TIP3   OH216022   3.738   7.654   1.058
 5360TIP3    H116023   3.734   7.744   1.088
 5360TIP3    H216024   3.794   7.609   1.121
 5361TIP3   OH216025   3.890   7.506   1.228
 5361TIP3    H116026   3.830   7.466   1.292
 5361TIP3    H216027   3.958   7.546   1.282
 5362TIP3   OH216028   3.942   7.903   1.642
 5362TIP3    H116029   3.999   7.829   1.619
 5362TIP3    H216030   3.946   7.961   1.566
 5363TIP3   OH216031   3.809   7.465   0.868
 5363TIP3    H116032   3.724   7.469   0.824
 5363TIP3    H216033   3.804   7.530   0.938
 5364TIP3   OH216034   3.612   7.086   0.953
 5364TIP3    H116035   3.588   7.134   0.874
 5364TIP3    H216036   3.611   6.994   0.926
 5365TIP3   OH216037   3.710   7.364   1.378
 5365TIP3    H116038   3.703   7.270   1.364
 5365TIP3    H216039   3.693   7.375   1.472
 5366TIP3   OH216040   2.318   7.399   2.135
 5366TIP3    H116041   2.312   7.375   2.043
 5366TIP3    H216042   2.412   7.408   2.151
 5367TIP3   OH216043   4.000   7.782   2.234
 5367TIP3    H116044   4.061   7.712   2.213
 5367TIP3    H216045   4.024   7.854   2.175
 5368TIP3   OH216046   4.161   7.564   2.206
 5368TIP3    H116047   4.089   7.522   2.254
 5368TIP3    H216048   4.238   7.510   2.226
 5369TIP3   OH216049   3.593   6.823   0.858
 5369TIP3    H116050   3.649   6.777   0.920
 5369TIP3    H216051   3.516   6.766   0.848
 5370TIP3   OH216052   3.685   7.099   1.286
 5370TIP3    H116053   3.721   7.012   1.300
 5370TIP3    H216054   3.735   7.134   1.212
 5371TIP3   OH216055   3.838   7.242   1.767
 5371TIP3    H116056   3.919   7.260   1.718
 5371TIP3    H216057   3.854   7.280   1.854
 5372TIP3   OH216058   3.917   7.395   1.993
 5372TIP3    H116059   3.843   7.424   2.046
 5372TIP3    H216060   3.950   7.476   1.952
 5373TIP3   OH216061   2.548   7.104   2.768
 5373TIP3    H116062   2.642   7.101   2.787
 5373TIP3    H216063   2.514   7.023   2.805
 5374TIP3   OH216064   4.380   7.005   2.527
 5374TIP3    H116065   4.445   6.947   2.490
 5374TIP3    H216066   4.344   7.053   2.452
 5375TIP3   OH216067   3.784   6.842   1.316
 5375TIP3    H116068   3.840   6.814   1.389
 5375TIP3    H216069   3.719   6.772   1.308
 5376TIP3   OH216070   2.515   6.818   2.106
 5376TIP3    H116071   2.568   6.739   2.117
 5376TIP3    H216072   2.579   6.889   2.097
 5377TIP3   OH216073   2.297   7.076   2.177
 5377TIP3    H116074   2.347   7.066   2.095
 5377TIP3    H216075   2.323   7.162   2.210
 5378TIP3   OH216076   4.232   7.113   2.323
 5378TIP3    H116077   4.146   7.152   2.338
 5378TIP3    H216078   4.213   7.032   2.275
 5379TIP3   OH216079   3.823   6.751   1.000
 5379TIP3    H116080   3.872   6.694   0.940
 5379TIP3    H216081   3.846   6.840   0.973
 5380TIP3   OH216082   2.287   6.599   1.687
 5380TIP3    H116083   2.201   6.582   1.726
 5380TIP3    H216084   2.268   6.650   1.608
 5381TIP3   OH216085   2.503   6.648   2.503
 5381TIP3    H116086   2.455   6.643   2.586
 5381TIP3    H216087   2.447   6.699   2.445
 5382TIP3   OH216088   4.148   6.862   2.226
 5382TIP3    H116089   4.058   6.849   2.194
 5382TIP3    H216090   4.188   6.776   2.222
 5383TIP3   OH216091   3.380   6.661   1.738
 5383TIP3    H116092   3.314   6.711   1.787
 5383TIP3    H216093   3.426   6.611   1.805
 5384TIP3   OH216094   3.847   6.713   1.727
 5384TIP3    H116095   3.909   6.737   1.658
 5384TIP3    H216096   3.789   6.788   1.734
 5385TIP3   OH216097   3.980   6.775   1.502
 5385TIP3    H116098   4.048   6.717   1.468
 5385TIP3    H216099   4.016   6.863   1.493
 5386TIP3   OH216100   2.593   6.489   1.857
 5386TIP3    H116101   2.503   6.456   1.869
 5386TIP3    H216102   2.646   6.410   1.849
 5387TIP3   OH216103   2.415   6.406   1.519
 5387TIP3    H116104   2.434   6.454   1.439
 5387TIP3    H216105   2.376   6.472   1.577
 5388TIP3   OH216106   3.077   6.565   1.746
 5388TIP3    H116107   3.051   6.656   1.733
 5388TIP3    H216108   3.112   6.563   1.836
 5389TIP3   OH216109   3.573   6.637   1.290
 5389TIP3    H116110   3.506   6.675   1.232
 5389TIP3    H216111   3.539   6.551   1.313
 5390TIP3   OH216112   2.514   6.527   1.276
 5390TIP3    H116113   2.562   6.466   1.220
 5390TIP3    H216114   2.581   6.586   1.310
 5391TIP3   OH216115   2.985   6.709   1.374
 5391TIP3    H116116   3.028   6.629   1.403
 5391TIP3    H216117   3.033   6.779   1.419
 5392TIP3   OH216118   2.819   6.779   2.740
 5392TIP3    H116119   2.783   6.713   2.800
 5392TIP3    H216120   2.911   6.785   2.764
 5393TIP3   OH216121   3.068   6.782   2.859
 5393TIP3    H116122   3.147   6.759   2.810
 5393TIP3    H216123   3.060   6.713   2.925
 5394TIP3   OH216124   3.891   6.871   2.656
 5394TIP3    H116125   3.908   6.835   2.743
 5394TIP3    H216126   3.976   6.868   2.612
 5395TIP3   OH216127   4.956   7.839   0.925
 5395TIP3    H116128   5.012   7.849   0.848
 5395TIP3    H216129   4.870   7.817   0.889
 5396TIP3   OH216130   5.003   7.767   1.357
 5396TIP3    H116131   5.086   7.772   1.405
 5396TIP3    H216132   4.980   7.674   1.358
 5397TIP3   OH216133   4.373   7.646   1.679
 5397TIP3    H116134   4.406   7.589   1.749
 5397TIP3    H216135   4.453   7.681   1.638
 5398TIP3   OH216136   8.128   0.021   0.905
 5398TIP3    H116137   8.205  -0.015   0.950
 5398TIP3    H216138   8.154   0.111   0.883
 5399TIP3   OH216139   4.425   8.012   1.463
 5399TIP3    H116140   4.375   7.939   1.427
 5399TIP3    H216141   4.486   8.035   1.393
 5400TIP3   OH216142   4.040   7.259   1.218
 5400TIP3    H116143   4.006   7.342   1.252
 5400TIP3    H216144   3.968   7.222   1.168
 5401TIP3   OH216145   4.113   7.578   1.372
 5401TIP3    H116146   4.168   7.504   1.400
 5401TIP3    H216147   4.176   7.646   1.349
 5402TIP3   OH216148   4.897   8.022   1.357
 5402TIP3    H116149   4.925   7.933   1.335
 5402TIP3    H216150   4.978   8.067   1.382
 5403TIP3   OH216151   5.889   7.336   1.427
 5403TIP3    H116152   5.912   7.414   1.477
 5403TIP3    H216153   5.910   7.358   1.337
 5404TIP3   OH216154   5.337   7.499   1.416
 5404TIP3    H116155   5.412   7.443   1.437
 5404TIP3    H216156   5.284   7.446   1.356
 5405TIP3   OH216157   4.641   7.140   1.358
 5405TIP3    H116158   4.616   7.214   1.302
 5405TIP3    H216159   4.595   7.065   1.320
 5406TIP3   OH216160   5.358   7.254   0.934
 5406TIP3    H116161   5.416   7.249   1.010
 5406TIP3    H216162   5.352   7.347   0.915
 5407TIP3   OH216163   4.263   7.370   1.472
 5407TIP3    H116164   4.348   7.362   1.515
 5407TIP3    H216165   4.263   7.302   1.404
 5408TIP3   OH216166   4.705   7.555   1.315
 5408TIP3    H116167   4.791   7.526   1.346
 5408TIP3    H216168   4.654   7.474   1.307
 5409TIP3   OH216169   5.975   7.554   1.568
 5409TIP3    H116170   5.885   7.585   1.576
 5409TIP3    H216171   6.016   7.577   1.651
 5410TIP3   OH216172   4.629   7.152   1.779
 5410TIP3    H116173   4.579   7.191   1.707
 5410TIP3    H216174   4.575   7.166   1.856
 5411TIP3   OH216175   7.703   0.042   0.771
 5411TIP3    H116176   7.656  -0.038   0.749
 5411TIP3    H216177   7.720   0.035   0.865
 5412TIP3   OH216178   4.742   7.928   1.563
 5412TIP3    H116179   4.685   7.996   1.600
 5412TIP3    H216180   4.791   7.973   1.495
 5413TIP3   OH216181   5.565   7.340   1.370
 5413TIP3    H116182   5.549   7.277   1.299
 5413TIP3    H216183   5.631   7.400   1.333
 5414TIP3   OH216184   4.508   7.268   1.561
 5414TIP3    H116185   4.565   7.343   1.578
 5414TIP3    H216186   4.552   7.220   1.491
 5415TIP3   OH216187   7.405   0.105   1.667
 5415TIP3    H116188   7.350   0.079   1.593
 5415TIP3    H216189   7.343   0.124   1.737
 5416TIP3   OH216190   4.003   7.777   1.049
 5416TIP3    H116191   3.947   7.752   0.976
 5416TIP3    H216192   3.988   7.870   1.061
 5417TIP3   OH216193   5.700   7.196   1.564
 5417TIP3    H116194   5.617   7.228   1.530
 5417TIP3    H216195   5.766   7.234   1.506
 5418TIP3   OH216196   4.967   6.841   1.521
 5418TIP3    H116197   4.959   6.749   1.543
 5418TIP3    H216198   4.889   6.881   1.558
 5419TIP3   OH216199   8.389   0.253   1.527
 5419TIP3    H116200   8.326   0.225   1.461
 5419TIP3    H216201   8.414   0.342   1.501
 5420TIP3   OH216202   4.885   7.589   0.711
 5420TIP3    H116203   4.811   7.647   0.728
 5420TIP3    H216204   4.919   7.618   0.627
 5421TIP3   OH216205   5.803   7.898   1.374
 5421TIP3    H116206   5.709   7.918   1.369
 5421TIP3    H216207   5.837   7.919   1.287
 5422TIP3   OH216208   5.282   7.715   0.611
 5422TIP3    H116209   5.213   7.771   0.647
 5422TIP3    H216210   5.310   7.662   0.686
 5423TIP3   OH216211   5.465   7.746   1.656
 5423TIP3    H116212   5.475   7.822   1.714
 5423TIP3    H216213   5.379   7.757   1.617
 5424TIP3   OH216214   4.510   7.700   1.198
 5424TIP3    H116215   4.462   7.644   1.137
 5424TIP3    H216216   4.581   7.645   1.230
 5425TIP3   OH216217   7.467   0.085   1.303
 5425TIP3    H116218   7.466   0.179   1.286
 5425TIP3    H216219   7.560   0.062   1.310
 5426TIP3   OH216220   4.589   7.708   1.517
 5426TIP3    H116221   4.629   7.672   1.438
 5426TIP3    H216222   4.638   7.789   1.534
 5427TIP3   OH216223   7.650   0.165   1.787
 5427TIP3    H116224   7.636   0.259   1.798
 5427TIP3    H216225   7.569   0.134   1.745
 5428TIP3   OH216226   4.527   7.779   1.946
 5428TIP3    H116227   4.530   7.871   1.974
 5428TIP3    H216228   4.434   7.759   1.939
 5429TIP3   OH216229   4.375   7.569   1.014
 5429TIP3    H116230   4.313   7.619   0.961
 5429TIP3    H216231   4.334   7.482   1.023
 5430TIP3   OH216232   4.170   7.950   1.845
 5430TIP3    H116233   4.111   7.929   1.772
 5430TIP3    H216234   4.206   7.865   1.872
 5431TIP3   OH216235   5.739   7.696   1.836
 5431TIP3    H116236   5.683   7.705   1.759
 5431TIP3    H216237   5.758   7.602   1.841
 5432TIP3   OH216238   7.212   0.123   1.857
 5432TIP3    H116239   7.255   0.090   1.935
 5432TIP3    H216240   7.134   0.068   1.847
 5433TIP3   OH216241   4.731   6.938   1.633
 5433TIP3    H116242   4.646   6.908   1.601
 5433TIP3    H216243   4.713   7.020   1.677
 5434TIP3   OH216244   5.278   7.055   1.835
 5434TIP3    H116245   5.350   7.031   1.894
 5434TIP3    H216246   5.199   7.034   1.884
 5435TIP3   OH216247   5.492   7.489   1.744
 5435TIP3    H116248   5.456   7.488   1.833
 5435TIP3    H216249   5.474   7.577   1.712
 5436TIP3   OH216250   4.819   6.997   0.610
 5436TIP3    H116251   4.813   6.996   0.705
 5436TIP3    H216252   4.786   6.911   0.584
 5437TIP3   OH216253   4.669   7.475   1.639
 5437TIP3    H116254   4.628   7.479   1.726
 5437TIP3    H216255   4.648   7.560   1.600
 5438TIP3   OH216256   4.521   7.363   1.248
 5438TIP3    H116257   4.436   7.325   1.267
 5438TIP3    H216258   4.533   7.350   1.154
 5439TIP3   OH216259   5.270   7.481   0.799
 5439TIP3    H116260   5.192   7.512   0.844
 5439TIP3    H216261   5.242   7.401   0.755
 5440TIP3   OH216262   5.232   7.694   1.964
 5440TIP3    H116263   5.207   7.625   2.026
 5440TIP3    H216264   5.325   7.710   1.983
 5441TIP3   OH216265   5.072   7.421   1.142
 5441TIP3    H116266   5.078   7.444   1.049
 5441TIP3    H216267   5.146   7.362   1.156
 5442TIP3   OH216268   4.505   7.477   1.862
 5442TIP3    H116269   4.551   7.533   1.925
 5442TIP3    H216270   4.490   7.395   1.909
 5443TIP3   OH216271   4.430   6.900   0.637
 5443TIP3    H116272   4.506   6.878   0.692
 5443TIP3    H216273   4.427   6.995   0.637
 5444TIP3   OH216274   4.093   7.019   1.470
 5444TIP3    H116275   4.163   7.050   1.526
 5444TIP3    H216276   4.117   7.048   1.382
 5445TIP3   OH216277   4.119   6.978   0.981
 5445TIP3    H116278   4.155   6.910   0.924
 5445TIP3    H216279   4.034   7.000   0.942
 5446TIP3   OH216280   5.201   7.695   1.553
 5446TIP3    H116281   5.246   7.632   1.497
 5446TIP3    H216282   5.170   7.643   1.627
 5447TIP3   OH216283   4.903   7.220   1.319
 5447TIP3    H116284   4.822   7.177   1.349
 5447TIP3    H216285   4.973   7.164   1.353
 5448TIP3   OH216286   4.309   7.183   1.284
 5448TIP3    H116287   4.234   7.181   1.225
 5448TIP3    H216288   4.359   7.104   1.261
 5449TIP3   OH216289   4.567   7.292   0.994
 5449TIP3    H116290   4.662   7.284   1.000
 5449TIP3    H216291   4.553   7.350   0.919
 5450TIP3   OH216292   5.320   7.189   1.483
 5450TIP3    H116293   5.304   7.236   1.564
 5450TIP3    H216294   5.237   7.145   1.464
 5451TIP3   OH216295   4.428   7.333   0.747
 5451TIP3    H116296   4.394   7.250   0.779
 5451TIP3    H216297   4.473   7.311   0.666
 5452TIP3   OH216298   7.344   0.012   2.072
 5452TIP3    H116299   7.421   0.030   2.126
 5452TIP3    H216300   7.271   0.012   2.135
 5453TIP3   OH216301   4.961   7.499   1.375
 5453TIP3    H116302   4.994   7.448   1.301
 5453TIP3    H216303   4.964   7.438   1.449
 5454TIP3   OH216304   4.466   6.964   1.241
 5454TIP3    H116305   4.436   6.887   1.290
 5454TIP3    H216306   4.472   6.934   1.150
 5455TIP3   OH216307   4.932   7.392   1.626
 5455TIP3    H116308   4.846   7.432   1.632
 5455TIP3    H216309   4.991   7.453   1.670
 5456TIP3   OH216310   4.727   7.814   0.765
 5456TIP3    H116311   4.682   7.795   0.682
 5456TIP3    H216312   4.658   7.814   0.830
 5457TIP3   OH216313   5.550   7.969   1.319
 5457TIP3    H116314   5.573   8.028   1.247
 5457TIP3    H216315   5.466   8.002   1.351
 5458TIP3   OH216316   7.920   0.100   1.731
 5458TIP3    H116317   7.957   0.085   1.818
 5458TIP3    H216318   7.828   0.121   1.748
 5459TIP3   OH216319   4.326   7.758   1.385
 5459TIP3    H116320   4.382   7.747   1.308
 5459TIP3    H216321   4.381   7.730   1.458
 5460TIP3   OH216322   4.253   7.719   1.980
 5460TIP3    H116323   4.270   7.693   2.071
 5460TIP3    H216324   4.176   7.668   1.954
 5461TIP3   OH216325   4.999   7.835   1.995
 5461TIP3    H116326   4.940   7.789   1.935
 5461TIP3    H216327   5.086   7.800   1.975
 5462TIP3   OH216328   0.195   0.252   1.626
 5462TIP3    H116329   0.137   0.302   1.683
 5462TIP3    H216330   0.235   0.317   1.569
 5463TIP3   OH216331   5.278   7.877   1.311
 5463TIP3    H116332   5.220   7.927   1.254
 5463TIP3    H216333   5.280   7.789   1.272
 5464TIP3   OH216334   4.083   7.392   0.818
 5464TIP3    H116335   4.126   7.454   0.759
 5464TIP3    H216336   3.995   7.429   0.831
 5465TIP3   OH216337   4.542   7.845   0.957
 5465TIP3    H116338   4.608   7.878   1.019
 5465TIP3    H216339   4.497   7.775   1.005
 5466TIP3   OH216340   7.979   0.064   1.464
 5466TIP3    H116341   7.958   0.070   1.558
 5466TIP3    H216342   8.027  -0.018   1.455
 5467TIP3   OH216343   4.461   7.226   1.986
 5467TIP3    H116344   4.366   7.232   1.991
 5467TIP3    H216345   4.486   7.172   2.061
 5468TIP3   OH216346   4.200   7.719   0.872
 5468TIP3    H116347   4.141   7.740   0.944
 5468TIP3    H216348   4.173   7.777   0.801
 5469TIP3   OH216349   5.280   7.307   1.725
 5469TIP3    H116350   5.367   7.346   1.738
 5469TIP3    H216351   5.284   7.223   1.771
 5470TIP3   OH216352   5.135   7.103   0.931
 5470TIP3    H116353   5.074   7.160   0.884
 5470TIP3    H216354   5.216   7.154   0.937
 5471TIP3   OH216355   4.830   7.263   1.056
 5471TIP3    H116356   4.905   7.292   1.005
 5471TIP3    H216357   4.864   7.250   1.144
 5472TIP3   OH216358   5.128   7.533   1.759
 5472TIP3    H116359   5.165   7.580   1.834
 5472TIP3    H216360   5.179   7.452   1.755
 5473TIP3   OH216361   4.990   6.995   1.134
 5473TIP3    H116362   5.036   7.026   1.212
 5473TIP3    H216363   5.042   7.028   1.061
 5474TIP3   OH216364   4.455   6.886   0.983
 5474TIP3    H116365   4.434   6.973   0.949
 5474TIP3    H216366   4.529   6.857   0.928
 5475TIP3   OH216367   5.751   7.419   1.737
 5475TIP3    H116368   5.659   7.443   1.742
 5475TIP3    H216369   5.753   7.341   1.681
 5476TIP3   OH216370   5.473   7.479   1.081
 5476TIP3    H116371   5.412   7.547   1.110
 5476TIP3    H216372   5.554   7.496   1.131
 5477TIP3   OH216373   4.125   7.859   0.647
 5477TIP3    H116374   4.154   7.950   0.643
 5477TIP3    H216375   4.187   7.812   0.591
 5478TIP3   OH216376   4.078   7.133   0.722
 5478TIP3    H116377   4.084   7.221   0.760
 5478TIP3    H216378   3.984   7.114   0.722
 5479TIP3   OH216379   4.466   6.858   1.602
 5479TIP3    H116380   4.435   6.824   1.518
 5479TIP3    H216381   4.460   6.783   1.662
 5480TIP3   OH216382   4.298   8.002   2.244
 5480TIP3    H116383   4.319   7.908   2.247
 5480TIP3    H216384   4.214   8.007   2.198
 5481TIP3   OH216385   7.726   0.074   2.037
 5481TIP3    H116386   7.702   0.100   1.948
 5481TIP3    H216387   7.775  -0.007   2.026
 5482TIP3   OH216388   8.208   0.116   1.686
 5482TIP3    H116389   8.267   0.173   1.637
 5482TIP3    H216390   8.121   0.153   1.671
 5483TIP3   OH216391   4.425   7.753   2.232
 5483TIP3    H116392   4.503   7.744   2.177
 5483TIP3    H216393   4.460   7.777   2.318
 5484TIP3   OH216394   4.585   7.636   0.592
 5484TIP3    H116395   4.582   7.594   0.678
 5484TIP3    H216396   4.641   7.580   0.539
 5485TIP3   OH216397   4.757   7.640   1.889
 5485TIP3    H116398   4.685   7.700   1.905
 5485TIP3    H216399   4.806   7.680   1.817
 5486TIP3   OH216400   8.097   0.041   2.000
 5486TIP3    H116401   8.170   0.015   1.944
 5486TIP3    H216402   8.104  -0.016   2.077
 5487TIP3   OH216403   4.884   7.436   2.019
 5487TIP3    H116404   4.888   7.359   1.963
 5487TIP3    H216405   4.845   7.504   1.964
 5488TIP3   OH216406   4.887   7.223   1.835
 5488TIP3    H116407   4.917   7.268   1.756
 5488TIP3    H216408   4.796   7.199   1.816
 5489TIP3   OH216409   4.911   7.766   1.705
 5489TIP3    H116410   4.994   7.763   1.658
 5489TIP3    H216411   4.857   7.826   1.654
 5490TIP3   OH216412   5.495   7.723   2.061
 5490TIP3    H116413   5.530   7.635   2.067
 5490TIP3    H216414   5.566   7.775   2.024
 5491TIP3   OH216415   5.524   7.963   1.828
 5491TIP3    H116416   5.467   8.023   1.780
 5491TIP3    H216417   5.611   7.977   1.790
 5492TIP3   OH216418   4.763   7.528   2.254
 5492TIP3    H116419   4.697   7.461   2.274
 5492TIP3    H216420   4.797   7.503   2.168
 5493TIP3   OH216421   5.016   6.994   1.914
 5493TIP3    H116422   4.975   7.076   1.887
 5493TIP3    H216423   4.948   6.928   1.900
 5494TIP3   OH216424   5.143   7.482   2.114
 5494TIP3    H116425   5.134   7.470   2.208
 5494TIP3    H216426   5.056   7.461   2.079
 5495TIP3   OH216427   5.395   7.443   1.992
 5495TIP3    H116428   5.316   7.437   2.045
 5495TIP3    H216429   5.465   7.413   2.049
 5496TIP3   OH216430   5.631   7.399   2.134
 5496TIP3    H116431   5.642   7.304   2.142
 5496TIP3    H216432   5.624   7.430   2.224
 5497TIP3   OH216433   4.601   7.305   2.316
 5497TIP3    H116434   4.609   7.217   2.280
 5497TIP3    H216435   4.639   7.299   2.404
 5498TIP3   OH216436   5.081   6.986   2.179
 5498TIP3    H116437   5.150   6.920   2.175
 5498TIP3    H216438   5.050   6.994   2.088
 5499TIP3   OH216439   5.174   7.204   2.319
 5499TIP3    H116440   5.144   7.131   2.265
 5499TIP3    H216441   5.101   7.266   2.319
 5500TIP3   OH216442   3.900   7.804   0.448
 5500TIP3    H116443   3.838   7.861   0.493
 5500TIP3    H216444   3.930   7.742   0.515
 5501TIP3   OH216445   0.093   0.391   1.857
 5501TIP3    H116446   0.024   0.383   1.923
 5501TIP3    H216447   0.129   0.479   1.870
 5502TIP3   OH216448   8.459   0.116   1.114
 5502TIP3    H116449   8.524   0.131   1.045
 5502TIP3    H216450   8.383   0.167   1.087
 5503TIP3   OH216451   5.476   7.708   0.845
 5503TIP3    H116452   5.560   7.662   0.856
 5503TIP3    H216453   5.479   7.779   0.908
 5504TIP3   OH216454   4.111   7.690   1.623
 5504TIP3    H116455   4.099   7.651   1.537
 5504TIP3    H216456   4.205   7.683   1.640
 5505TIP3   OH216457   0.100   0.010   1.720
 5505TIP3    H116458   0.172  -0.053   1.711
 5505TIP3    H216459   0.128   0.084   1.667
 5506TIP3   OH216460   5.959   7.827   1.730
 5506TIP3    H116461   5.883   7.781   1.765
 5506TIP3    H216462   6.034   7.773   1.755
 5507TIP3   OH216463   5.510   7.229   0.573
 5507TIP3    H116464   5.518   7.190   0.660
 5507TIP3    H216465   5.488   7.321   0.589
 5508TIP3   OH216466   5.709   7.521   1.226
 5508TIP3    H116467   5.786   7.563   1.186
 5508TIP3    H216468   5.663   7.592   1.270
 5509TIP3   OH216469   5.736   7.685   1.541
 5509TIP3    H116470   5.642   7.674   1.532
 5509TIP3    H216471   5.758   7.755   1.480
 5510TIP3   OH216472   4.338   7.359   2.253
 5510TIP3    H116473   4.432   7.355   2.270
 5510TIP3    H216474   4.304   7.277   2.290
 5511TIP3   OH216475   6.173   7.262   2.022
 5511TIP3    H116476   6.240   7.202   1.989
 5511TIP3    H216477   6.139   7.306   1.944
 5512TIP3   OH216478   5.589   7.098   0.799
 5512TIP3    H116479   5.636   7.054   0.870
 5512TIP3    H216480   5.509   7.046   0.787
 5513TIP3   OH216481   4.306   7.083   1.633
 5513TIP3    H116482   4.360   7.004   1.631
 5513TIP3    H216483   4.366   7.154   1.610
 5514TIP3   OH216484   4.078   7.343   1.677
 5514TIP3    H116485   4.132   7.342   1.598
 5514TIP3    H216486   4.117   7.411   1.732
 5515TIP3   OH216487   6.028   7.378   1.824
 5515TIP3    H116488   5.955   7.416   1.873
 5515TIP3    H216489   5.988   7.307   1.773
 5516TIP3   OH216490   4.058   6.833   1.205
 5516TIP3    H116491   3.965   6.846   1.225
 5516TIP3    H216492   4.078   6.899   1.139
 5517TIP3   OH216493   4.308   6.919   1.999
 5517TIP3    H116494   4.254   6.904   2.077
 5517TIP3    H216495   4.249   6.963   1.937
 5518TIP3   OH216496   5.920   7.125   1.734
 5518TIP3    H116497   5.833   7.127   1.693
 5518TIP3    H216498   5.947   7.034   1.728
 5519TIP3   OH216499   5.108   7.037   1.382
 5519TIP3    H116500   5.072   6.961   1.427
 5519TIP3    H216501   5.193   7.008   1.348
 5520TIP3   OH216502   5.640   6.977   1.301
 5520TIP3    H116503   5.678   7.056   1.262
 5520TIP3    H216504   5.547   6.998   1.311
 5521TIP3   OH216505   5.752   6.982   0.981
 5521TIP3    H116506   5.787   6.893   0.970
 5521TIP3    H216507   5.828   7.039   0.974
 5522TIP3   OH216508   4.378   6.743   1.370
 5522TIP3    H116509   4.289   6.710   1.373
 5522TIP3    H216510   4.433   6.664   1.363
 5523TIP3   OH216511   4.154   6.624   1.057
 5523TIP3    H116512   4.182   6.671   0.979
 5523TIP3    H216513   4.126   6.692   1.118
 5524TIP3   OH216514   4.858   6.792   1.259
 5524TIP3    H116515   4.881   6.859   1.195
 5524TIP3    H216516   4.895   6.823   1.342
 5525TIP3   OH216517   5.350   6.969   1.272
 5525TIP3    H116518   5.368   6.957   1.179
 5525TIP3    H216519   5.342   6.880   1.307
 5526TIP3   OH216520   5.485   6.798   0.820
 5526TIP3    H116521   5.407   6.791   0.765
 5526TIP3    H216522   5.487   6.717   0.870
 5527TIP3   OH216523   4.249   6.770   0.844
 5527TIP3    H116524   4.288   6.717   0.775
 5527TIP3    H216525   4.323   6.806   0.893
 5528TIP3   OH216526   4.823   7.040   0.886
 5528TIP3    H116527   4.848   6.957   0.928
 5528TIP3    H216528   4.834   7.106   0.955
 5529TIP3   OH216529   4.614   7.035   2.228
 5529TIP3    H116530   4.578   6.969   2.288
 5529TIP3    H216531   4.706   7.042   2.252
 5530TIP3   OH216532   4.861   7.040   2.351
 5530TIP3    H116533   4.940   7.018   2.301
 5530TIP3    H216534   4.855   6.971   2.417
 5531TIP3   OH216535   5.684   7.127   2.142
 5531TIP3    H116536   5.698   7.098   2.232
 5531TIP3    H216537   5.770   7.121   2.101
 5532TIP3   OH216538   6.170   7.907   1.079
 5532TIP3    H116539   6.209   7.944   1.157
 5532TIP3    H216540   6.170   7.979   1.016
 5533TIP3   OH216541   6.063   7.663   0.878
 5533TIP3    H116542   6.134   7.599   0.881
 5533TIP3    H216543   6.012   7.639   0.801
 5534TIP3   OH216544   6.336   7.441   1.269
 5534TIP3    H116545   6.301   7.518   1.225
 5534TIP3    H216546   6.319   7.458   1.362
 5535TIP3   OH216547   6.259   7.474   0.961
 5535TIP3    H116548   6.241   7.534   1.033
 5535TIP3    H216549   6.342   7.506   0.925
 5536TIP3   OH216550   6.790   7.190   0.986
 5536TIP3    H116551   6.756   7.154   0.904
 5536TIP3    H216552   6.714   7.198   1.043
 5537TIP3   OH216553   0.718   0.112   1.519
 5537TIP3    H116554   0.773   0.042   1.485
 5537TIP3    H216555   0.670   0.071   1.591
 5538TIP3   OH216556   0.365   0.187   1.332
 5538TIP3    H116557   0.274   0.196   1.304
 5538TIP3    H216558   0.362   0.122   1.402
 5539TIP3   OH216559   6.557   7.239   1.144
 5539TIP3    H116560   6.495   7.169   1.125
 5539TIP3    H216561   6.517   7.289   1.215
 5540TIP3   OH216562   7.118   7.291   1.329
 5540TIP3    H116563   7.171   7.358   1.371
 5540TIP3    H216564   7.027   7.320   1.342
 5541TIP3   OH216565   6.479   7.721   1.191
 5541TIP3    H116566   6.421   7.717   1.267
 5541TIP3    H216567   6.470   7.811   1.159
 5542TIP3   OH216568   6.328   7.730   1.420
 5542TIP3    H116569   6.284   7.812   1.401
 5542TIP3    H216570   6.264   7.679   1.470
 5543TIP3   OH216571   5.883   7.380   0.905
 5543TIP3    H116572   5.923   7.293   0.897
 5543TIP3    H216573   5.790   7.365   0.887
 5544TIP3   OH216574   6.014   7.993   1.516
 5544TIP3    H116575   6.020   7.943   1.597
 5544TIP3    H216576   5.928   7.971   1.480
 5545TIP3   OH216577   6.250   7.464   1.528
 5545TIP3    H116578   6.157   7.465   1.552
 5545TIP3    H216579   6.290   7.405   1.592
 5546TIP3   OH216580   6.381   7.053   1.076
 5546TIP3    H116581   6.334   7.017   1.000
 5546TIP3    H216582   6.357   6.995   1.148
 5547TIP3   OH216583   0.447   0.224   1.745
 5547TIP3    H116584   0.487   0.143   1.714
 5547TIP3    H216585   0.361   0.226   1.702
 5548TIP3   OH216586   6.280   7.994   1.734
 5548TIP3    H116587   6.353   7.932   1.738
 5548TIP3    H216588   6.277   8.032   1.822
 5549TIP3   OH216589   6.752   7.713   1.630
 5549TIP3    H116590   6.840   7.704   1.592
 5549TIP3    H216591   6.695   7.665   1.569
 5550TIP3   OH216592   6.670   7.515   1.186
 5550TIP3    H116593   6.716   7.545   1.108
 5550TIP3    H216594   6.593   7.571   1.192
 5551TIP3   OH216595   6.519   7.825   1.745
 5551TIP3    H116596   6.471   7.747   1.773
 5551TIP3    H216597   6.604   7.792   1.715
 5552TIP3   OH216598   6.853   7.366   1.323
 5552TIP3    H116599   6.800   7.428   1.273
 5552TIP3    H216600   6.821   7.280   1.297
 5553TIP3   OH216601   6.405   7.576   1.811
 5553TIP3    H116602   6.412   7.492   1.765
 5553TIP3    H216603   6.438   7.559   1.899
 5554TIP3   OH216604   6.985   7.294   1.606
 5554TIP3    H116605   7.052   7.227   1.595
 5554TIP3    H216606   6.903   7.249   1.584
 5555TIP3   OH216607   6.993   7.442   1.836
 5555TIP3    H116608   6.993   7.395   1.752
 5555TIP3    H216609   6.912   7.492   1.835
 5556TIP3   OH216610   5.907   7.962   1.135
 5556TIP3    H116611   5.885   7.947   1.043
 5556TIP3    H216612   6.002   7.954   1.138
 5557TIP3   OH216613   6.138   7.629   1.787
 5557TIP3    H116614   6.233   7.625   1.791
 5557TIP3    H216615   6.109   7.543   1.820
 5558TIP3   OH216616   6.168   7.238   1.042
 5558TIP3    H116617   6.231   7.184   1.090
 5558TIP3    H216618   6.219   7.314   1.014
 5559TIP3   OH216619   5.907   7.669   1.109
 5559TIP3    H116620   5.971   7.674   1.038
 5559TIP3    H216621   5.950   7.712   1.183
 5560TIP3   OH216622   6.075   7.157   1.507
 5560TIP3    H116623   6.035   7.141   1.592
 5560TIP3    H216624   6.012   7.213   1.461
 5561TIP3   OH216625   6.216   6.963   0.889
 5561TIP3    H116626   6.143   6.902   0.875
 5561TIP3    H216627   6.225   7.009   0.805
 5562TIP3   OH216628   6.385   7.302   1.719
 5562TIP3    H116629   6.349   7.239   1.781
 5562TIP3    H216630   6.479   7.303   1.737
 5563TIP3   OH216631   6.629   7.288   1.838
 5563TIP3    H116632   6.723   7.301   1.825
 5563TIP3    H216633   6.624   7.222   1.908
 5564TIP3   OH216634   1.881   0.519   5.760
 5564TIP3    H116635   1.873   0.454   5.830
 5564TIP3    H216636   1.896   0.602   5.805
 5565TIP3   OH216637   1.510   0.930   5.786
 5565TIP3    H116638   1.558   0.874   5.725
 5565TIP3    H216639   1.520   0.886   5.871
 5566TIP3   OH216640   8.104   7.973   6.346
 5566TIP3    H116641   8.025   8.000   6.299
 5566TIP3    H216642   8.156   8.053   6.353
 5567TIP3   OH216643   1.520   0.451   5.506
 5567TIP3    H116644   1.491   0.421   5.419
 5567TIP3    H216645   1.459   0.522   5.527
 5568TIP3   OH216646   1.895   0.764   5.901
 5568TIP3    H116647   1.804   0.753   5.929
 5568TIP3    H216648   1.896   0.847   5.854
 5569TIP3   OH216649   1.630   0.800   5.575
 5569TIP3    H116650   1.684   0.722   5.561
 5569TIP3    H216651   1.673   0.869   5.524
 5570TIP3   OH216652   1.768   0.573   5.512
 5570TIP3    H116653   1.694   0.513   5.506
 5570TIP3    H216654   1.817   0.543   5.588
 5571TIP3   OH216655   2.138   0.650   6.247
 5571TIP3    H116656   2.126   0.579   6.184
 5571TIP3    H216657   2.116   0.729   6.198
 5572TIP3   OH216658   2.344   0.327   6.074
 5572TIP3    H116659   2.256   0.364   6.070
 5572TIP3    H216660   2.378   0.335   5.985
 5573TIP3   OH216661   1.802   0.175   5.502
 5573TIP3    H116662   1.726   0.193   5.558
 5573TIP3    H216663   1.865   0.133   5.560
 5574TIP3   OH216664   1.645   0.750   6.012
 5574TIP3    H116665   1.639   0.827   6.068
 5574TIP3    H216666   1.656   0.677   6.072
 5575TIP3   OH216667   1.376   0.694   5.537
 5575TIP3    H116668   1.456   0.733   5.572
 5575TIP3    H216669   1.315   0.767   5.530
 5576TIP3   OH216670   1.942   0.609   4.932
 5576TIP3    H116671   1.944   0.703   4.913
 5576TIP3    H216672   2.031   0.579   4.912
 5577TIP3   OH216673   2.372   1.030   6.308
 5577TIP3    H116674   2.376   0.935   6.315
 5577TIP3    H216675   2.290   1.054   6.351
 5578TIP3   OH216676   1.479   0.803   6.393
 5578TIP3    H116677   1.469   0.893   6.421
 5578TIP3    H216678   1.425   0.752   6.454
 5579TIP3   OH216679   1.213   0.909   5.396
 5579TIP3    H116680   1.139   0.901   5.336
 5579TIP3    H216681   1.207   0.998   5.430
 5580TIP3   OH216682   1.489   0.846   5.024
 5580TIP3    H116683   1.516   0.767   4.978
 5580TIP3    H216684   1.495   0.823   5.117
 5581TIP3   OH216685   1.470   0.855   5.298
 5581TIP3    H116686   1.381   0.862   5.331
 5581TIP3    H216687   1.515   0.800   5.363
 5582TIP3   OH216688   2.244   0.142   6.594
 5582TIP3    H116689   2.175   0.208   6.589
 5582TIP3    H216690   2.199   0.059   6.583
 5583TIP3   OH216691   7.414   7.970   5.094
 5583TIP3    H116692   7.340   7.972   5.034
 5583TIP3    H216693   7.467   8.046   5.069
 5584TIP3   OH216694   2.084   1.362   6.397
 5584TIP3    H116695   2.080   1.381   6.303
 5584TIP3    H216696   2.162   1.409   6.427
 5585TIP3   OH216697   2.102   0.456   6.056
 5585TIP3    H116698   2.132   0.509   5.983
 5585TIP3    H216699   2.019   0.419   6.027
 5586TIP3   OH216700   1.408   0.403   5.254
 5586TIP3    H116701   1.333   0.462   5.261
 5586TIP3    H216702   1.370   0.319   5.228
 5587TIP3   OH216703   1.758   0.788   6.381
 5587TIP3    H116704   1.663   0.794   6.377
 5587TIP3    H216705   1.780   0.821   6.469
 5588TIP3   OH216706   7.862   7.876   5.232
 5588TIP3    H116707   7.792   7.820   5.197
 5588TIP3    H216708   7.846   7.962   5.193
 5589TIP3   OH216709   2.386   0.753   6.325
 5589TIP3    H116710   2.295   0.732   6.343
 5589TIP3    H216711   2.407   0.702   6.246
 5590TIP3   OH216712   1.848   0.669   5.208
 5590TIP3    H116713   1.830   0.606   5.277
 5590TIP3    H216714   1.869   0.615   5.131
 5591TIP3   OH216715   1.862   0.344   5.978
 5591TIP3    H116716   1.786   0.367   6.032
 5591TIP3    H216717   1.854   0.249   5.966
 5592TIP3   OH216718   1.271   0.903   6.219
 5592TIP3    H116719   1.313   0.968   6.163
 5592TIP3    H216720   1.344   0.858   6.261
 5593TIP3   OH216721   1.707   0.536   6.194
 5593TIP3    H116722   1.637   0.551   6.259
 5593TIP3    H216723   1.787   0.533   6.246
 5594TIP3   OH216724   1.638   0.425   5.093
 5594TIP3    H116725   1.703   0.388   5.153
 5594TIP3    H216726   1.557   0.426   5.144
 5595TIP3   OH216727   1.882   1.043   6.250
 5595TIP3    H116728   1.808   0.983   6.251
 5595TIP3    H216729   1.867   1.099   6.173
 5596TIP3   OH216730   1.954   0.907   4.902
 5596TIP3    H116731   2.014   0.977   4.877
 5596TIP3    H216732   1.880   0.916   4.841
 5597TIP3   OH216733   1.817   0.326   5.269
 5597TIP3    H116734   1.799   0.272   5.346
 5597TIP3    H216735   1.912   0.326   5.260
 5598TIP3   OH216736   1.194   0.582   5.278
 5598TIP3    H116737   1.147   0.577   5.361
 5598TIP3    H216738   1.208   0.675   5.263
 5599TIP3   OH216739   1.915   1.024   5.811
 5599TIP3    H116740   1.872   1.074   5.741
 5599TIP3    H216741   2.008   1.040   5.798
 5600TIP3   OH216742   1.161   0.560   5.004
 5600TIP3    H116743   1.163   0.541   5.098
 5600TIP3    H216744   1.233   0.508   4.968
 5601TIP3   OH216745   1.823   0.867   6.636
 5601TIP3    H116746   1.838   0.812   6.713
 5601TIP3    H216747   1.895   0.931   6.637
 5602TIP3   OH216748   1.580   0.621   4.900
 5602TIP3    H116749   1.630   0.563   4.957
 5602TIP3    H216750   1.633   0.628   4.820
 5603TIP3   OH216751   1.918   0.559   6.390
 5603TIP3    H116752   2.002   0.589   6.354
 5603TIP3    H216753   1.867   0.639   6.400
 5604TIP3   OH216754   1.911   0.129   4.950
 5604TIP3    H116755   1.914   0.077   4.869
 5604TIP3    H216756   1.880   0.215   4.922
 5605TIP3   OH216757   2.076   0.372   6.563
 5605TIP3    H116758   2.001   0.417   6.523
 5605TIP3    H216759   2.152   0.407   6.517
 5606TIP3   OH216760   1.002   0.919   5.210
 5606TIP3    H116761   1.072   0.883   5.155
 5606TIP3    H216762   0.935   0.948   5.148
 5607TIP3   OH216763   2.182   1.085   5.806
 5607TIP3    H116764   2.198   1.110   5.897
 5607TIP3    H216765   2.227   1.152   5.754
 5608TIP3   OH216766   2.195   1.113   6.085
 5608TIP3    H116767   2.150   1.028   6.086
 5608TIP3    H216768   2.269   1.102   6.144
 5609TIP3   OH216769   2.263   0.805   6.627
 5609TIP3    H116770   2.195   0.811   6.693
 5609TIP3    H216771   2.310   0.888   6.633
 5610TIP3   OH216772   2.091   0.323   5.264
 5610TIP3    H116773   2.152   0.393   5.241
 5610TIP3    H216774   2.118   0.294   5.351
 5611TIP3   OH216775   2.166   0.208   5.502
 5611TIP3    H116776   2.102   0.170   5.562
 5611TIP3    H216777   2.240   0.232   5.558
 5612TIP3   OH216778   2.265   0.601   5.889
 5612TIP3    H116779   2.322   0.539   5.843
 5612TIP3    H216780   2.261   0.677   5.832
 5613TIP3   OH216781   2.056   0.871   6.103
 5613TIP3    H116782   1.987   0.914   6.154
 5613TIP3    H216783   2.009   0.830   6.030
 5614TIP3   OH216784   2.127   0.099   5.113
 5614TIP3    H116785   2.052   0.100   5.053
 5614TIP3    H216786   2.114   0.175   5.169
 5615TIP3   OH216787   7.635   7.800   5.089
 5615TIP3    H116788   7.575   7.868   5.119
 5615TIP3    H216789   7.583   7.745   5.030
 5616TIP3   OH216790   2.004   0.044   5.667
 5616TIP3    H116791   2.015  -0.042   5.626
 5616TIP3    H216792   2.030   0.031   5.758
 5617TIP3   OH216793   2.302   0.455   6.435
 5617TIP3    H116794   2.369   0.387   6.431
 5617TIP3    H216795   2.313   0.504   6.353
 5618TIP3   OH216796   2.470   0.246   6.467
 5618TIP3    H116797   2.401   0.205   6.519
 5618TIP3    H216798   2.549   0.197   6.488
 5619TIP3   OH216799   2.121   0.006   5.959
 5619TIP3    H116800   2.210   0.013   5.923
 5619TIP3    H216801   2.133   0.012   6.053
 5620TIP3   OH216802   2.234   0.110   6.217
 5620TIP3    H116803   2.177   0.159   6.276
 5620TIP3    H216804   2.282   0.177   6.169
 5621TIP3   OH216805   1.731   1.004   5.422
 5621TIP3    H116806   1.785   0.990   5.344
 5621TIP3    H216807   1.782   1.067   5.474
 5622TIP3   OH216808   1.467   1.056   6.492
 5622TIP3    H116809   1.498   1.029   6.579
 5622TIP3    H216810   1.537   1.111   6.458
 5623TIP3   OH216811   1.671   1.209   6.391
 5623TIP3    H116812   1.739   1.159   6.347
 5623TIP3    H216813   1.717   1.279   6.436
 5624TIP3   OH216814   1.384   1.097   6.056
 5624TIP3    H116815   1.319   1.117   5.989
 5624TIP3    H216816   1.400   1.180   6.099
 5625TIP3   OH216817   1.635   1.006   6.115
 5625TIP3    H116818   1.543   1.030   6.099
 5625TIP3    H216819   1.686   1.074   6.072
 5626TIP3   OH216820   1.829   1.184   6.017
 5626TIP3    H116821   1.827   1.272   5.980
 5626TIP3    H216822   1.857   1.128   5.945
 5627TIP3   OH216823   1.218   0.812   5.088
 5627TIP3    H116824   1.303   0.837   5.052
 5627TIP3    H216825   1.197   0.729   5.046
 5628TIP3   OH216826   1.886   0.937   5.177
 5628TIP3    H116827   1.868   0.847   5.205
 5628TIP3    H216828   1.917   0.929   5.087
 5629TIP3   OH216829   2.119   1.089   6.393
 5629TIP3    H116830   2.039   1.060   6.348
 5629TIP3    H216831   2.108   1.184   6.403
 5630TIP3   OH216832   3.372   0.456   5.160
 5630TIP3    H116833   3.343   0.546   5.145
 5630TIP3    H216834   3.301   0.402   5.125
 5631TIP3   OH216835   3.378   0.468   5.583
 5631TIP3    H116836   3.438   0.443   5.654
 5631TIP3    H216837   3.331   0.388   5.561
 5632TIP3   OH216838   3.658   0.766   5.248
 5632TIP3    H116839   3.632   0.709   5.320
 5632TIP3    H216840   3.677   0.851   5.289
 5633TIP3   OH216841   2.684   0.749   5.623
 5633TIP3    H116842   2.672   0.657   5.642
 5633TIP3    H216843   2.777   0.757   5.600
 5634TIP3   OH216844   7.996   8.005   5.436
 5634TIP3    H116845   7.939   8.081   5.450
 5634TIP3    H216846   7.948   7.950   5.374
 5635TIP3   OH216847   2.420   0.241   5.607
 5635TIP3    H116848   2.465   0.160   5.632
 5635TIP3    H216849   2.469   0.272   5.530
 5636TIP3   OH216850   3.309   1.207   5.249
 5636TIP3    H116851   3.338   1.148   5.180
 5636TIP3    H216852   3.309   1.153   5.329
 5637TIP3   OH216853   3.188   0.680   5.590
 5637TIP3    H116854   3.235   0.602   5.561
 5637TIP3    H216855   3.256   0.740   5.619
 5638TIP3   OH216856   3.625   0.151   5.638
 5638TIP3    H116857   3.697   0.088   5.632
 5638TIP3    H216858   3.578   0.141   5.555
 5639TIP3   OH216859   0.045   7.828   5.606
 5639TIP3    H116860   0.050   7.892   5.535
 5639TIP3    H216861   0.009   7.749   5.566
 5640TIP3   OH216862   0.722   7.968   5.267
 5640TIP3    H116863   0.797   7.908   5.272
 5640TIP3    H216864   0.715   7.990   5.174
 5641TIP3   OH216865   2.579   0.027   5.690
 5641TIP3    H116866   2.664   0.024   5.732
 5641TIP3    H216867   2.588  -0.029   5.613
 5642TIP3   OH216868   2.979   0.229   5.521
 5642TIP3    H116869   3.074   0.223   5.519
 5642TIP3    H216870   2.949   0.149   5.478
 5643TIP3   OH216871   4.247   0.228   5.766
 5643TIP3    H116872   4.161   0.271   5.761
 5643TIP3    H216873   4.281   0.253   5.852
 5644TIP3   OH216874   3.242   0.669   5.043
 5644TIP3    H116875   3.225   0.656   4.950
 5644TIP3    H216876   3.209   0.757   5.062
 5645TIP3   OH216877   3.035   0.601   5.806
 5645TIP3    H116878   2.977   0.671   5.836
 5645TIP3    H216879   3.082   0.638   5.732
 5646TIP3   OH216880   2.845   0.015   5.789
 5646TIP3    H116881   2.891   0.077   5.733
 5646TIP3    H216882   2.859  -0.071   5.748
 5647TIP3   OH216883   2.871   0.801   5.910
 5647TIP3    H116884   2.854   0.887   5.872
 5647TIP3    H216885   2.792   0.781   5.960
 5648TIP3   OH216886   2.265   0.512   5.160
 5648TIP3    H116887   2.229   0.529   5.073
 5648TIP3    H216888   2.288   0.598   5.194
 5649TIP3   OH216889   3.692   1.010   5.389
 5649TIP3    H116890   3.605   1.003   5.428
 5649TIP3    H216891   3.690   1.094   5.342
 5650TIP3   OH216892   3.400   1.052   5.036
 5650TIP3    H116893   3.446   0.969   5.029
 5650TIP3    H216894   3.462   1.118   5.005
 5651TIP3   OH216895   3.541   0.824   5.001
 5651TIP3    H116896   3.551   0.751   4.939
 5651TIP3    H216897   3.584   0.793   5.081
 5652TIP3   OH216898   3.921   0.907   5.736
 5652TIP3    H116899   3.904   0.834   5.677
 5652TIP3    H216900   3.905   0.985   5.683
 5653TIP3   OH216901   3.197   0.316   4.995
 5653TIP3    H116902   3.118   0.368   4.978
 5653TIP3    H216903   3.244   0.316   4.911
 5654TIP3   OH216904   3.178   0.124   4.700
 5654TIP3    H116905   3.247   0.162   4.753
 5654TIP3    H216906   3.218   0.045   4.662
 5655TIP3   OH216907   4.107   0.590   5.614
 5655TIP3    H116908   4.022   0.634   5.606
 5655TIP3    H216909   4.139   0.585   5.524
 5656TIP3   OH216910   3.560   0.411   4.966
 5656TIP3    H116911   3.498   0.430   5.037
 5656TIP3    H216912   3.645   0.407   5.009
 5657TIP3   OH216913   3.794   0.435   5.913
 5657TIP3    H116914   3.785   0.518   5.959
 5657TIP3    H216915   3.715   0.428   5.860
 5658TIP3   OH216916   2.771   0.376   5.400
 5658TIP3    H116917   2.737   0.324   5.327
 5658TIP3    H216918   2.847   0.328   5.431
 5659TIP3   OH216919   2.937   0.794   5.511
 5659TIP3    H116920   2.915   0.781   5.419
 5659TIP3    H216921   3.024   0.756   5.521
 5660TIP3   OH216922   2.926   0.351   5.763
 5660TIP3    H116923   2.952   0.320   5.676
 5660TIP3    H216924   2.967   0.437   5.770
 5661TIP3   OH216925   3.456   1.004   5.522
 5661TIP3    H116926   3.440   1.086   5.569
 5661TIP3    H216927   3.436   0.935   5.586
 5662TIP3   OH216928   3.074   0.906   6.067
 5662TIP3    H116929   3.015   0.966   6.111
 5662TIP3    H216930   3.017   0.854   6.009
 5663TIP3   OH216931   3.412   0.241   4.805
 5663TIP3    H116932   3.465   0.307   4.850
 5663TIP3    H216933   3.436   0.249   4.713
 5664TIP3   OH216934   3.149   0.933   5.056
 5664TIP3    H116935   3.234   0.977   5.055
 5664TIP3    H216936   3.092   0.989   5.004
 5665TIP3   OH216937   2.868   1.067   6.149
 5665TIP3    H116938   2.844   1.080   6.057
 5665TIP3    H216939   2.787   1.041   6.192
 5666TIP3   OH216940   2.666   0.222   5.186
 5666TIP3    H116941   2.591   0.264   5.144
 5666TIP3    H216942   2.643   0.129   5.189
 5667TIP3   OH216943   3.736   0.831   4.423
 5667TIP3    H116944   3.700   0.912   4.388
 5667TIP3    H216945   3.824   0.826   4.386
 5668TIP3   OH216946   2.439   0.594   6.107
 5668TIP3    H116947   2.378   0.614   6.036
 5668TIP3    H216948   2.438   0.498   6.113
 5669TIP3   OH216949   2.297   0.838   5.750
 5669TIP3    H116950   2.387   0.865   5.769
 5669TIP3    H216951   2.243   0.913   5.774
 5670TIP3   OH216952   4.156   1.266   5.802
 5670TIP3    H116953   4.160   1.171   5.815
 5670TIP3    H216954   4.076   1.293   5.847
 5671TIP3   OH216955   3.261   1.051   5.928
 5671TIP3    H116956   3.253   1.142   5.956
 5671TIP3    H216957   3.194   1.004   5.978
 5672TIP3   OH216958   3.034   1.146   4.878
 5672TIP3    H116959   2.985   1.129   4.797
 5672TIP3    H216960   2.999   1.228   4.911
 5673TIP3   OH216961   2.474   1.012   5.262
 5673TIP3    H116962   2.524   1.002   5.343
 5673TIP3    H216963   2.431   0.928   5.250
 5674TIP3   OH216964   3.208   1.113   4.501
 5674TIP3    H116965   3.259   1.046   4.456
 5674TIP3    H216966   3.253   1.125   4.585
 5675TIP3   OH216967   3.288   1.135   4.769
 5675TIP3    H116968   3.204   1.134   4.815
 5675TIP3    H216969   3.350   1.099   4.833
 5676TIP3   OH216970   4.040   0.368   6.073
 5676TIP3    H116971   3.961   0.394   6.027
 5676TIP3    H216972   4.039   0.272   6.072
 5677TIP3   OH216973   2.646   0.787   6.073
 5677TIP3    H116974   2.654   0.827   6.159
 5677TIP3    H216975   2.578   0.721   6.082
 5678TIP3   OH216976   3.759   0.200   6.061
 5678TIP3    H116977   3.777   0.243   6.144
 5678TIP3    H216978   3.771   0.268   5.995
 5679TIP3   OH216979   3.483   0.218   4.539
 5679TIP3    H116980   3.431   0.236   4.461
 5679TIP3    H216981   3.567   0.261   4.522
 5680TIP3   OH216982   3.008   0.177   5.966
 5680TIP3    H116983   2.946   0.106   5.946
 5680TIP3    H216984   2.984   0.247   5.905
 5681TIP3   OH216985   8.516   8.022   5.413
 5681TIP3    H116986   8.422   8.003   5.417
 5681TIP3    H216987   8.541   8.000   5.323
 5682TIP3   OH216988   3.300   0.132   5.168
 5682TIP3    H116989   3.254   0.197   5.115
 5682TIP3    H216990   3.382   0.117   5.121
 5683TIP3   OH216991   3.532   0.385   6.215
 5683TIP3    H116992   3.500   0.315   6.272
 5683TIP3    H216993   3.625   0.392   6.236
 5684TIP3   OH216994   3.474   0.172   5.400
 5684TIP3    H116995   3.414   0.211   5.337
 5684TIP3    H216996   3.500   0.089   5.360
 5685TIP3   OH216997   8.128   7.787   5.214
 5685TIP3    H116998   8.130   7.773   5.119
 5685TIP3    H216999   8.037   7.809   5.233
 5686TIP3   OH217000   3.549   0.365   5.784
 5686TIP3    H117001   3.582   0.296   5.727
 5686TIP3    H217002   3.510   0.319   5.859
 5687TIP3   OH217003   8.255   7.927   5.425
 5687TIP3    H117004   8.166   7.962   5.437
 5687TIP3    H217005   8.245   7.862   5.355
 5688TIP3   OH217006   0.069   7.939   5.159
 5688TIP3    H117007   0.158   7.923   5.129
 5688TIP3    H217008   0.015   7.931   5.081
 5689TIP3   OH217009   8.429   7.936   4.920
 5689TIP3    H117010   8.357   7.910   4.863
 5689TIP3    H217011   8.487   7.986   4.863
 5690TIP3   OH217012   3.868   1.609   5.892
 5690TIP3    H117013   3.864   1.629   5.798
 5690TIP3    H217014   3.947   1.655   5.922
 5691TIP3   OH217015   2.810   0.698   6.345
 5691TIP3    H117016   2.885   0.744   6.385
 5691TIP3    H217017   2.736   0.721   6.401
 5692TIP3   OH217018   3.253   0.212   5.570
 5692TIP3    H117019   3.328   0.176   5.523
 5692TIP3    H217020   3.260   0.176   5.658
 5693TIP3   OH217021   3.259   0.140   5.835
 5693TIP3    H117022   3.180   0.144   5.889
 5693TIP3    H217023   3.331   0.153   5.897
 5694TIP3   OH217024   2.961   0.463   4.945
 5694TIP3    H117025   2.893   0.398   4.928
 5694TIP3    H217026   2.944   0.493   5.035
 5695TIP3   OH217027   3.864   0.708   5.555
 5695TIP3    H117028   3.897   0.756   5.480
 5695TIP3    H217029   3.779   0.674   5.527
 5696TIP3   OH217030   0.482   7.895   4.851
 5696TIP3    H117031   0.470   7.802   4.834
 5696TIP3    H217032   0.438   7.910   4.934
 5697TIP3   OH217033   3.385   0.787   5.973
 5697TIP3    H117034   3.446   0.787   6.046
 5697TIP3    H217035   3.350   0.876   5.971
 5698TIP3   OH217036   3.525   0.083   5.017
 5698TIP3    H117037   3.617   0.108   5.011
 5698TIP3    H217038   3.484   0.119   4.938
 5699TIP3   OH217039   2.685   0.464   5.658
 5699TIP3    H117040   2.700   0.443   5.565
 5699TIP3    H217041   2.756   0.421   5.704
 5700TIP3   OH217042   3.131   0.606   4.783
 5700TIP3    H117043   3.090   0.692   4.780
 5700TIP3    H217044   3.072   0.553   4.837
 5701TIP3   OH217045   3.295   0.529   6.222
 5701TIP3    H117046   3.265   0.518   6.132
 5701TIP3    H217047   3.384   0.494   6.222
 5702TIP3   OH217048   3.531   1.068   5.852
 5702TIP3    H117049   3.435   1.060   5.856
 5702TIP3    H217050   3.555   1.110   5.935
 5703TIP3   OH217051   3.900   0.147   4.752
 5703TIP3    H117052   3.850   0.096   4.688
 5703TIP3    H217053   3.915   0.231   4.709
 5704TIP3   OH217054   4.169   0.982   5.823
 5704TIP3    H117055   4.074   0.972   5.813
 5704TIP3    H217056   4.206   0.951   5.740
 5705TIP3   OH217057   3.682   0.919   4.683
 5705TIP3    H117058   3.637   0.848   4.729
 5705TIP3    H217059   3.697   0.884   4.595
 5706TIP3   OH217060   3.616   0.595   5.471
 5706TIP3    H117061   3.526   0.573   5.495
 5706TIP3    H217062   3.649   0.515   5.430
 5707TIP3   OH217063   2.798   0.797   5.266
 5707TIP3    H117064   2.801   0.874   5.209
 5707TIP3    H217065   2.705   0.783   5.284
 5708TIP3   OH217066   2.361   0.076   4.970
 5708TIP3    H117067   2.401   0.161   4.989
 5708TIP3    H217068   2.278   0.077   5.017
 5709TIP3   OH217069   2.880   0.542   5.191
 5709TIP3    H117070   2.865   0.635   5.212
 5709TIP3    H217071   2.844   0.495   5.267
 5710TIP3   OH217072   3.074   1.119   5.722
 5710TIP3    H117073   3.108   1.193   5.671
 5710TIP3    H217074   3.150   1.087   5.771
 5711TIP3   OH217075   2.715   1.024   5.121
 5711TIP3    H117076   2.627   1.037   5.156
 5711TIP3    H217077   2.753   1.112   5.118
 5712TIP3   OH217078   3.423   0.787   5.698
 5712TIP3    H117079   3.412   0.779   5.792
 5712TIP3    H217080   3.505   0.741   5.679
 5713TIP3   OH217081   3.407   0.685   4.580
 5713TIP3    H117082   3.457   0.669   4.660
 5713TIP3    H217083   3.321   0.648   4.598
 5714TIP3   OH217084   3.681   1.287   5.730
 5714TIP3    H117085   3.608   1.227   5.743
 5714TIP3    H217086   3.654   1.343   5.658
 5715TIP3   OH217087   3.583   0.628   4.794
 5715TIP3    H117088   3.567   0.551   4.849
 5715TIP3    H217089   3.675   0.621   4.769
 5716TIP3   OH217090   2.498   1.030   5.868
 5716TIP3    H117091   2.562   0.976   5.915
 5716TIP3    H217092   2.510   1.118   5.904
 5717TIP3   OH217093   2.768   0.639   4.576
 5717TIP3    H117094   2.781   0.549   4.546
 5717TIP3    H217095   2.751   0.630   4.670
 5718TIP3   OH217096   2.723   0.634   4.850
 5718TIP3    H117097   2.800   0.601   4.896
 5718TIP3    H217098   2.725   0.728   4.863
 5719TIP3   OH217099   2.449   0.331   5.054
 5719TIP3    H117100   2.386   0.380   5.106
 5719TIP3    H217101   2.469   0.388   4.980
 5720TIP3   OH217102   2.992   0.838   4.782
 5720TIP3    H117103   2.908   0.855   4.824
 5720TIP3    H217104   3.011   0.917   4.731
 5721TIP3   OH217105   0.352   7.903   5.123
 5721TIP3    H117106   0.384   7.990   5.144
 5721TIP3    H217107   0.374   7.849   5.199
 5722TIP3   OH217108   3.471   0.215   6.004
 5722TIP3    H117109   3.476   0.279   6.075
 5722TIP3    H217110   3.551   0.164   6.011
 5723TIP3   OH217111   2.741   0.903   4.876
 5723TIP3    H117112   2.711   0.968   4.812
 5723TIP3    H217113   2.732   0.947   4.960
 5724TIP3   OH217114   3.695   0.348   5.375
 5724TIP3    H117115   3.622   0.287   5.389
 5724TIP3    H217116   3.767   0.311   5.426
 5725TIP3   OH217117   2.471   0.518   4.844
 5725TIP3    H117118   2.545   0.578   4.855
 5725TIP3    H217119   2.501   0.454   4.780
 5726TIP3   OH217120   8.054   7.813   4.933
 5726TIP3    H117121   8.074   7.904   4.957
 5726TIP3    H217122   7.962   7.815   4.909
 5727TIP3   OH217123   3.710   1.274   5.304
 5727TIP3    H117124   3.666   1.327   5.237
 5727TIP3    H217125   3.803   1.289   5.289
 5728TIP3   OH217126   2.313   0.777   5.248
 5728TIP3    H117127   2.273   0.815   5.326
 5728TIP3    H217128   2.269   0.822   5.175
 5729TIP3   OH217129   2.492   1.311   6.297
 5729TIP3    H117130   2.573   1.310   6.349
 5729TIP3    H217131   2.459   1.221   6.304
 5730TIP3   OH217132   2.961   1.233   6.351
 5730TIP3    H117133   3.055   1.218   6.362
 5730TIP3    H217134   2.938   1.178   6.275
 5731TIP3   OH217135   2.921   0.839   4.467
 5731TIP3    H117136   2.869   0.771   4.511
 5731TIP3    H217137   3.001   0.795   4.441
 5732TIP3   OH217138   3.585   1.175   6.098
 5732TIP3    H117139   3.596   1.105   6.163
 5732TIP3    H217140   3.660   1.232   6.113
 5733TIP3   OH217141   3.360   0.901   4.402
 5733TIP3    H117142   3.393   0.836   4.463
 5733TIP3    H217143   3.436   0.956   4.382
 5734TIP3   OH217144   2.588   0.720   6.511
 5734TIP3    H117145   2.552   0.660   6.576
 5734TIP3    H217146   2.515   0.737   6.451
 5735TIP3   OH217147   2.605   0.331   4.699
 5735TIP3    H117148   2.656   0.305   4.776
 5735TIP3    H217149   2.670   0.346   4.630
 5736TIP3   OH217150   3.230   0.806   6.269
 5736TIP3    H117151   3.186   0.833   6.188
 5736TIP3    H217152   3.274   0.724   6.247
 5737TIP3   OH217153   3.138   0.560   4.511
 5737TIP3    H117154   3.123   0.567   4.605
 5737TIP3    H217155   3.131   0.467   4.492
 5738TIP3   OH217156   3.693   0.843   5.880
 5738TIP3    H117157   3.772   0.871   5.834
 5738TIP3    H217158   3.631   0.914   5.865
 5739TIP3   OH217159   2.823   0.425   6.451
 5739TIP3    H117160   2.885   0.355   6.474
 5739TIP3    H217161   2.793   0.459   6.536
 5740TIP3   OH217162   2.772   0.265   4.914
 5740TIP3    H117163   2.753   0.234   5.003
 5740TIP3    H217164   2.818   0.193   4.873
 5741TIP3   OH217165   2.997   0.462   6.184
 5741TIP3    H117166   3.086   0.476   6.215
 5741TIP3    H217167   3.007   0.430   6.094
 5742TIP3   OH217168   2.911   0.084   4.758
 5742TIP3    H117169   2.879   0.091   4.668
 5742TIP3    H217170   3.006   0.098   4.751
 5743TIP3   OH217171   3.579   0.719   6.243
 5743TIP3    H117172   3.648   0.687   6.186
 5743TIP3    H217173   3.584   0.664   6.321
 5744TIP3   OH217174   3.702   0.352   4.427
 5744TIP3    H117175   3.684   0.321   4.338
 5744TIP3    H217176   3.673   0.443   4.427
 5745TIP3   OH217177   3.147   0.144   6.249
 5745TIP3    H117178   3.125   0.056   6.219
 5745TIP3    H217179   3.127   0.201   6.175
 5746TIP3   OH217180   3.200   0.458   5.974
 5746TIP3    H117181   3.266   0.421   5.916
 5746TIP3    H217182   3.148   0.516   5.918
 5747TIP3   OH217183   3.801   0.389   6.294
 5747TIP3    H117184   3.823   0.348   6.377
 5747TIP3    H217185   3.860   0.464   6.287
 5748TIP3   OH217186   3.811   0.676   6.056
 5748TIP3    H117187   3.757   0.735   6.003
 5748TIP3    H217188   3.900   0.690   6.024
 5749TIP3   OH217189   3.030   0.249   6.490
 5749TIP3    H117190   2.992   0.178   6.541
 5749TIP3    H217191   3.069   0.206   6.414
 5750TIP3   OH217192   3.411   0.183   6.350
 5750TIP3    H117193   3.411   0.145   6.438
 5750TIP3    H217194   3.323   0.169   6.317
 5751TIP3   OH217195   2.688   1.100   4.696
 5751TIP3    H117196   2.772   1.111   4.653
 5751TIP3    H217197   2.640   1.181   4.679
 5752TIP3   OH217198   2.200   0.515   4.880
 5752TIP3    H117199   2.294   0.531   4.869
 5752TIP3    H217200   2.187   0.428   4.843
 5753TIP3   OH217201   2.094   1.087   5.308
 5753TIP3    H117202   2.036   1.032   5.256
 5753TIP3    H217203   2.140   1.026   5.366
 5754TIP3   OH217204   2.242   0.925   5.480
 5754TIP3    H117205   2.235   0.862   5.552
 5754TIP3    H217206   2.294   0.997   5.516
 5755TIP3   OH217207   3.981   1.328   5.294
 5755TIP3    H117208   3.999   1.363   5.382
 5755TIP3    H217209   4.034   1.381   5.235
 5756TIP3   OH217210   3.992   1.370   5.577
 5756TIP3    H117211   3.948   1.285   5.572
 5756TIP3    H217212   4.064   1.355   5.638
 5757TIP3   OH217213   4.055   1.056   6.158
 5757TIP3    H117214   3.980   1.069   6.216
 5757TIP3    H217215   4.100   1.140   6.159
 5758TIP3   OH217216   3.855   0.601   4.748
 5758TIP3    H117217   3.909   0.671   4.711
 5758TIP3    H217218   3.902   0.572   4.826
 5759TIP3   OH217219   3.987   0.493   4.963
 5759TIP3    H117220   3.921   0.471   5.028
 5759TIP3    H217221   4.058   0.534   5.014
 5760TIP3   OH217222   4.054   0.842   5.393
 5760TIP3    H117223   4.093   0.773   5.339
 5760TIP3    H217224   4.052   0.919   5.336
 5761TIP3   OH217225   3.856   1.126   5.584
 5761TIP3    H117226   3.788   1.172   5.633
 5761TIP3    H217227   3.809   1.086   5.511
 5762TIP3   OH217228   3.913   0.376   4.602
 5762TIP3    H117229   3.844   0.368   4.537
 5762TIP3    H217230   3.892   0.456   4.650
 5763TIP3   OH217231   3.758   0.066   4.528
 5763TIP3    H117232   3.772   0.136   4.465
 5763TIP3    H217233   3.708  -0.000   4.480
 5764TIP3   OH217234   3.791   0.379   5.119
 5764TIP3    H117235   3.798   0.287   5.095
 5764TIP3    H217236   3.759   0.378   5.209
 5765TIP3   OH217237   2.451   0.405   5.821
 5765TIP3    H117238   2.422   0.342   5.755
 5765TIP3    H217239   2.533   0.440   5.786
 5766TIP3   OH217240   4.065   0.720   5.957
 5766TIP3    H117241   4.135   0.657   5.939
 5766TIP3    H217242   4.078   0.790   5.892
 5767TIP3   OH217243   4.246   0.516   5.961
 5767TIP3    H117244   4.170   0.467   5.995
 5767TIP3    H217245   4.321   0.463   5.986
 5768TIP3   OH217246   3.797   0.129   5.003
 5768TIP3    H117247   3.838   0.047   5.030
 5768TIP3    H217248   3.830   0.145   4.915
 5769TIP3   OH217249   3.920   0.271   5.511
 5769TIP3    H117250   3.997   0.288   5.456
 5769TIP3    H217251   3.945   0.301   5.598
 5770TIP3   OH217252   4.012   0.371   5.751
 5770TIP3    H117253   3.935   0.399   5.800
 5770TIP3    H217254   4.047   0.451   5.713
 5771TIP3   OH217255   2.659   0.053   6.515
 5771TIP3    H117256   2.713   0.045   6.593
 5771TIP3    H217257   2.615  -0.031   6.507
 5772TIP3   OH217258   2.383   0.047   5.888
 5772TIP3    H117259   2.441   0.030   5.814
 5772TIP3    H217260   2.440   0.081   5.957
 5773TIP3   OH217261   3.557   1.239   4.918
 5773TIP3    H117262   3.593   1.226   4.831
 5773TIP3    H217263   3.598   1.320   4.949
 5774TIP3   OH217264   2.647   0.994   6.302
 5774TIP3    H117265   2.553   1.010   6.297
 5774TIP3    H217266   2.671   1.020   6.391
 5775TIP3   OH217267   2.844   1.080   5.869
 5775TIP3    H117268   2.795   1.155   5.837
 5775TIP3    H217269   2.929   1.086   5.825
 5776TIP3   OH217270   3.247   1.318   6.004
 5776TIP3    H117271   3.284   1.312   6.092
 5776TIP3    H217272   3.309   1.371   5.955
 5777TIP3   OH217273   3.438   1.474   5.879
 5777TIP3    H117274   3.502   1.423   5.829
 5777TIP3    H217275   3.490   1.532   5.934
 5778TIP3   OH217276   2.506   1.316   5.918
 5778TIP3    H117277   2.416   1.335   5.893
 5778TIP3    H217278   2.529   1.383   5.982
 5779TIP3   OH217279   2.738   1.313   5.766
 5779TIP3    H117280   2.654   1.318   5.813
 5779TIP3    H217281   2.717   1.338   5.676
 5780TIP3   OH217282   3.152   1.330   5.559
 5780TIP3    H117283   3.084   1.343   5.493
 5780TIP3    H217284   3.163   1.417   5.599
 5781TIP3   OH217285   3.416   1.264   5.608
 5781TIP3    H117286   3.324   1.285   5.588
 5781TIP3    H217287   3.466   1.330   5.561
 5782TIP3   OH217288   3.612   1.436   5.504
 5782TIP3    H117289   3.617   1.525   5.468
 5782TIP3    H217290   3.644   1.379   5.434
 5783TIP3   OH217291   2.416   1.109   5.614
 5783TIP3    H117292   2.435   1.088   5.706
 5783TIP3    H217293   2.490   1.072   5.565
 5784TIP3   OH217294   2.624   0.984   5.492
 5784TIP3    H117295   2.635   0.901   5.539
 5784TIP3    H217296   2.710   1.025   5.495
 5785TIP3   OH217297   2.890   1.072   5.516
 5785TIP3    H117298   2.911   0.980   5.500
 5785TIP3    H217299   2.944   1.096   5.591
 5786TIP3   OH217300   2.194   0.909   5.043
 5786TIP3    H117301   2.118   0.869   5.001
 5786TIP3    H217302   2.202   0.995   5.002
 5787TIP3   OH217303   2.959   1.069   4.612
 5787TIP3    H117304   3.042   1.097   4.572
 5787TIP3    H217305   2.931   0.994   4.559
 5788TIP3   OH217306   3.675   1.192   4.668
 5788TIP3    H117307   3.682   1.097   4.679
 5788TIP3    H217308   3.641   1.204   4.579
 5789TIP3   OH217309   2.280   0.894   4.675
 5789TIP3    H117310   2.298   0.930   4.762
 5789TIP3    H217311   2.361   0.849   4.650
 5790TIP3   OH217312   3.904   1.335   5.896
 5790TIP3    H117313   3.829   1.307   5.844
 5790TIP3    H217314   3.894   1.430   5.904
 5791TIP3   OH217315   5.148   0.720   4.676
 5791TIP3    H117316   5.126   0.810   4.654
 5791TIP3    H217317   5.087   0.667   4.624
 5792TIP3   OH217318   5.176   0.751   5.052
 5792TIP3    H117319   5.219   0.728   5.134
 5792TIP3    H217320   5.140   0.668   5.020
 5793TIP3   OH217321   4.471   0.623   5.404
 5793TIP3    H117322   4.517   0.571   5.469
 5793TIP3    H217323   4.538   0.648   5.340
 5794TIP3   OH217324   5.452   1.034   4.739
 5794TIP3    H117325   5.427   0.980   4.814
 5794TIP3    H217326   5.476   1.118   4.777
 5795TIP3   OH217327   4.469   1.018   5.104
 5795TIP3    H117328   4.449   0.924   5.101
 5795TIP3    H217329   4.564   1.022   5.089
 5796TIP3   OH217330   4.123   0.257   4.932
 5796TIP3    H117331   4.075   0.339   4.937
 5796TIP3    H217332   4.084   0.210   4.858
 5797TIP3   OH217333   4.222   0.574   5.086
 5797TIP3    H117334   4.287   0.506   5.103
 5797TIP3    H217335   4.274   0.651   5.062
 5798TIP3   OH217336   5.105   1.455   4.748
 5798TIP3    H117337   5.132   1.392   4.681
 5798TIP3    H217338   5.105   1.405   4.830
 5799TIP3   OH217339   4.983   0.954   5.070
 5799TIP3    H117340   5.028   0.875   5.039
 5799TIP3    H217341   5.053   1.011   5.101
 5800TIP3   OH217342   5.357   0.458   5.110
 5800TIP3    H117343   5.370   0.364   5.096
 5800TIP3    H217344   5.328   0.491   5.024
 5801TIP3   OH217345   4.830   0.001   5.030
 5801TIP3    H117346   4.825   0.063   5.103
 5801TIP3    H217347   4.739  -0.012   5.003
 5802TIP3   OH217348   5.414   0.290   4.773
 5802TIP3    H117349   5.453   0.248   4.849
 5802TIP3    H217350   5.474   0.271   4.701
 5803TIP3   OH217351   4.420   0.409   5.169
 5803TIP3    H117352   4.451   0.383   5.256
 5803TIP3    H217353   4.469   0.353   5.108
 5804TIP3   OH217354   4.788   0.555   4.995
 5804TIP3    H117355   4.883   0.546   4.992
 5804TIP3    H217356   4.755   0.476   4.953
 5805TIP3   OH217357   6.046   0.471   5.268
 5805TIP3    H117358   5.958   0.507   5.251
 5805TIP3    H217359   6.072   0.511   5.351
 5806TIP3   OH217360   5.084   0.936   4.508
 5806TIP3    H117361   5.047   0.908   4.425
 5806TIP3    H217362   5.032   1.014   4.532
 5807TIP3   OH217363   4.835   0.872   5.288
 5807TIP3    H117364   4.777   0.941   5.319
 5807TIP3    H217365   4.879   0.909   5.212
 5808TIP3   OH217366   4.574   0.263   5.353
 5808TIP3    H117367   4.649   0.321   5.351
 5808TIP3    H217368   4.579   0.214   5.271
 5809TIP3   OH217369   4.668   1.067   5.386
 5809TIP3    H117370   4.654   1.156   5.353
 5809TIP3    H217371   4.589   1.048   5.437
 5810TIP3   OH217372   4.034   0.778   4.627
 5810TIP3    H117373   4.002   0.793   4.539
 5810TIP3    H217374   4.056   0.865   4.660
 5811TIP3   OH217375   5.488   1.275   4.876
 5811TIP3    H117376   5.401   1.266   4.915
 5811TIP3    H217377   5.486   1.360   4.831
 5812TIP3   OH217378   5.193   1.305   4.532
 5812TIP3    H117379   5.245   1.225   4.521
 5812TIP3    H217380   5.251   1.375   4.502
 5813TIP3   OH217381   5.330   1.074   4.495
 5813TIP3    H117382   5.258   1.010   4.494
 5813TIP3    H217383   5.382   1.050   4.572
 5814TIP3   OH217384   5.720   1.164   5.227
 5814TIP3    H117385   5.703   1.090   5.168
 5814TIP3    H217386   5.703   1.242   5.174
 5815TIP3   OH217387   4.997   0.573   4.497
 5815TIP3    H117388   4.915   0.615   4.474
 5815TIP3    H217389   5.045   0.568   4.414
 5816TIP3   OH217390   4.960   0.405   4.175
 5816TIP3    H117391   5.027   0.461   4.214
 5816TIP3    H217392   4.997   0.317   4.179
 5817TIP3   OH217393   5.903   0.841   5.099
 5817TIP3    H117394   5.818   0.884   5.094
 5817TIP3    H217395   5.936   0.842   5.009
 5818TIP3   OH217396   5.313   0.718   4.440
 5818TIP3    H117397   5.265   0.757   4.512
 5818TIP3    H217398   5.357   0.642   4.478
 5819TIP3   OH217399   5.598   0.733   5.368
 5819TIP3    H117400   5.580   0.808   5.424
 5819TIP3    H217401   5.515   0.714   5.325
 5820TIP3   OH217402   4.569   0.652   4.843
 5820TIP3    H117403   4.537   0.585   4.782
 5820TIP3    H217404   4.646   0.612   4.884
 5821TIP3   OH217405   4.727   1.054   5.000
 5821TIP3    H117406   4.705   1.042   4.907
 5821TIP3    H217407   4.816   1.020   5.008
 5822TIP3   OH217408   4.677   0.660   5.221
 5822TIP3    H117409   4.715   0.625   5.140
 5822TIP3    H217410   4.731   0.736   5.241
 5823TIP3   OH217411   5.251   1.264   5.008
 5823TIP3    H117412   5.236   1.345   5.056
 5823TIP3    H217413   5.236   1.195   5.072
 5824TIP3   OH217414   4.866   1.163   5.553
 5824TIP3    H117415   4.806   1.222   5.600
 5824TIP3    H217416   4.809   1.113   5.495
 5825TIP3   OH217417   5.180   0.534   4.287
 5825TIP3    H117418   5.227   0.606   4.328
 5825TIP3    H217419   5.217   0.528   4.199
 5826TIP3   OH217420   4.620   0.734   5.686
 5826TIP3    H117421   4.630   0.826   5.712
 5826TIP3    H217422   4.526   0.718   5.693
 5827TIP3   OH217423   4.949   1.177   4.543
 5827TIP3    H117424   5.028   1.230   4.546
 5827TIP3    H217425   4.887   1.230   4.493
 5828TIP3   OH217426   4.658   1.322   5.639
 5828TIP3    H117427   4.633   1.335   5.548
 5828TIP3    H217428   4.575   1.307   5.685
 5829TIP3   OH217429   4.444   0.476   4.652
 5829TIP3    H117430   4.376   0.531   4.615
 5829TIP3    H217431   4.397   0.404   4.694
 5830TIP3   OH217432   5.534   1.115   3.895
 5830TIP3    H117433   5.528   1.209   3.874
 5830TIP3    H217434   5.623   1.091   3.871
 5831TIP3   OH217435   4.253   0.874   5.587
 5831TIP3    H117436   4.182   0.867   5.524
 5831TIP3    H217437   4.289   0.785   5.594
 5832TIP3   OH217438   4.094   1.075   5.241
 5832TIP3    H117439   4.186   1.100   5.250
 5832TIP3    H217440   4.045   1.153   5.268
 5833TIP3   OH217441   5.952   1.527   5.287
 5833TIP3    H117442   5.957   1.432   5.296
 5833TIP3    H217443   5.872   1.551   5.334
 5834TIP3   OH217444   5.056   1.303   5.413
 5834TIP3    H117445   5.049   1.395   5.442
 5834TIP3    H217446   4.989   1.258   5.464
 5835TIP3   OH217447   4.838   1.406   4.368
 5835TIP3    H117448   4.792   1.386   4.287
 5835TIP3    H217449   4.800   1.489   4.397
 5836TIP3   OH217450   4.266   1.263   4.741
 5836TIP3    H117451   4.309   1.253   4.826
 5836TIP3    H217452   4.215   1.183   4.730
 5837TIP3   OH217453   5.038   1.343   3.994
 5837TIP3    H117454   5.090   1.271   3.957
 5837TIP3    H217455   5.074   1.354   4.083
 5838TIP3   OH217456   5.091   1.382   4.264
 5838TIP3    H117457   5.005   1.385   4.306
 5838TIP3    H217458   5.149   1.345   4.332
 5839TIP3   OH217459   5.826   0.656   5.527
 5839TIP3    H117460   5.758   0.710   5.486
 5839TIP3    H217461   5.812   0.568   5.492
 5840TIP3   OH217462   4.451   1.066   5.556
 5840TIP3    H117463   4.499   1.060   5.639
 5840TIP3    H217464   4.380   1.003   5.565
 5841TIP3   OH217465   5.745   0.398   5.487
 5841TIP3    H117466   5.663   0.391   5.535
 5841TIP3    H217467   5.722   0.380   5.396
 5842TIP3   OH217468   5.278   0.509   4.037
 5842TIP3    H117469   5.229   0.518   3.955
 5842TIP3    H217470   5.365   0.542   4.017
 5843TIP3   OH217471   4.763   0.461   5.388
 5843TIP3    H117472   4.725   0.479   5.474
 5843TIP3    H217473   4.729   0.532   5.332
 5844TIP3   OH217474   4.650   0.364   4.863
 5844TIP3    H117475   4.557   0.342   4.860
 5844TIP3    H217476   4.688   0.318   4.788
 5845TIP3   OH217477   5.127   0.387   4.652
 5845TIP3    H117478   5.074   0.458   4.615
 5845TIP3    H217479   5.181   0.357   4.579
 5846TIP3   OH217480   5.306   0.697   5.680
 5846TIP3    H117481   5.281   0.613   5.720
 5846TIP3    H217482   5.401   0.700   5.688
 5847TIP3   OH217483   5.289   0.529   4.851
 5847TIP3    H117484   5.227   0.579   4.798
 5847TIP3    H217485   5.278   0.438   4.822
 5848TIP3   OH217486   4.585   0.457   5.609
 5848TIP3    H117487   4.570   0.537   5.659
 5848TIP3    H217488   4.506   0.405   5.621
 5849TIP3   OH217489   4.207   0.093   4.713
 5849TIP3    H117490   4.294   0.078   4.675
 5849TIP3    H217491   4.204   0.036   4.789
 5850TIP3   OH217492   5.340   0.672   5.271
 5850TIP3    H117493   5.355   0.600   5.210
 5850TIP3    H217494   5.299   0.631   5.347
 5851TIP3   OH217495   4.399   0.250   4.869
 5851TIP3    H117496   4.306   0.260   4.888
 5851TIP3    H217497   4.402   0.182   4.802
 5852TIP3   OH217498   4.700   0.218   4.634
 5852TIP3    H117499   4.796   0.216   4.628
 5852TIP3    H217500   4.671   0.227   4.543
 5853TIP3   OH217501   4.581   0.181   4.399
 5853TIP3    H117502   4.490   0.172   4.371
 5853TIP3    H217503   4.622   0.232   4.329
 5854TIP3   OH217504   5.666   1.866   5.380
 5854TIP3    H117505   5.662   1.884   5.286
 5854TIP3    H217506   5.744   1.912   5.410
 5855TIP3   OH217507   4.606   0.989   5.794
 5855TIP3    H117508   4.687   1.007   5.842
 5855TIP3    H217509   4.537   0.998   5.859
 5856TIP3   OH217510   5.054   0.501   5.024
 5856TIP3    H117511   5.099   0.423   4.991
 5856TIP3    H217512   5.054   0.491   5.119
 5857TIP3   OH217513   5.017   0.474   5.292
 5857TIP3    H117514   4.934   0.473   5.339
 5857TIP3    H217515   5.077   0.522   5.350
 5858TIP3   OH217516   4.764   0.705   4.432
 5858TIP3    H117517   4.687   0.652   4.411
 5858TIP3    H217518   4.742   0.747   4.515
 5859TIP3   OH217519   5.665   0.968   5.045
 5859TIP3    H117520   5.698   1.015   4.969
 5859TIP3    H217521   5.576   0.941   5.020
 5860TIP3   OH217522   5.101   0.173   4.201
 5860TIP3    H117523   5.064   0.097   4.245
 5860TIP3    H217524   5.172   0.201   4.258
 5861TIP3   OH217525   5.174   1.015   5.462
 5861TIP3    H117526   5.233   1.021   5.536
 5861TIP3    H217527   5.136   1.103   5.455
 5862TIP3   OH217528   5.238   0.293   4.418
 5862TIP3    H117529   5.333   0.293   4.428
 5862TIP3    H217530   5.219   0.377   4.375
 5863TIP3   OH217531   4.447   0.742   5.071
 5863TIP3    H117532   4.481   0.720   4.984
 5863TIP3    H217533   4.511   0.704   5.132
 5864TIP3   OH217534   4.928   0.863   4.284
 5864TIP3    H117535   4.883   0.947   4.280
 5864TIP3    H217536   4.868   0.806   4.333
 5865TIP3   OH217537   4.364   0.628   5.722
 5865TIP3    H117538   4.362   0.620   5.817
 5865TIP3    H217539   4.278   0.599   5.693
 5866TIP3   OH217540   5.066   0.800   5.760
 5866TIP3    H117541   5.005   0.734   5.728
 5866TIP3    H217542   5.150   0.776   5.722
 5867TIP3   OH217543   5.325   1.328   5.339
 5867TIP3    H117544   5.230   1.315   5.344
 5867TIP3    H217545   5.348   1.367   5.423
 5868TIP3   OH217546   5.708   0.401   4.257
 5868TIP3    H117547   5.637   0.358   4.211
 5868TIP3    H217548   5.717   0.487   4.214
 5869TIP3   OH217549   5.968   1.249   5.303
 5869TIP3    H117550   5.874   1.232   5.297
 5869TIP3    H217551   6.005   1.211   5.223
 5870TIP3   OH217552   5.451   1.178   4.159
 5870TIP3    H117553   5.421   1.105   4.213
 5870TIP3    H217554   5.472   1.139   4.075
 5871TIP3   OH217555   5.410   0.877   4.966
 5871TIP3    H117556   5.321   0.844   4.984
 5871TIP3    H217557   5.453   0.804   4.920
 5872TIP3   OH217558   4.589   1.063   4.754
 5872TIP3    H117559   4.586   1.139   4.696
 5872TIP3    H217560   4.498   1.048   4.778
 5873TIP3   OH217561   4.161   0.334   4.494
 5873TIP3    H117562   4.201   0.421   4.483
 5873TIP3    H217563   4.081   0.351   4.544
 5874TIP3   OH217564   4.681   0.823   4.657
 5874TIP3    H117565   4.664   0.913   4.686
 5874TIP3    H217566   4.642   0.769   4.727
 5875TIP3   OH217567   4.872   1.378   5.207
 5875TIP3    H117568   4.907   1.452   5.157
 5875TIP3    H217569   4.947   1.345   5.257
 5876TIP3   OH217570   4.505   1.282   4.603
 5876TIP3    H117571   4.416   1.289   4.639
 5876TIP3    H217572   4.540   1.371   4.608
 5877TIP3   OH217573   5.225   1.045   5.182
 5877TIP3    H117574   5.220   1.026   5.275
 5877TIP3    H217575   5.299   0.992   5.150
 5878TIP3   OH217576   5.210   0.925   4.028
 5878TIP3    H117577   5.261   0.909   4.107
 5878TIP3    H217578   5.127   0.880   4.044
 5879TIP3   OH217579   5.479   1.541   5.219
 5879TIP3    H117580   5.406   1.481   5.234
 5879TIP3    H217581   5.448   1.597   5.147
 5880TIP3   OH217582   5.530   1.388   3.854
 5880TIP3    H117583   5.545   1.447   3.780
 5880TIP3    H217584   5.460   1.430   3.904
 5881TIP3   OH217585   5.388   0.881   4.229
 5881TIP3    H117586   5.363   0.833   4.307
 5881TIP3    H217587   5.484   0.875   4.227
 5882TIP3   OH217588   4.299   1.279   5.365
 5882TIP3    H117589   4.354   1.221   5.419
 5882TIP3    H217590   4.314   1.366   5.402
 5883TIP3   OH217591   4.572   0.896   4.064
 5883TIP3    H117592   4.580   0.805   4.036
 5883TIP3    H217593   4.557   0.890   4.159
 5884TIP3   OH217594   4.515   0.906   4.335
 5884TIP3    H117595   4.583   0.881   4.398
 5884TIP3    H217596   4.512   1.002   4.340
 5885TIP3   OH217597   4.234   0.606   4.535
 5885TIP3    H117598   4.166   0.654   4.584
 5885TIP3    H217599   4.255   0.664   4.462
 5886TIP3   OH217600   4.784   1.093   4.275
 5886TIP3    H117601   4.698   1.116   4.311
 5886TIP3    H217602   4.806   1.165   4.216
 5887TIP3   OH217603   4.967   0.173   4.613
 5887TIP3    H117604   5.021   0.252   4.620
 5887TIP3    H217605   4.949   0.148   4.704
 5888TIP3   OH217606   5.237   0.515   5.474
 5888TIP3    H117607   5.204   0.588   5.526
 5888TIP3    H217608   5.304   0.475   5.529
 5889TIP3   OH217609   4.533   1.178   4.351
 5889TIP3    H117610   4.512   1.248   4.289
 5889TIP3    H217611   4.520   1.217   4.437
 5890TIP3   OH217612   5.523   0.660   4.848
 5890TIP3    H117613   5.442   0.609   4.850
 5890TIP3    H217614   5.582   0.612   4.907
 5891TIP3   OH217615   4.266   0.783   4.323
 5891TIP3    H117616   4.338   0.845   4.331
 5891TIP3    H217617   4.297   0.720   4.257
 5892TIP3   OH217618   4.006   0.142   4.369
 5892TIP3    H117619   4.046   0.213   4.420
 5892TIP3    H217620   4.011   0.065   4.426
 5893TIP3   OH217621   5.508   1.539   4.791
 5893TIP3    H117622   5.466   1.590   4.722
 5893TIP3    H217623   5.601   1.550   4.776
 5894TIP3   OH217624   4.084   1.048   4.706
 5894TIP3    H117625   4.038   1.080   4.783
 5894TIP3    H217626   4.036   1.085   4.632
 5895TIP3   OH217627   4.297   1.575   5.788
 5895TIP3    H117628   4.379   1.580   5.837
 5895TIP3    H217629   4.281   1.482   5.776
 5896TIP3   OH217630   4.761   1.486   5.836
 5896TIP3    H117631   4.854   1.464   5.843
 5896TIP3    H217632   4.729   1.432   5.764
 5897TIP3   OH217633   4.726   1.091   3.950
 5897TIP3    H117634   4.679   1.022   3.995
 5897TIP3    H217635   4.800   1.046   3.908
 5898TIP3   OH217636   5.384   1.429   5.587
 5898TIP3    H117637   5.398   1.362   5.653
 5898TIP3    H217638   5.457   1.490   5.599
 5899TIP3   OH217639   5.166   1.138   3.867
 5899TIP3    H117640   5.196   1.070   3.927
 5899TIP3    H217641   5.223   1.130   3.790
 5900TIP3   OH217642   4.399   0.978   5.981
 5900TIP3    H117643   4.422   0.886   5.987
 5900TIP3    H217644   4.312   0.978   5.940
 5901TIP3   OH217645   4.390   0.589   4.178
 5901TIP3    H117646   4.441   0.566   4.256
 5901TIP3    H217647   4.456   0.604   4.110
 5902TIP3   OH217648   5.019   1.073   5.763
 5902TIP3    H117649   4.973   1.091   5.680
 5902TIP3    H217650   5.047   0.982   5.755
 5903TIP3   OH217651   4.955   0.813   4.015
 5903TIP3    H117652   4.935   0.821   4.108
 5903TIP3    H217653   4.931   0.723   3.993
 5904TIP3   OH217654   5.489   1.106   5.371
 5904TIP3    H117655   5.568   1.131   5.323
 5904TIP3    H217656   5.427   1.176   5.353
 5905TIP3   OH217657   4.519   0.726   5.980
 5905TIP3    H117658   4.602   0.710   5.934
 5905TIP3    H217659   4.546   0.738   6.072
 5906TIP3   OH217660   4.554   0.529   4.395
 5906TIP3    H117661   4.532   0.494   4.482
 5906TIP3    H217662   4.604   0.459   4.353
 5907TIP3   OH217663   4.877   0.624   5.629
 5907TIP3    H117664   4.793   0.667   5.646
 5907TIP3    H217665   4.916   0.674   5.558
 5908TIP3   OH217666   4.696   0.358   4.232
 5908TIP3    H117667   4.659   0.361   4.144
 5908TIP3    H217668   4.789   0.378   4.220
 5909TIP3   OH217669   5.371   0.992   5.726
 5909TIP3    H117670   5.440   0.955   5.670
 5909TIP3    H217671   5.365   0.932   5.800
 5910TIP3   OH217672   5.500   0.628   3.915
 5910TIP3    H117673   5.478   0.584   3.832
 5910TIP3    H217674   5.477   0.719   3.901
 5911TIP3   OH217675   4.981   0.370   5.669
 5911TIP3    H117676   4.925   0.310   5.620
 5911TIP3    H217677   4.947   0.457   5.650
 5912TIP3   OH217678   5.034   0.759   5.443
 5912TIP3    H117679   5.095   0.832   5.453
 5912TIP3    H217680   4.967   0.792   5.382
 5913TIP3   OH217681   5.574   0.653   5.739
 5913TIP3    H117682   5.565   0.634   5.833
 5913TIP3    H217683   5.634   0.727   5.735
 5914TIP3   OH217684   5.606   0.946   5.554
 5914TIP3    H117685   5.553   1.006   5.500
 5914TIP3    H217686   5.695   0.957   5.520
 5915TIP3   OH217687   4.836   0.569   6.015
 5915TIP3    H117688   4.752   0.525   6.016
 5915TIP3    H217689   4.893   0.512   5.963
 5916TIP3   OH217690   5.228   0.456   5.766
 5916TIP3    H117691   5.242   0.432   5.858
 5916TIP3    H217692   5.146   0.412   5.742
 5917TIP3   OH217693   4.530   1.386   4.168
 5917TIP3    H117694   4.619   1.366   4.139
 5917TIP3    H217695   4.489   1.430   4.093
 5918TIP3   OH217696   3.994   0.774   4.341
 5918TIP3    H117697   4.088   0.788   4.335
 5918TIP3    H217698   3.980   0.689   4.299
 5919TIP3   OH217699   3.881   1.343   4.789
 5919TIP3    H117700   3.822   1.291   4.735
 5919TIP3    H217701   3.923   1.279   4.847
 5920TIP3   OH217702   4.030   1.182   4.965
 5920TIP3    H117703   4.021   1.115   5.032
 5920TIP3    H217704   4.082   1.251   5.006
 5921TIP3   OH217705   5.779   1.585   4.783
 5921TIP3    H117706   5.798   1.616   4.872
 5921TIP3    H217707   5.833   1.641   4.727
 5922TIP3   OH217708   5.793   1.622   5.064
 5922TIP3    H117709   5.747   1.538   5.060
 5922TIP3    H217710   5.864   1.607   5.127
 5923TIP3   OH217711   5.859   1.311   5.649
 5923TIP3    H117712   5.783   1.325   5.704
 5923TIP3    H217713   5.902   1.396   5.644
 5924TIP3   OH217714   5.664   0.859   4.234
 5924TIP3    H117715   5.724   0.927   4.203
 5924TIP3    H217716   5.702   0.830   4.317
 5925TIP3   OH217717   5.778   0.746   4.457
 5925TIP3    H117718   5.730   0.699   4.525
 5925TIP3    H217719   5.850   0.787   4.503
 5926TIP3   OH217720   5.851   1.099   4.879
 5926TIP3    H117721   5.891   1.030   4.827
 5926TIP3    H217722   5.850   1.176   4.822
 5927TIP3   OH217723   5.653   1.381   5.073
 5927TIP3    H117724   5.586   1.428   5.122
 5927TIP3    H217725   5.607   1.342   4.999
 5928TIP3   OH217726   5.701   0.625   4.100
 5928TIP3    H117727   5.631   0.620   4.035
 5928TIP3    H217728   5.684   0.707   4.147
 5929TIP3   OH217729   5.549   0.301   4.045
 5929TIP3    H117730   5.610   0.354   3.994
 5929TIP3    H217731   5.542   0.219   3.997
 5930TIP3   OH217732   5.664   0.558   4.639
 5930TIP3    H117733   5.715   0.490   4.682
 5930TIP3    H217734   5.625   0.608   4.710
 5931TIP3   OH217735   4.207   0.594   5.357
 5931TIP3    H117736   4.199   0.589   5.262
 5931TIP3    H217737   4.300   0.611   5.372
 5932TIP3   OH217738   5.856   0.978   5.441
 5932TIP3    H117739   5.929   0.919   5.423
 5932TIP3    H217740   5.857   1.041   5.370
 5933TIP3   OH217741   6.057   0.794   5.448
 5933TIP3    H117742   5.993   0.726   5.471
 5933TIP3    H217743   6.132   0.777   5.505
 5934TIP3   OH217744   5.578   0.262   4.556
 5934TIP3    H117745   5.597   0.214   4.475
 5934TIP3    H217746   5.610   0.351   4.539
 5935TIP3   OH217747   5.720   0.541   4.983
 5935TIP3    H117748   5.805   0.559   4.942
 5935TIP3    H217749   5.736   0.546   5.077
 5936TIP3   OH217750   5.810   0.616   5.231
 5936TIP3    H117751   5.732   0.649   5.276
 5936TIP3    H217752   5.849   0.694   5.191
 5937TIP3   OH217753   4.360   0.269   6.032
 5937TIP3    H117754   4.410   0.198   5.991
 5937TIP3    H217755   4.313   0.226   6.104
 5938TIP3   OH217756   4.169   0.317   5.392
 5938TIP3    H117757   4.210   0.279   5.314
 5938TIP3    H217758   4.188   0.411   5.386
 5939TIP3   OH217759   5.339   1.502   4.425
 5939TIP3    H117760   5.395   1.489   4.348
 5939TIP3    H217761   5.381   1.574   4.473
 5940TIP3   OH217762   4.432   1.293   5.803
 5940TIP3    H117763   4.339   1.274   5.796
 5940TIP3    H217764   4.451   1.292   5.897
 5941TIP3   OH217765   4.644   1.343   5.357
 5941TIP3    H117766   4.593   1.418   5.325
 5941TIP3    H217767   4.728   1.352   5.312
 5942TIP3   OH217768   5.043   1.571   5.491
 5942TIP3    H117769   5.079   1.566   5.579
 5942TIP3    H217770   5.104   1.626   5.442
 5943TIP3   OH217771   5.234   1.729   5.368
 5943TIP3    H117772   5.297   1.678   5.317
 5943TIP3    H217773   5.287   1.787   5.422
 5944TIP3   OH217774   4.304   1.576   5.405
 5944TIP3    H117775   4.213   1.593   5.381
 5944TIP3    H217776   4.325   1.645   5.468
 5945TIP3   OH217777   4.534   1.573   5.253
 5945TIP3    H117778   4.451   1.578   5.300
 5945TIP3    H217779   4.512   1.598   5.163
 5946TIP3   OH217780   4.949   1.589   5.045
 5946TIP3    H117781   4.878   1.601   4.982
 5946TIP3    H217782   4.960   1.675   5.085
 5947TIP3   OH217783   5.213   1.524   5.093
 5947TIP3    H117784   5.121   1.545   5.074
 5947TIP3    H217785   5.263   1.592   5.047
 5948TIP3   OH217786   5.414   1.698   4.995
 5948TIP3    H117787   5.413   1.785   4.957
 5948TIP3    H217788   5.444   1.641   4.924
 5949TIP3   OH217789   4.208   1.359   5.115
 5949TIP3    H117790   4.236   1.337   5.204
 5949TIP3    H217791   4.280   1.328   5.059
 5950TIP3   OH217792   4.414   1.250   4.975
 5950TIP3    H117793   4.426   1.168   5.024
 5950TIP3    H217794   4.500   1.292   4.977
 5951TIP3   OH217795   4.684   1.332   5.003
 5951TIP3    H117796   4.701   1.239   4.989
 5951TIP3    H217797   4.739   1.356   5.078
 5952TIP3   OH217798   3.944   1.154   4.490
 5952TIP3    H117799   3.858   1.129   4.457
 5952TIP3    H217800   3.955   1.244   4.461
 5953TIP3   OH217801   4.785   1.312   4.098
 5953TIP3    H117802   4.868   1.341   4.060
 5953TIP3    H217803   4.755   1.242   4.040
 5954TIP3   OH217804   5.489   1.448   4.197
 5954TIP3    H117805   5.480   1.353   4.190
 5954TIP3    H217806   5.444   1.482   4.119
 5955TIP3   OH217807   4.081   1.153   4.138
 5955TIP3    H117808   4.073   1.164   4.233
 5955TIP3    H217809   4.165   1.109   4.126
 5956TIP3   OH217810   5.701   1.592   5.383
 5956TIP3    H117811   5.626   1.563   5.331
 5956TIP3    H217812   5.690   1.686   5.391
 5957TIP3   OH217813   6.962   0.962   4.149
 5957TIP3    H117814   6.944   1.054   4.131
 5957TIP3    H217815   6.893   0.914   4.104
 5958TIP3   OH217816   6.983   1.015   4.526
 5958TIP3    H117817   7.022   1.000   4.611
 5958TIP3    H217818   6.937   0.934   4.505
 5959TIP3   OH217819   6.273   0.884   4.891
 5959TIP3    H117820   6.317   0.831   4.958
 5959TIP3    H217821   6.341   0.905   4.828
 5960TIP3   OH217822   7.247   1.292   4.217
 5960TIP3    H117823   7.231   1.231   4.289
 5960TIP3    H217824   7.269   1.375   4.260
 5961TIP3   OH217825   6.266   1.273   4.589
 5961TIP3    H117826   6.245   1.180   4.586
 5961TIP3    H217827   6.361   1.277   4.575
 5962TIP3   OH217828   5.913   0.506   4.433
 5962TIP3    H117829   5.872   0.593   4.429
 5962TIP3    H217830   5.857   0.450   4.379
 5963TIP3   OH217831   6.014   0.835   4.571
 5963TIP3    H117832   6.080   0.767   4.588
 5963TIP3    H217833   6.065   0.911   4.543
 5964TIP3   OH217834   6.903   1.708   4.235
 5964TIP3    H117835   6.928   1.645   4.168
 5964TIP3    H217836   6.910   1.660   4.318
 5965TIP3   OH217837   6.780   1.211   4.556
 5965TIP3    H117838   6.826   1.136   4.518
 5965TIP3    H217839   6.850   1.268   4.589
 5966TIP3   OH217840   7.167   0.721   4.575
 5966TIP3    H117841   7.173   0.626   4.566
 5966TIP3    H217842   7.125   0.751   4.494
 5967TIP3   OH217843   6.609   0.261   4.510
 5967TIP3    H117844   6.572   0.316   4.580
 5967TIP3    H217845   6.534   0.239   4.455
 5968TIP3   OH217846   7.146   0.399   4.259
 5968TIP3    H117847   7.239   0.384   4.276
 5968TIP3    H217848   7.145   0.475   4.201
 5969TIP3   OH217849   6.213   0.669   4.647
 5969TIP3    H117850   6.254   0.629   4.724
 5969TIP3    H217851   6.238   0.613   4.574
 5970TIP3   OH217852   6.588   0.804   4.486
 5970TIP3    H117853   6.684   0.800   4.481
 5970TIP3    H217854   6.559   0.727   4.439
 5971TIP3   OH217855   7.828   0.695   4.755
 5971TIP3    H117856   7.751   0.752   4.743
 5971TIP3    H217857   7.874   0.733   4.830
 5972TIP3   OH217858   6.874   1.182   4.002
 5972TIP3    H117859   6.836   1.157   3.918
 5972TIP3    H217860   6.827   1.262   4.027
 5973TIP3   OH217861   6.630   1.130   4.774
 5973TIP3    H117862   6.572   1.200   4.803
 5973TIP3    H217863   6.675   1.167   4.698
 5974TIP3   OH217864   6.355   0.522   4.841
 5974TIP3    H117865   6.428   0.585   4.848
 5974TIP3    H217866   6.377   0.469   4.764
 5975TIP3   OH217867   6.464   1.325   4.873
 5975TIP3    H117868   6.450   1.415   4.841
 5975TIP3    H217869   6.384   1.305   4.922
 5976TIP3   OH217870   5.844   1.038   4.119
 5976TIP3    H117871   5.809   1.058   4.032
 5976TIP3    H217872   5.866   1.124   4.156
 5977TIP3   OH217873   7.283   1.531   4.362
 5977TIP3    H117874   7.195   1.523   4.399
 5977TIP3    H217875   7.283   1.615   4.317
 5978TIP3   OH217876   6.989   1.557   4.019
 5978TIP3    H117877   7.042   1.478   4.006
 5978TIP3    H217878   7.045   1.629   3.991
 5979TIP3   OH217879   7.139   1.337   3.968
 5979TIP3    H117880   7.089   1.258   3.947
 5979TIP3    H217881   7.185   1.316   4.049
 5980TIP3   OH217882   7.521   1.418   4.714
 5980TIP3    H117883   7.502   1.346   4.653
 5980TIP3    H217884   7.503   1.497   4.663
 5981TIP3   OH217885   6.793   0.835   3.973
 5981TIP3    H117886   6.709   0.877   3.952
 5981TIP3    H217887   6.841   0.834   3.890
 5982TIP3   OH217888   6.755   0.666   3.664
 5982TIP3    H117889   6.823   0.722   3.701
 5982TIP3    H217890   6.791   0.578   3.668
 5983TIP3   OH217891   7.689   1.082   4.566
 5983TIP3    H117892   7.606   1.130   4.557
 5983TIP3    H217893   7.733   1.096   4.482
 5984TIP3   OH217894   7.144   0.929   3.941
 5984TIP3    H117895   7.088   0.944   4.017
 5984TIP3    H217896   7.233   0.924   3.978
 5985TIP3   OH217897   7.381   0.979   4.858
 5985TIP3    H117898   7.364   1.057   4.911
 5985TIP3    H217899   7.298   0.963   4.813
 5986TIP3   OH217900   6.363   0.899   4.328
 5986TIP3    H117901   6.324   0.832   4.272
 5986TIP3    H217902   6.439   0.856   4.368
 5987TIP3   OH217903   6.525   1.312   4.486
 5987TIP3    H117904   6.503   1.299   4.394
 5987TIP3    H217905   6.613   1.277   4.495
 5988TIP3   OH217906   6.476   0.917   4.705
 5988TIP3    H117907   6.514   0.883   4.624
 5988TIP3    H217908   6.529   0.993   4.727
 5989TIP3   OH217909   7.043   1.522   4.492
 5989TIP3    H117910   7.030   1.603   4.540
 5989TIP3    H217911   7.028   1.453   4.556
 5990TIP3   OH217912   6.662   1.419   5.042
 5990TIP3    H117913   6.602   1.479   5.088
 5990TIP3    H217914   6.605   1.369   4.983
 5991TIP3   OH217915   6.981   0.795   3.765
 5991TIP3    H117916   7.041   0.852   3.813
 5991TIP3    H217917   7.015   0.792   3.676
 5992TIP3   OH217918   6.429   1.003   5.163
 5992TIP3    H117919   6.423   1.094   5.190
 5992TIP3    H217920   6.339   0.972   5.164
 5993TIP3   OH217921   6.745   1.429   4.029
 5993TIP3    H117922   6.826   1.480   4.033
 5993TIP3    H217923   6.684   1.486   3.981
 5994TIP3   OH217924   6.454   1.580   5.125
 5994TIP3    H117925   6.430   1.593   5.033
 5994TIP3    H217926   6.371   1.566   5.170
 5995TIP3   OH217927   6.222   0.709   4.157
 5995TIP3    H117928   6.160   0.769   4.116
 5995TIP3    H217929   6.174   0.626   4.164
 5996TIP3   OH217930   7.323   1.373   3.380
 5996TIP3    H117931   7.319   1.467   3.361
 5996TIP3    H217932   7.413   1.348   3.357
 5997TIP3   OH217933   6.052   1.127   5.073
 5997TIP3    H117934   5.980   1.119   5.010
 5997TIP3    H217935   6.091   1.040   5.076
 5998TIP3   OH217936   5.893   1.332   4.729
 5998TIP3    H117937   5.985   1.356   4.741
 5998TIP3    H217938   5.844   1.410   4.756
 5999TIP3   OH217939   7.753   1.792   4.772
 5999TIP3    H117940   7.758   1.697   4.778
 5999TIP3    H217941   7.670   1.815   4.815
 6000TIP3   OH217942   6.852   1.560   4.903
 6000TIP3    H117943   6.845   1.651   4.930
 6000TIP3    H217944   6.784   1.514   4.952
 6001TIP3   OH217945   6.633   1.661   3.856
 6001TIP3    H117946   6.589   1.642   3.773
 6001TIP3    H217947   6.597   1.744   3.885
 6002TIP3   OH217948   6.068   1.521   4.232
 6002TIP3    H117949   6.112   1.514   4.316
 6002TIP3    H217950   6.018   1.440   4.223
 6003TIP3   OH217951   6.834   1.597   3.482
 6003TIP3    H117952   6.885   1.524   3.446
 6003TIP3    H217953   6.869   1.610   3.570
 6004TIP3   OH217954   6.887   1.637   3.752
 6004TIP3    H117955   6.801   1.640   3.795
 6004TIP3    H217956   6.946   1.603   3.818
 6005TIP3   OH217957   7.607   0.913   5.018
 6005TIP3    H117958   7.526   0.960   4.996
 6005TIP3    H217959   7.652   0.903   4.934
 6006TIP3   OH217960   6.243   1.327   5.040
 6006TIP3    H117961   6.292   1.322   5.122
 6006TIP3    H217962   6.174   1.260   5.049
 6007TIP3   OH217963   7.489   0.663   4.992
 6007TIP3    H117964   7.527   0.750   5.002
 6007TIP3    H217965   7.434   0.669   4.914
 6008TIP3   OH217966   7.069   0.769   3.510
 6008TIP3    H117967   7.022   0.763   3.427
 6008TIP3    H217968   7.153   0.808   3.488
 6009TIP3   OH217969   6.554   0.709   4.862
 6009TIP3    H117970   6.567   0.752   4.946
 6009TIP3    H217971   6.522   0.777   4.803
 6010TIP3   OH217972   6.451   0.615   4.352
 6010TIP3    H117973   6.357   0.603   4.342
 6010TIP3    H217974   6.488   0.585   4.269
 6011TIP3   OH217975   6.900   0.634   4.125
 6011TIP3    H117976   6.848   0.704   4.085
 6011TIP3    H217977   6.955   0.603   4.054
 6012TIP3   OH217978   7.116   0.917   5.170
 6012TIP3    H117979   7.094   0.840   5.223
 6012TIP3    H217980   7.210   0.930   5.184
 6013TIP3   OH217981   7.082   0.769   4.311
 6013TIP3    H117982   7.035   0.839   4.266
 6013TIP3    H217983   7.019   0.697   4.316
 6014TIP3   OH217984   6.339   0.684   5.092
 6014TIP3    H117985   6.276   0.744   5.132
 6014TIP3    H217986   6.286   0.616   5.051
 6015TIP3   OH217987   6.067   0.451   4.169
 6015TIP3    H117988   6.052   0.427   4.078
 6015TIP3    H217989   6.031   0.378   4.219
 6016TIP3   OH217990   7.129   0.929   4.746
 6016TIP3    H117991   7.149   0.860   4.682
 6016TIP3    H217992   7.088   0.883   4.819
 6017TIP3   OH217993   6.198   0.499   4.407
 6017TIP3    H117994   6.105   0.521   4.406
 6017TIP3    H217995   6.210   0.445   4.329
 6018TIP3   OH217996   6.516   0.522   4.108
 6018TIP3    H117997   6.601   0.479   4.097
 6018TIP3    H217998   6.469   0.502   4.026
 6019TIP3   OH217999   6.350   0.461   3.895
 6019TIP3    H118000   6.270   0.442   3.846
 6019TIP3    H218001   6.407   0.506   3.831
 6020TIP3   OH218002   7.460   2.120   4.867
 6020TIP3    H118003   7.454   2.137   4.773
 6020TIP3    H218004   7.538   2.169   4.895
 6021TIP3   OH218005   6.400   1.255   5.278
 6021TIP3    H118006   6.481   1.272   5.327
 6021TIP3    H218007   6.330   1.268   5.342
 6022TIP3   OH218008   6.858   0.773   4.524
 6022TIP3    H118009   6.896   0.688   4.500
 6022TIP3    H218010   6.846   0.769   4.618
 6023TIP3   OH218011   6.816   0.776   4.792
 6023TIP3    H118012   6.734   0.754   4.837
 6023TIP3    H218013   6.873   0.807   4.862
 6024TIP3   OH218014   6.553   0.963   3.915
 6024TIP3    H118015   6.478   0.905   3.900
 6024TIP3    H218016   6.535   1.004   4.000
 6025TIP3   OH218017   7.460   1.229   4.527
 6025TIP3    H118018   7.497   1.275   4.451
 6025TIP3    H218019   7.376   1.195   4.496
 6026TIP3   OH218020   6.903   0.440   3.694
 6026TIP3    H118021   6.876   0.359   3.737
 6026TIP3    H218022   6.970   0.476   3.752
 6027TIP3   OH218023   6.975   1.281   4.950
 6027TIP3    H118024   7.039   1.285   5.020
 6027TIP3    H218025   6.938   1.369   4.945
 6028TIP3   OH218026   7.048   0.558   3.901
 6028TIP3    H118027   7.121   0.573   3.961
 6028TIP3    H218028   7.039   0.641   3.853
 6029TIP3   OH218029   6.244   0.998   4.556
 6029TIP3    H118030   6.278   0.973   4.470
 6029TIP3    H218031   6.305   0.958   4.618
 6030TIP3   OH218032   6.723   1.118   3.769
 6030TIP3    H118033   6.680   1.203   3.765
 6030TIP3    H218034   6.661   1.062   3.817
 6031TIP3   OH218035   6.166   0.878   5.190
 6031TIP3    H118036   6.174   0.896   5.284
 6031TIP3    H218037   6.075   0.852   5.177
 6032TIP3   OH218038   6.894   1.067   5.218
 6032TIP3    H118039   6.848   1.055   5.135
 6032TIP3    H218040   6.981   1.029   5.204
 6033TIP3   OH218041   7.121   1.584   4.826
 6033TIP3    H118042   7.026   1.573   4.830
 6033TIP3    H218043   7.145   1.624   4.909
 6034TIP3   OH218044   7.495   0.661   3.692
 6034TIP3    H118045   7.426   0.622   3.638
 6034TIP3    H218046   7.507   0.749   3.656
 6035TIP3   OH218047   7.769   1.513   4.789
 6035TIP3    H118048   7.676   1.492   4.787
 6035TIP3    H218049   7.802   1.484   4.703
 6036TIP3   OH218050   7.243   1.442   3.645
 6036TIP3    H118051   7.218   1.373   3.706
 6036TIP3    H218052   7.262   1.397   3.563
 6037TIP3   OH218053   7.224   1.117   4.431
 6037TIP3    H118054   7.134   1.090   4.453
 6037TIP3    H218055   7.262   1.039   4.391
 6038TIP3   OH218056   6.386   1.318   4.241
 6038TIP3    H118057   6.385   1.394   4.182
 6038TIP3    H218058   6.295   1.305   4.266
 6039TIP3   OH218059   5.925   0.618   3.945
 6039TIP3    H118060   5.978   0.696   3.960
 6039TIP3    H218061   5.854   0.624   4.009
 6040TIP3   OH218062   6.475   1.075   4.145
 6040TIP3    H118063   6.459   1.165   4.175
 6040TIP3    H218064   6.437   1.020   4.214
 6041TIP3   OH218065   6.670   1.635   4.694
 6041TIP3    H118066   6.704   1.709   4.644
 6041TIP3    H218067   6.745   1.602   4.744
 6042TIP3   OH218068   6.302   1.538   4.088
 6042TIP3    H118069   6.215   1.545   4.127
 6042TIP3    H218070   6.338   1.627   4.093
 6043TIP3   OH218071   7.019   1.305   4.670
 6043TIP3    H118072   7.014   1.291   4.765
 6043TIP3    H218073   7.096   1.255   4.643
 6044TIP3   OH218074   7.007   1.182   3.533
 6044TIP3    H118075   7.053   1.161   3.614
 6044TIP3    H218076   6.922   1.139   3.542
 6045TIP3   OH218077   7.275   1.798   4.705
 6045TIP3    H118078   7.202   1.738   4.719
 6045TIP3    H218079   7.247   1.854   4.633
 6046TIP3   OH218080   7.325   1.647   3.341
 6046TIP3    H118081   7.337   1.706   3.266
 6046TIP3    H218082   7.256   1.688   3.393
 6047TIP3   OH218083   7.170   1.117   3.741
 6047TIP3    H118084   7.158   1.055   3.813
 6047TIP3    H218085   7.265   1.125   3.731
 6048TIP3   OH218086   6.097   1.530   4.855
 6048TIP3    H118087   6.150   1.470   4.909
 6048TIP3    H218088   6.113   1.617   4.894
 6049TIP3   OH218089   6.366   1.152   3.551
 6049TIP3    H118090   6.375   1.061   3.524
 6049TIP3    H218091   6.351   1.148   3.646
 6050TIP3   OH218092   6.309   1.161   3.822
 6050TIP3    H118093   6.378   1.133   3.882
 6050TIP3    H218094   6.308   1.256   3.829
 6051TIP3   OH218095   6.036   0.862   4.024
 6051TIP3    H118096   5.972   0.912   4.075
 6051TIP3    H218097   6.059   0.920   3.952
 6052TIP3   OH218098   6.579   1.347   3.759
 6052TIP3    H118099   6.494   1.371   3.796
 6052TIP3    H218100   6.603   1.421   3.704
 6053TIP3   OH218101   6.763   0.401   4.102
 6053TIP3    H118102   6.803   0.483   4.130
 6053TIP3    H218103   6.758   0.348   4.181
 6054TIP3   OH218104   7.044   0.770   4.952
 6054TIP3    H118105   7.058   0.828   5.027
 6054TIP3    H218106   7.112   0.704   4.959
 6055TIP3   OH218107   6.328   1.432   3.837
 6055TIP3    H118108   6.308   1.503   3.776
 6055TIP3    H218109   6.317   1.472   3.923
 6056TIP3   OH218110   7.327   0.884   4.326
 6056TIP3    H118111   7.249   0.830   4.340
 6056TIP3    H218112   7.391   0.848   4.387
 6057TIP3   OH218113   6.060   1.038   3.808
 6057TIP3    H118114   6.133   1.100   3.818
 6057TIP3    H218115   6.092   0.973   3.746
 6058TIP3   OH218116   5.758   0.391   3.888
 6058TIP3    H118117   5.808   0.470   3.911
 6058TIP3    H218118   5.822   0.334   3.846
 6059TIP3   OH218119   7.306   1.793   4.277
 6059TIP3    H118120   7.265   1.846   4.208
 6059TIP3    H218121   7.400   1.805   4.263
 6060TIP3   OH218122   5.892   1.302   4.209
 6060TIP3    H118123   5.848   1.337   4.286
 6060TIP3    H218124   5.848   1.344   4.135
 6061TIP3   OH218125   6.094   1.834   5.276
 6061TIP3    H118126   6.176   1.838   5.325
 6061TIP3    H218127   6.079   1.740   5.263
 6062TIP3   OH218128   6.559   1.743   5.322
 6062TIP3    H118129   6.651   1.720   5.329
 6062TIP3    H218130   6.526   1.690   5.249
 6063TIP3   OH218131   6.523   1.348   3.439
 6063TIP3    H118132   6.475   1.279   3.485
 6063TIP3    H218133   6.597   1.303   3.398
 6064TIP3   OH218134   7.179   1.685   5.074
 6064TIP3    H118135   7.193   1.617   5.140
 6064TIP3    H218136   7.252   1.745   5.086
 6065TIP3   OH218137   6.961   1.388   3.360
 6065TIP3    H118138   6.993   1.324   3.423
 6065TIP3    H218139   7.020   1.381   3.285
 6066TIP3   OH218140   6.192   1.252   5.466
 6066TIP3    H118141   6.216   1.159   5.468
 6066TIP3    H218142   6.106   1.253   5.423
 6067TIP3   OH218143   6.185   0.841   3.668
 6067TIP3    H118144   6.233   0.817   3.747
 6067TIP3    H218145   6.253   0.858   3.603
 6068TIP3   OH218146   6.816   1.331   5.252
 6068TIP3    H118147   6.770   1.350   5.170
 6068TIP3    H218148   6.857   1.246   5.238
 6069TIP3   OH218149   6.752   1.068   3.500
 6069TIP3    H118150   6.731   1.075   3.593
 6069TIP3    H218151   6.731   0.977   3.478
 6070TIP3   OH218152   7.285   1.361   4.853
 6070TIP3    H118153   7.365   1.386   4.807
 6070TIP3    H218154   7.224   1.433   4.836
 6071TIP3   OH218155   6.285   0.995   5.425
 6071TIP3    H118156   6.378   1.001   5.407
 6071TIP3    H218157   6.279   0.940   5.504
 6072TIP3   OH218158   6.347   0.779   3.890
 6072TIP3    H118159   6.326   0.740   3.975
 6072TIP3    H218160   6.399   0.713   3.845
 6073TIP3   OH218161   6.642   0.860   5.071
 6073TIP3    H118162   6.570   0.909   5.109
 6073TIP3    H218163   6.701   0.928   5.037
 6074TIP3   OH218164   6.491   0.613   3.722
 6074TIP3    H118165   6.457   0.616   3.632
 6074TIP3    H218166   6.585   0.633   3.713
 6075TIP3   OH218167   7.172   1.239   5.207
 6075TIP3    H118168   7.246   1.209   5.154
 6075TIP3    H218169   7.174   1.183   5.285
 6076TIP3   OH218170   7.289   0.885   3.389
 6076TIP3    H118171   7.273   0.846   3.303
 6076TIP3    H218172   7.264   0.977   3.379
 6077TIP3   OH218173   6.772   0.637   5.160
 6077TIP3    H118174   6.727   0.567   5.113
 6077TIP3    H218175   6.733   0.718   5.126
 6078TIP3   OH218176   6.816   1.044   4.956
 6078TIP3    H118177   6.884   1.110   4.944
 6078TIP3    H218178   6.750   1.065   4.889
 6079TIP3   OH218179   7.380   0.907   5.230
 6079TIP3    H118180   7.372   0.884   5.323
 6079TIP3    H218181   7.450   0.972   5.228
 6080TIP3   OH218182   7.402   1.200   5.034
 6080TIP3    H118183   7.350   1.259   4.980
 6080TIP3    H218184   7.492   1.209   5.000
 6081TIP3   OH218185   6.637   0.794   5.520
 6081TIP3    H118186   6.545   0.769   5.525
 6081TIP3    H218187   6.652   0.814   5.427
 6082TIP3   OH218188   7.019   0.674   5.263
 6082TIP3    H118189   6.998   0.673   5.356
 6082TIP3    H218190   6.934   0.670   5.219
 6083TIP3   OH218191   6.323   1.640   3.653
 6083TIP3    H118192   6.413   1.621   3.627
 6083TIP3    H218193   6.285   1.685   3.578
 6084TIP3   OH218194   5.788   1.029   3.829
 6084TIP3    H118195   5.883   1.042   3.824
 6084TIP3    H218196   5.774   0.942   3.791
 6085TIP3   OH218197   5.693   1.606   4.291
 6085TIP3    H118198   5.629   1.551   4.245
 6085TIP3    H218199   5.737   1.546   4.351
 6086TIP3   OH218200   5.836   1.439   4.460
 6086TIP3    H118201   5.827   1.371   4.527
 6086TIP3    H218202   5.889   1.507   4.503
 6087TIP3   OH218203   7.577   1.839   4.262
 6087TIP3    H118204   7.599   1.879   4.346
 6087TIP3    H218205   7.634   1.882   4.199
 6088TIP3   OH218206   7.584   1.880   4.548
 6088TIP3    H118207   7.544   1.793   4.542
 6088TIP3    H218208   7.663   1.867   4.600
 6089TIP3   OH218209   7.649   1.569   5.134
 6089TIP3    H118210   7.575   1.584   5.192
 6089TIP3    H218211   7.694   1.654   5.131
 6090TIP3   OH218212   7.446   1.125   3.717
 6090TIP3    H118213   7.505   1.189   3.678
 6090TIP3    H218214   7.492   1.094   3.795
 6091TIP3   OH218215   7.587   1.026   3.927
 6091TIP3    H118216   7.515   0.997   3.983
 6091TIP3    H218217   7.656   1.051   3.989
 6092TIP3   OH218218   7.646   1.344   4.355
 6092TIP3    H118219   7.689   1.277   4.301
 6092TIP3    H218220   7.650   1.424   4.302
 6093TIP3   OH218221   7.450   1.634   4.561
 6093TIP3    H118222   7.383   1.685   4.608
 6093TIP3    H218223   7.403   1.597   4.486
 6094TIP3   OH218224   7.497   0.901   3.566
 6094TIP3    H118225   7.426   0.895   3.502
 6094TIP3    H218226   7.476   0.980   3.616
 6095TIP3   OH218227   7.328   0.551   3.499
 6095TIP3    H118228   7.305   0.600   3.420
 6095TIP3    H218229   7.372   0.473   3.467
 6096TIP3   OH218230   7.389   0.903   4.064
 6096TIP3    H118231   7.422   0.816   4.044
 6096TIP3    H218232   7.376   0.903   4.159
 6097TIP3   OH218233   6.008   0.858   4.843
 6097TIP3    H118234   6.000   0.853   4.748
 6097TIP3    H218235   6.102   0.874   4.858
 6098TIP3   OH218236   7.653   1.229   4.924
 6098TIP3    H118237   7.725   1.168   4.908
 6098TIP3    H218238   7.654   1.288   4.849
 6099TIP3   OH218239   7.866   1.057   4.929
 6099TIP3    H118240   7.860   0.963   4.945
 6099TIP3    H218241   7.934   1.088   4.988
 6100TIP3   OH218242   7.442   0.655   3.961
 6100TIP3    H118243   7.429   0.561   3.960
 6100TIP3    H218244   7.472   0.677   3.873
 6101TIP3   OH218245   7.527   0.806   4.487
 6101TIP3    H118246   7.611   0.815   4.443
 6101TIP3    H218247   7.547   0.811   4.580
 6102TIP3   OH218248   7.617   0.885   4.740
 6102TIP3    H118249   7.530   0.916   4.768
 6102TIP3    H218250   7.649   0.954   4.682
 6103TIP3   OH218251   6.146   0.520   5.534
 6103TIP3    H118252   6.198   0.455   5.488
 6103TIP3    H218253   6.097   0.470   5.599
 6104TIP3   OH218254   5.975   0.583   4.878
 6104TIP3    H118255   6.020   0.543   4.803
 6104TIP3    H218256   5.993   0.677   4.869
 6105TIP3   OH218257   7.128   1.759   3.912
 6105TIP3    H118258   7.185   1.748   3.836
 6105TIP3    H218259   7.170   1.827   3.965
 6106TIP3   OH218260   6.228   1.551   5.285
 6106TIP3    H118261   6.134   1.533   5.280
 6106TIP3    H218262   6.247   1.548   5.379
 6107TIP3   OH218263   6.441   1.601   4.843
 6107TIP3    H118264   6.390   1.675   4.811
 6107TIP3    H218265   6.526   1.609   4.799
 6108TIP3   OH218266   6.840   1.828   4.978
 6108TIP3    H118267   6.877   1.824   5.066
 6108TIP3    H218268   6.901   1.882   4.928
 6109TIP3   OH218269   7.031   1.985   4.853
 6109TIP3    H118270   7.094   1.935   4.801
 6109TIP3    H218271   7.084   2.042   4.908
 6110TIP3   OH218272   6.100   1.835   4.891
 6110TIP3    H118273   6.009   1.852   4.867
 6110TIP3    H218274   6.122   1.903   4.955
 6111TIP3   OH218275   6.331   1.830   4.740
 6111TIP3    H118276   6.247   1.835   4.786
 6111TIP3    H218277   6.309   1.854   4.650
 6112TIP3   OH218278   6.745   1.846   4.532
 6112TIP3    H118279   6.675   1.858   4.468
 6112TIP3    H218280   6.756   1.933   4.571
 6113TIP3   OH218281   7.008   1.780   4.582
 6113TIP3    H118282   6.917   1.802   4.561
 6113TIP3    H218283   7.060   1.845   4.536
 6114TIP3   OH218284   7.206   1.948   4.481
 6114TIP3    H118285   7.207   2.037   4.445
 6114TIP3    H218286   7.240   1.893   4.410
 6115TIP3   OH218287   6.010   1.617   4.605
 6115TIP3    H118288   6.036   1.594   4.694
 6115TIP3    H218289   6.082   1.587   4.550
 6116TIP3   OH218290   6.214   1.508   4.465
 6116TIP3    H118291   6.225   1.425   4.511
 6116TIP3    H218292   6.301   1.549   4.468
 6117TIP3   OH218293   6.482   1.589   4.491
 6117TIP3    H118294   6.500   1.496   4.476
 6117TIP3    H218295   6.538   1.613   4.565
 6118TIP3   OH218296   5.773   1.418   3.990
 6118TIP3    H118297   5.690   1.386   3.956
 6118TIP3    H218298   5.779   1.508   3.958
 6119TIP3   OH218299   6.580   1.570   3.586
 6119TIP3    H118300   6.664   1.599   3.548
 6119TIP3    H218301   6.551   1.500   3.528
 6120TIP3   OH218302   7.279   1.710   3.684
 6120TIP3    H118303   7.272   1.615   3.676
 6120TIP3    H218304   7.237   1.745   3.606
 6121TIP3   OH218305   5.885   1.410   3.640
 6121TIP3    H118306   5.886   1.423   3.735
 6121TIP3    H218307   5.967   1.364   3.621
 6122TIP3   OH218308   7.498   1.847   4.870
 6122TIP3    H118309   7.424   1.818   4.816
 6122TIP3    H218310   7.487   1.942   4.877
 6123TIP3   OH218311   8.052   1.526   4.117
 6123TIP3    H118312   8.053   1.440   4.074
 6123TIP3    H218313   8.140   1.535   4.155
 6124TIP3   OH218314   7.744   0.784   3.940
 6124TIP3    H118315   7.677   0.838   3.900
 6124TIP3    H218316   7.792   0.745   3.866
 6125TIP3   OH218317   7.845   1.011   4.060
 6125TIP3    H118318   7.819   0.923   4.036
 6125TIP3    H218319   7.906   1.038   3.991
 6126TIP3   OH218320   7.637   1.288   3.601
 6126TIP3    H118321   7.600   1.313   3.516
 6126TIP3    H218322   7.657   1.372   3.644
 6127TIP3   OH218323   8.262   1.867   4.687
 6127TIP3    H118324   8.261   1.847   4.593
 6127TIP3    H218325   8.174   1.845   4.717
 6128TIP3   OH218326   7.841   1.406   4.548
 6128TIP3    H118327   7.771   1.382   4.487
 6128TIP3    H218328   7.877   1.323   4.577
 6129TIP3   OH218329   7.700   1.581   4.216
 6129TIP3    H118330   7.793   1.602   4.221
 6129TIP3    H218331   7.656   1.660   4.246
 6130TIP3   OH218332   7.849   1.779   3.740
 6130TIP3    H118333   7.920   1.774   3.804
 6130TIP3    H218334   7.824   1.688   3.725
 6131TIP3   OH218335   8.016   1.619   4.512
 6131TIP3    H118336   8.095   1.588   4.558
 6131TIP3    H218337   7.955   1.545   4.519
 6132TIP3   OH218338   7.855   0.669   3.714
 6132TIP3    H118339   7.842   0.657   3.620
 6132TIP3    H218340   7.845   0.581   3.751
 6133TIP3   OH218341   8.199   1.501   4.728
 6133TIP3    H118342   8.160   1.577   4.771
 6133TIP3    H218343   8.165   1.426   4.778
 6134TIP3   OH218344   7.946   1.186   4.670
 6134TIP3    H118345   7.999   1.197   4.749
 6134TIP3    H218346   7.883   1.118   4.692
 6135TIP3   OH218347   7.745   0.858   3.459
 6135TIP3    H118348   7.796   0.939   3.461
 6135TIP3    H218349   7.664   0.880   3.505
 6136TIP3   OH218350   7.880   1.796   4.339
 6136TIP3    H118351   7.935   1.740   4.395
 6136TIP3    H218352   7.898   1.884   4.371
 6137TIP3   OH218353   7.828   1.119   3.482
 6137TIP3    H118354   7.771   1.167   3.543
 6137TIP3    H218355   7.846   1.181   3.412
 6138TIP3   OH218356   7.847   1.316   3.277
 6138TIP3    H118357   7.907   1.382   3.313
 6138TIP3    H218358   7.866   1.315   3.183
 6139TIP3   OH218359   7.615   0.654   3.340
 6139TIP3    H118360   7.658   0.726   3.386
 6139TIP3    H218361   7.625   0.579   3.398
 6140TIP3   OH218362   7.679   1.544   3.701
 6140TIP3    H118363   7.647   1.588   3.780
 6140TIP3    H218364   7.640   1.592   3.628
 6141TIP3   OH218365   7.875   2.075   4.761
 6141TIP3    H118366   7.955   2.077   4.814
 6141TIP3    H218367   7.853   1.982   4.754
 6142TIP3   OH218368   7.988   1.494   4.963
 6142TIP3    H118369   8.022   1.406   4.944
 6142TIP3    H218370   7.907   1.499   4.912
 6143TIP3   OH218371   8.124   1.251   4.885
 6143TIP3    H118372   8.207   1.212   4.858
 6143TIP3    H218373   8.102   1.205   4.966
 6144TIP3   OH218374   7.577   1.280   3.316
 6144TIP3    H118375   7.671   1.294   3.310
 6144TIP3    H218376   7.564   1.190   3.284
 6145TIP3   OH218377   7.484   1.859   3.786
 6145TIP3    H118378   7.419   1.805   3.741
 6145TIP3    H218379   7.530   1.798   3.843
 6146TIP3   OH218380   7.628   1.685   3.948
 6146TIP3    H118381   7.622   1.623   4.021
 6146TIP3    H218382   7.689   1.752   3.978
 6147TIP3   OH218383   7.825   1.112   4.317
 6147TIP3    H118384   7.823   1.075   4.228
 6147TIP3    H218385   7.908   1.158   4.322
 6148TIP3   OH218386   7.905   0.799   5.015
 6148TIP3    H118387   7.997   0.824   5.014
 6148TIP3    H218388   7.905   0.707   5.042
 6149TIP3   OH218389   7.793   0.825   4.398
 6149TIP3    H118390   7.838   0.792   4.320
 6149TIP3    H218391   7.817   0.917   4.403
 6150TIP3   OH218392   8.031   1.779   4.810
 6150TIP3    H118393   7.942   1.777   4.774
 6150TIP3    H218394   8.019   1.775   4.905
 6151TIP3   OH218395   7.892   2.075   4.386
 6151TIP3    H118396   7.805   2.099   4.353
 6151TIP3    H218397   7.920   2.150   4.439
 6152TIP3   OH218398   8.110   2.025   4.213
 6152TIP3    H118399   8.041   2.042   4.276
 6152TIP3    H218400   8.092   2.085   4.140
 6153TIP3   OH218401   7.805   1.866   4.082
 6153TIP3    H118402   7.832   1.851   4.172
 6153TIP3    H218403   7.880   1.839   4.029
 6154TIP3   OH218404   8.020   1.750   3.959
 6154TIP3    H118405   8.027   1.672   4.014
 6154TIP3    H218406   8.103   1.796   3.971
 6155TIP3   OH218407   7.572   1.662   3.475
 6155TIP3    H118408   7.485   1.639   3.443
 6155TIP3    H218409   7.584   1.753   3.451
 6156TIP3   OH218410   7.636   1.698   3.160
 6156TIP3    H118411   7.606   1.763   3.224
 6156TIP3    H218412   7.671   1.627   3.212
 6157TIP3   OH218413   1.230   2.035   5.307
 6157TIP3    H118414   1.209   2.124   5.278
 6157TIP3    H218415   1.155   1.983   5.279
 6158TIP3   OH218416   1.232   2.013   5.723
 6158TIP3    H118417   1.279   1.998   5.804
 6158TIP3    H218418   1.185   1.931   5.707
 6159TIP3   OH218419   0.528   1.927   6.079
 6159TIP3    H118420   0.559   1.851   6.129
 6159TIP3    H218421   0.595   1.942   6.013
 6160TIP3   OH218422   1.510   2.332   5.368
 6160TIP3    H118423   1.472   2.275   5.434
 6160TIP3    H218424   1.529   2.413   5.414
 6161TIP3   OH218425   0.516   2.296   5.778
 6161TIP3    H118426   0.498   2.202   5.772
 6161TIP3    H218427   0.610   2.304   5.762
 6162TIP3   OH218428   0.272   1.822   5.795
 6162TIP3    H118429   0.324   1.742   5.803
 6162TIP3    H218430   0.330   1.883   5.750
 6163TIP3   OH218431   1.029   2.236   5.734
 6163TIP3    H118432   1.072   2.159   5.696
 6163TIP3    H218433   1.101   2.290   5.767
 6164TIP3   OH218434   2.072   1.558   5.747
 6164TIP3    H118435   2.086   1.642   5.790
 6164TIP3    H218436   2.103   1.571   5.657
 6165TIP3   OH218437   1.442   1.728   5.768
 6165TIP3    H118438   1.477   1.642   5.793
 6165TIP3    H218439   1.401   1.712   5.683
 6166TIP3   OH218440   0.822   1.404   5.726
 6166TIP3    H118441   0.797   1.477   5.669
 6166TIP3    H218442   0.781   1.328   5.685
 6167TIP3   OH218443   1.502   1.497   5.370
 6167TIP3    H118444   1.567   1.489   5.440
 6167TIP3    H218445   1.551   1.530   5.295
 6168TIP3   OH218446   0.445   1.602   5.819
 6168TIP3    H118447   0.513   1.578   5.882
 6168TIP3    H218448   0.454   1.538   5.748
 6169TIP3   OH218449   0.845   1.806   5.672
 6169TIP3    H118450   0.940   1.792   5.677
 6169TIP3    H218451   0.810   1.725   5.635
 6170TIP3   OH218452   2.120   1.778   5.914
 6170TIP3    H118453   2.036   1.822   5.903
 6170TIP3    H218454   2.157   1.818   5.993
 6171TIP3   OH218455   0.787   1.371   6.158
 6171TIP3    H118456   0.737   1.417   6.090
 6171TIP3    H218457   0.731   1.372   6.235
 6172TIP3   OH218458   1.151   2.262   5.161
 6172TIP3    H118459   1.104   2.243   5.080
 6172TIP3    H218460   1.116   2.346   5.190
 6173TIP3   OH218461   0.864   2.168   5.948
 6173TIP3    H118462   0.809   2.239   5.984
 6173TIP3    H218463   0.910   2.209   5.874
 6174TIP3   OH218464   1.667   1.501   5.587
 6174TIP3    H118465   1.619   1.485   5.668
 6174TIP3    H218466   1.720   1.579   5.605
 6175TIP3   OH218467   0.685   1.509   5.944
 6175TIP3    H118468   0.737   1.586   5.969
 6175TIP3    H218469   0.733   1.470   5.871
 6176TIP3   OH218470   0.703   2.365   6.067
 6176TIP3    H118471   0.694   2.454   6.033
 6176TIP3    H218472   0.621   2.349   6.113
 6177TIP3   OH218473   0.126   2.042   5.317
 6177TIP3    H118474   0.066   2.052   5.243
 6177TIP3    H218475   0.143   2.131   5.347
 6178TIP3   OH218476   1.553   2.562   5.527
 6178TIP3    H118477   1.475   2.553   5.582
 6178TIP3    H218478   1.543   2.648   5.486
 6179TIP3   OH218479   1.868   1.440   5.906
 6179TIP3    H118480   1.783   1.469   5.874
 6179TIP3    H218481   1.931   1.472   5.842
 6180TIP3   OH218482   1.157   1.115   5.889
 6180TIP3    H118483   1.152   1.021   5.906
 6180TIP3    H218484   1.077   1.151   5.927
 6181TIP3   OH218485   1.421   2.346   5.096
 6181TIP3    H118486   1.329   2.326   5.113
 6181TIP3    H218487   1.462   2.345   5.183
 6182TIP3   OH218488   1.766   2.457   5.887
 6182TIP3    H118489   1.748   2.384   5.827
 6182TIP3    H218490   1.748   2.536   5.835
 6183TIP3   OH218491   1.057   1.872   5.154
 6183TIP3    H118492   0.977   1.921   5.137
 6183TIP3    H218493   1.105   1.874   5.071
 6184TIP3   OH218494   1.020   1.674   4.854
 6184TIP3    H118495   1.087   1.720   4.905
 6184TIP3    H218496   1.069   1.613   4.800
 6185TIP3   OH218497   1.947   2.122   5.753
 6185TIP3    H118498   1.863   2.169   5.748
 6185TIP3    H218499   1.984   2.130   5.665
 6186TIP3   OH218500   1.409   1.944   5.121
 6186TIP3    H118501   1.357   1.983   5.191
 6186TIP3    H218502   1.495   1.928   5.160
 6187TIP3   OH218503   1.643   1.982   6.056
 6187TIP3    H118504   1.640   2.066   6.102
 6187TIP3    H218505   1.561   1.978   6.008
 6188TIP3   OH218506   0.639   1.930   5.521
 6188TIP3    H118507   0.607   1.868   5.455
 6188TIP3    H218508   0.715   1.886   5.560
 6189TIP3   OH218509   0.775   2.345   5.664
 6189TIP3    H118510   0.755   2.337   5.571
 6189TIP3    H218511   0.864   2.311   5.673
 6190TIP3   OH218512   0.738   1.932   5.894
 6190TIP3    H118513   0.778   1.896   5.814
 6190TIP3    H218514   0.785   2.014   5.909
 6191TIP3   OH218515   1.349   2.558   5.703
 6191TIP3    H118516   1.305   2.639   5.727
 6191TIP3    H218517   1.305   2.491   5.754
 6192TIP3   OH218518   0.906   2.466   6.227
 6192TIP3    H118519   0.848   2.528   6.271
 6192TIP3    H218520   0.847   2.415   6.170
 6193TIP3   OH218521   1.251   1.797   4.953
 6193TIP3    H118522   1.308   1.856   5.002
 6193TIP3    H218523   1.278   1.808   4.862
 6194TIP3   OH218524   0.693   2.018   6.330
 6194TIP3    H118525   0.697   2.101   6.377
 6194TIP3    H218526   0.605   2.016   6.292
 6195TIP3   OH218527   0.702   2.641   6.306
 6195TIP3    H118528   0.690   2.650   6.212
 6195TIP3    H218529   0.613   2.640   6.342
 6196TIP3   OH218530   1.707   1.075   4.972
 6196TIP3    H118531   1.773   1.058   5.040
 6196TIP3    H218532   1.748   1.139   4.914
 6197TIP3   OH218533   0.525   1.770   5.316
 6197TIP3    H118534   0.451   1.819   5.282
 6197TIP3    H218535   0.495   1.679   5.317
 6198TIP3   OH218536   1.582   2.417   4.551
 6198TIP3    H118537   1.579   2.512   4.537
 6198TIP3    H218538   1.671   2.393   4.526
 6199TIP3   OH218539   0.337   2.140   6.242
 6199TIP3    H118540   0.292   2.111   6.163
 6199TIP3    H218541   0.365   2.059   6.285
 6200TIP3   OH218542   0.189   2.318   5.840
 6200TIP3    H118543   0.284   2.324   5.851
 6200TIP3    H218544   0.153   2.369   5.913
 6201TIP3   OH218545   1.996   2.826   5.954
 6201TIP3    H118546   2.001   2.731   5.966
 6201TIP3    H218547   1.915   2.852   5.998
 6202TIP3   OH218548   1.101   2.598   6.085
 6202TIP3    H118549   1.094   2.691   6.109
 6202TIP3    H218550   1.030   2.556   6.132
 6203TIP3   OH218551   0.743   2.750   4.976
 6203TIP3    H118552   0.800   2.701   4.917
 6203TIP3    H218553   0.803   2.801   5.031
 6204TIP3   OH218554   0.321   2.552   5.400
 6204TIP3    H118555   0.369   2.544   5.483
 6204TIP3    H218556   0.280   2.466   5.388
 6205TIP3   OH218557   1.080   2.635   4.671
 6205TIP3    H118558   1.133   2.563   4.637
 6205TIP3    H218559   1.109   2.646   4.762
 6206TIP3   OH218560   1.134   2.684   4.939
 6206TIP3    H118561   1.081   2.634   5.002
 6206TIP3    H218562   1.212   2.709   4.988
 6207TIP3   OH218563   1.886   1.942   6.225
 6207TIP3    H118564   1.805   1.955   6.177
 6207TIP3    H218565   1.905   1.848   6.217
 6208TIP3   OH218566   0.487   2.370   6.268
 6208TIP3    H118567   0.556   2.334   6.324
 6208TIP3    H218568   0.427   2.297   6.254
 6209TIP3   OH218569   0.915   1.181   5.998
 6209TIP3    H118570   0.837   1.154   5.949
 6209TIP3    H218571   0.882   1.245   6.062
 6210TIP3   OH218572   1.459   1.300   6.227
 6210TIP3    H118573   1.524   1.270   6.291
 6210TIP3    H218574   1.374   1.286   6.270
 6211TIP3   OH218575   1.646   1.719   6.143
 6211TIP3    H118576   1.605   1.714   6.229
 6211TIP3    H218577   1.632   1.809   6.114
 6212TIP3   OH218578   1.325   1.790   4.689
 6212TIP3    H118579   1.289   1.790   4.601
 6212TIP3    H218580   1.404   1.843   4.682
 6213TIP3   OH218581   1.074   1.198   4.993
 6213TIP3    H118582   1.037   1.218   5.079
 6213TIP3    H218583   1.026   1.122   4.962
 6214TIP3   OH218584   0.829   1.719   6.049
 6214TIP3    H118585   0.780   1.725   6.131
 6214TIP3    H218586   0.804   1.798   6.000
 6215TIP3   OH218587   0.714   1.591   5.559
 6215TIP3    H118588   0.626   1.562   5.584
 6215TIP3    H218589   0.725   1.560   5.470
 6216TIP3   OH218590   1.191   1.668   5.281
 6216TIP3    H118591   1.143   1.742   5.245
 6216TIP3    H218592   1.246   1.637   5.209
 6217TIP3   OH218593   1.373   1.933   6.360
 6217TIP3    H118594   1.343   1.864   6.420
 6217TIP3    H218595   1.466   1.945   6.381
 6218TIP3   OH218596   1.343   1.676   5.518
 6218TIP3    H118597   1.280   1.705   5.452
 6218TIP3    H218598   1.392   1.605   5.476
 6219TIP3   OH218599   0.651   1.751   6.261
 6219TIP3    H118600   0.680   1.832   6.302
 6219TIP3    H218601   0.572   1.727   6.309
 6220TIP3   OH218602   0.713   1.198   4.994
 6220TIP3    H118603   0.696   1.192   5.088
 6220TIP3    H218604   0.634   1.238   4.958
 6221TIP3   OH218605   1.390   1.928   5.943
 6221TIP3    H118606   1.414   1.861   5.879
 6221TIP3    H218607   1.344   1.880   6.012
 6222TIP3   OH218608   1.084   1.396   5.614
 6222TIP3    H118609   1.007   1.397   5.670
 6222TIP3    H218610   1.158   1.386   5.674
 6223TIP3   OH218611   0.500   1.417   5.615
 6223TIP3    H118612   0.418   1.385   5.577
 6223TIP3    H218613   0.560   1.343   5.608
 6224TIP3   OH218614   0.732   1.470   5.316
 6224TIP3    H118615   0.826   1.481   5.300
 6224TIP3    H218616   0.691   1.489   5.231
 6225TIP3   OH218617   1.520   1.466   5.819
 6225TIP3    H118618   1.501   1.483   5.911
 6225TIP3    H218619   1.449   1.408   5.790
 6226TIP3   OH218620   0.601   1.502   5.080
 6226TIP3    H118621   0.550   1.440   5.028
 6226TIP3    H218622   0.655   1.548   5.016
 6227TIP3   OH218623   1.709   3.166   6.039
 6227TIP3    H118624   1.703   3.185   5.945
 6227TIP3    H218625   1.787   3.214   6.068
 6228TIP3   OH218626   0.663   2.263   6.460
 6228TIP3    H118627   0.743   2.287   6.506
 6228TIP3    H218628   0.594   2.270   6.526
 6229TIP3   OH218629   1.116   1.747   5.714
 6229TIP3    H118630   1.182   1.698   5.665
 6229TIP3    H218631   1.116   1.707   5.801
 6230TIP3   OH218632   0.688   1.208   5.571
 6230TIP3    H118633   0.663   1.182   5.482
 6230TIP3    H218634   0.770   1.160   5.588
 6231TIP3   OH218635   1.091   1.656   5.980
 6231TIP3    H118636   1.006   1.692   6.005
 6231TIP3    H218637   1.154   1.705   6.034
 6232TIP3   OH218638   0.825   2.014   5.099
 6232TIP3    H118639   0.754   1.954   5.077
 6232TIP3    H218640   0.797   2.054   5.182
 6233TIP3   OH218641   1.712   2.257   5.705
 6233TIP3    H118642   1.743   2.308   5.630
 6233TIP3    H218643   1.631   2.217   5.675
 6234TIP3   OH218644   1.278   1.343   4.890
 6234TIP3    H118645   1.199   1.307   4.931
 6234TIP3    H218646   1.302   1.417   4.947
 6235TIP3   OH218647   1.222   2.335   6.125
 6235TIP3    H118648   1.278   2.336   6.202
 6235TIP3    H218649   1.184   2.422   6.120
 6236TIP3   OH218650   1.350   1.558   5.064
 6236TIP3    H118651   1.443   1.569   5.079
 6236TIP3    H218652   1.323   1.637   5.017
 6237TIP3   OH218653   0.506   2.015   5.747
 6237TIP3    H118654   0.540   1.997   5.659
 6237TIP3    H218655   0.574   1.981   5.806
 6238TIP3   OH218656   0.958   2.187   4.933
 6238TIP3    H118657   0.913   2.270   4.945
 6238TIP3    H218658   0.912   2.126   4.991
 6239TIP3   OH218659   0.420   1.923   6.402
 6239TIP3    H118660   0.462   1.944   6.485
 6239TIP3    H218661   0.341   1.875   6.426
 6240TIP3   OH218662   1.139   2.082   6.410
 6240TIP3    H118663   1.071   2.023   6.378
 6240TIP3    H218664   1.221   2.045   6.376
 6241TIP3   OH218665   1.373   2.616   6.018
 6241TIP3    H118666   1.277   2.608   6.020
 6241TIP3    H218667   1.394   2.663   6.099
 6242TIP3   OH218668   1.760   1.671   4.897
 6242TIP3    H118669   1.701   1.626   4.837
 6242TIP3    H218670   1.767   1.760   4.863
 6243TIP3   OH218671   2.011   2.545   5.976
 6243TIP3    H118672   1.917   2.530   5.971
 6243TIP3    H218673   2.044   2.514   5.892
 6244TIP3   OH218674   1.503   2.484   4.861
 6244TIP3    H118675   1.475   2.437   4.939
 6244TIP3    H218676   1.501   2.419   4.791
 6245TIP3   OH218677   1.484   2.119   5.615
 6245TIP3    H118678   1.393   2.098   5.636
 6245TIP3    H218679   1.517   2.041   5.570
 6246TIP3   OH218680   0.649   2.367   5.414
 6246TIP3    H118681   0.661   2.429   5.342
 6246TIP3    H218682   0.570   2.396   5.459
 6247TIP3   OH218683   0.173   1.652   5.125
 6247TIP3    H118684   0.227   1.730   5.134
 6247TIP3    H218685   0.104   1.662   5.191
 6248TIP3   OH218686   0.715   2.114   5.324
 6248TIP3    H118687   0.700   2.204   5.352
 6248TIP3    H218688   0.687   2.060   5.399
 6249TIP3   OH218689   0.924   2.676   5.868
 6249TIP3    H118690   0.955   2.752   5.819
 6249TIP3    H218691   1.001   2.645   5.915
 6250TIP3   OH218692   0.548   2.576   5.244
 6250TIP3    H118693   0.467   2.585   5.293
 6250TIP3    H218694   0.587   2.664   5.246
 6251TIP3   OH218695   1.263   2.333   5.851
 6251TIP3    H118696   1.252   2.329   5.946
 6251TIP3    H218697   1.346   2.289   5.833
 6252TIP3   OH218698   1.264   2.224   4.701
 6252TIP3    H118699   1.312   2.184   4.773
 6252TIP3    H218700   1.175   2.190   4.710
 6253TIP3   OH218701   1.520   2.840   5.884
 6253TIP3    H118702   1.447   2.779   5.893
 6253TIP3    H218703   1.495   2.896   5.811
 6254TIP3   OH218704   1.592   2.697   4.525
 6254TIP3    H118705   1.640   2.774   4.494
 6254TIP3    H218706   1.509   2.732   4.559
 6255TIP3   OH218707   1.431   2.094   4.881
 6255TIP3    H118708   1.416   2.063   4.970
 6255TIP3    H218709   1.523   2.119   4.879
 6256TIP3   OH218710   0.375   2.571   6.006
 6256TIP3    H118711   0.393   2.513   6.079
 6256TIP3    H218712   0.386   2.659   6.042
 6257TIP3   OH218713   0.657   2.166   4.713
 6257TIP3    H118714   0.644   2.073   4.694
 6257TIP3    H218715   0.632   2.175   4.805
 6258TIP3   OH218716   0.590   2.240   4.977
 6258TIP3    H118717   0.613   2.181   5.049
 6258TIP3    H218718   0.659   2.307   4.978
 6259TIP3   OH218719   0.308   1.889   5.188
 6259TIP3    H118720   0.248   1.932   5.248
 6259TIP3    H218721   0.328   1.955   5.122
 6260TIP3   OH218722   1.461   1.528   6.077
 6260TIP3    H118723   1.535   1.581   6.105
 6260TIP3    H218724   1.462   1.452   6.136
 6261TIP3   OH218725   1.336   1.303   5.270
 6261TIP3    H118726   1.295   1.352   5.199
 6261TIP3    H218727   1.391   1.368   5.315
 6262TIP3   OH218728   0.803   2.412   4.984
 6262TIP3    H118729   0.853   2.448   5.057
 6262TIP3    H218730   0.802   2.483   4.919
 6263TIP3   OH218731   1.013   1.474   5.357
 6263TIP3    H118732   1.071   1.545   5.331
 6263TIP3    H218733   1.034   1.458   5.449
 6264TIP3   OH218734   1.293   1.762   6.141
 6264TIP3    H118735   1.319   1.811   6.220
 6264TIP3    H218736   1.345   1.682   6.145
 6265TIP3   OH218737   1.166   1.181   5.453
 6265TIP3    H118738   1.146   1.256   5.510
 6265TIP3    H218739   1.231   1.215   5.392
 6266TIP3   OH218740   0.459   2.496   4.998
 6266TIP3    H118741   0.478   2.563   4.933
 6266TIP3    H218742   0.498   2.530   5.079
 6267TIP3   OH218743   0.699   1.197   5.280
 6267TIP3    H118744   0.692   1.291   5.297
 6267TIP3    H218745   0.792   1.182   5.267
 6268TIP3   OH218746   1.912   1.675   6.131
 6268TIP3    H118747   1.816   1.674   6.138
 6268TIP3    H218748   1.929   1.648   6.041
 6269TIP3   OH218749   1.576   1.861   5.517
 6269TIP3    H118750   1.496   1.811   5.534
 6269TIP3    H218751   1.641   1.822   5.574
 6270TIP3   OH218752   0.319   2.102   4.987
 6270TIP3    H118753   0.368   2.035   4.939
 6270TIP3    H218754   0.269   2.148   4.920
 6271TIP3   OH218755   0.261   1.406   5.014
 6271TIP3    H118756   0.246   1.488   5.060
 6271TIP3    H218757   0.241   1.338   5.078
 6272TIP3   OH218758   1.556   2.832   5.459
 6272TIP3    H118759   1.511   2.875   5.387
 6272TIP3    H218760   1.649   2.849   5.443
 6273TIP3   OH218761   0.161   2.314   5.376
 6273TIP3    H118762   0.132   2.354   5.458
 6273TIP3    H218763   0.104   2.352   5.309
 6274TIP3   OH218764   0.366   2.893   6.448
 6274TIP3    H118765   0.438   2.903   6.511
 6274TIP3    H218766   0.369   2.800   6.424
 6275TIP3   OH218767   0.816   2.796   6.505
 6275TIP3    H118768   0.907   2.767   6.510
 6275TIP3    H218769   0.778   2.744   6.434
 6276TIP3   OH218770   0.789   2.375   4.606
 6276TIP3    H118771   0.743   2.303   4.648
 6276TIP3    H218772   0.867   2.335   4.568
 6277TIP3   OH218773   1.426   2.734   6.260
 6277TIP3    H118774   1.444   2.663   6.322
 6277TIP3    H218775   1.501   2.793   6.270
 6278TIP3   OH218776   1.211   2.436   4.525
 6278TIP3    H118777   1.252   2.373   4.583
 6278TIP3    H218778   1.274   2.448   4.454
 6279TIP3   OH218779   0.438   2.248   6.623
 6279TIP3    H118780   0.461   2.155   6.623
 6279TIP3    H218781   0.352   2.252   6.581
 6280TIP3   OH218782   0.444   1.897   4.862
 6280TIP3    H118783   0.501   1.870   4.934
 6280TIP3    H218784   0.502   1.900   4.786
 6281TIP3   OH218785   1.070   2.360   6.422
 6281TIP3    H118786   1.023   2.382   6.342
 6281TIP3    H218787   1.105   2.272   6.406
 6282TIP3   OH218788   1.000   2.120   4.668
 6282TIP3    H118789   0.973   2.140   4.758
 6282TIP3    H218790   0.982   2.026   4.659
 6283TIP3   OH218791   1.539   2.394   6.035
 6283TIP3    H118792   1.616   2.423   5.986
 6283TIP3    H218793   1.475   2.465   6.025
 6284TIP3   OH218794   0.537   1.981   6.650
 6284TIP3    H118795   0.589   1.902   6.663
 6284TIP3    H218796   0.546   2.030   6.732
 6285TIP3   OH218797   0.625   1.830   5.058
 6285TIP3    H118798   0.604   1.798   5.146
 6285TIP3    H218799   0.669   1.757   5.015
 6286TIP3   OH218800   0.947   1.909   6.297
 6286TIP3    H118801   0.862   1.953   6.305
 6286TIP3    H218802   0.981   1.938   6.212
 6287TIP3   OH218803   0.751   1.641   4.901
 6287TIP3    H118804   0.721   1.644   4.810
 6287TIP3    H218805   0.846   1.650   4.895
 6288TIP3   OH218806   1.424   2.278   6.399
 6288TIP3    H118807   1.485   2.234   6.340
 6288TIP3    H218808   1.416   2.218   6.473
 6289TIP3   OH218809   1.543   1.927   4.585
 6289TIP3    H118810   1.533   1.886   4.499
 6289TIP3    H218811   1.520   2.019   4.570
 6290TIP3   OH218812   1.028   1.667   6.397
 6290TIP3    H118813   1.033   1.599   6.329
 6290TIP3    H218814   1.001   1.745   6.350
 6291TIP3   OH218815   1.043   1.473   6.190
 6291TIP3    H118816   1.067   1.519   6.110
 6291TIP3    H218817   0.953   1.443   6.175
 6292TIP3   OH218818   1.055   2.015   6.072
 6292TIP3    H118819   1.137   2.063   6.063
 6292TIP3    H218820   0.990   2.069   6.028
 6293TIP3   OH218821   1.640   1.964   6.463
 6293TIP3    H118822   1.689   1.882   6.465
 6293TIP3    H218823   1.705   2.032   6.449
 6294TIP3   OH218824   1.664   2.221   6.200
 6294TIP3    H118825   1.609   2.282   6.150
 6294TIP3    H218826   1.753   2.238   6.168
 6295TIP3   OH218827   0.928   1.751   6.646
 6295TIP3    H118828   0.834   1.748   6.663
 6295TIP3    H218829   0.937   1.723   6.555
 6296TIP3   OH218830   1.187   1.252   6.273
 6296TIP3    H118831   1.140   1.332   6.248
 6296TIP3    H218832   1.135   1.181   6.235
 6297TIP3   OH218833   1.280   1.718   6.502
 6297TIP3    H118834   1.267   1.702   6.596
 6297TIP3    H218835   1.197   1.695   6.462
 6298TIP3   OH218836   1.527   1.671   6.379
 6298TIP3    H118837   1.448   1.673   6.433
 6298TIP3    H218838   1.598   1.654   6.441
 6299TIP3   OH218839   1.769   1.649   6.521
 6299TIP3    H118840   1.784   1.555   6.526
 6299TIP3    H218841   1.765   1.678   6.612
 6300TIP3   OH218842   1.251   1.219   6.536
 6300TIP3    H118843   1.314   1.148   6.525
 6300TIP3    H218844   1.214   1.231   6.448
 6301TIP3   OH218845   1.339   1.429   6.677
 6301TIP3    H118846   1.305   1.358   6.623
 6301TIP3    H218847   1.267   1.491   6.684
 6302TIP3   OH218848   0.536   2.658   4.795
 6302TIP3    H118849   0.625   2.672   4.828
 6302TIP3    H218850   0.532   2.710   4.714
 6303TIP3   OH218851   0.015   2.015   5.052
 6303TIP3    H118852   0.082   2.077   5.023
 6303TIP3    H218853   0.002   1.956   4.978
 6304TIP3   OH218854   8.450   2.580   5.437
 6304TIP3    H118855   8.406   2.510   5.389
 6304TIP3    H218856   8.505   2.534   5.501
 6305TIP3   OH218857   0.119   2.456   5.612
 6305TIP3    H118858   0.136   2.392   5.680
 6305TIP3    H218859   0.140   2.540   5.653
 6306TIP3   OH218860   1.825   2.888   5.446
 6306TIP3    H118861   1.842   2.917   5.536
 6306TIP3    H218862   1.875   2.948   5.391
 6307TIP3   OH218863   1.836   2.919   5.726
 6307TIP3    H118864   1.790   2.835   5.724
 6307TIP3    H218865   1.907   2.905   5.789
 6308TIP3   OH218866   1.898   2.618   6.300
 6308TIP3    H118867   1.825   2.630   6.360
 6308TIP3    H218868   1.944   2.702   6.301
 6309TIP3   OH218869   1.712   2.133   4.902
 6309TIP3    H118870   1.766   2.208   4.875
 6309TIP3    H218871   1.755   2.099   4.980
 6310TIP3   OH218872   1.840   1.990   5.107
 6310TIP3    H118873   1.769   1.954   5.161
 6310TIP3    H218874   1.901   2.027   5.170
 6311TIP3   OH218875   1.901   2.394   5.541
 6311TIP3    H118876   1.940   2.330   5.482
 6311TIP3    H218877   1.894   2.474   5.489
 6312TIP3   OH218878   1.698   2.678   5.738
 6312TIP3    H118879   1.626   2.721   5.784
 6312TIP3    H218880   1.657   2.639   5.661
 6313TIP3   OH218881   1.754   1.907   4.757
 6313TIP3    H118882   1.682   1.905   4.694
 6313TIP3    H218883   1.739   1.986   4.808
 6314TIP3   OH218884   1.595   1.563   4.709
 6314TIP3    H118885   1.560   1.598   4.628
 6314TIP3    H218886   1.580   1.468   4.703
 6315TIP3   OH218887   1.643   1.856   5.249
 6315TIP3    H118888   1.646   1.761   5.236
 6315TIP3    H218889   1.623   1.867   5.342
 6316TIP3   OH218890   0.260   1.968   6.025
 6316TIP3    H118891   0.253   1.918   5.943
 6316TIP3    H218892   0.353   1.961   6.049
 6317TIP3   OH218893   1.919   2.270   6.105
 6317TIP3    H118894   1.987   2.206   6.085
 6317TIP3    H218895   1.926   2.335   6.035
 6318TIP3   OH218896   2.099   2.060   6.097
 6318TIP3    H118897   2.026   2.021   6.145
 6318TIP3    H218898   2.175   2.006   6.119
 6319TIP3   OH218899   1.566   1.291   4.701
 6319TIP3    H118900   1.655   1.276   4.732
 6319TIP3    H218901   1.516   1.216   4.735
 6320TIP3   OH218902   1.635   1.573   5.133
 6320TIP3    H118903   1.680   1.489   5.140
 6320TIP3    H218904   1.677   1.616   5.059
 6321TIP3   OH218905   1.793   1.739   5.658
 6321TIP3    H118906   1.872   1.761   5.608
 6321TIP3    H218907   1.805   1.782   5.742
 6322TIP3   OH218908   1.862   1.893   5.884
 6322TIP3    H118909   1.788   1.922   5.937
 6322TIP3    H218910   1.892   1.973   5.840
 6323TIP3   OH218911   2.333   1.504   6.410
 6323TIP3    H118912   2.391   1.440   6.369
 6323TIP3    H218913   2.293   1.551   6.336
 6324TIP3   OH218914   1.740   1.315   5.179
 6324TIP3    H118915   1.788   1.300   5.260
 6324TIP3    H218916   1.672   1.248   5.178
 6325TIP3   OH218917   2.175   1.616   6.222
 6325TIP3    H118918   2.101   1.656   6.268
 6325TIP3    H218919   2.135   1.549   6.166
 6326TIP3   OH218920   1.819   1.254   4.804
 6326TIP3    H118921   1.867   1.193   4.748
 6326TIP3    H218922   1.874   1.332   4.808
 6327TIP3   OH218923   1.344   2.809   5.060
 6327TIP3    H118924   1.413   2.793   4.996
 6327TIP3    H218925   1.390   2.843   5.137
 6328TIP3   OH218926   0.449   2.613   6.432
 6328TIP3    H118927   0.442   2.529   6.387
 6328TIP3    H218928   0.455   2.591   6.525
 6329TIP3   OH218929   0.704   2.639   6.027
 6329TIP3    H118930   0.650   2.710   5.993
 6329TIP3    H218931   0.786   2.646   5.978
 6330TIP3   OH218932   1.095   2.865   6.155
 6330TIP3    H118933   1.131   2.864   6.244
 6330TIP3    H218934   1.155   2.920   6.105
 6331TIP3   OH218935   1.284   3.024   6.031
 6331TIP3    H118936   1.347   2.976   5.977
 6331TIP3    H218937   1.337   3.081   6.086
 6332TIP3   OH218938   2.081   1.371   6.109
 6332TIP3    H118939   1.997   1.376   6.063
 6332TIP3    H218940   2.107   1.279   6.102
 6333TIP3   OH218941   0.396   2.841   6.082
 6333TIP3    H118942   0.308   2.849   6.046
 6333TIP3    H218943   0.408   2.919   6.135
 6334TIP3   OH218944   0.607   2.868   5.907
 6334TIP3    H118945   0.525   2.865   5.956
 6334TIP3    H218946   0.580   2.885   5.817
 6335TIP3   OH218947   0.996   2.891   5.710
 6335TIP3    H118948   0.931   2.903   5.641
 6335TIP3    H218949   1.009   2.978   5.746
 6336TIP3   OH218950   1.257   2.815   5.757
 6336TIP3    H118951   1.166   2.834   5.736
 6336TIP3    H218952   1.307   2.881   5.711
 6337TIP3   OH218953   1.456   2.990   5.660
 6337TIP3    H118954   1.460   3.078   5.623
 6337TIP3    H218955   1.488   2.933   5.589
 6338TIP3   OH218956   0.280   2.644   5.753
 6338TIP3    H118957   0.291   2.625   5.846
 6338TIP3    H218958   0.354   2.600   5.710
 6339TIP3   OH218959   0.486   2.519   5.620
 6339TIP3    H118960   0.493   2.445   5.680
 6339TIP3    H218961   0.567   2.568   5.632
 6340TIP3   OH218962   0.742   2.630   5.659
 6340TIP3    H118963   0.769   2.539   5.643
 6340TIP3    H218964   0.791   2.656   5.736
 6341TIP3   OH218965   1.312   1.297   5.743
 6341TIP3    H118966   1.262   1.232   5.792
 6341TIP3    H218967   1.372   1.245   5.690
 6342TIP3   OH218968   1.794   1.192   5.632
 6342TIP3    H118969   1.832   1.244   5.562
 6342TIP3    H218970   1.704   1.224   5.640
 6343TIP3   OH218971   1.907   1.270   5.394
 6343TIP3    H118972   1.976   1.210   5.367
 6343TIP3    H218973   1.946   1.357   5.385
 6344TIP3   OH218974   0.939   1.101   5.609
 6344TIP3    H118975   1.009   1.119   5.545
 6344TIP3    H218976   0.984   1.057   5.681
 6345TIP3   OH218977   1.504   1.143   5.614
 6345TIP3    H118978   1.545   1.102   5.538
 6345TIP3    H218979   1.503   1.075   5.681
 6346TIP3   OH218980   1.503   1.104   5.177
 6346TIP3    H118981   1.442   1.168   5.216
 6346TIP3    H218982   1.505   1.032   5.239
 6347TIP3   OH218983   0.015   2.412   5.165
 6347TIP3    H118984   0.010   2.361   5.084
 6347TIP3    H218985   0.040   2.500   5.136
 6348TIP3   OH218986   0.972   1.228   5.247
 6348TIP3    H118987   1.025   1.171   5.303
 6348TIP3    H218988   0.985   1.316   5.283
 6349TIP3   OH218989   0.826   2.595   4.766
 6349TIP3    H118990   0.910   2.624   4.731
 6349TIP3    H218991   0.798   2.525   4.707
 6350TIP3   OH218992   1.530   2.756   4.859
 6350TIP3    H118993   1.525   2.661   4.859
 6350TIP3    H218994   1.486   2.782   4.778
 6351TIP3   OH218995   1.839   1.382   6.525
 6351TIP3    H118996   1.850   1.337   6.609
 6351TIP3    H218997   1.925   1.377   6.484
 6352TIP3   OH218998   1.743   2.892   6.047
 6352TIP3    H118999   1.669   2.862   5.995
 6352TIP3    H219000   1.732   2.987   6.051
 6353TIP3   OH219001   3.014   2.279   4.814
 6353TIP3    H119002   2.994   2.367   4.781
 6353TIP3    H219003   2.949   2.223   4.771
 6354TIP3   OH219004   2.974   2.165   5.210
 6354TIP3    H119005   3.031   2.207   5.274
 6354TIP3    H219006   3.001   2.202   5.126
 6355TIP3   OH219007   2.340   2.168   5.548
 6355TIP3    H119008   2.364   2.093   5.602
 6355TIP3    H219009   2.385   2.242   5.588
 6356TIP3   OH219010   3.299   2.582   4.873
 6356TIP3    H119011   3.308   2.518   4.944
 6356TIP3    H219012   3.320   2.666   4.914
 6357TIP3   OH219013   2.320   2.562   5.249
 6357TIP3    H119014   2.307   2.468   5.260
 6357TIP3    H219015   2.414   2.572   5.235
 6358TIP3   OH219016   1.995   1.763   5.039
 6358TIP3    H119017   1.958   1.849   5.060
 6358TIP3    H219018   1.925   1.717   4.992
 6359TIP3   OH219019   2.067   2.065   5.250
 6359TIP3    H119020   2.119   1.987   5.271
 6359TIP3    H219021   2.125   2.118   5.196
 6360TIP3   OH219022   2.821   2.474   5.230
 6360TIP3    H119023   2.848   2.388   5.197
 6360TIP3    H219024   2.903   2.515   5.259
 6361TIP3   OH219025   3.864   1.812   5.233
 6361TIP3    H119026   3.881   1.896   5.275
 6361TIP3    H219027   3.891   1.824   5.142
 6362TIP3   OH219028   3.141   1.920   5.251
 6362TIP3    H119029   3.207   1.857   5.279
 6362TIP3    H219030   3.156   1.931   5.157
 6363TIP3   OH219031   2.593   1.668   5.194
 6363TIP3    H119032   2.567   1.737   5.133
 6363TIP3    H219033   2.548   1.589   5.161
 6364TIP3   OH219034   3.301   1.741   4.845
 6364TIP3    H119035   3.366   1.738   4.915
 6364TIP3    H219036   3.350   1.770   4.768
 6365TIP3   OH219037   2.215   1.846   5.334
 6365TIP3    H119038   2.299   1.829   5.377
 6365TIP3    H219039   2.221   1.798   5.251
 6366TIP3   OH219040   3.918   2.030   5.402
 6366TIP3    H119041   3.833   2.074   5.392
 6366TIP3    H219042   3.956   2.070   5.480
 6367TIP3   OH219043   2.568   1.644   5.662
 6367TIP3    H119044   2.520   1.678   5.587
 6367TIP3    H219045   2.512   1.663   5.737
 6368TIP3   OH219046   2.930   2.496   4.657
 6368TIP3    H119047   2.890   2.469   4.574
 6368TIP3    H219048   2.885   2.576   4.680
 6369TIP3   OH219049   2.660   2.418   5.447
 6369TIP3    H119050   2.604   2.488   5.480
 6369TIP3    H219051   2.706   2.458   5.373
 6370TIP3   OH219052   3.459   1.774   5.062
 6370TIP3    H119053   3.420   1.752   5.146
 6370TIP3    H219054   3.519   1.847   5.081
 6371TIP3   OH219055   2.462   1.747   5.428
 6371TIP3    H119056   2.516   1.823   5.451
 6371TIP3    H219057   2.505   1.710   5.350
 6372TIP3   OH219058   2.507   2.624   5.542
 6372TIP3    H119059   2.497   2.713   5.508
 6372TIP3    H219060   2.428   2.609   5.594
 6373TIP3   OH219061   1.886   2.326   4.788
 6373TIP3    H119062   1.845   2.348   4.705
 6373TIP3    H219063   1.908   2.410   4.827
 6374TIP3   OH219064   3.341   2.820   5.019
 6374TIP3    H119065   3.264   2.802   5.073
 6374TIP3    H219066   3.324   2.907   4.982
 6375TIP3   OH219067   3.664   1.696   5.399
 6375TIP3    H119068   3.578   1.720   5.363
 6375TIP3    H219069   3.727   1.725   5.333
 6376TIP3   OH219070   2.913   1.334   5.395
 6376TIP3    H119071   2.905   1.241   5.418
 6376TIP3    H219072   2.836   1.375   5.434
 6377TIP3   OH219073   3.056   2.863   4.650
 6377TIP3    H119074   3.115   2.788   4.643
 6377TIP3    H219075   3.114   2.939   4.654
 6378TIP3   OH219076   3.185   2.618   4.625
 6378TIP3    H119077   3.104   2.567   4.633
 6378TIP3    H219078   3.232   2.602   4.706
 6379TIP3   OH219079   3.554   2.731   5.380
 6379TIP3    H119080   3.548   2.658   5.318
 6379TIP3    H219081   3.534   2.809   5.328
 6380TIP3   OH219082   2.854   2.123   4.645
 6380TIP3    H119083   2.770   2.168   4.630
 6380TIP3    H219084   2.898   2.127   4.560
 6381TIP3   OH219085   2.835   1.898   4.336
 6381TIP3    H119086   2.897   1.951   4.387
 6381TIP3    H219087   2.891   1.837   4.288
 6382TIP3   OH219088   3.750   2.372   5.241
 6382TIP3    H119089   3.670   2.426   5.243
 6382TIP3    H219090   3.784   2.385   5.152
 6383TIP3   OH219091   3.198   2.206   4.614
 6383TIP3    H119092   3.148   2.240   4.688
 6383TIP3    H219093   3.285   2.186   4.649
 6384TIP3   OH219094   3.439   2.233   5.544
 6384TIP3    H119095   3.437   2.318   5.589
 6384TIP3    H219096   3.361   2.232   5.489
 6385TIP3   OH219097   2.427   2.135   5.041
 6385TIP3    H119098   2.370   2.117   4.966
 6385TIP3    H219099   2.474   2.053   5.056
 6386TIP3   OH219100   2.578   2.608   5.149
 6386TIP3    H119101   2.558   2.598   5.056
 6386TIP3    H219102   2.666   2.572   5.158
 6387TIP3   OH219103   2.595   2.171   5.349
 6387TIP3    H119104   2.591   2.190   5.256
 6387TIP3    H219105   2.615   2.255   5.391
 6388TIP3   OH219106   3.133   2.790   5.188
 6388TIP3    H119107   3.106   2.882   5.200
 6388TIP3    H219108   3.072   2.740   5.243
 6389TIP3   OH219109   2.708   2.718   5.708
 6389TIP3    H119110   2.650   2.778   5.755
 6389TIP3    H219111   2.651   2.669   5.649
 6390TIP3   OH219112   3.049   2.049   4.440
 6390TIP3    H119113   3.103   2.112   4.489
 6390TIP3    H219114   3.072   2.063   4.349
 6391TIP3   OH219115   2.455   2.271   5.817
 6391TIP3    H119116   2.464   2.361   5.848
 6391TIP3    H219117   2.363   2.249   5.832
 6392TIP3   OH219118   2.808   2.743   4.690
 6392TIP3    H119119   2.889   2.793   4.694
 6392TIP3    H219120   2.745   2.802   4.649
 6393TIP3   OH219121   2.500   2.878   5.791
 6393TIP3    H119122   2.477   2.892   5.699
 6393TIP3    H219123   2.416   2.865   5.835
 6394TIP3   OH219124   2.284   2.016   4.824
 6394TIP3    H119125   2.219   2.075   4.788
 6394TIP3    H219126   2.267   1.932   4.781
 6395TIP3   OH219127   3.378   2.668   4.044
 6395TIP3    H119128   3.366   2.761   4.025
 6395TIP3    H219129   3.468   2.650   4.017
 6396TIP3   OH219130   2.091   2.432   5.742
 6396TIP3    H119131   2.024   2.418   5.676
 6396TIP3    H219132   2.122   2.344   5.764
 6397TIP3   OH219133   1.934   2.635   5.398
 6397TIP3    H119134   2.024   2.662   5.412
 6397TIP3    H219135   1.881   2.712   5.420
 6398TIP3   OH219136   3.793   3.077   5.441
 6398TIP3    H119137   3.797   2.983   5.459
 6398TIP3    H219138   3.710   3.105   5.481
 6399TIP3   OH219139   2.886   2.868   5.561
 6399TIP3    H119140   2.882   2.958   5.593
 6399TIP3    H219141   2.823   2.820   5.615
 6400TIP3   OH219142   2.671   2.949   4.521
 6400TIP3    H119143   2.633   2.939   4.434
 6400TIP3    H219144   2.645   3.037   4.549
 6401TIP3   OH219145   2.113   2.816   4.895
 6401TIP3    H119146   2.159   2.810   4.979
 6401TIP3    H219147   2.066   2.734   4.887
 6402TIP3   OH219148   2.874   2.891   4.155
 6402TIP3    H119149   2.934   2.827   4.116
 6402TIP3    H219150   2.909   2.907   4.242
 6403TIP3   OH219151   2.928   2.942   4.422
 6403TIP3    H119152   2.840   2.944   4.461
 6403TIP3    H219153   2.985   2.911   4.492
 6404TIP3   OH219154   3.684   2.197   5.713
 6404TIP3    H119155   3.601   2.210   5.669
 6404TIP3    H219156   3.702   2.103   5.704
 6405TIP3   OH219157   2.290   2.620   5.709
 6405TIP3    H119158   2.338   2.611   5.792
 6405TIP3    H219159   2.217   2.559   5.717
 6406TIP3   OH219160   2.675   1.427   5.522
 6406TIP3    H119161   2.593   1.396   5.486
 6406TIP3    H219162   2.652   1.508   5.569
 6407TIP3   OH219163   3.217   1.549   5.719
 6407TIP3    H119164   3.287   1.528   5.780
 6407TIP3    H219165   3.137   1.534   5.769
 6408TIP3   OH219166   3.430   1.965   5.625
 6408TIP3    H119167   3.397   1.961   5.715
 6408TIP3    H219168   3.425   2.057   5.601
 6409TIP3   OH219169   3.107   2.054   4.173
 6409TIP3    H119170   3.070   2.048   4.085
 6409TIP3    H219171   3.190   2.101   4.161
 6410TIP3   OH219172   2.837   1.495   4.523
 6410TIP3    H119173   2.833   1.561   4.593
 6410TIP3    H219174   2.758   1.442   4.536
 6411TIP3   OH219175   2.618   1.956   5.516
 6411TIP3    H119176   2.567   1.973   5.595
 6411TIP3    H219177   2.604   2.033   5.461
 6412TIP3   OH219178   2.485   1.854   5.020
 6412TIP3    H119179   2.401   1.817   5.047
 6412TIP3    H219180   2.475   1.870   4.926
 6413TIP3   OH219181   2.980   1.908   4.768
 6413TIP3    H119182   2.931   1.982   4.732
 6413TIP3    H219183   3.036   1.878   4.697
 6414TIP3   OH219184   3.165   2.184   5.850
 6414TIP3    H119185   3.140   2.116   5.913
 6414TIP3    H219186   3.257   2.203   5.870
 6415TIP3   OH219187   3.161   1.936   4.980
 6415TIP3    H119188   3.089   1.954   4.921
 6415TIP3    H219189   3.207   1.861   4.942
 6416TIP3   OH219190   2.446   1.979   5.730
 6416TIP3    H119191   2.458   2.045   5.798
 6416TIP3    H219192   2.428   1.898   5.778
 6417TIP3   OH219193   2.046   1.493   5.336
 6417TIP3    H119194   2.111   1.531   5.395
 6417TIP3    H219195   2.084   1.505   5.248
 6418TIP3   OH219196   1.962   1.487   4.840
 6418TIP3    H119197   2.003   1.524   4.762
 6418TIP3    H219198   1.893   1.550   4.862
 6419TIP3   OH219199   3.188   2.163   5.407
 6419TIP3    H119200   3.193   2.084   5.354
 6419TIP3    H219201   3.147   2.134   5.489
 6420TIP3   OH219202   2.870   1.759   5.223
 6420TIP3    H119203   2.782   1.723   5.214
 6420TIP3    H219204   2.928   1.683   5.219
 6421TIP3   OH219205   2.261   1.713   5.098
 6421TIP3    H119206   2.172   1.718   5.063
 6421TIP3    H219207   2.291   1.625   5.074
 6422TIP3   OH219208   3.333   1.715   5.300
 6422TIP3    H119209   3.303   1.722   5.390
 6422TIP3    H219210   3.301   1.628   5.272
 6423TIP3   OH219211   2.331   1.802   4.564
 6423TIP3    H119212   2.274   1.737   4.524
 6423TIP3    H219213   2.410   1.801   4.509
 6424TIP3   OH219214   3.504   3.421   5.532
 6424TIP3    H119215   3.503   3.436   5.437
 6424TIP3    H219216   3.581   3.469   5.563
 6425TIP3   OH219217   2.448   2.522   5.943
 6425TIP3    H119218   2.529   2.547   5.988
 6425TIP3    H219219   2.379   2.536   6.008
 6426TIP3   OH219220   2.417   1.472   5.071
 6426TIP3    H119221   2.388   1.394   5.119
 6426TIP3    H219222   2.447   1.438   4.987
 6427TIP3   OH219223   2.889   1.948   5.463
 6427TIP3    H119224   2.799   1.959   5.494
 6427TIP3    H219225   2.943   1.987   5.532
 6428TIP3   OH219226   2.608   2.256   4.598
 6428TIP3    H119227   2.538   2.197   4.572
 6428TIP3    H219228   2.582   2.289   4.684
 6429TIP3   OH219229   3.531   2.529   5.197
 6429TIP3    H119230   3.571   2.579   5.126
 6429TIP3    H219231   3.454   2.488   5.157
 6430TIP3   OH219232   3.069   1.594   4.403
 6430TIP3    H119233   2.989   1.567   4.448
 6430TIP3    H219234   3.105   1.664   4.457
 6431TIP3   OH219235   3.009   2.572   5.615
 6431TIP3    H119236   3.070   2.573   5.689
 6431TIP3    H219237   2.979   2.662   5.608
 6432TIP3   OH219238   3.148   1.813   4.555
 6432TIP3    H119239   3.243   1.819   4.570
 6432TIP3    H219240   3.127   1.893   4.507
 6433TIP3   OH219241   2.320   2.278   5.261
 6433TIP3    H119242   2.360   2.231   5.187
 6433TIP3    H219243   2.351   2.231   5.338
 6434TIP3   OH219244   2.767   2.411   4.437
 6434TIP3    H119245   2.723   2.496   4.431
 6434TIP3    H219246   2.710   2.358   4.493
 6435TIP3   OH219247   2.191   2.195   5.866
 6435TIP3    H119248   2.193   2.171   5.959
 6435TIP3    H219249   2.114   2.151   5.831
 6436TIP3   OH219250   2.931   2.336   5.893
 6436TIP3    H119251   2.863   2.277   5.860
 6436TIP3    H219252   3.013   2.297   5.863
 6437TIP3   OH219253   3.157   2.842   5.517
 6437TIP3    H119254   3.062   2.857   5.515
 6437TIP3    H219255   3.189   2.904   5.583
 6438TIP3   OH219256   3.559   1.921   4.376
 6438TIP3    H119257   3.499   1.875   4.318
 6438TIP3    H219258   3.564   2.010   4.341
 6439TIP3   OH219259   3.805   2.790   5.468
 6439TIP3    H119260   3.710   2.784   5.457
 6439TIP3    H219261   3.840   2.765   5.382
 6440TIP3   OH219262   3.310   2.746   4.316
 6440TIP3    H119263   3.270   2.684   4.378
 6440TIP3    H219264   3.312   2.699   4.233
 6441TIP3   OH219265   3.320   2.393   5.083
 6441TIP3    H119266   3.234   2.389   5.124
 6441TIP3    H219267   3.337   2.304   5.052
 6442TIP3   OH219268   2.437   2.605   4.902
 6442TIP3    H119269   2.443   2.679   4.841
 6442TIP3    H219270   2.348   2.610   4.938
 6443TIP3   OH219271   1.991   1.903   4.615
 6443TIP3    H119272   2.030   1.988   4.635
 6443TIP3    H219273   1.908   1.903   4.664
 6444TIP3   OH219274   2.519   2.344   4.840
 6444TIP3    H119275   2.497   2.435   4.858
 6444TIP3    H219276   2.491   2.297   4.919
 6445TIP3   OH219277   2.709   2.945   5.353
 6445TIP3    H119278   2.742   3.019   5.302
 6445TIP3    H219279   2.783   2.918   5.407
 6446TIP3   OH219280   2.350   2.835   4.751
 6446TIP3    H119281   2.264   2.841   4.791
 6446TIP3    H219282   2.382   2.925   4.748
 6447TIP3   OH219283   3.067   2.544   5.345
 6447TIP3    H119284   3.046   2.547   5.438
 6447TIP3    H219285   3.159   2.570   5.340
 6448TIP3   OH219286   3.054   2.472   4.185
 6448TIP3    H119287   3.100   2.438   4.262
 6448TIP3    H219288   2.966   2.434   4.190
 6449TIP3   OH219289   3.303   3.120   5.354
 6449TIP3    H119290   3.221   3.076   5.328
 6449TIP3    H219291   3.312   3.192   5.292
 6450TIP3   OH219292   3.369   2.942   4.001
 6450TIP3    H119293   3.383   3.005   3.930
 6450TIP3    H219294   3.299   2.980   4.053
 6451TIP3   OH219295   2.396   1.729   5.864
 6451TIP3    H119296   2.301   1.738   5.872
 6451TIP3    H219297   2.424   1.690   5.947
 6452TIP3   OH219298   3.222   2.365   4.380
 6452TIP3    H119299   3.209   2.326   4.466
 6452TIP3    H219300   3.316   2.383   4.376
 6453TIP3   OH219301   2.141   2.835   5.516
 6453TIP3    H119302   2.197   2.778   5.570
 6453TIP3    H219303   2.154   2.923   5.552
 6454TIP3   OH219304   2.379   2.434   4.190
 6454TIP3    H119305   2.414   2.349   4.164
 6454TIP3    H219306   2.375   2.430   4.286
 6455TIP3   OH219307   2.359   2.454   4.467
 6455TIP3    H119308   2.434   2.427   4.520
 6455TIP3    H219309   2.355   2.549   4.477
 6456TIP3   OH219310   2.084   2.156   4.692
 6456TIP3    H119311   2.017   2.203   4.741
 6456TIP3    H219312   2.103   2.212   4.617
 6457TIP3   OH219313   3.248   1.769   5.554
 6457TIP3    H119314   3.320   1.822   5.587
 6457TIP3    H219315   3.239   1.698   5.618
 6458TIP3   OH219316   3.145   1.535   4.753
 6458TIP3    H119317   3.091   1.580   4.689
 6458TIP3    H219318   3.198   1.604   4.793
 6459TIP3   OH219319   2.623   2.639   4.423
 6459TIP3    H119320   2.540   2.668   4.461
 6459TIP3    H219321   2.656   2.715   4.376
 6460TIP3   OH219322   2.867   1.678   4.880
 6460TIP3    H119323   2.912   1.758   4.853
 6460TIP3    H219324   2.774   1.704   4.884
 6461TIP3   OH219325   3.094   2.026   5.630
 6461TIP3    H119326   3.115   2.079   5.707
 6461TIP3    H219327   3.144   1.945   5.642
 6462TIP3   OH219328   2.966   1.421   4.932
 6462TIP3    H119329   2.916   1.502   4.932
 6462TIP3    H219330   3.038   1.437   4.871
 6463TIP3   OH219331   2.372   2.724   4.502
 6463TIP3    H119332   2.346   2.792   4.439
 6463TIP3    H219333   2.364   2.765   4.587
 6464TIP3   OH219334   3.702   1.931   5.619
 6464TIP3    H119335   3.606   1.925   5.623
 6464TIP3    H219336   3.725   1.896   5.533
 6465TIP3   OH219337   3.366   2.124   5.014
 6465TIP3    H119338   3.297   2.058   5.009
 6465TIP3    H219339   3.438   2.081   5.060
 6466TIP3   OH219340   2.112   2.323   4.471
 6466TIP3    H119341   2.181   2.388   4.481
 6466TIP3    H219342   2.145   2.264   4.403
 6467TIP3   OH219343   2.019   1.628   4.615
 6467TIP3    H119344   2.024   1.723   4.623
 6467TIP3    H219345   1.991   1.612   4.525
 6468TIP3   OH219346   3.301   3.089   4.960
 6468TIP3    H119347   3.220   3.122   4.921
 6468TIP3    H219348   3.370   3.116   4.899
 6469TIP3   OH219349   2.414   1.347   5.468
 6469TIP3    H119350   2.386   1.318   5.381
 6469TIP3    H219351   2.405   1.269   5.522
 6470TIP3   OH219352   1.940   2.591   4.879
 6470TIP3    H119353   1.897   2.630   4.955
 6470TIP3    H219354   1.900   2.635   4.804
 6471TIP3   OH219355   2.137   3.135   5.939
 6471TIP3    H119356   2.219   3.139   5.988
 6471TIP3    H219357   2.121   3.042   5.925
 6472TIP3   OH219358   2.601   3.044   5.987
 6472TIP3    H119359   2.696   3.028   5.993
 6472TIP3    H219360   2.572   2.989   5.915
 6473TIP3   OH219361   2.528   2.659   4.107
 6473TIP3    H119362   2.479   2.584   4.141
 6473TIP3    H219363   2.607   2.620   4.068
 6474TIP3   OH219364   3.222   2.990   5.741
 6474TIP3    H119365   3.237   2.921   5.805
 6474TIP3    H219366   3.298   3.048   5.750
 6475TIP3   OH219367   3.043   2.710   4.043
 6475TIP3    H119368   3.049   2.629   4.093
 6475TIP3    H219369   3.076   2.687   3.956
 6476TIP3   OH219370   2.241   2.530   6.131
 6476TIP3    H119371   2.256   2.436   6.142
 6476TIP3    H219372   2.155   2.536   6.090
 6477TIP3   OH219373   2.250   2.147   4.309
 6477TIP3    H119374   2.301   2.122   4.386
 6477TIP3    H219375   2.313   2.144   4.236
 6478TIP3   OH219376   2.864   2.615   5.911
 6478TIP3    H119377   2.820   2.638   5.829
 6478TIP3    H219378   2.901   2.528   5.895
 6479TIP3   OH219379   2.797   2.362   4.167
 6479TIP3    H119380   2.779   2.379   4.260
 6479TIP3    H219381   2.773   2.270   4.155
 6480TIP3   OH219382   3.327   2.632   5.502
 6480TIP3    H119383   3.405   2.671   5.463
 6480TIP3    H219384   3.265   2.704   5.509
 6481TIP3   OH219385   2.364   2.270   6.140
 6481TIP3    H119386   2.443   2.268   6.086
 6481TIP3    H219387   2.394   2.299   6.226
 6482TIP3   OH219388   2.419   2.071   4.517
 6482TIP3    H119389   2.367   2.018   4.578
 6482TIP3    H219390   2.472   2.007   4.470
 6483TIP3   OH219391   2.718   2.159   5.784
 6483TIP3    H119392   2.634   2.203   5.790
 6483TIP3    H219393   2.758   2.194   5.705
 6484TIP3   OH219394   2.554   1.869   4.385
 6484TIP3    H119395   2.527   1.863   4.293
 6484TIP3    H219396   2.649   1.873   4.383
 6485TIP3   OH219397   3.213   2.533   5.878
 6485TIP3    H119398   3.289   2.500   5.828
 6485TIP3    H219399   3.212   2.480   5.958
 6486TIP3   OH219400   3.335   2.179   4.070
 6486TIP3    H119401   3.322   2.140   3.983
 6486TIP3    H219402   3.313   2.272   4.057
 6487TIP3   OH219403   2.823   1.933   5.904
 6487TIP3    H119404   2.825   1.861   5.841
 6487TIP3    H219405   2.788   2.007   5.854
 6488TIP3   OH219406   2.826   1.730   5.705
 6488TIP3    H119407   2.854   1.763   5.619
 6488TIP3    H219408   2.735   1.704   5.692
 6489TIP3   OH219409   2.855   2.280   5.582
 6489TIP3    H119410   2.928   2.341   5.590
 6489TIP3    H219411   2.789   2.328   5.533
 6490TIP3   OH219412   3.431   2.225   5.948
 6490TIP3    H119413   3.487   2.148   5.954
 6490TIP3    H219414   3.493   2.299   5.942
 6491TIP3   OH219415   3.463   2.479   5.681
 6491TIP3    H119416   3.407   2.534   5.627
 6491TIP3    H219417   3.552   2.499   5.651
 6492TIP3   OH219418   2.707   2.014   6.146
 6492TIP3    H119419   2.636   1.952   6.166
 6492TIP3    H219420   2.736   1.990   6.058
 6493TIP3   OH219421   2.951   1.498   5.804
 6493TIP3    H119422   2.909   1.578   5.773
 6493TIP3    H219423   2.886   1.429   5.789
 6494TIP3   OH219424   3.082   1.971   6.004
 6494TIP3    H119425   3.077   1.960   6.099
 6494TIP3    H219426   2.994   1.952   5.972
 6495TIP3   OH219427   3.326   1.921   5.870
 6495TIP3    H119428   3.249   1.925   5.927
 6495TIP3    H219429   3.399   1.904   5.929
 6496TIP3   OH219430   3.561   1.890   6.022
 6496TIP3    H119431   3.575   1.796   6.031
 6496TIP3    H219432   3.555   1.922   6.113
 6497TIP3   OH219433   2.541   1.790   6.207
 6497TIP3    H119434   2.547   1.701   6.174
 6497TIP3    H219435   2.579   1.786   6.295
 6498TIP3   OH219436   3.019   1.473   6.068
 6498TIP3    H119437   3.090   1.409   6.060
 6498TIP3    H219438   2.989   1.485   5.978
 6499TIP3   OH219439   3.114   1.690   6.210
 6499TIP3    H119440   3.083   1.619   6.155
 6499TIP3    H219441   3.042   1.753   6.212
 6500TIP3   OH219442   2.342   2.896   4.287
 6500TIP3    H119443   2.438   2.897   4.282
 6500TIP3    H219444   2.314   2.960   4.222
 6501TIP3   OH219445   1.836   2.318   4.484
 6501TIP3    H119446   1.931   2.328   4.483
 6501TIP3    H219447   1.821   2.230   4.449
 6502TIP3   OH219448   1.733   2.909   4.960
 6502TIP3    H119449   1.667   2.858   4.915
 6502TIP3    H219450   1.777   2.847   5.018
 6503TIP3   OH219451   1.881   2.739   5.123
 6503TIP3    H119452   1.869   2.672   5.191
 6503TIP3    H219453   1.934   2.807   5.165
 6504TIP3   OH219454   3.602   3.147   4.930
 6504TIP3    H119455   3.615   3.169   5.022
 6504TIP3    H219456   3.641   3.220   4.882
 6505TIP3   OH219457   3.645   3.171   5.212
 6505TIP3    H119458   3.590   3.093   5.211
 6505TIP3    H219459   3.715   3.149   5.274
 6506TIP3   OH219460   3.696   2.875   5.792
 6506TIP3    H119461   3.622   2.886   5.851
 6506TIP3    H219462   3.739   2.961   5.790
 6507TIP3   OH219463   3.507   2.388   4.393
 6507TIP3    H119464   3.560   2.462   4.364
 6507TIP3    H219465   3.553   2.353   4.469
 6508TIP3   OH219466   3.640   2.249   4.597
 6508TIP3    H119467   3.572   2.216   4.656
 6508TIP3    H219468   3.706   2.287   4.654
 6509TIP3   OH219469   3.702   2.659   5.026
 6509TIP3    H119470   3.747   2.593   4.973
 6509TIP3    H219471   3.697   2.736   4.970
 6510TIP3   OH219472   3.484   2.945   5.225
 6510TIP3    H119473   3.412   2.992   5.266
 6510TIP3    H219474   3.446   2.905   5.147
 6511TIP3   OH219475   3.547   2.161   4.242
 6511TIP3    H119476   3.473   2.160   4.182
 6511TIP3    H219477   3.533   2.240   4.296
 6512TIP3   OH219478   3.385   1.808   4.196
 6512TIP3    H119479   3.340   1.837   4.117
 6512TIP3    H219480   3.387   1.712   4.189
 6513TIP3   OH219481   3.433   2.118   4.740
 6513TIP3    H119482   3.445   2.024   4.728
 6513TIP3    H219483   3.417   2.129   4.834
 6514TIP3   OH219484   2.067   2.145   5.511
 6514TIP3    H119485   2.054   2.125   5.418
 6514TIP3    H219486   2.161   2.163   5.518
 6515TIP3   OH219487   3.722   2.532   5.595
 6515TIP3    H119488   3.788   2.466   5.575
 6515TIP3    H219489   3.746   2.607   5.540
 6516TIP3   OH219490   3.895   2.317   5.584
 6516TIP3    H119491   3.822   2.278   5.632
 6516TIP3    H219492   3.970   2.261   5.605
 6517TIP3   OH219493   3.384   1.532   4.180
 6517TIP3    H119494   3.476   1.522   4.204
 6517TIP3    H219495   3.337   1.476   4.242
 6518TIP3   OH219496   3.433   1.825   4.612
 6518TIP3    H119497   3.483   1.744   4.624
 6518TIP3    H219498   3.474   1.868   4.538
 6519TIP3   OH219499   3.588   2.006   5.140
 6519TIP3    H119500   3.668   2.024   5.091
 6519TIP3    H219501   3.603   2.044   5.227
 6520TIP3   OH219502   3.660   2.147   5.371
 6520TIP3    H119503   3.590   2.177   5.429
 6520TIP3    H219504   3.693   2.226   5.329
 6521TIP3   OH219505   2.280   1.856   6.142
 6521TIP3    H119506   2.373   1.854   6.164
 6521TIP3    H219507   2.244   1.776   6.180
 6522TIP3   OH219508   4.120   1.744   5.910
 6522TIP3    H119509   4.185   1.688   5.867
 6522TIP3    H219510   4.082   1.796   5.839
 6523TIP3   OH219511   3.558   1.583   4.665
 6523TIP3    H119512   3.597   1.564   4.751
 6523TIP3    H219513   3.497   1.511   4.651
 6524TIP3   OH219514   2.251   1.568   5.510
 6524TIP3    H119515   2.304   1.489   5.506
 6524TIP3    H219516   2.311   1.639   5.486
 6525TIP3   OH219517   2.029   1.840   5.550
 6525TIP3    H119518   2.084   1.823   5.474
 6525TIP3    H219519   2.036   1.935   5.564
 6526TIP3   OH219520   3.969   1.869   5.721
 6526TIP3    H119521   3.895   1.910   5.765
 6526TIP3    H219522   3.930   1.802   5.664
 6527TIP3   OH219523   3.636   1.497   4.264
 6527TIP3    H119524   3.680   1.415   4.286
 6527TIP3    H219525   3.700   1.565   4.286
 6528TIP3   OH219526   2.015   1.319   5.048
 6528TIP3    H119527   1.931   1.321   5.094
 6528TIP3    H219528   2.007   1.386   4.981
 6529TIP3   OH219529   3.227   3.076   4.595
 6529TIP3    H119530   3.266   3.051   4.511
 6529TIP3    H219531   3.229   3.172   4.595
 6530TIP3   OH219532   2.244   1.382   5.876
 6530TIP3    H119533   2.199   1.388   5.960
 6530TIP3    H219534   2.192   1.438   5.817
 6531TIP3   OH219535   2.273   2.849   5.952
 6531TIP3    H119536   2.178   2.832   5.946
 6531TIP3    H219537   2.291   2.850   6.046
 6532TIP3   OH219538   2.487   2.899   5.508
 6532TIP3    H119539   2.432   2.971   5.477
 6532TIP3    H219540   2.570   2.909   5.462
 6533TIP3   OH219541   2.886   3.132   5.645
 6533TIP3    H119542   2.926   3.128   5.731
 6533TIP3    H219543   2.945   3.185   5.592
 6534TIP3   OH219544   3.072   3.284   5.508
 6534TIP3    H119545   3.136   3.239   5.453
 6534TIP3    H219546   3.124   3.340   5.565
 6535TIP3   OH219547   3.874   1.626   5.602
 6535TIP3    H119548   3.793   1.629   5.552
 6535TIP3    H219549   3.904   1.536   5.594
 6536TIP3   OH219550   2.142   3.132   5.557
 6536TIP3    H119551   2.052   3.153   5.531
 6536TIP3    H219552   2.165   3.202   5.619
 6537TIP3   OH219553   2.372   3.125   5.405
 6537TIP3    H119554   2.288   3.132   5.450
 6537TIP3    H219555   2.354   3.152   5.315
 6538TIP3   OH219556   2.811   3.151   5.202
 6538TIP3    H119557   2.849   3.163   5.115
 6538TIP3    H219558   2.810   3.239   5.240
 6539TIP3   OH219559   3.070   3.057   5.220
 6539TIP3    H119560   2.979   3.078   5.243
 6539TIP3    H219561   3.085   3.100   5.136
 6540TIP3   OH219562   3.309   3.300   5.148
 6540TIP3    H119563   3.263   3.374   5.109
 6540TIP3    H219564   3.298   3.229   5.085
 6541TIP3   OH219565   2.056   2.917   5.264
 6541TIP3    H119566   2.080   2.895   5.354
 6541TIP3    H219567   2.128   2.884   5.211
 6542TIP3   OH219568   2.259   2.799   5.127
 6542TIP3    H119569   2.272   2.717   5.175
 6542TIP3    H219570   2.344   2.843   5.132
 6543TIP3   OH219571   2.521   2.886   5.157
 6543TIP3    H119572   2.548   2.795   5.146
 6543TIP3    H219573   2.578   2.919   5.226
 6544TIP3   OH219574   3.042   1.542   5.239
 6544TIP3    H119575   3.011   1.465   5.288
 6544TIP3    H219576   3.117   1.510   5.190
 6545TIP3   OH219577   3.586   1.456   5.142
 6545TIP3    H119578   3.624   1.496   5.063
 6545TIP3    H219579   3.492   1.476   5.136
 6546TIP3   OH219580   3.700   1.519   4.899
 6546TIP3    H119581   3.766   1.461   4.862
 6546TIP3    H219582   3.736   1.606   4.889
 6547TIP3   OH219583   2.328   1.246   5.223
 6547TIP3    H119584   2.238   1.215   5.229
 6547TIP3    H219585   2.380   1.166   5.223
 6548TIP3   OH219586   2.134   1.129   4.879
 6548TIP3    H119587   2.176   1.177   4.808
 6548TIP3    H219588   2.103   1.197   4.938
 6549TIP3   OH219589   2.818   1.278   5.125
 6549TIP3    H119590   2.863   1.329   5.057
 6549TIP3    H219591   2.858   1.308   5.207
 6550TIP3   OH219592   3.293   1.454   5.136
 6550TIP3    H119593   3.290   1.432   5.043
 6550TIP3    H219594   3.300   1.370   5.181
 6551TIP3   OH219595   3.367   1.387   4.678
 6551TIP3    H119596   3.283   1.427   4.701
 6551TIP3    H219597   3.358   1.296   4.705
 6552TIP3   OH219598   1.833   2.714   4.661
 6552TIP3    H119599   1.748   2.678   4.634
 6552TIP3    H219600   1.833   2.803   4.626
 6553TIP3   OH219601   2.268   1.263   4.655
 6553TIP3    H119602   2.294   1.197   4.591
 6553TIP3    H219603   2.344   1.320   4.663
 6554TIP3   OH219604   2.617   2.872   4.254
 6554TIP3    H119605   2.701   2.896   4.216
 6554TIP3    H219606   2.584   2.803   4.197
 6555TIP3   OH219607   3.338   3.017   4.346
 6555TIP3    H119608   3.333   2.921   4.340
 6555TIP3    H219609   3.289   3.048   4.271
 6556TIP3   OH219610   2.555   1.516   6.120
 6556TIP3    H119611   2.519   1.449   6.178
 6556TIP3    H219612   2.647   1.525   6.147
 6557TIP3   OH219613   2.802   1.520   6.244
 6557TIP3    H119614   2.880   1.503   6.191
 6557TIP3    H219615   2.801   1.449   6.309
 6558TIP3   OH219616   1.918   2.701   4.278
 6558TIP3    H119617   1.903   2.700   4.372
 6558TIP3    H219618   2.005   2.664   4.266
 6559TIP3   OH219619   3.625   1.618   6.031
 6559TIP3    H119620   3.642   1.590   6.121
 6559TIP3    H219621   3.710   1.613   5.988
 6560TIP3   OH219622   3.536   3.146   5.523
 6560TIP3    H119623   3.457   3.120   5.475
 6560TIP3    H219624   3.524   3.241   5.537
 6561TIP3   OH219625   4.823   2.539   4.274
 6561TIP3    H119626   4.792   2.625   4.248
 6561TIP3    H219627   4.752   2.479   4.249
 6562TIP3   OH219628   4.821   2.528   4.698
 6562TIP3    H119629   4.873   2.511   4.777
 6562TIP3    H219630   4.776   2.446   4.681
 6563TIP3   OH219631   4.120   2.394   5.044
 6563TIP3    H119632   4.158   2.342   5.115
 6563TIP3    H219633   4.195   2.419   4.990
 6564TIP3   OH219634   5.088   2.838   4.374
 6564TIP3    H119635   5.076   2.772   4.443
 6564TIP3    H219636   5.111   2.918   4.421
 6565TIP3   OH219637   4.113   2.816   4.728
 6565TIP3    H119638   4.094   2.723   4.738
 6565TIP3    H219639   4.208   2.820   4.720
 6566TIP3   OH219640   3.791   2.022   4.520
 6566TIP3    H119641   3.750   2.106   4.542
 6566TIP3    H219642   3.722   1.973   4.475
 6567TIP3   OH219643   3.872   2.333   4.735
 6567TIP3    H119644   3.923   2.256   4.759
 6567TIP3    H219645   3.938   2.398   4.710
 6568TIP3   OH219646   4.733   3.317   4.362
 6568TIP3    H119647   4.761   3.241   4.310
 6568TIP3    H219648   4.707   3.280   4.446
 6569TIP3   OH219649   4.628   2.749   4.702
 6569TIP3    H119650   4.673   2.670   4.674
 6569TIP3    H219651   4.698   2.806   4.736
 6570TIP3   OH219652   5.660   2.071   4.721
 6570TIP3    H119653   5.677   2.155   4.763
 6570TIP3    H219654   5.683   2.085   4.629
 6571TIP3   OH219655   5.033   2.238   4.740
 6571TIP3    H119656   5.066   2.153   4.767
 6571TIP3    H219657   4.996   2.223   4.653
 6572TIP3   OH219658   4.388   1.895   4.697
 6572TIP3    H119659   4.366   1.968   4.640
 6572TIP3    H219660   4.333   1.823   4.666
 6573TIP3   OH219661   5.085   1.999   4.335
 6573TIP3    H119662   5.149   1.993   4.406
 6573TIP3    H219663   5.135   2.034   4.261
 6574TIP3   OH219664   4.012   2.111   4.827
 6574TIP3    H119665   4.096   2.093   4.870
 6574TIP3    H219666   4.016   2.060   4.746
 6575TIP3   OH219667   4.433   2.311   4.643
 6575TIP3    H119668   4.527   2.295   4.649
 6575TIP3    H219669   4.397   2.229   4.608
 6576TIP3   OH219670   5.716   2.291   4.886
 6576TIP3    H119671   5.627   2.328   4.880
 6576TIP3    H219672   5.751   2.327   4.967
 6577TIP3   OH219673   4.368   1.901   5.151
 6577TIP3    H119674   4.318   1.936   5.077
 6577TIP3    H219675   4.313   1.919   5.227
 6578TIP3   OH219676   4.720   2.755   4.135
 6578TIP3    H119677   4.679   2.726   4.054
 6578TIP3    H219678   4.667   2.830   4.162
 6579TIP3   OH219679   4.462   2.677   4.913
 6579TIP3    H119680   4.409   2.748   4.948
 6579TIP3    H219681   4.511   2.717   4.841
 6580TIP3   OH219682   5.245   2.020   4.556
 6580TIP3    H119683   5.202   1.998   4.639
 6580TIP3    H219684   5.300   2.095   4.577
 6581TIP3   OH219685   4.259   2.007   4.919
 6581TIP3    H119686   4.314   2.082   4.941
 6581TIP3    H219687   4.305   1.964   4.847
 6582TIP3   OH219688   4.307   2.879   5.021
 6582TIP3    H119689   4.293   2.968   4.991
 6582TIP3    H219690   4.230   2.858   5.075
 6583TIP3   OH219691   3.680   2.581   4.276
 6583TIP3    H119692   3.639   2.605   4.193
 6583TIP3    H219693   3.703   2.665   4.316
 6584TIP3   OH219694   5.132   3.086   4.511
 6584TIP3    H119695   5.047   3.076   4.554
 6584TIP3    H219696   5.127   3.171   4.467
 6585TIP3   OH219697   5.460   1.960   4.890
 6585TIP3    H119698   5.375   1.983   4.853
 6585TIP3    H219699   5.523   1.988   4.822
 6586TIP3   OH219700   4.711   1.594   4.883
 6586TIP3    H119701   4.702   1.502   4.907
 6586TIP3    H219702   4.634   1.636   4.921
 6587TIP3   OH219703   4.828   3.127   4.175
 6587TIP3    H119704   4.876   3.045   4.168
 6587TIP3    H219705   4.888   3.193   4.142
 6588TIP3   OH219706   4.963   2.894   4.134
 6588TIP3    H119707   4.892   2.830   4.130
 6588TIP3    H219708   5.016   2.867   4.209
 6589TIP3   OH219709   5.360   2.975   4.857
 6589TIP3    H119710   5.341   2.900   4.800
 6589TIP3    H219711   5.345   3.052   4.802
 6590TIP3   OH219712   4.648   2.376   4.128
 6590TIP3    H119713   4.565   2.420   4.110
 6590TIP3    H219714   4.694   2.375   4.044
 6591TIP3   OH219715   4.615   2.184   3.817
 6591TIP3    H119716   4.681   2.233   3.867
 6591TIP3    H219717   4.664   2.116   3.771
 6592TIP3   OH219718   5.539   2.633   4.724
 6592TIP3    H119719   5.454   2.678   4.723
 6592TIP3    H219720   5.574   2.646   4.636
 6593TIP3   OH219721   5.007   2.466   4.085
 6593TIP3    H119722   4.952   2.495   4.159
 6593TIP3    H219723   5.090   2.441   4.126
 6594TIP3   OH219724   5.236   2.493   5.034
 6594TIP3    H119725   5.232   2.577   5.080
 6594TIP3    H219726   5.154   2.490   4.984
 6595TIP3   OH219727   4.233   2.445   4.493
 6595TIP3    H119728   4.196   2.385   4.428
 6595TIP3    H219729   4.306   2.396   4.532
 6596TIP3   OH219730   4.375   2.866   4.633
 6596TIP3    H119731   4.350   2.852   4.541
 6596TIP3    H219732   4.462   2.827   4.640
 6597TIP3   OH219733   4.334   2.440   4.867
 6597TIP3    H119734   4.372   2.404   4.787
 6597TIP3    H219735   4.381   2.521   4.882
 6598TIP3   OH219736   4.903   3.072   4.652
 6598TIP3    H119737   4.882   3.155   4.696
 6598TIP3    H219738   4.878   3.004   4.714
 6599TIP3   OH219739   4.504   2.976   5.192
 6599TIP3    H119740   4.443   3.033   5.239
 6599TIP3    H219741   4.448   2.925   5.133
 6600TIP3   OH219742   4.837   2.325   3.920
 6600TIP3    H119743   4.896   2.384   3.967
 6600TIP3    H219744   4.866   2.330   3.829
 6601TIP3   OH219745   4.262   2.521   5.336
 6601TIP3    H119746   4.267   2.615   5.354
 6601TIP3    H219747   4.169   2.503   5.328
 6602TIP3   OH219748   4.585   2.995   4.177
 6602TIP3    H119749   4.664   3.049   4.185
 6602TIP3    H219750   4.524   3.049   4.128
 6603TIP3   OH219751   4.294   3.133   5.280
 6603TIP3    H119752   4.268   3.146   5.189
 6603TIP3    H219753   4.212   3.118   5.327
 6604TIP3   OH219754   5.348   1.552   3.981
 6604TIP3    H119755   5.271   1.573   4.034
 6604TIP3    H219756   5.359   1.628   3.924
 6605TIP3   OH219757   4.105   2.288   4.291
 6605TIP3    H119758   4.027   2.336   4.262
 6605TIP3    H219759   4.074   2.200   4.308
 6606TIP3   OH219760   5.169   2.932   3.529
 6606TIP3    H119761   5.167   3.025   3.510
 6606TIP3    H219762   5.259   2.906   3.508
 6607TIP3   OH219763   3.891   2.692   5.229
 6607TIP3    H119764   3.826   2.678   5.161
 6607TIP3    H219765   3.926   2.605   5.247
 6608TIP3   OH219766   3.725   2.901   4.886
 6608TIP3    H119767   3.810   2.937   4.912
 6608TIP3    H219768   3.663   2.972   4.903
 6609TIP3   OH219769   5.593   3.340   4.927
 6609TIP3    H119770   5.598   3.245   4.937
 6609TIP3    H219771   5.512   3.364   4.973
 6610TIP3   OH219772   4.694   3.117   5.053
 6610TIP3    H119773   4.687   3.209   5.081
 6610TIP3    H219774   4.626   3.072   5.102
 6611TIP3   OH219775   4.473   3.216   4.002
 6611TIP3    H119776   4.422   3.198   3.924
 6611TIP3    H219777   4.438   3.298   4.037
 6612TIP3   OH219778   3.910   3.071   4.382
 6612TIP3    H119779   3.950   3.065   4.468
 6612TIP3    H219780   3.857   2.992   4.375
 6613TIP3   OH219781   4.675   3.151   3.633
 6613TIP3    H119782   4.726   3.078   3.599
 6613TIP3    H219783   4.709   3.165   3.721
 6614TIP3   OH219784   4.728   3.198   3.902
 6614TIP3    H119785   4.641   3.199   3.942
 6614TIP3    H219786   4.785   3.161   3.970
 6615TIP3   OH219787   5.481   2.450   5.194
 6615TIP3    H119788   5.398   2.461   5.148
 6615TIP3    H219789   5.499   2.357   5.189
 6616TIP3   OH219790   4.094   2.876   5.194
 6616TIP3    H119791   4.141   2.867   5.277
 6616TIP3    H219792   4.019   2.817   5.202
 6617TIP3   OH219793   4.472   1.684   5.008
 6617TIP3    H119794   4.389   1.651   4.974
 6617TIP3    H219795   4.450   1.765   5.053
 6618TIP3   OH219796   5.014   1.806   5.207
 6618TIP3    H119797   5.083   1.783   5.269
 6618TIP3    H219798   4.933   1.791   5.255
 6619TIP3   OH219799   5.237   2.228   5.124
 6619TIP3    H119800   5.196   2.224   5.210
 6619TIP3    H219801   5.221   2.318   5.094
 6620TIP3   OH219802   4.916   2.307   3.657
 6620TIP3    H119803   4.871   2.309   3.573
 6620TIP3    H219804   4.998   2.355   3.642
 6621TIP3   OH219805   4.627   1.724   3.975
 6621TIP3    H119806   4.589   1.732   4.063
 6621TIP3    H219807   4.588   1.644   3.940
 6622TIP3   OH219808   4.411   2.217   5.015
 6622TIP3    H119809   4.366   2.225   5.099
 6622TIP3    H219810   4.390   2.298   4.969
 6623TIP3   OH219811   4.292   2.096   4.537
 6623TIP3    H119812   4.202   2.072   4.561
 6623TIP3    H219813   4.302   2.063   4.447
 6624TIP3   OH219814   4.773   2.172   4.264
 6624TIP3    H119815   4.725   2.245   4.224
 6624TIP3    H219816   4.830   2.140   4.195
 6625TIP3   OH219817   4.958   2.437   5.337
 6625TIP3    H119818   4.931   2.370   5.399
 6625TIP3    H219819   5.050   2.454   5.357
 6626TIP3   OH219820   4.940   2.186   4.488
 6626TIP3    H119821   4.872   2.208   4.424
 6626TIP3    H219822   4.987   2.112   4.448
 6627TIP3   OH219823   4.251   2.235   5.238
 6627TIP3    H119824   4.260   2.301   5.307
 6627TIP3    H219825   4.232   2.154   5.285
 6628TIP3   OH219826   4.293   1.710   3.951
 6628TIP3    H119827   4.282   1.713   4.046
 6628TIP3    H219828   4.215   1.753   3.916
 6629TIP3   OH219829   3.829   1.745   4.828
 6629TIP3    H119830   3.904   1.784   4.873
 6629TIP3    H219831   3.860   1.729   4.739
 6630TIP3   OH219832   3.770   1.739   4.328
 6630TIP3    H119833   3.811   1.776   4.250
 6630TIP3    H219834   3.695   1.796   4.346
 6631TIP3   OH219835   4.984   2.440   4.914
 6631TIP3    H119836   5.008   2.373   4.850
 6631TIP3    H219837   4.939   2.392   4.983
 6632TIP3   OH219838   4.656   1.887   4.588
 6632TIP3    H119839   4.578   1.886   4.642
 6632TIP3    H219840   4.729   1.879   4.650
 6633TIP3   OH219841   4.052   1.971   4.595
 6633TIP3    H119842   3.964   1.976   4.559
 6633TIP3    H219843   4.079   1.880   4.579
 6634TIP3   OH219844   4.307   1.975   4.291
 6634TIP3    H119845   4.401   1.985   4.279
 6634TIP3    H219846   4.270   1.993   4.204
 6635TIP3   OH219847   5.104   1.976   4.796
 6635TIP3    H119848   5.085   1.993   4.888
 6635TIP3    H219849   5.035   1.915   4.768
 6636TIP3   OH219850   4.192   1.999   4.044
 6636TIP3    H119851   4.129   1.949   3.992
 6636TIP3    H219852   4.246   2.045   3.979
 6637TIP3   OH219853   5.309   3.679   5.023
 6637TIP3    H119854   5.308   3.688   4.928
 6637TIP3    H219855   5.388   3.726   5.050
 6638TIP3   OH219856   4.246   2.785   5.432
 6638TIP3    H119857   4.326   2.809   5.479
 6638TIP3    H219858   4.176   2.799   5.495
 6639TIP3   OH219859   4.706   2.258   4.695
 6639TIP3    H119860   4.772   2.208   4.647
 6639TIP3    H219861   4.703   2.217   4.781
 6640TIP3   OH219862   4.196   1.721   4.581
 6640TIP3    H119863   4.164   1.647   4.633
 6640TIP3    H219864   4.215   1.685   4.495
 6641TIP3   OH219865   4.678   2.161   4.960
 6641TIP3    H119866   4.591   2.193   4.983
 6641TIP3    H219867   4.738   2.214   5.013
 6642TIP3   OH219868   4.411   2.512   4.073
 6642TIP3    H119869   4.336   2.458   4.049
 6642TIP3    H219870   4.385   2.554   4.155
 6643TIP3   OH219871   5.303   2.770   4.680
 6643TIP3    H119872   5.338   2.819   4.605
 6643TIP3    H219873   5.223   2.729   4.646
 6644TIP3   OH219874   4.878   1.830   3.979
 6644TIP3    H119875   4.785   1.807   3.975
 6644TIP3    H219876   4.879   1.925   3.991
 6645TIP3   OH219877   4.820   2.852   5.094
 6645TIP3    H119878   4.868   2.844   5.177
 6645TIP3    H219879   4.778   2.938   5.099
 6646TIP3   OH219880   4.935   2.095   4.048
 6646TIP3    H119881   5.030   2.100   4.058
 6646TIP3    H219882   4.913   2.173   3.996
 6647TIP3   OH219883   4.099   2.523   4.723
 6647TIP3    H119884   4.138   2.508   4.636
 6647TIP3    H219885   4.167   2.495   4.784
 6648TIP3   OH219886   4.562   2.675   3.915
 6648TIP3    H119887   4.515   2.759   3.913
 6648TIP3    H219888   4.507   2.618   3.968
 6649TIP3   OH219889   3.991   2.456   5.356
 6649TIP3    H119890   3.991   2.433   5.449
 6649TIP3    H219891   3.914   2.410   5.320
 6650TIP3   OH219892   4.726   2.594   5.379
 6650TIP3    H119893   4.656   2.535   5.351
 6650TIP3    H219894   4.807   2.552   5.349
 6651TIP3   OH219895   4.965   3.140   4.976
 6651TIP3    H119896   4.871   3.125   4.982
 6651TIP3    H219897   4.989   3.177   5.062
 6652TIP3   OH219898   5.352   2.183   3.865
 6652TIP3    H119899   5.295   2.137   3.803
 6652TIP3    H219900   5.358   2.272   3.831
 6653TIP3   OH219901   5.606   3.062   4.946
 6653TIP3    H119902   5.512   3.044   4.943
 6653TIP3    H219903   5.639   3.029   4.862
 6654TIP3   OH219904   5.090   2.998   3.796
 6654TIP3    H119905   5.062   2.929   3.856
 6654TIP3    H219906   5.108   2.952   3.714
 6655TIP3   OH219907   5.074   2.635   4.577
 6655TIP3    H119908   4.984   2.613   4.601
 6655TIP3    H219909   5.109   2.554   4.538
 6656TIP3   OH219910   4.225   2.869   4.392
 6656TIP3    H119911   4.219   2.943   4.332
 6656TIP3    H219912   4.138   2.864   4.432
 6657TIP3   OH219913   3.778   2.158   4.093
 6657TIP3    H119914   3.823   2.239   4.117
 6657TIP3    H219915   3.699   2.156   4.147
 6658TIP3   OH219916   4.313   2.626   4.296
 6658TIP3    H119917   4.292   2.715   4.326
 6658TIP3    H219918   4.286   2.570   4.370
 6659TIP3   OH219919   4.510   3.189   4.846
 6659TIP3    H119920   4.548   3.255   4.789
 6659TIP3    H219921   4.583   3.157   4.898
 6660TIP3   OH219922   4.142   3.087   4.236
 6660TIP3    H119923   4.055   3.092   4.276
 6660TIP3    H219924   4.176   3.176   4.242
 6661TIP3   OH219925   4.859   2.853   4.821
 6661TIP3    H119926   4.847   2.849   4.916
 6661TIP3    H219927   4.937   2.800   4.805
 6662TIP3   OH219928   4.853   2.735   3.685
 6662TIP3    H119929   4.905   2.707   3.761
 6662TIP3    H219930   4.769   2.691   3.696
 6663TIP3   OH219931   5.117   3.355   4.860
 6663TIP3    H119932   5.048   3.291   4.875
 6663TIP3    H219933   5.085   3.410   4.789
 6664TIP3   OH219934   5.176   3.208   3.495
 6664TIP3    H119935   5.226   3.280   3.455
 6664TIP3    H219936   5.097   3.249   3.530
 6665TIP3   OH219937   4.197   1.980   5.357
 6665TIP3    H119938   4.102   1.987   5.363
 6665TIP3    H219939   4.222   1.932   5.437
 6666TIP3   OH219940   5.031   2.650   3.876
 6666TIP3    H119941   5.015   2.596   3.954
 6666TIP3    H219942   5.126   2.656   3.871
 6667TIP3   OH219943   3.933   3.084   5.000
 6667TIP3    H119944   3.990   3.029   5.053
 6667TIP3    H219945   3.942   3.172   5.038
 6668TIP3   OH219946   4.206   2.698   3.697
 6668TIP3    H119947   4.217   2.606   3.672
 6668TIP3    H219948   4.191   2.696   3.791
 6669TIP3   OH219949   4.149   2.717   3.968
 6669TIP3    H119950   4.209   2.691   4.038
 6669TIP3    H219951   4.147   2.813   3.974
 6670TIP3   OH219952   3.877   2.406   4.182
 6670TIP3    H119953   3.812   2.453   4.233
 6670TIP3    H219954   3.897   2.465   4.109
 6671TIP3   OH219955   5.046   2.036   5.057
 6671TIP3    H119956   5.123   2.082   5.091
 6671TIP3    H219957   5.037   1.960   5.114
 6672TIP3   OH219958   4.937   1.781   4.247
 6672TIP3    H119959   4.915   1.799   4.155
 6672TIP3    H219960   4.980   1.861   4.278
 6673TIP3   OH219961   4.419   2.905   3.909
 6673TIP3    H119962   4.334   2.927   3.945
 6673TIP3    H219963   4.441   2.980   3.853
 6674TIP3   OH219964   4.588   1.980   4.334
 6674TIP3    H119965   4.649   2.049   4.309
 6674TIP3    H219966   4.610   1.961   4.425
 6675TIP3   OH219967   4.884   2.275   5.112
 6675TIP3    H119968   4.908   2.319   5.193
 6675TIP3    H219969   4.934   2.194   5.113
 6676TIP3   OH219970   4.750   1.677   4.423
 6676TIP3    H119971   4.726   1.755   4.474
 6676TIP3    H219972   4.819   1.708   4.364
 6677TIP3   OH219973   4.168   2.990   3.982
 6677TIP3    H119974   4.146   3.062   3.923
 6677TIP3    H219975   4.155   3.026   4.069
 6678TIP3   OH219976   4.263   1.702   4.230
 6678TIP3    H119977   4.251   1.792   4.259
 6678TIP3    H219978   4.358   1.687   4.236
 6679TIP3   OH219979   5.502   2.177   5.104
 6679TIP3    H119980   5.407   2.184   5.115
 6679TIP3    H219981   5.512   2.122   5.026
 6680TIP3   OH219982   5.165   2.376   4.487
 6680TIP3    H119983   5.088   2.320   4.499
 6680TIP3    H219984   5.231   2.336   4.543
 6681TIP3   OH219985   3.906   2.582   3.966
 6681TIP3    H119986   3.975   2.647   3.974
 6681TIP3    H219987   3.939   2.519   3.902
 6682TIP3   OH219988   3.822   1.882   4.102
 6682TIP3    H119989   3.822   1.978   4.102
 6682TIP3    H219990   3.773   1.857   4.024
 6683TIP3   OH219991   5.153   3.359   4.439
 6683TIP3    H119992   5.118   3.405   4.363
 6683TIP3    H219993   5.248   3.364   4.429
 6684TIP3   OH219994   4.210   1.599   4.964
 6684TIP3    H119995   4.179   1.568   4.879
 6684TIP3    H219996   4.199   1.523   5.022
 6685TIP3   OH219997   3.731   2.851   4.361
 6685TIP3    H119998   3.688   2.889   4.437
 6685TIP3    H219999   3.687   2.891   4.286
 6686TIP3   OH220000   3.926   3.395   5.432
 6686TIP3    H120001   4.009   3.397   5.481
 6686TIP3    H220002   3.905   3.302   5.425
 6687TIP3   OH220003   4.398   3.299   5.476
 6687TIP3    H120004   4.491   3.276   5.482
 6687TIP3    H220005   4.365   3.245   5.404
 6688TIP3   OH220006   4.360   2.898   3.584
 6688TIP3    H120007   4.314   2.828   3.631
 6688TIP3    H220008   4.436   2.854   3.545
 6689TIP3   OH220009   5.025   3.239   5.225
 6689TIP3    H120010   5.037   3.170   5.290
 6689TIP3    H220011   5.098   3.299   5.239
 6690TIP3   OH220012   4.804   2.941   3.513
 6690TIP3    H120013   4.835   2.876   3.576
 6690TIP3    H220014   4.865   2.934   3.439
 6691TIP3   OH220015   4.038   2.787   5.619
 6691TIP3    H120016   4.056   2.694   5.631
 6691TIP3    H220017   3.951   2.791   5.579
 6692TIP3   OH220018   4.030   2.394   3.812
 6692TIP3    H120019   4.080   2.370   3.890
 6692TIP3    H220020   4.096   2.407   3.743
 6693TIP3   OH220021   4.660   2.871   5.394
 6693TIP3    H120022   4.613   2.892   5.313
 6693TIP3    H220023   4.693   2.783   5.380
 6694TIP3   OH220024   4.595   2.618   3.648
 6694TIP3    H120025   4.573   2.630   3.741
 6694TIP3    H220026   4.578   2.526   3.631
 6695TIP3   OH220027   5.136   2.915   5.010
 6695TIP3    H120028   5.213   2.944   4.961
 6695TIP3    H220029   5.070   2.983   4.994
 6696TIP3   OH220030   4.153   2.528   5.627
 6696TIP3    H120031   4.228   2.521   5.568
 6696TIP3    H220032   4.191   2.553   5.711
 6697TIP3   OH220033   4.201   2.336   4.025
 6697TIP3    H120034   4.179   2.306   4.114
 6697TIP3    H220035   4.249   2.263   3.987
 6698TIP3   OH220036   4.521   2.418   5.283
 6698TIP3    H120037   4.435   2.458   5.293
 6698TIP3    H220038   4.551   2.448   5.197
 6699TIP3   OH220039   4.343   2.151   3.872
 6699TIP3    H120040   4.312   2.154   3.782
 6699TIP3    H220041   4.438   2.159   3.866
 6700TIP3   OH220042   5.014   2.793   5.366
 6700TIP3    H120043   5.082   2.753   5.311
 6700TIP3    H220044   5.010   2.737   5.444
 6701TIP3   OH220045   5.136   2.441   3.551
 6701TIP3    H120046   5.123   2.400   3.466
 6701TIP3    H220047   5.112   2.533   3.538
 6702TIP3   OH220048   4.620   2.185   5.389
 6702TIP3    H120049   4.623   2.115   5.323
 6702TIP3    H220050   4.587   2.261   5.341
 6703TIP3   OH220051   4.628   1.986   5.185
 6703TIP3    H120052   4.655   2.025   5.102
 6703TIP3    H220053   4.537   1.960   5.171
 6704TIP3   OH220054   4.634   2.517   5.056
 6704TIP3    H120055   4.721   2.554   5.046
 6704TIP3    H220056   4.576   2.575   5.007
 6705TIP3   OH220057   5.226   2.476   5.435
 6705TIP3    H120058   5.273   2.393   5.442
 6705TIP3    H220059   5.295   2.542   5.426
 6706TIP3   OH220060   5.257   2.737   5.175
 6706TIP3    H120061   5.203   2.799   5.125
 6706TIP3    H220062   5.346   2.752   5.144
 6707TIP3   OH220063   4.506   2.268   5.632
 6707TIP3    H120064   4.434   2.208   5.652
 6707TIP3    H220065   4.533   2.245   5.543
 6708TIP3   OH220066   4.749   1.755   5.288
 6708TIP3    H120067   4.709   1.836   5.255
 6708TIP3    H220068   4.682   1.688   5.275
 6709TIP3   OH220069   4.876   2.225   5.492
 6709TIP3    H120070   4.865   2.213   5.586
 6709TIP3    H220071   4.790   2.205   5.455
 6710TIP3   OH220072   5.121   2.180   5.362
 6710TIP3    H120073   5.042   2.181   5.417
 6710TIP3    H220074   5.192   2.158   5.423
 6711TIP3   OH220075   5.358   2.147   5.511
 6711TIP3    H120076   5.371   2.052   5.518
 6711TIP3    H220077   5.353   2.177   5.602
 6712TIP3   OH220078   4.334   2.050   5.695
 6712TIP3    H120079   4.341   1.962   5.660
 6712TIP3    H220080   4.373   2.045   5.783
 6713TIP3   OH220081   4.816   1.730   5.553
 6713TIP3    H120082   4.885   1.664   5.546
 6713TIP3    H220083   4.786   1.744   5.463
 6714TIP3   OH220084   4.912   1.946   5.698
 6714TIP3    H120085   4.880   1.874   5.643
 6714TIP3    H220086   4.840   2.009   5.699
 6715TIP3   OH220087   4.161   3.198   3.799
 6715TIP3    H120088   4.249   3.180   3.766
 6715TIP3    H220089   4.123   3.256   3.732
 6716TIP3   OH220090   3.632   2.585   3.971
 6716TIP3    H120091   3.727   2.594   3.977
 6716TIP3    H220092   3.618   2.496   3.939
 6717TIP3   OH220093   3.543   3.174   4.441
 6717TIP3    H120094   3.476   3.123   4.395
 6717TIP3    H220095   3.583   3.111   4.501
 6718TIP3   OH220096   3.679   2.998   4.608
 6718TIP3    H120097   3.664   2.931   4.675
 6718TIP3    H220098   3.729   3.066   4.652
 6719TIP3   OH220099   5.423   3.402   4.422
 6719TIP3    H120100   5.447   3.435   4.509
 6719TIP3    H220101   5.479   3.449   4.362
 6720TIP3   OH220102   5.443   3.434   4.705
 6720TIP3    H120103   5.393   3.353   4.696
 6720TIP3    H220104   5.511   3.413   4.769
 6721TIP3   OH220105   5.489   3.133   5.272
 6721TIP3    H120106   5.416   3.141   5.333
 6721TIP3    H220107   5.535   3.217   5.277
 6722TIP3   OH220108   5.310   2.647   3.880
 6722TIP3    H120109   5.368   2.718   3.851
 6722TIP3    H220110   5.355   2.609   3.956
 6723TIP3   OH220111   5.438   2.505   4.083
 6723TIP3    H120112   5.369   2.467   4.139
 6723TIP3    H220113   5.502   2.541   4.144
 6724TIP3   OH220114   5.486   2.907   4.517
 6724TIP3    H120115   5.537   2.837   4.477
 6724TIP3    H220116   5.487   2.978   4.452
 6725TIP3   OH220117   5.294   3.198   4.709
 6725TIP3    H120118   5.226   3.241   4.759
 6725TIP3    H220119   5.248   3.157   4.636
 6726TIP3   OH220120   5.347   2.422   3.727
 6726TIP3    H120121   5.274   2.421   3.664
 6726TIP3    H220122   5.332   2.500   3.780
 6727TIP3   OH220123   5.200   2.072   3.667
 6727TIP3    H120124   5.152   2.109   3.593
 6727TIP3    H220125   5.191   1.977   3.657
 6728TIP3   OH220126   5.233   2.367   4.218
 6728TIP3    H120127   5.237   2.273   4.204
 6728TIP3    H220128   5.214   2.377   4.311
 6729TIP3   OH220129   3.855   2.415   4.995
 6729TIP3    H120130   3.846   2.391   4.903
 6729TIP3    H220131   3.950   2.419   5.009
 6730TIP3   OH220132   5.514   2.784   5.080
 6730TIP3    H120133   5.581   2.718   5.064
 6730TIP3    H220134   5.524   2.846   5.008
 6731TIP3   OH220135   5.693   2.573   5.072
 6731TIP3    H120136   5.619   2.532   5.116
 6731TIP3    H220137   5.768   2.517   5.093
 6732TIP3   OH220138   5.160   1.801   3.639
 6732TIP3    H120139   5.224   1.774   3.705
 6732TIP3    H220140   5.078   1.763   3.669
 6733TIP3   OH220141   5.227   2.090   4.105
 6733TIP3    H120142   5.273   2.007   4.118
 6733TIP3    H220143   5.269   2.129   4.028
 6734TIP3   OH220144   5.380   2.253   4.629
 6734TIP3    H120145   5.461   2.271   4.581
 6734TIP3    H220146   5.394   2.294   4.714
 6735TIP3   OH220147   5.455   2.404   4.856
 6735TIP3    H120148   5.383   2.432   4.912
 6735TIP3    H220149   5.485   2.484   4.814
 6736TIP3   OH220150   4.072   2.109   5.630
 6736TIP3    H120151   4.165   2.107   5.650
 6736TIP3    H220152   4.037   2.029   5.671
 6737TIP3   OH220153   5.916   2.003   5.396
 6737TIP3    H120154   5.981   1.946   5.354
 6737TIP3    H220155   5.878   2.053   5.324
 6738TIP3   OH220156   5.343   1.841   4.156
 6738TIP3    H120157   5.388   1.825   4.240
 6738TIP3    H220158   5.280   1.769   4.150
 6739TIP3   OH220159   4.047   1.823   4.988
 6739TIP3    H120160   4.101   1.744   4.990
 6739TIP3    H220161   4.108   1.894   4.968
 6740TIP3   OH220162   3.828   2.096   5.040
 6740TIP3    H120163   3.882   2.081   4.963
 6740TIP3    H220164   3.845   2.186   5.065
 6741TIP3   OH220165   5.766   2.121   5.201
 6741TIP3    H120166   5.686   2.162   5.235
 6741TIP3    H220167   5.735   2.050   5.146
 6742TIP3   OH220168   5.388   1.753   3.796
 6742TIP3    H120169   5.436   1.692   3.739
 6742TIP3    H220170   5.442   1.831   3.799
 6743TIP3   OH220171   3.827   1.612   4.561
 6743TIP3    H120172   3.738   1.591   4.591
 6743TIP3    H220173   3.814   1.663   4.482
 6744TIP3   OH220174   4.992   3.305   4.060
 6744TIP3    H120175   5.042   3.292   3.980
 6744TIP3    H220176   5.045   3.364   4.113
 6745TIP3   OH220177   4.041   1.645   5.369
 6745TIP3    H120178   3.994   1.650   5.452
 6745TIP3    H220179   3.987   1.695   5.308
 6746TIP3   OH220180   4.070   3.101   5.445
 6746TIP3    H120181   3.976   3.087   5.434
 6746TIP3    H220182   4.084   3.100   5.540
 6747TIP3   OH220183   4.281   3.154   4.995
 6747TIP3    H120184   4.228   3.227   4.963
 6747TIP3    H220185   4.366   3.165   4.952
 6748TIP3   OH220186   4.682   3.383   5.129
 6748TIP3    H120187   4.720   3.378   5.217
 6748TIP3    H220188   4.743   3.439   5.081
 6749TIP3   OH220189   4.877   3.538   5.006
 6749TIP3    H120190   4.940   3.480   4.963
 6749TIP3    H220191   4.930   3.594   5.062
 6750TIP3   OH220192   5.676   1.876   5.089
 6750TIP3    H120193   5.591   1.874   5.046
 6750TIP3    H220194   5.708   1.786   5.083
 6751TIP3   OH220195   3.945   3.385   5.046
 6751TIP3    H120196   3.853   3.400   5.022
 6751TIP3    H220197   3.965   3.455   5.109
 6752TIP3   OH220198   4.170   3.382   4.888
 6752TIP3    H120199   4.089   3.386   4.938
 6752TIP3    H220200   4.145   3.411   4.800
 6753TIP3   OH220201   4.590   3.381   4.658
 6753TIP3    H120202   4.508   3.397   4.611
 6753TIP3    H220203   4.603   3.461   4.709
 6754TIP3   OH220204   4.858   3.340   4.723
 6754TIP3    H120205   4.765   3.351   4.705
 6754TIP3    H220206   4.899   3.417   4.683
 6755TIP3   OH220207   5.072   3.532   4.638
 6755TIP3    H120208   5.058   3.614   4.591
 6755TIP3    H220209   5.098   3.469   4.571
 6756TIP3   OH220210   3.849   3.178   4.747
 6756TIP3    H120211   3.865   3.154   4.838
 6756TIP3    H220212   3.923   3.141   4.699
 6757TIP3   OH220213   4.055   3.057   4.617
 6757TIP3    H120214   4.065   2.973   4.662
 6757TIP3    H220215   4.141   3.099   4.623
 6758TIP3   OH220216   4.322   3.142   4.643
 6758TIP3    H120217   4.342   3.049   4.627
 6758TIP3    H220218   4.374   3.165   4.720
 6759TIP3   OH220219   4.885   1.797   4.728
 6759TIP3    H120220   4.846   1.725   4.778
 6759TIP3    H220221   4.953   1.756   4.675
 6760TIP3   OH220222   5.386   1.711   4.616
 6760TIP3    H120223   5.423   1.760   4.542
 6760TIP3    H220224   5.293   1.733   4.616
 6761TIP3   OH220225   5.501   1.785   4.378
 6761TIP3    H120226   5.569   1.725   4.350
 6761TIP3    H220227   5.539   1.872   4.366
 6762TIP3   OH220228   4.115   1.496   4.726
 6762TIP3    H120229   4.025   1.464   4.727
 6762TIP3    H220230   4.168   1.417   4.715
 6763TIP3   OH220231   3.956   1.413   4.395
 6763TIP3    H120232   3.980   1.459   4.314
 6763TIP3    H220233   3.923   1.482   4.453
 6764TIP3   OH220234   4.606   1.535   4.622
 6764TIP3    H120235   4.652   1.582   4.552
 6764TIP3    H220236   4.646   1.566   4.703
 6765TIP3   OH220237   5.098   1.681   4.596
 6765TIP3    H120238   5.109   1.646   4.507
 6765TIP3    H220239   5.103   1.604   4.652
 6766TIP3   OH220240   5.157   1.631   4.164
 6766TIP3    H120241   5.077   1.678   4.187
 6766TIP3    H220242   5.146   1.543   4.202
 6767TIP3   OH220243   3.612   2.966   4.141
 6767TIP3    H120244   3.528   2.935   4.109
 6767TIP3    H220245   3.618   3.056   4.112
 6768TIP3   OH220246   4.052   1.534   4.147
 6768TIP3    H120247   4.093   1.474   4.086
 6768TIP3    H220248   4.123   1.590   4.178
 6769TIP3   OH220249   4.538   1.729   4.238
 6769TIP3    H120250   4.597   1.676   4.292
 6769TIP3    H220251   4.554   1.819   4.266
 6770TIP3   OH220252   4.417   3.123   3.728
 6770TIP3    H120253   4.502   3.150   3.693
 6770TIP3    H220254   4.389   3.050   3.673
 6771TIP3   OH220255   5.126   3.267   3.822
 6771TIP3    H120256   5.118   3.172   3.815
 6771TIP3    H220257   5.082   3.301   3.744
 6772TIP3   OH220258   4.349   1.779   5.605
 6772TIP3    H120259   4.314   1.713   5.665
 6772TIP3    H220260   4.442   1.787   5.630
 6773TIP3   OH220261   4.598   1.783   5.727
 6773TIP3    H120262   4.676   1.762   5.676
 6773TIP3    H220263   4.592   1.714   5.793
 6774TIP3   OH220264   3.709   2.976   3.763
 6774TIP3    H120265   3.704   2.990   3.857
 6774TIP3    H220266   3.793   2.932   3.749
 6775TIP3   OH220267   5.422   1.875   5.517
 6775TIP3    H120268   5.438   1.847   5.607
 6775TIP3    H220269   5.507   1.870   5.474
 6776TIP3   OH220270   5.342   3.404   5.022
 6776TIP3    H120271   5.266   3.375   4.972
 6776TIP3    H220272   5.328   3.498   5.034
 6777TIP3   OH220273   6.616   2.796   3.764
 6777TIP3    H120274   6.586   2.883   3.736
 6777TIP3    H220275   6.545   2.737   3.736
 6778TIP3   OH220276   6.613   2.787   4.187
 6778TIP3    H120277   6.666   2.768   4.265
 6778TIP3    H220278   6.570   2.704   4.168
 6779TIP3   OH220279   5.913   2.647   4.531
 6779TIP3    H120280   5.951   2.596   4.601
 6779TIP3    H220281   5.988   2.671   4.475
 6780TIP3   OH220282   6.880   3.089   3.855
 6780TIP3    H120283   6.871   3.024   3.925
 6780TIP3    H220284   6.901   3.171   3.900
 6781TIP3   OH220285   5.902   3.077   4.224
 6781TIP3    H120286   5.885   2.983   4.227
 6781TIP3    H220287   5.996   3.084   4.213
 6782TIP3   OH220288   5.588   2.279   4.003
 6782TIP3    H120289   5.550   2.363   4.028
 6782TIP3    H220290   5.517   2.230   3.962
 6783TIP3   OH220291   5.667   2.588   4.225
 6783TIP3    H120292   5.717   2.511   4.250
 6783TIP3    H220293   5.733   2.651   4.196
 6784TIP3   OH220294   6.538   3.519   3.870
 6784TIP3    H120295   6.566   3.455   3.805
 6784TIP3    H220296   6.546   3.473   3.954
 6785TIP3   OH220297   6.419   3.008   4.190
 6785TIP3    H120298   6.464   2.928   4.161
 6785TIP3    H220299   6.490   3.064   4.221
 6786TIP3   OH220300   7.443   2.314   4.211
 6786TIP3    H120301   7.454   2.401   4.250
 6786TIP3    H220302   7.479   2.322   4.123
 6787TIP3   OH220303   6.826   2.496   4.227
 6787TIP3    H120304   6.861   2.411   4.254
 6787TIP3    H220305   6.791   2.480   4.139
 6788TIP3   OH220306   6.184   2.154   4.185
 6788TIP3    H120307   6.163   2.227   4.127
 6788TIP3    H220308   6.129   2.082   4.154
 6789TIP3   OH220309   6.881   2.256   3.822
 6789TIP3    H120310   6.944   2.250   3.893
 6789TIP3    H220311   6.931   2.289   3.747
 6790TIP3   OH220312   5.808   2.367   4.316
 6790TIP3    H120313   5.891   2.350   4.359
 6790TIP3    H220314   5.812   2.317   4.235
 6791TIP3   OH220315   6.228   2.568   4.132
 6791TIP3    H120316   6.322   2.553   4.138
 6791TIP3    H220317   6.193   2.486   4.096
 6792TIP3   OH220318   7.471   2.531   4.391
 6792TIP3    H120319   7.392   2.583   4.371
 6792TIP3    H220320   7.514   2.581   4.460
 6793TIP3   OH220321   6.165   2.158   4.638
 6793TIP3    H120322   6.115   2.193   4.564
 6793TIP3    H220323   6.109   2.174   4.714
 6794TIP3   OH220324   6.516   3.013   3.622
 6794TIP3    H120325   6.476   2.983   3.540
 6794TIP3    H220326   6.462   3.088   3.648
 6795TIP3   OH220327   6.258   2.932   4.402
 6795TIP3    H120328   6.203   3.003   4.435
 6795TIP3    H220329   6.306   2.971   4.329
 6796TIP3   OH220330   7.039   2.280   4.043
 6796TIP3    H120331   6.998   2.258   4.127
 6796TIP3    H220332   7.097   2.353   4.062
 6797TIP3   OH220333   6.056   2.265   4.407
 6797TIP3    H120334   6.111   2.339   4.430
 6797TIP3    H220335   6.102   2.222   4.334
 6798TIP3   OH220336   6.100   3.133   4.506
 6798TIP3    H120337   6.087   3.222   4.474
 6798TIP3    H220338   6.022   3.115   4.559
 6799TIP3   OH220339   5.482   2.837   3.764
 6799TIP3    H120340   5.447   2.857   3.677
 6799TIP3    H220341   5.505   2.922   3.801
 6800TIP3   OH220342   6.912   3.337   3.986
 6800TIP3    H120343   6.827   3.333   4.031
 6800TIP3    H220344   6.913   3.423   3.944
 6801TIP3   OH220345   7.246   2.202   4.375
 6801TIP3    H120346   7.163   2.234   4.341
 6801TIP3    H220347   7.311   2.232   4.311
 6802TIP3   OH220348   6.508   1.850   4.369
 6802TIP3    H120349   6.500   1.758   4.394
 6802TIP3    H220350   6.431   1.892   4.407
 6803TIP3   OH220351   6.630   3.368   3.656
 6803TIP3    H120352   6.682   3.289   3.642
 6803TIP3    H220353   6.686   3.440   3.627
 6804TIP3   OH220354   6.767   3.138   3.608
 6804TIP3    H120355   6.692   3.079   3.608
 6804TIP3    H220356   6.817   3.114   3.686
 6805TIP3   OH220357   7.149   3.237   4.342
 6805TIP3    H120358   7.134   3.165   4.281
 6805TIP3    H220359   7.122   3.315   4.293
 6806TIP3   OH220360   6.443   2.634   3.616
 6806TIP3    H120361   6.360   2.678   3.595
 6806TIP3    H220362   6.490   2.632   3.532
 6807TIP3   OH220363   6.411   2.438   3.306
 6807TIP3    H120364   6.476   2.487   3.356
 6807TIP3    H220365   6.462   2.370   3.261
 6808TIP3   OH220366   7.328   2.893   4.211
 6808TIP3    H120367   7.244   2.941   4.210
 6808TIP3    H220368   7.362   2.901   4.122
 6809TIP3   OH220369   6.801   2.722   3.576
 6809TIP3    H120370   6.748   2.752   3.649
 6809TIP3    H220371   6.884   2.697   3.615
 6810TIP3   OH220372   7.026   2.750   4.523
 6810TIP3    H120373   7.023   2.832   4.572
 6810TIP3    H220374   6.943   2.748   4.474
 6811TIP3   OH220375   6.028   2.701   3.982
 6811TIP3    H120376   5.993   2.641   3.916
 6811TIP3    H220377   6.102   2.653   4.021
 6812TIP3   OH220378   6.164   3.124   4.125
 6812TIP3    H120379   6.139   3.112   4.033
 6812TIP3    H220380   6.251   3.086   4.131
 6813TIP3   OH220381   6.127   2.696   4.356
 6813TIP3    H120382   6.165   2.659   4.276
 6813TIP3    H220383   6.176   2.777   4.371
 6814TIP3   OH220384   6.687   3.340   4.139
 6814TIP3    H120385   6.677   3.420   4.191
 6814TIP3    H220386   6.671   3.269   4.202
 6815TIP3   OH220387   6.295   3.231   4.677
 6815TIP3    H120388   6.233   3.288   4.722
 6815TIP3    H220389   6.241   3.179   4.617
 6816TIP3   OH220390   6.631   2.583   3.409
 6816TIP3    H120391   6.691   2.640   3.457
 6816TIP3    H220392   6.661   2.588   3.319
 6817TIP3   OH220393   6.055   2.779   4.822
 6817TIP3    H120394   6.060   2.873   4.840
 6817TIP3    H220395   5.962   2.761   4.814
 6818TIP3   OH220396   6.379   3.253   3.662
 6818TIP3    H120397   6.462   3.300   3.668
 6818TIP3    H220398   6.320   3.314   3.617
 6819TIP3   OH220399   6.085   3.393   4.759
 6819TIP3    H120400   6.059   3.397   4.667
 6819TIP3    H220401   6.004   3.374   4.806
 6820TIP3   OH220402   7.142   1.810   3.465
 6820TIP3    H120403   7.065   1.831   3.520
 6820TIP3    H220404   7.152   1.887   3.409
 6821TIP3   OH220405   5.904   2.543   3.780
 6821TIP3    H120406   5.827   2.591   3.749
 6821TIP3    H220407   5.872   2.454   3.796
 6822TIP3   OH220408   6.961   3.187   3.018
 6822TIP3    H120409   6.958   3.281   3.001
 6822TIP3    H220410   7.049   3.161   2.991
 6823TIP3   OH220411   5.686   2.950   4.711
 6823TIP3    H120412   5.617   2.932   4.648
 6823TIP3    H220413   5.720   2.863   4.735
 6824TIP3   OH220414   5.542   3.134   4.354
 6824TIP3    H120415   5.638   3.143   4.353
 6824TIP3    H220416   5.511   3.213   4.398
 6825TIP3   OH220417   7.370   3.603   4.408
 6825TIP3    H120418   7.377   3.508   4.418
 6825TIP3    H220419   7.304   3.629   4.473
 6826TIP3   OH220420   6.509   3.367   4.572
 6826TIP3    H120421   6.514   3.440   4.633
 6826TIP3    H220422   6.431   3.318   4.600
 6827TIP3   OH220423   6.270   3.476   3.492
 6827TIP3    H120424   6.224   3.459   3.410
 6827TIP3    H220425   6.235   3.560   3.522
 6828TIP3   OH220426   5.704   3.326   3.871
 6828TIP3    H120427   5.749   3.321   3.955
 6828TIP3    H220428   5.657   3.243   3.864
 6829TIP3   OH220429   6.470   3.406   3.121
 6829TIP3    H120430   6.522   3.333   3.087
 6829TIP3    H220431   6.505   3.422   3.209
 6830TIP3   OH220432   6.524   3.457   3.389
 6830TIP3    H120433   6.439   3.458   3.431
 6830TIP3    H220434   6.584   3.425   3.456
 6831TIP3   OH220435   7.266   2.713   4.688
 6831TIP3    H120436   7.185   2.716   4.637
 6831TIP3    H220437   7.288   2.620   4.692
 6832TIP3   OH220438   5.887   3.137   4.682
 6832TIP3    H120439   5.937   3.121   4.762
 6832TIP3    H220440   5.814   3.075   4.687
 6833TIP3   OH220441   6.270   1.941   4.494
 6833TIP3    H120442   6.186   1.908   4.462
 6833TIP3    H220443   6.248   2.022   4.540
 6834TIP3   OH220444   6.811   2.063   4.694
 6834TIP3    H120445   6.881   2.039   4.755
 6834TIP3    H220446   6.730   2.047   4.743
 6835TIP3   OH220447   7.030   2.481   4.604
 6835TIP3    H120448   6.992   2.479   4.692
 6835TIP3    H220449   7.016   2.571   4.575
 6836TIP3   OH220450   6.715   2.567   3.149
 6836TIP3    H120451   6.668   2.568   3.066
 6836TIP3    H220452   6.796   2.614   3.132
 6837TIP3   OH220453   6.420   1.983   3.463
 6837TIP3    H120454   6.384   1.990   3.551
 6837TIP3    H220455   6.384   1.901   3.428
 6838TIP3   OH220456   6.208   2.475   4.504
 6838TIP3    H120457   6.163   2.482   4.587
 6838TIP3    H220458   6.187   2.556   4.457
 6839TIP3   OH220459   6.088   2.353   4.023
 6839TIP3    H120460   5.999   2.329   4.048
 6839TIP3    H220461   6.098   2.321   3.933
 6840TIP3   OH220462   6.567   2.428   3.750
 6840TIP3    H120463   6.521   2.502   3.710
 6840TIP3    H220464   6.626   2.397   3.682
 6841TIP3   OH220465   6.752   2.696   4.823
 6841TIP3    H120466   6.727   2.627   4.885
 6841TIP3    H220467   6.844   2.713   4.842
 6842TIP3   OH220468   6.735   2.442   3.974
 6842TIP3    H120469   6.667   2.463   3.910
 6842TIP3    H220470   6.783   2.369   3.935
 6843TIP3   OH220471   6.045   2.491   4.724
 6843TIP3    H120472   6.058   2.555   4.794
 6843TIP3    H220473   6.027   2.409   4.770
 6844TIP3   OH220474   6.087   1.964   3.438
 6844TIP3    H120475   6.078   1.968   3.534
 6844TIP3    H220476   6.009   2.008   3.405
 6845TIP3   OH220477   5.634   2.007   4.305
 6845TIP3    H120478   5.706   2.044   4.356
 6845TIP3    H220479   5.671   1.992   4.219
 6846TIP3   OH220480   5.541   1.986   3.807
 6846TIP3    H120481   5.586   2.022   3.731
 6846TIP3    H220482   5.477   2.054   3.831
 6847TIP3   OH220483   6.775   2.697   4.401
 6847TIP3    H120484   6.801   2.631   4.337
 6847TIP3    H220485   6.732   2.648   4.471
 6848TIP3   OH220486   6.452   2.143   4.073
 6848TIP3    H120487   6.374   2.143   4.130
 6848TIP3    H220488   6.525   2.135   4.134
 6849TIP3   OH220489   5.849   2.229   4.083
 6849TIP3    H120490   5.761   2.234   4.046
 6849TIP3    H220491   5.877   2.139   4.066
 6850TIP3   OH220492   6.102   2.231   3.777
 6850TIP3    H120493   6.196   2.241   3.767
 6850TIP3    H220494   6.066   2.250   3.690
 6851TIP3   OH220495   6.899   2.233   4.282
 6851TIP3    H120496   6.879   2.250   4.374
 6851TIP3    H220497   6.831   2.172   4.254
 6852TIP3   OH220498   5.990   2.257   3.528
 6852TIP3    H120499   5.926   2.207   3.479
 6852TIP3    H220500   6.042   2.302   3.461
 6853TIP3   OH220501   7.051   3.960   4.506
 6853TIP3    H120502   7.064   3.965   4.411
 6853TIP3    H220503   7.111   3.891   4.534
 6854TIP3   OH220504   6.041   3.047   4.914
 6854TIP3    H120505   6.122   3.066   4.962
 6854TIP3    H220506   5.972   3.055   4.979
 6855TIP3   OH220507   6.501   2.515   4.181
 6855TIP3    H120508   6.568   2.467   4.132
 6855TIP3    H220509   6.500   2.474   4.267
 6856TIP3   OH220510   5.992   1.981   4.068
 6856TIP3    H120511   5.964   1.905   4.119
 6856TIP3    H220512   6.015   1.944   3.982
 6857TIP3   OH220513   6.474   2.416   4.446
 6857TIP3    H120514   6.387   2.449   4.470
 6857TIP3    H220515   6.534   2.468   4.499
 6858TIP3   OH220516   6.205   2.769   3.558
 6858TIP3    H120517   6.130   2.713   3.534
 6858TIP3    H220518   6.179   2.809   3.641
 6859TIP3   OH220519   7.094   3.032   4.166
 6859TIP3    H120520   7.130   3.079   4.091
 6859TIP3    H220521   7.016   2.989   4.131
 6860TIP3   OH220522   6.673   2.087   3.466
 6860TIP3    H120523   6.580   2.066   3.462
 6860TIP3    H220524   6.676   2.182   3.478
 6861TIP3   OH220525   6.624   3.094   4.582
 6861TIP3    H120526   6.675   3.077   4.661
 6861TIP3    H220527   6.591   3.183   4.594
 6862TIP3   OH220528   6.732   2.352   3.535
 6862TIP3    H120529   6.827   2.355   3.545
 6862TIP3    H220530   6.710   2.429   3.483
 6863TIP3   OH220531   5.898   2.789   4.209
 6863TIP3    H120532   5.935   2.770   4.123
 6863TIP3    H220533   5.963   2.758   4.272
 6864TIP3   OH220534   6.359   2.931   3.403
 6864TIP3    H120535   6.311   3.014   3.400
 6864TIP3    H220536   6.304   2.873   3.455
 6865TIP3   OH220537   5.780   2.717   4.842
 6865TIP3    H120538   5.784   2.691   4.935
 6865TIP3    H220539   5.706   2.669   4.807
 6866TIP3   OH220540   6.522   2.853   4.864
 6866TIP3    H120541   6.453   2.794   4.836
 6866TIP3    H220542   6.603   2.811   4.835
 6867TIP3   OH220543   6.768   3.363   4.465
 6867TIP3    H120544   6.673   3.366   4.476
 6867TIP3    H220545   6.803   3.410   4.541
 6868TIP3   OH220546   7.145   2.439   3.352
 6868TIP3    H120547   7.090   2.393   3.288
 6868TIP3    H220548   7.151   2.528   3.318
 6869TIP3   OH220549   7.392   3.325   4.432
 6869TIP3    H120550   7.299   3.305   4.426
 6869TIP3    H220551   7.429   3.292   4.350
 6870TIP3   OH220552   6.887   3.257   3.289
 6870TIP3    H120553   6.859   3.191   3.352
 6870TIP3    H220554   6.900   3.208   3.208
 6871TIP3   OH220555   6.868   2.891   4.063
 6871TIP3    H120556   6.778   2.869   4.086
 6871TIP3    H220557   6.904   2.811   4.026
 6872TIP3   OH220558   6.025   3.127   3.879
 6872TIP3    H120559   6.024   3.203   3.821
 6872TIP3    H220560   5.933   3.114   3.903
 6873TIP3   OH220561   5.585   2.411   3.586
 6873TIP3    H120562   5.627   2.494   3.609
 6873TIP3    H220563   5.504   2.412   3.637
 6874TIP3   OH220564   6.110   2.881   3.784
 6874TIP3    H120565   6.094   2.971   3.814
 6874TIP3    H220566   6.083   2.826   3.858
 6875TIP3   OH220567   6.312   3.459   4.334
 6875TIP3    H120568   6.344   3.531   4.280
 6875TIP3    H220569   6.391   3.421   4.373
 6876TIP3   OH220570   5.939   3.347   3.726
 6876TIP3    H120571   5.853   3.355   3.766
 6876TIP3    H220572   5.976   3.436   3.730
 6877TIP3   OH220573   6.652   3.110   4.305
 6877TIP3    H120574   6.645   3.101   4.400
 6877TIP3    H220575   6.727   3.055   4.281
 6878TIP3   OH220576   6.649   2.990   3.172
 6878TIP3    H120577   6.701   2.961   3.247
 6878TIP3    H220578   6.565   2.946   3.182
 6879TIP3   OH220579   6.966   3.461   2.982
 6879TIP3    H120580   6.996   3.529   2.922
 6879TIP3    H220581   6.892   3.501   3.028
 6880TIP3   OH220582   5.992   2.237   4.843
 6880TIP3    H120583   5.897   2.246   4.848
 6880TIP3    H220584   6.016   2.188   4.922
 6881TIP3   OH220585   6.825   2.899   3.361
 6881TIP3    H120586   6.809   2.849   3.441
 6881TIP3    H220587   6.920   2.910   3.357
 6882TIP3   OH220588   5.731   3.350   4.493
 6882TIP3    H120589   5.781   3.289   4.547
 6882TIP3    H220590   5.744   3.436   4.534
 6883TIP3   OH220591   6.000   2.958   3.187
 6883TIP3    H120592   6.012   2.867   3.161
 6883TIP3    H220593   5.986   2.954   3.282
 6884TIP3   OH220594   5.943   2.973   3.460
 6884TIP3    H120595   6.010   2.947   3.522
 6884TIP3    H220596   5.942   3.069   3.464
 6885TIP3   OH220597   5.678   2.663   3.669
 6885TIP3    H120598   5.613   2.710   3.721
 6885TIP3    H220599   5.698   2.721   3.595
 6886TIP3   OH220600   6.837   2.293   4.544
 6886TIP3    H120601   6.916   2.338   4.573
 6886TIP3    H220602   6.830   2.216   4.600
 6887TIP3   OH220603   6.732   2.037   3.734
 6887TIP3    H120604   6.712   2.056   3.642
 6887TIP3    H220605   6.776   2.116   3.765
 6888TIP3   OH220606   6.212   3.158   3.396
 6888TIP3    H120607   6.127   3.183   3.434
 6888TIP3    H220608   6.238   3.233   3.344
 6889TIP3   OH220609   6.381   2.237   3.821
 6889TIP3    H120610   6.443   2.305   3.795
 6889TIP3    H220611   6.405   2.217   3.912
 6890TIP3   OH220612   6.679   2.530   4.598
 6890TIP3    H120613   6.705   2.573   4.680
 6890TIP3    H220614   6.729   2.448   4.597
 6891TIP3   OH220615   6.545   1.933   3.909
 6891TIP3    H120616   6.522   2.010   3.961
 6891TIP3    H220617   6.615   1.963   3.851
 6892TIP3   OH220618   5.962   3.245   3.473
 6892TIP3    H120619   5.942   3.317   3.413
 6892TIP3    H220620   5.953   3.284   3.560
 6893TIP3   OH220621   6.058   1.958   3.718
 6893TIP3    H120622   6.046   2.048   3.745
 6893TIP3    H220623   6.152   1.942   3.724
 6894TIP3   OH220624   7.299   2.442   4.611
 6894TIP3    H120625   7.203   2.436   4.607
 6894TIP3    H220626   7.328   2.425   4.522
 6895TIP3   OH220627   6.959   2.634   3.975
 6895TIP3    H120628   6.883   2.577   3.987
 6895TIP3    H220629   7.028   2.594   4.028
 6896TIP3   OH220630   5.698   2.841   3.453
 6896TIP3    H120631   5.770   2.904   3.462
 6896TIP3    H220632   5.730   2.778   3.388
 6897TIP3   OH220633   5.608   2.133   3.586
 6897TIP3    H120634   5.621   2.228   3.594
 6897TIP3    H220635   5.551   2.123   3.510
 6898TIP3   OH220636   6.936   3.608   3.917
 6898TIP3    H120637   6.896   3.660   3.847
 6898TIP3    H220638   7.030   3.620   3.904
 6899TIP3   OH220639   6.008   1.855   4.453
 6899TIP3    H120640   5.978   1.824   4.367
 6899TIP3    H220641   5.998   1.780   4.511
 6900TIP3   OH220642   5.531   3.103   3.854
 6900TIP3    H120643   5.488   3.141   3.931
 6900TIP3    H220644   5.490   3.146   3.780
 6901TIP3   OH220645   5.731   3.645   4.915
 6901TIP3    H120646   5.813   3.647   4.964
 6901TIP3    H220647   5.711   3.551   4.905
 6902TIP3   OH220648   6.193   3.569   4.937
 6902TIP3    H120649   6.277   3.527   4.959
 6902TIP3    H220650   6.153   3.510   4.874
 6903TIP3   OH220651   6.158   3.156   3.076
 6903TIP3    H120652   6.111   3.087   3.122
 6903TIP3    H220653   6.233   3.112   3.036
 6904TIP3   OH220654   6.898   3.482   4.688
 6904TIP3    H120655   6.848   3.437   4.756
 6904TIP3    H220656   6.984   3.438   4.689
 6905TIP3   OH220657   6.600   3.197   3.000
 6905TIP3    H120658   6.631   3.132   3.063
 6905TIP3    H220659   6.662   3.190   2.927
 6906TIP3   OH220660   5.835   3.047   5.102
 6906TIP3    H120661   5.853   2.954   5.114
 6906TIP3    H220662   5.748   3.050   5.062
 6907TIP3   OH220663   5.821   2.652   3.300
 6907TIP3    H120664   5.872   2.626   3.377
 6907TIP3    H220665   5.887   2.665   3.231
 6908TIP3   OH220666   6.454   3.130   4.879
 6908TIP3    H120667   6.407   3.149   4.798
 6908TIP3    H220668   6.490   3.043   4.867
 6909TIP3   OH220669   6.392   2.875   3.136
 6909TIP3    H120670   6.370   2.886   3.228
 6909TIP3    H220671   6.377   2.782   3.118
 6910TIP3   OH220672   6.937   3.149   4.495
 6910TIP3    H120673   7.012   3.181   4.444
 6910TIP3    H220674   6.867   3.212   4.477
 6911TIP3   OH220675   5.950   2.792   5.111
 6911TIP3    H120676   6.025   2.772   5.056
 6911TIP3    H220677   5.986   2.811   5.197
 6912TIP3   OH220678   5.997   2.590   3.510
 6912TIP3    H120679   5.978   2.558   3.598
 6912TIP3    H220680   6.044   2.518   3.468
 6913TIP3   OH220681   6.315   2.675   4.771
 6913TIP3    H120682   6.229   2.716   4.780
 6913TIP3    H220683   6.346   2.703   4.685
 6914TIP3   OH220684   6.135   2.407   3.348
 6914TIP3    H120685   6.108   2.413   3.257
 6914TIP3    H220686   6.231   2.415   3.345
 6915TIP3   OH220687   6.804   3.065   4.837
 6915TIP3    H120688   6.883   3.034   4.794
 6915TIP3    H220689   6.799   3.014   4.918
 6916TIP3   OH220690   6.932   2.699   3.035
 6916TIP3    H120691   6.918   2.658   2.949
 6916TIP3    H220692   6.907   2.790   3.022
 6917TIP3   OH220693   6.416   2.442   4.877
 6917TIP3    H120694   6.419   2.372   4.812
 6917TIP3    H220695   6.383   2.518   4.829
 6918TIP3   OH220696   6.424   2.243   4.673
 6918TIP3    H120697   6.452   2.280   4.590
 6918TIP3    H220698   6.334   2.216   4.659
 6919TIP3   OH220699   6.429   2.772   4.545
 6919TIP3    H120700   6.518   2.805   4.532
 6919TIP3    H220701   6.374   2.831   4.494
 6920TIP3   OH220702   7.021   2.730   4.922
 6920TIP3    H120703   7.057   2.643   4.931
 6920TIP3    H220704   7.096   2.787   4.905
 6921TIP3   OH220705   7.058   2.989   4.672
 6921TIP3    H120706   7.005   3.045   4.615
 6921TIP3    H220707   7.148   3.004   4.642
 6922TIP3   OH220708   6.301   2.527   5.120
 6922TIP3    H120709   6.230   2.465   5.140
 6922TIP3    H220710   6.329   2.503   5.031
 6923TIP3   OH220711   6.546   2.012   4.776
 6923TIP3    H120712   6.506   2.092   4.743
 6923TIP3    H220713   6.479   1.944   4.762
 6924TIP3   OH220714   6.673   2.483   4.977
 6924TIP3    H120715   6.663   2.470   5.072
 6924TIP3    H220716   6.586   2.461   4.942
 6925TIP3   OH220717   6.919   2.442   4.847
 6925TIP3    H120718   6.840   2.440   4.902
 6925TIP3    H220719   6.990   2.415   4.906
 6926TIP3   OH220720   7.147   2.399   5.001
 6926TIP3    H120721   7.164   2.305   5.007
 6926TIP3    H220722   7.145   2.429   5.092
 6927TIP3   OH220723   6.132   2.307   5.182
 6927TIP3    H120724   6.139   2.219   5.146
 6927TIP3    H220725   6.171   2.301   5.269
 6928TIP3   OH220726   6.613   1.987   5.041
 6928TIP3    H120727   6.682   1.921   5.033
 6928TIP3    H220728   6.582   2.000   4.951
 6929TIP3   OH220729   6.707   2.203   5.185
 6929TIP3    H120730   6.677   2.131   5.130
 6929TIP3    H220731   6.635   2.266   5.185
 6930TIP3   OH220732   5.957   3.453   3.288
 6930TIP3    H120733   6.047   3.433   3.264
 6930TIP3    H220734   5.922   3.500   3.213
 6931TIP3   OH220735   5.425   2.839   3.472
 6931TIP3    H120736   5.520   2.849   3.468
 6931TIP3    H220737   5.409   2.753   3.434
 6932TIP3   OH220738   5.317   3.424   3.941
 6932TIP3    H120739   5.258   3.370   3.887
 6932TIP3    H220740   5.364   3.361   3.996
 6933TIP3   OH220741   5.471   3.254   4.098
 6933TIP3    H120742   5.464   3.186   4.165
 6933TIP3    H220743   5.523   3.322   4.139
 6934TIP3   OH220744   7.209   3.653   3.912
 6934TIP3    H120745   7.224   3.680   4.002
 6934TIP3    H220746   7.262   3.713   3.860
 6935TIP3   OH220747   7.205   3.685   4.194
 6935TIP3    H120748   7.149   3.608   4.190
 6935TIP3    H220749   7.274   3.661   4.257
 6936TIP3   OH220750   7.209   3.396   4.766
 6936TIP3    H120751   7.161   3.408   4.848
 6936TIP3    H220752   7.214   3.483   4.728
 6937TIP3   OH220753   7.104   2.905   3.366
 6937TIP3    H120754   7.162   2.976   3.339
 6937TIP3    H220755   7.147   2.867   3.443
 6938TIP3   OH220756   7.227   2.762   3.568
 6938TIP3    H120757   7.160   2.723   3.625
 6938TIP3    H220758   7.293   2.796   3.628
 6939TIP3   OH220759   7.272   3.171   4.003
 6939TIP3    H120760   7.321   3.100   3.962
 6939TIP3    H220761   7.277   3.243   3.940
 6940TIP3   OH220762   7.046   3.454   4.200
 6940TIP3    H120763   6.961   3.482   4.234
 6940TIP3    H220764   7.026   3.410   4.118
 6941TIP3   OH220765   7.139   2.679   3.215
 6941TIP3    H120766   7.067   2.678   3.152
 6941TIP3    H220767   7.124   2.757   3.269
 6942TIP3   OH220768   6.996   2.330   3.150
 6942TIP3    H120769   6.950   2.367   3.075
 6942TIP3    H220770   6.986   2.235   3.140
 6943TIP3   OH220771   7.027   2.623   3.706
 6943TIP3    H120772   7.033   2.528   3.693
 6943TIP3    H220773   7.009   2.633   3.799
 6944TIP3   OH220774   5.649   2.685   4.480
 6944TIP3    H120775   5.639   2.653   4.390
 6944TIP3    H220776   5.743   2.682   4.497
 6945TIP3   OH220777   7.310   3.050   4.569
 6945TIP3    H120778   7.375   2.980   4.558
 6945TIP3    H220779   7.314   3.099   4.488
 6946TIP3   OH220780   7.477   2.833   4.562
 6946TIP3    H120781   7.401   2.793   4.606
 6946TIP3    H220782   7.551   2.779   4.588
 6947TIP3   OH220783   6.953   2.059   3.124
 6947TIP3    H120784   7.019   2.034   3.188
 6947TIP3    H220785   6.872   2.020   3.156
 6948TIP3   OH220786   7.022   2.345   3.592
 6948TIP3    H120787   7.068   2.262   3.604
 6948TIP3    H220788   7.064   2.385   3.515
 6949TIP3   OH220789   7.175   2.514   4.112
 6949TIP3    H120790   7.257   2.534   4.066
 6949TIP3    H220791   7.186   2.556   4.198
 6950TIP3   OH220792   7.235   2.667   4.341
 6950TIP3    H120793   7.162   2.698   4.396
 6950TIP3    H220794   7.268   2.746   4.299
 6951TIP3   OH220795   5.869   2.365   5.120
 6951TIP3    H120796   5.962   2.363   5.139
 6951TIP3    H220797   5.834   2.285   5.159
 6952TIP3   OH220798   7.713   2.256   4.884
 6952TIP3    H120799   7.774   2.199   4.837
 6952TIP3    H220800   7.671   2.307   4.816
 6953TIP3   OH220801   7.137   2.096   3.643
 6953TIP3    H120802   7.183   2.082   3.725
 6953TIP3    H220803   7.074   2.023   3.638
 6954TIP3   OH220804   5.846   2.080   4.472
 6954TIP3    H120805   5.899   2.001   4.476
 6954TIP3    H220806   5.908   2.151   4.453
 6955TIP3   OH220807   5.625   2.341   4.532
 6955TIP3    H120808   5.676   2.332   4.452
 6955TIP3    H220809   5.650   2.427   4.567
 6956TIP3   OH220810   7.551   2.367   4.697
 6956TIP3    H120811   7.464   2.406   4.709
 6956TIP3    H220812   7.535   2.292   4.639
 6957TIP3   OH220813   7.179   2.011   3.279
 6957TIP3    H120814   7.230   1.951   3.224
 6957TIP3    H220815   7.235   2.088   3.288
 6958TIP3   OH220816   5.613   1.854   4.035
 6958TIP3    H120817   5.527   1.842   4.076
 6958TIP3    H220818   5.595   1.908   3.958
 6959TIP3   OH220819   6.768   3.572   3.549
 6959TIP3    H120820   6.827   3.565   3.474
 6959TIP3    H220821   6.805   3.642   3.602
 6960TIP3   OH220822   5.837   1.903   4.855
 6960TIP3    H120823   5.789   1.903   4.938
 6960TIP3    H220824   5.783   1.954   4.795
 6961TIP3   OH220825   5.868   3.363   4.934
 6961TIP3    H120826   5.775   3.345   4.923
 6961TIP3    H220827   5.884   3.349   5.027
 6962TIP3   OH220828   6.080   3.408   4.476
 6962TIP3    H120829   6.025   3.479   4.441
 6962TIP3    H220830   6.165   3.421   4.435
 6963TIP3   OH220831   7.466   2.130   4.578
 6963TIP3    H120832   7.383   2.130   4.531
 6963TIP3    H220833   7.499   2.041   4.568
 6964TIP3   OH220834   5.735   3.648   4.534
 6964TIP3    H120835   5.643   3.667   4.513
 6964TIP3    H220836   5.760   3.718   4.594
 6965TIP3   OH220837   5.961   3.632   4.374
 6965TIP3    H120838   5.878   3.641   4.421
 6965TIP3    H220839   5.940   3.659   4.284
 6966TIP3   OH220840   6.392   3.663   4.164
 6966TIP3    H120841   6.327   3.668   4.094
 6966TIP3    H220842   6.402   3.754   4.194
 6967TIP3   OH220843   6.658   3.598   4.238
 6967TIP3    H120844   6.573   3.624   4.203
 6967TIP3    H220845   6.719   3.664   4.204
 6968TIP3   OH220846   6.848   3.774   4.123
 6968TIP3    H120847   6.840   3.858   4.079
 6968TIP3    H220848   6.876   3.713   4.055
 6969TIP3   OH220849   5.646   3.435   4.242
 6969TIP3    H120850   5.674   3.411   4.331
 6969TIP3    H220851   5.717   3.405   4.186
 6970TIP3   OH220852   5.849   3.318   4.105
 6970TIP3    H120853   5.861   3.234   4.149
 6970TIP3    H220854   5.936   3.359   4.108
 6971TIP3   OH220855   6.117   3.402   4.133
 6971TIP3    H120856   6.138   3.309   4.120
 6971TIP3    H220857   6.174   3.428   4.205
 6972TIP3   OH220858   6.679   2.053   4.214
 6972TIP3    H120859   6.640   1.981   4.264
 6972TIP3    H220860   6.747   2.011   4.161
 6973TIP3   OH220861   7.183   1.963   4.100
 6973TIP3    H120862   7.222   2.014   4.028
 6973TIP3    H220863   7.093   1.993   4.104
 6974TIP3   OH220864   7.296   2.045   3.864
 6974TIP3    H120865   7.365   1.983   3.841
 6974TIP3    H220866   7.334   2.131   3.845
 6975TIP3   OH220867   5.919   1.754   4.212
 6975TIP3    H120868   5.829   1.720   4.220
 6975TIP3    H220869   5.973   1.676   4.203
 6976TIP3   OH220870   5.743   1.662   3.867
 6976TIP3    H120871   5.767   1.711   3.789
 6976TIP3    H220872   5.705   1.728   3.926
 6977TIP3   OH220873   6.400   1.792   4.108
 6977TIP3    H120874   6.447   1.838   4.039
 6977TIP3    H220875   6.441   1.821   4.189
 6978TIP3   OH220876   6.892   1.935   4.083
 6978TIP3    H120877   6.912   1.901   3.996
 6978TIP3    H220878   6.899   1.859   4.141
 6979TIP3   OH220879   6.952   1.885   3.651
 6979TIP3    H120880   6.872   1.933   3.675
 6979TIP3    H220881   6.941   1.799   3.689
 6980TIP3   OH220882   5.416   3.226   3.640
 6980TIP3    H120883   5.331   3.190   3.613
 6980TIP3    H220884   5.421   3.311   3.598
 6981TIP3   OH220885   5.847   1.790   3.627
 6981TIP3    H120886   5.893   1.729   3.569
 6981TIP3    H220887   5.916   1.846   3.662
 6982TIP3   OH220888   6.333   1.985   3.726
 6982TIP3    H120889   6.393   1.933   3.780
 6982TIP3    H220890   6.348   2.075   3.753
 6983TIP3   OH220891   6.214   3.381   3.221
 6983TIP3    H120892   6.298   3.408   3.185
 6983TIP3    H220893   6.186   3.308   3.165
 6984TIP3   OH220894   6.922   3.527   3.320
 6984TIP3    H120895   6.914   3.431   3.313
 6984TIP3    H220896   6.876   3.560   3.242
 6985TIP3   OH220897   6.147   2.037   5.093
 6985TIP3    H120898   6.112   1.971   5.153
 6985TIP3    H220899   6.239   2.044   5.117
 6986TIP3   OH220900   6.395   2.040   5.215
 6986TIP3    H120901   6.473   2.019   5.164
 6986TIP3    H220902   6.389   1.971   5.281
 6987TIP3   OH220903   5.523   3.229   3.272
 6987TIP3    H120904   5.524   3.242   3.367
 6987TIP3    H220905   5.604   3.181   3.253
 6988TIP3   OH220906   7.217   2.129   5.005
 6988TIP3    H120907   7.235   2.101   5.095
 6988TIP3    H220908   7.302   2.124   4.961
 6989TIP3   OH220909   7.673   2.881   4.039
 6989TIP3    H120910   7.711   2.851   4.121
 6989TIP3    H220911   7.748   2.904   3.984
 6990TIP3   OH220912   7.661   3.343   3.743
 6990TIP3    H120913   7.649   3.249   3.734
 6990TIP3    H220914   7.741   3.352   3.795
 6991TIP3   OH220915   7.379   2.539   3.485
 6991TIP3    H120916   7.341   2.622   3.512
 6991TIP3    H220917   7.306   2.489   3.448
 6992TIP3   OH220918   7.453   2.839   3.707
 6992TIP3    H120919   7.504   2.762   3.733
 6992TIP3    H220920   7.518   2.899   3.671
 6993TIP3   OH220921   8.424   3.791   3.395
 6993TIP3    H120922   8.485   3.717   3.397
 6993TIP3    H220923   8.363   3.773   3.466
 6994TIP3   OH220924   8.261   3.145   3.604
 6994TIP3    H120925   8.287   3.171   3.515
 6994TIP3    H220926   8.327   3.185   3.660
 6995TIP3   OH220927   7.985   2.308   3.656
 6995TIP3    H120928   7.959   2.388   3.702
 6995TIP3    H220929   7.904   2.275   3.618
 6996TIP3   OH220930   7.595   2.620   3.795
 6996TIP3    H120931   7.671   2.601   3.851
 6996TIP3    H220932   7.611   2.569   3.716
 6997TIP3   OH220933   7.965   2.835   3.551
 6997TIP3    H120934   8.029   2.821   3.621
 6997TIP3    H220935   7.935   2.748   3.527
 6998TIP3   OH220936   7.866   2.326   4.171
 6998TIP3    H120937   7.820   2.375   4.103
 6998TIP3    H220938   7.927   2.390   4.209
 6999TIP3   OH220939   7.999   3.191   3.907
 6999TIP3    H120940   7.941   3.260   3.939
 6999TIP3    H220941   8.074   3.238   3.871
 7000TIP3   OH220942   7.799   2.517   3.969
 7000TIP3    H120943   7.843   2.586   4.019
 7000TIP3    H220944   7.846   2.513   3.886
 7001TIP3   OH220945   7.843   3.396   3.988
 7001TIP3    H120946   7.840   3.489   3.966
 7001TIP3    H220947   7.772   3.384   4.052
 7002TIP3   OH220948   7.271   3.098   3.249
 7002TIP3    H120949   7.225   3.124   3.169
 7002TIP3    H220950   7.295   3.181   3.290
 7003TIP3   OH220951   7.731   2.953   3.473
 7003TIP3    H120952   7.711   2.917   3.386
 7003TIP3    H220953   7.816   2.916   3.496
 7004TIP3   OH220954   7.935   3.406   3.596
 7004TIP3    H120955   7.929   3.311   3.594
 7004TIP3    H220956   8.029   3.424   3.604
 7005TIP3   OH220957   7.887   2.947   3.867
 7005TIP3    H120958   7.960   2.921   3.810
 7005TIP3    H220959   7.910   3.035   3.895
 7006TIP3   OH220960   8.074   3.477   4.141
 7006TIP3    H120961   8.057   3.568   4.167
 7006TIP3    H220962   7.993   3.448   4.100
 7007TIP3   OH220963   7.831   3.062   4.286
 7007TIP3    H120964   7.832   3.153   4.317
 7007TIP3    H220965   7.740   3.034   4.296
 7008TIP3   OH220966   7.985   3.563   3.186
 7008TIP3    H120967   8.066   3.584   3.232
 7008TIP3    H220968   7.982   3.626   3.114
 7009TIP3   OH220969   7.862   3.659   4.248
 7009TIP3    H120970   7.835   3.662   4.156
 7009TIP3    H220971   7.782   3.635   4.295
 7010TIP3   OH220972   7.671   2.797   3.244
 7010TIP3    H120973   7.592   2.841   3.212
 7010TIP3    H220974   7.640   2.715   3.281
 7011TIP3   OH220975   7.470   3.207   4.200
 7011TIP3    H120976   7.403   3.187   4.135
 7011TIP3    H220977   7.505   3.122   4.225
 7012TIP3   OH220978   7.323   3.400   3.847
 7012TIP3    H120979   7.416   3.417   3.854
 7012TIP3    H220980   7.281   3.480   3.878
 7013TIP3   OH220981   7.985   3.735   2.980
 7013TIP3    H120982   7.985   3.725   2.885
 7013TIP3    H220983   7.977   3.829   2.994
 7014TIP3   OH220984   7.485   3.585   3.357
 7014TIP3    H120985   7.536   3.576   3.437
 7014TIP3    H220986   7.441   3.501   3.347
 7015TIP3   OH220987   8.396   3.716   3.041
 7015TIP3    H120988   8.366   3.769   2.967
 7015TIP3    H220989   8.477   3.676   3.011
 7016TIP3   OH220990   7.647   3.414   4.177
 7016TIP3    H120991   7.702   3.398   4.253
 7016TIP3    H220992   7.582   3.344   4.179
 7017TIP3   OH220993   8.024   2.182   4.000
 7017TIP3    H120994   7.946   2.154   3.952
 7017TIP3    H220995   7.991   2.243   4.066
 7018TIP3   OH220996   7.964   2.734   4.046
 7018TIP3    H120997   7.912   2.766   4.120
 7018TIP3    H220998   7.956   2.803   3.980
 7019TIP3   OH220999   7.868   2.593   3.473
 7019TIP3    H121000   7.782   2.557   3.495
 7019TIP3    H221001   7.894   2.545   3.395
 7020TIP3   OH221002   7.796   2.756   4.261
 7020TIP3    H121003   7.825   2.808   4.336
 7020TIP3    H221004   7.779   2.669   4.297
 7021TIP3   OH221005   7.869   2.187   2.907
 7021TIP3    H121006   7.812   2.244   2.960
 7021TIP3    H221007   7.844   2.206   2.817
 7022TIP3   OH221008   7.427   2.263   3.774
 7022TIP3    H121009   7.484   2.297   3.843
 7022TIP3    H221010   7.485   2.247   3.700
 7023TIP3   OH221011   7.336   2.241   3.300
 7023TIP3    H121012   7.383   2.277   3.225
 7023TIP3    H221013   7.274   2.309   3.325
 7024TIP3   OH221014   7.637   2.477   3.562
 7024TIP3    H121015   7.547   2.485   3.529
 7024TIP3    H221016   7.660   2.385   3.545
 7025TIP3   OH221017   7.927   2.464   3.236
 7025TIP3    H121018   8.013   2.491   3.204
 7025TIP3    H221019   7.867   2.484   3.164
 7026TIP3   OH221020   7.765   2.500   3.021
 7026TIP3    H121021   7.691   2.458   2.977
 7026TIP3    H221022   7.814   2.543   2.950
 7027TIP3   OH221023   7.803   3.321   4.393
 7027TIP3    H121024   7.881   3.358   4.435
 7027TIP3    H221025   7.741   3.309   4.465
 7028TIP3   OH221026   7.747   2.224   3.527
 7028TIP3    H121027   7.729   2.145   3.578
 7028TIP3    H221028   7.774   2.191   3.441
 7029TIP3   OH221029   8.246   2.688   4.065
 7029TIP3    H121030   8.155   2.711   4.048
 7029TIP3    H221031   8.260   2.606   4.019
 7030TIP3   OH221032   7.984   2.999   3.028
 7030TIP3    H121033   7.909   2.941   3.012
 7030TIP3    H221034   7.973   3.027   3.119
 7031TIP3   OH221035   8.468   3.313   3.993
 7031TIP3    H121036   8.519   3.255   4.048
 7031TIP3    H221037   8.431   3.377   4.053
 7032TIP3   OH221038   7.673   3.065   3.715
 7032TIP3    H121039   7.690   3.038   3.625
 7032TIP3    H221040   7.738   3.017   3.767
 7033TIP3   OH221041   8.124   3.107   2.823
 7033TIP3    H121042   8.202   3.140   2.868
 7033TIP3    H221043   8.068   3.075   2.894
 7034TIP3   OH221044   7.566   2.983   4.336
 7034TIP3    H121045   7.579   2.953   4.426
 7034TIP3    H221046   7.495   2.928   4.302
 7035TIP3   OH221047   8.278   3.074   4.336
 7035TIP3    H121048   8.193   3.032   4.323
 7035TIP3    H221049   8.340   3.002   4.341
 7036TIP3   OH221050   7.782   3.365   3.317
 7036TIP3    H121051   7.802   3.396   3.405
 7036TIP3    H221052   7.744   3.278   3.331
 7037TIP3   OH221053   7.376   2.670   3.075
 7037TIP3    H121054   7.412   2.758   3.088
 7037TIP3    H221055   7.296   2.669   3.128
 7038TIP3   OH221056   7.946   3.097   3.283
 7038TIP3    H121057   7.965   3.185   3.250
 7038TIP3    H221058   7.950   3.106   3.378
 7039TIP3   OH221059   8.074   3.716   3.833
 7039TIP3    H121060   8.092   3.798   3.786
 7039TIP3    H221061   8.113   3.730   3.919
 7040TIP3   OH221062   7.691   3.630   3.188
 7040TIP3    H121063   7.611   3.624   3.240
 7040TIP3    H221064   7.710   3.724   3.185
 7041TIP3   OH221065   7.751   2.511   4.377
 7041TIP3    H121066   7.658   2.486   4.373
 7041TIP3    H221067   7.798   2.428   4.377
 7042TIP3   OH221068   7.521   3.607   3.982
 7042TIP3    H121069   7.566   3.548   4.042
 7042TIP3    H221070   7.535   3.694   4.019
 7043TIP3   OH221071   7.794   3.214   2.687
 7043TIP3    H121072   7.793   3.129   2.643
 7043TIP3    H221073   7.824   3.194   2.776
 7044TIP3   OH221074   7.458   2.931   3.133
 7044TIP3    H121075   7.395   2.977   3.190
 7044TIP3    H221076   7.481   2.995   3.066
 7045TIP3   OH221077   7.805   3.465   2.966
 7045TIP3    H121078   7.753   3.524   2.912
 7045TIP3    H221079   7.890   3.459   2.921
 7046TIP3   OH221080   7.842   2.198   3.218
 7046TIP3    H121081   7.864   2.289   3.237
 7046TIP3    H221082   7.919   2.164   3.171
 7047TIP3   OH221083   7.480   3.121   2.919
 7047TIP3    H121084   7.495   3.204   2.874
 7047TIP3    H221085   7.529   3.056   2.868
 7048TIP3   OH221086   7.402   2.391   3.081
 7048TIP3    H121087   7.415   2.486   3.086
 7048TIP3    H221088   7.342   2.379   3.008
 7049TIP3   OH221089   7.766   2.105   3.932
 7049TIP3    H121090   7.750   2.070   3.844
 7049TIP3    H221091   7.773   2.027   3.988
 7050TIP3   OH221092   7.318   3.360   3.336
 7050TIP3    H121093   7.280   3.399   3.414
 7050TIP3    H221094   7.277   3.405   3.263
 7051TIP3   OH221095   7.506   3.855   4.378
 7051TIP3    H121096   7.591   3.814   4.396
 7051TIP3    H221097   7.445   3.781   4.373
 7052TIP3   OH221098   7.965   3.849   4.417
 7052TIP3    H121099   8.038   3.799   4.453
 7052TIP3    H221100   7.930   3.793   4.347
 7053TIP3   OH221101   7.929   3.428   2.573
 7053TIP3    H121102   7.871   3.363   2.612
 7053TIP3    H221103   8.017   3.395   2.589
 7054TIP3   OH221104   7.617   3.280   4.593
 7054TIP3    H121105   7.639   3.186   4.597
 7054TIP3    H221106   7.532   3.283   4.551
 7055TIP3   OH221107   7.619   2.930   2.783
 7055TIP3    H121108   7.661   2.892   2.860
 7055TIP3    H221109   7.688   2.930   2.716
 7056TIP3   OH221110   8.145   3.318   4.359
 7056TIP3    H121111   8.124   3.364   4.277
 7056TIP3    H221112   8.192   3.240   4.330
 7057TIP3   OH221113   8.072   3.016   2.560
 7057TIP3    H121114   8.105   3.040   2.647
 7057TIP3    H221115   7.981   2.990   2.575
 7058TIP3   OH221116   7.747   3.024   4.589
 7058TIP3    H121117   7.812   2.960   4.559
 7058TIP3    H221118   7.778   3.052   4.675
 7059TIP3   OH221119   7.773   2.829   2.987
 7059TIP3    H121120   7.747   2.806   3.076
 7059TIP3    H221121   7.818   2.751   2.954
 7060TIP3   OH221122   8.062   2.919   4.279
 7060TIP3    H121123   7.979   2.967   4.284
 7060TIP3    H221124   8.091   2.931   4.189
 7061TIP3   OH221125   7.915   2.637   2.838
 7061TIP3    H121126   7.892   2.648   2.746
 7061TIP3    H221127   8.008   2.613   2.837
 7062TIP3   OH221128   8.163   2.683   4.409
 7062TIP3    H121129   8.238   2.623   4.400
 7062TIP3    H221130   8.186   2.758   4.355
 7063TIP3   OH221131   8.310   2.462   4.254
 7063TIP3    H121132   8.374   2.410   4.204
 7063TIP3    H221133   8.226   2.440   4.214
 7064TIP3   OH221134   8.152   2.998   4.039
 7064TIP3    H121135   8.245   3.017   4.028
 7064TIP3    H221136   8.108   3.063   3.984
 7065TIP3   OH221137   7.933   2.798   4.526
 7065TIP3    H121138   7.918   2.717   4.574
 7065TIP3    H221139   8.000   2.776   4.462
 7066TIP3   OH221140   7.902   2.565   4.672
 7066TIP3    H121141   7.908   2.482   4.624
 7066TIP3    H221142   7.951   2.550   4.753
 7067TIP3   OH221143   7.702   3.664   2.774
 7067TIP3    H121144   7.796   3.677   2.762
 7067TIP3    H221145   7.662   3.718   2.706
 7068TIP3   OH221146   7.210   3.094   2.943
 7068TIP3    H121147   7.305   3.107   2.947
 7068TIP3    H221148   7.199   3.004   2.913
 7069TIP3   OH221149   7.127   3.678   3.417
 7069TIP3    H121150   7.061   3.625   3.372
 7069TIP3    H221151   7.170   3.616   3.476
 7070TIP3   OH221152   7.268   3.505   3.582
 7070TIP3    H121153   7.259   3.438   3.650
 7070TIP3    H221154   7.321   3.574   3.623
 7071TIP3   OH221155   7.423   2.946   3.958
 7071TIP3    H121156   7.417   2.912   3.869
 7071TIP3    H221157   7.515   2.934   3.982
 7072TIP3   OH221158   7.634   2.623   4.632
 7072TIP3    H121159   7.729   2.615   4.630
 7072TIP3    H221160   7.603   2.540   4.668
 7073TIP3   OH221161   7.602   2.322   3.978
 7073TIP3    H121162   7.659   2.245   3.973
 7073TIP3    H221163   7.662   2.397   3.975
 7074TIP3   OH221164   7.419   2.607   4.017
 7074TIP3    H121165   7.462   2.593   3.933
 7074TIP3    H221166   7.464   2.683   4.055
 7075TIP3   OH221167   7.402   2.074   3.507
 7075TIP3    H121168   7.322   2.079   3.558
 7075TIP3    H221169   7.391   2.142   3.440
 7076TIP3   OH221170   7.628   2.152   4.345
 7076TIP3    H121171   7.580   2.157   4.428
 7076TIP3    H221172   7.575   2.201   4.283
 7077TIP3   OH221173   7.651   3.620   4.429
 7077TIP3    H121174   7.560   3.595   4.413
 7077TIP3    H221175   7.665   3.602   4.522
 7078TIP3   OH221176   7.841   3.664   3.968
 7078TIP3    H121177   7.789   3.734   3.927
 7078TIP3    H221178   7.930   3.677   3.934
 7079TIP3   OH221179   8.507   4.220   3.966
 7079TIP3    H121180   8.479   4.141   4.011
 7079TIP3    H221181   8.485   4.291   4.026
 7080TIP3   OH221182   7.520   3.901   4.024
 7080TIP3    H121183   7.429   3.925   4.006
 7080TIP3    H221184   7.549   3.965   4.089
 7081TIP3   OH221185   7.726   3.878   3.848
 7081TIP3    H121186   7.645   3.888   3.898
 7081TIP3    H221187   7.706   3.913   3.762
 7082TIP3   OH221188   8.121   3.945   3.699
 7082TIP3    H121189   8.103   3.976   3.610
 7082TIP3    H221190   8.125   4.024   3.752
 7083TIP3   OH221191   8.394   3.792   3.684
 7083TIP3    H121192   8.354   3.860   3.739
 7083TIP3    H221193   8.483   3.822   3.670
 7084TIP3   OH221194   7.440   3.686   3.727
 7084TIP3    H121195   7.465   3.663   3.816
 7084TIP3    H221196   7.510   3.651   3.672
 7085TIP3   OH221197   7.635   3.564   3.584
 7085TIP3    H121198   7.645   3.483   3.635
 7085TIP3    H221199   7.718   3.610   3.597
 7086TIP3   OH221200   7.884   3.673   3.629
 7086TIP3    H121201   7.906   3.582   3.614
 7086TIP3    H221202   7.942   3.700   3.700
 7087TIP3   OH221203   7.701   2.001   3.683
 7087TIP3    H121204   7.615   1.964   3.702
 7087TIP3    H221205   7.761   1.928   3.689
 7088TIP3   OH221206   7.540   1.902   3.334
 7088TIP3    H121207   7.559   1.965   3.265
 7088TIP3    H221208   7.497   1.954   3.402
 7089TIP3   OH221209   7.210   3.483   3.117
 7089TIP3    H121210   7.125   3.452   3.087
 7089TIP3    H221211   7.214   3.574   3.086
 7090TIP3   OH221212   7.625   2.056   3.117
 7090TIP3    H121213   7.671   1.997   3.057
 7090TIP3    H221214   7.695   2.110   3.155
 7091TIP3   OH221215   7.967   3.671   2.709
 7091TIP3    H121216   8.030   3.715   2.653
 7091TIP3    H221217   7.949   3.588   2.665
 7092TIP3   OH221218   7.928   2.287   4.582
 7092TIP3    H121219   7.895   2.215   4.635
 7092TIP3    H221220   8.019   2.297   4.611
 7093TIP3   OH221221   8.162   2.295   4.729
 7093TIP3    H121222   8.255   2.301   4.707
 7093TIP3    H221223   8.156   2.220   4.788
 7094TIP3   OH221224   7.313   3.490   2.766
 7094TIP3    H121225   7.302   3.517   2.857
 7094TIP3    H221226   7.387   3.431   2.767
 7095TIP3   OH221227   0.863   3.825   4.940
 7095TIP3    H121228   0.839   3.913   4.912
 7095TIP3    H221229   0.789   3.770   4.916
 7096TIP3   OH221230   0.854   3.804   5.335
 7096TIP3    H121231   0.888   3.788   5.423
 7096TIP3    H221232   0.817   3.720   5.309
 7097TIP3   OH221233   0.170   3.820   5.640
 7097TIP3    H121234   0.116   3.742   5.657
 7097TIP3    H221235   0.259   3.793   5.663
 7098TIP3   OH221236   1.133   4.139   5.045
 7098TIP3    H121237   1.115   4.069   5.107
 7098TIP3    H221238   1.159   4.213   5.099
 7099TIP3   OH221239   0.118   4.133   5.306
 7099TIP3    H121240   0.105   4.038   5.311
 7099TIP3    H221241   0.170   4.154   5.384
 7100TIP3   OH221242   8.428   3.600   5.412
 7100TIP3    H121243   8.460   3.511   5.431
 7100TIP3    H221244   8.431   3.606   5.316
 7101TIP3   OH221245   0.803   4.558   5.077
 7101TIP3    H121246   0.819   4.501   5.002
 7101TIP3    H221247   0.825   4.504   5.153
 7102TIP3   OH221248   0.742   4.049   5.380
 7102TIP3    H121249   0.776   3.964   5.352
 7102TIP3    H221250   0.820   4.100   5.402
 7103TIP3   OH221251   1.702   3.383   5.396
 7103TIP3    H121252   1.719   3.465   5.441
 7103TIP3    H221253   1.707   3.405   5.302
 7104TIP3   OH221254   1.073   3.550   5.410
 7104TIP3    H121255   1.110   3.467   5.439
 7104TIP3    H221256   1.040   3.533   5.322
 7105TIP3   OH221257   0.458   3.200   5.343
 7105TIP3    H121258   0.431   3.272   5.286
 7105TIP3    H221259   0.407   3.125   5.313
 7106TIP3   OH221260   1.134   3.307   4.999
 7106TIP3    H121261   1.195   3.302   5.072
 7106TIP3    H221262   1.186   3.338   4.925
 7107TIP3   OH221263   0.082   3.392   5.518
 7107TIP3    H121264   0.134   3.344   5.583
 7107TIP3    H221265   0.144   3.453   5.478
 7108TIP3   OH221266   0.523   3.607   5.240
 7108TIP3    H121267   0.611   3.581   5.267
 7108TIP3    H221268   0.478   3.525   5.221
 7109TIP3   OH221269   1.779   3.605   5.558
 7109TIP3    H121270   1.691   3.643   5.549
 7109TIP3    H221271   1.812   3.641   5.640
 7110TIP3   OH221272   0.473   3.188   5.796
 7110TIP3    H121273   0.418   3.227   5.728
 7110TIP3    H221274   0.425   3.205   5.877
 7111TIP3   OH221275   0.783   4.041   4.788
 7111TIP3    H121276   0.750   4.010   4.703
 7111TIP3    H221277   0.730   4.118   4.808
 7112TIP3   OH221278   0.567   3.966   5.575
 7112TIP3    H121279   0.529   4.036   5.629
 7112TIP3    H221280   0.629   4.011   5.518
 7113TIP3   OH221281   1.283   3.334   5.225
 7113TIP3    H121282   1.240   3.310   5.307
 7113TIP3    H221283   1.337   3.410   5.248
 7114TIP3   OH221284   0.353   3.293   5.575
 7114TIP3    H121285   0.392   3.379   5.590
 7114TIP3    H221286   0.397   3.260   5.497
 7115TIP3   OH221287   0.414   4.161   5.706
 7115TIP3    H121288   0.387   4.182   5.616
 7115TIP3    H221289   0.338   4.117   5.743
 7116TIP3   OH221290   1.166   4.393   5.183
 7116TIP3    H121291   1.075   4.380   5.210
 7116TIP3    H221292   1.165   4.476   5.136
 7117TIP3   OH221293   1.510   3.243   5.554
 7117TIP3    H121294   1.429   3.292   5.543
 7117TIP3    H221295   1.571   3.284   5.493
 7118TIP3   OH221296   0.775   2.887   5.526
 7118TIP3    H121297   0.770   2.794   5.547
 7118TIP3    H221298   0.697   2.925   5.566
 7119TIP3   OH221299   0.881   4.429   4.841
 7119TIP3    H121300   0.934   4.349   4.835
 7119TIP3    H221301   0.939   4.498   4.809
 7120TIP3   OH221302   1.014   4.196   4.805
 7120TIP3    H121303   0.949   4.126   4.794
 7120TIP3    H221304   1.064   4.170   4.882
 7121TIP3   OH221305   1.404   4.269   5.521
 7121TIP3    H121306   1.410   4.200   5.454
 7121TIP3    H221307   1.388   4.349   5.471
 7122TIP3   OH221308   0.682   3.668   4.794
 7122TIP3    H121309   0.589   3.662   4.777
 7122TIP3    H221310   0.723   3.671   4.708
 7123TIP3   OH221311   0.673   3.477   4.480
 7123TIP3    H121312   0.739   3.528   4.527
 7123TIP3    H221313   0.723   3.408   4.436
 7124TIP3   OH221314   1.632   3.886   5.363
 7124TIP3    H121315   1.580   3.838   5.427
 7124TIP3    H221316   1.568   3.937   5.314
 7125TIP3   OH221317   1.051   3.772   4.749
 7125TIP3    H121318   0.994   3.794   4.823
 7125TIP3    H221319   1.131   3.739   4.789
 7126TIP3   OH221320   0.291   3.731   5.173
 7126TIP3    H121321   0.258   3.683   5.097
 7126TIP3    H221322   0.377   3.693   5.191
 7127TIP3   OH221323   0.494   4.103   5.291
 7127TIP3    H121324   0.478   4.017   5.251
 7127TIP3    H221325   0.586   4.099   5.318
 7128TIP3   OH221326   0.446   3.740   5.478
 7128TIP3    H121327   0.500   3.724   5.400
 7128TIP3    H221328   0.484   3.819   5.517
 7129TIP3   OH221329   0.914   4.379   5.293
 7129TIP3    H121330   0.925   4.456   5.349
 7129TIP3    H221331   0.930   4.305   5.352
 7130TIP3   OH221332   0.581   4.303   5.864
 7130TIP3    H121333   0.539   4.389   5.860
 7130TIP3    H221334   0.522   4.245   5.817
 7131TIP3   OH221335   0.880   3.630   4.585
 7131TIP3    H121336   0.938   3.688   4.634
 7131TIP3    H221337   0.910   3.637   4.495
 7132TIP3   OH221338   0.272   3.862   5.982
 7132TIP3    H121339   0.308   3.945   6.010
 7132TIP3    H221340   0.178   3.877   5.974
 7133TIP3   OH221341   0.650   4.280   4.812
 7133TIP3    H121342   0.727   4.335   4.829
 7133TIP3    H221343   0.580   4.321   4.863
 7134TIP3   OH221344   0.337   4.549   5.975
 7134TIP3    H121345   0.361   4.546   5.882
 7134TIP3    H221346   0.265   4.486   5.983
 7135TIP3   OH221347   1.390   2.851   4.635
 7135TIP3    H121348   1.312   2.874   4.686
 7135TIP3    H221349   1.401   2.924   4.574
 7136TIP3   OH221350   0.195   3.600   4.949
 7136TIP3    H121351   0.115   3.644   4.922
 7136TIP3    H221352   0.170   3.508   4.961
 7137TIP3   OH221353   1.213   4.224   4.200
 7137TIP3    H121354   1.211   4.317   4.175
 7137TIP3    H221355   1.302   4.195   4.181
 7138TIP3   OH221356   1.643   4.646   5.583
 7138TIP3    H121357   1.646   4.551   5.592
 7138TIP3    H221358   1.564   4.672   5.630
 7139TIP3   OH221359   0.775   4.408   5.702
 7139TIP3    H121360   0.784   4.497   5.735
 7139TIP3    H221361   0.707   4.369   5.757
 7140TIP3   OH221362   0.510   4.508   4.644
 7140TIP3    H121363   0.468   4.508   4.558
 7140TIP3    H221364   0.495   4.596   4.678
 7141TIP3   OH221365   0.735   4.448   4.304
 7141TIP3    H121366   0.785   4.374   4.269
 7141TIP3    H221367   0.765   4.455   4.395
 7142TIP3   OH221368   0.774   4.478   4.577
 7142TIP3    H121369   0.683   4.481   4.607
 7142TIP3    H221370   0.823   4.442   4.651
 7143TIP3   OH221371   1.527   3.773   5.881
 7143TIP3    H121372   1.496   3.771   5.790
 7143TIP3    H221373   1.554   3.684   5.899
 7144TIP3   OH221374   0.543   2.964   5.655
 7144TIP3    H121375   0.457   2.932   5.626
 7144TIP3    H221376   0.524   3.047   5.699
 7145TIP3   OH221377   1.070   3.108   5.871
 7145TIP3    H121378   1.139   3.081   5.932
 7145TIP3    H221379   0.988   3.090   5.918
 7146TIP3   OH221380   1.291   3.509   5.758
 7146TIP3    H121381   1.255   3.542   5.840
 7146TIP3    H221382   1.313   3.587   5.708
 7147TIP3   OH221383   0.962   3.622   4.326
 7147TIP3    H121384   0.918   3.618   4.241
 7147TIP3    H221385   1.046   3.663   4.307
 7148TIP3   OH221386   0.668   3.032   4.640
 7148TIP3    H121387   0.636   3.032   4.730
 7148TIP3    H221388   0.637   2.949   4.603
 7149TIP3   OH221389   0.487   3.520   5.647
 7149TIP3    H121390   0.447   3.529   5.734
 7149TIP3    H221391   0.472   3.605   5.605
 7150TIP3   OH221392   0.354   3.396   5.178
 7150TIP3    H121393   0.269   3.364   5.208
 7150TIP3    H221394   0.363   3.360   5.089
 7151TIP3   OH221395   0.822   3.473   4.930
 7151TIP3    H121396   0.773   3.545   4.890
 7151TIP3    H221397   0.879   3.441   4.860
 7152TIP3   OH221398   1.021   3.746   6.004
 7152TIP3    H121399   0.993   3.678   6.065
 7152TIP3    H221400   1.116   3.754   6.018
 7153TIP3   OH221401   0.984   3.485   5.156
 7153TIP3    H121402   0.918   3.505   5.090
 7153TIP3    H221403   1.035   3.413   5.119
 7154TIP3   OH221404   0.366   3.517   5.897
 7154TIP3    H121405   0.337   3.576   5.967
 7154TIP3    H221406   0.374   3.432   5.939
 7155TIP3   OH221407   0.350   3.008   4.613
 7155TIP3    H121408   0.336   3.006   4.707
 7155TIP3    H221409   0.276   3.057   4.578
 7156TIP3   OH221410   8.377   3.137   5.550
 7156TIP3    H121411   8.470   3.115   5.546
 7156TIP3    H221412   8.340   3.103   5.469
 7157TIP3   OH221413   8.393   3.159   5.090
 7157TIP3    H121414   8.440   3.145   5.008
 7157TIP3    H221415   8.327   3.225   5.068
 7158TIP3   OH221416   0.949   3.727   5.580
 7158TIP3    H121417   1.006   3.676   5.523
 7158TIP3    H221418   0.944   3.677   5.661
 7159TIP3   OH221419   0.724   3.200   5.252
 7159TIP3    H121420   0.642   3.196   5.303
 7159TIP3    H221421   0.792   3.182   5.316
 7160TIP3   OH221422   0.137   3.234   5.224
 7160TIP3    H121423   0.055   3.217   5.179
 7160TIP3    H221424   0.181   3.149   5.227
 7161TIP3   OH221425   0.360   3.268   4.936
 7161TIP3    H121426   0.455   3.274   4.926
 7161TIP3    H221427   0.326   3.288   4.849
 7162TIP3   OH221428   1.134   3.278   5.454
 7162TIP3    H121429   1.113   3.294   5.547
 7162TIP3    H221430   1.073   3.210   5.427
 7163TIP3   OH221431   0.232   3.311   4.692
 7163TIP3    H121432   0.187   3.251   4.633
 7163TIP3    H221433   0.297   3.355   4.637
 7164TIP3   OH221434   1.348   4.979   5.668
 7164TIP3    H121435   1.345   5.000   5.575
 7164TIP3    H221436   1.417   5.036   5.703
 7165TIP3   OH221437   0.309   4.120   6.058
 7165TIP3    H121438   0.395   4.133   6.098
 7165TIP3    H221439   0.251   4.104   6.132
 7166TIP3   OH221440   0.765   3.532   5.341
 7166TIP3    H121441   0.836   3.487   5.294
 7166TIP3    H221442   0.769   3.497   5.430
 7167TIP3   OH221443   0.292   3.000   5.243
 7167TIP3    H121444   0.245   2.932   5.293
 7167TIP3    H221445   0.349   2.952   5.184
 7168TIP3   OH221446   0.751   3.449   5.610
 7168TIP3    H121447   0.661   3.480   5.624
 7168TIP3    H221448   0.804   3.503   5.669
 7169TIP3   OH221449   0.448   3.899   4.738
 7169TIP3    H121450   0.424   3.806   4.731
 7169TIP3    H221451   0.448   3.916   4.832
 7170TIP3   OH221452   0.919   3.138   4.629
 7170TIP3    H121453   0.826   3.115   4.633
 7170TIP3    H221454   0.920   3.232   4.647
 7171TIP3   OH221455   0.878   4.147   5.720
 7171TIP3    H121456   0.943   4.144   5.790
 7171TIP3    H221457   0.842   4.236   5.724
 7172TIP3   OH221458   0.981   3.398   4.711
 7172TIP3    H121459   1.076   3.399   4.720
 7172TIP3    H221460   0.961   3.476   4.659
 7173TIP3   OH221461   0.124   3.867   5.367
 7173TIP3    H121462   0.185   3.817   5.311
 7173TIP3    H221463   0.151   3.845   5.456
 7174TIP3   OH221464   0.636   3.977   4.555
 7174TIP3    H121465   0.601   4.065   4.547
 7174TIP3    H221466   0.577   3.933   4.616
 7175TIP3   OH221467   0.816   3.922   6.040
 7175TIP3    H121468   0.738   3.871   6.017
 7175TIP3    H221469   0.889   3.868   6.011
 7176TIP3   OH221470   1.037   4.445   5.619
 7176TIP3    H121471   0.944   4.421   5.619
 7176TIP3    H221472   1.053   4.476   5.708
 7177TIP3   OH221473   1.395   3.490   4.529
 7177TIP3    H121474   1.336   3.446   4.468
 7177TIP3    H221475   1.405   3.578   4.492
 7178TIP3   OH221476   1.651   4.369   5.613
 7178TIP3    H121477   1.561   4.338   5.622
 7178TIP3    H221478   1.684   4.326   5.534
 7179TIP3   OH221479   1.136   4.295   4.464
 7179TIP3    H121480   1.108   4.223   4.520
 7179TIP3    H221481   1.154   4.254   4.379
 7180TIP3   OH221482   1.086   3.929   5.224
 7180TIP3    H121483   1.001   3.893   5.248
 7180TIP3    H221484   1.136   3.853   5.195
 7181TIP3   OH221485   0.190   4.111   5.004
 7181TIP3    H121486   0.250   4.133   4.933
 7181TIP3    H221487   0.108   4.155   4.980
 7182TIP3   OH221488   8.311   3.500   4.747
 7182TIP3    H121489   8.326   3.568   4.814
 7182TIP3    H221490   8.241   3.446   4.785
 7183TIP3   OH221491   0.399   3.928   5.010
 7183TIP3    H121492   0.325   3.989   5.011
 7183TIP3    H221493   0.370   3.855   5.066
 7184TIP3   OH221494   0.594   4.482   5.495
 7184TIP3    H121495   0.631   4.560   5.454
 7184TIP3    H221496   0.668   4.442   5.541
 7185TIP3   OH221497   0.196   4.428   4.841
 7185TIP3    H121498   0.118   4.400   4.889
 7185TIP3    H221499   0.212   4.518   4.872
 7186TIP3   OH221500   0.976   4.162   5.462
 7186TIP3    H121501   0.954   4.149   5.554
 7186TIP3    H221502   1.049   4.103   5.446
 7187TIP3   OH221503   0.898   4.033   4.361
 7187TIP3    H121504   0.959   4.010   4.431
 7187TIP3    H221505   0.813   3.999   4.392
 7188TIP3   OH221506   1.175   4.667   5.527
 7188TIP3    H121507   1.110   4.598   5.539
 7188TIP3    H221508   1.145   4.716   5.450
 7189TIP3   OH221509   1.224   4.494   4.147
 7189TIP3    H121510   1.240   4.552   4.072
 7189TIP3    H221511   1.155   4.537   4.196
 7190TIP3   OH221512   0.329   3.265   6.020
 7190TIP3    H121513   0.257   3.227   5.970
 7190TIP3    H221514   0.333   3.213   6.100
 7191TIP3   OH221515   1.082   3.963   4.548
 7191TIP3    H121516   1.062   3.905   4.622
 7191TIP3    H221517   1.178   3.963   4.544
 7192TIP3   OH221518   0.260   3.989   4.322
 7192TIP3    H121519   0.275   3.900   4.291
 7192TIP3    H221520   0.239   3.979   4.415
 7193TIP3   OH221521   0.238   4.015   4.593
 7193TIP3    H121522   0.313   3.981   4.640
 7193TIP3    H221523   0.250   4.110   4.594
 7194TIP3   OH221524   8.448   3.706   4.868
 7194TIP3    H121525   8.450   3.780   4.928
 7194TIP3    H221526   8.440   3.745   4.781
 7195TIP3   OH221527   1.085   3.336   5.720
 7195TIP3    H121528   1.167   3.380   5.740
 7195TIP3    H221529   1.085   3.258   5.777
 7196TIP3   OH221530   0.985   3.094   4.900
 7196TIP3    H121531   0.963   3.115   4.810
 7196TIP3    H221532   1.028   3.173   4.933
 7197TIP3   OH221533   0.514   4.217   4.573
 7197TIP3    H121534   0.554   4.263   4.647
 7197TIP3    H221535   0.489   4.288   4.513
 7198TIP3   OH221536   0.640   3.277   4.998
 7198TIP3    H121537   0.699   3.346   4.971
 7198TIP3    H221538   0.664   3.258   5.089
 7199TIP3   OH221539   0.931   3.560   5.794
 7199TIP3    H121540   0.967   3.607   5.869
 7199TIP3    H221541   0.986   3.482   5.785
 7200TIP3   OH221542   0.814   2.990   5.094
 7200TIP3    H121543   0.792   3.068   5.146
 7200TIP3    H221544   0.880   3.021   5.032
 7201TIP3   OH221545   0.194   4.296   4.601
 7201TIP3    H121546   0.199   4.361   4.531
 7201TIP3    H221547   0.180   4.348   4.680
 7202TIP3   OH221548   0.320   2.988   4.887
 7202TIP3    H121549   0.299   3.074   4.923
 7202TIP3    H221550   0.415   2.980   4.896
 7203TIP3   OH221551   1.564   3.496   5.790
 7203TIP3    H121552   1.474   3.464   5.799
 7203TIP3    H221553   1.561   3.550   5.711
 7204TIP3   OH221554   1.207   3.675   5.144
 7204TIP3    H121555   1.130   3.621   5.161
 7204TIP3    H221556   1.273   3.644   5.206
 7205TIP3   OH221557  -0.003   3.997   4.723
 7205TIP3    H121558   0.082   3.982   4.684
 7205TIP3    H221559  -0.051   4.049   4.659
 7206TIP3   OH221560   0.012   3.128   4.847
 7206TIP3    H121561   0.053   3.215   4.854
 7206TIP3    H221562  -0.035   3.131   4.764
 7207TIP3   OH221563   1.186   4.655   5.093
 7207TIP3    H121564   1.144   4.710   5.027
 7207TIP3    H221565   1.280   4.669   5.079
 7208TIP3   OH221566   0.287   2.874   5.608
 7208TIP3    H121567   0.253   2.839   5.526
 7208TIP3    H221568   0.275   2.803   5.671
 7209TIP3   OH221569   0.562   4.678   6.048
 7209TIP3    H121570   0.627   4.611   6.073
 7209TIP3    H221571   0.487   4.627   6.016
 7210TIP3   OH221572   0.428   4.194   4.255
 7210TIP3    H121573   0.376   4.121   4.288
 7210TIP3    H221574   0.505   4.152   4.216
 7211TIP3   OH221575   1.069   4.530   5.875
 7211TIP3    H121576   1.079   4.460   5.939
 7211TIP3    H221577   1.145   4.586   5.889
 7212TIP3   OH221578   0.859   4.238   4.182
 7212TIP3    H121579   0.890   4.171   4.243
 7212TIP3    H221580   0.919   4.231   4.107
 7213TIP3   OH221581   0.119   3.767   4.486
 7213TIP3    H121582   0.138   3.693   4.543
 7213TIP3    H221583   0.164   3.747   4.404
 7214TIP3   OH221584   0.745   4.194   6.058
 7214TIP3    H121585   0.696   4.210   5.978
 7214TIP3    H221586   0.778   4.104   6.048
 7215TIP3   OH221587   0.614   3.914   4.288
 7215TIP3    H121588   0.610   3.923   4.383
 7215TIP3    H221589   0.614   3.819   4.273
 7216TIP3   OH221590   1.184   4.219   5.695
 7216TIP3    H121591   1.269   4.224   5.652
 7216TIP3    H221592   1.134   4.292   5.659
 7217TIP3   OH221593   0.329   3.785   6.281
 7217TIP3    H121594   0.248   3.779   6.231
 7217TIP3    H221595   0.309   3.843   6.354
 7218TIP3   OH221596   0.397   3.633   4.750
 7218TIP3    H121597   0.328   3.617   4.814
 7218TIP3    H221598   0.378   3.571   4.679
 7219TIP3   OH221599   0.609   3.714   5.969
 7219TIP3    H121600   0.567   3.789   6.012
 7219TIP3    H221601   0.642   3.749   5.886
 7220TIP3   OH221602   0.402   3.454   4.533
 7220TIP3    H121603   0.375   3.464   4.442
 7220TIP3    H221604   0.498   3.455   4.529
 7221TIP3   OH221605   1.087   4.096   6.057
 7221TIP3    H121606   1.083   4.039   5.980
 7221TIP3    H221607   1.082   4.036   6.132
 7222TIP3   OH221608   1.186   3.744   4.214
 7222TIP3    H121609   1.172   3.701   4.130
 7222TIP3    H221610   1.157   3.834   4.199
 7223TIP3   OH221611   0.696   3.471   6.052
 7223TIP3    H121612   0.705   3.406   5.982
 7223TIP3    H221613   0.667   3.550   6.006
 7224TIP3   OH221614   0.721   3.286   5.841
 7224TIP3    H121615   0.752   3.325   5.760
 7224TIP3    H221616   0.633   3.253   5.820
 7225TIP3   OH221617   0.715   3.804   5.737
 7225TIP3    H121618   0.796   3.799   5.686
 7225TIP3    H221619   0.655   3.857   5.685
 7226TIP3   OH221620   1.291   3.769   6.091
 7226TIP3    H121621   1.304   3.674   6.088
 7226TIP3    H221622   1.367   3.805   6.047
 7227TIP3   OH221623   0.581   3.568   6.293
 7227TIP3    H121624   0.526   3.490   6.303
 7227TIP3    H221625   0.609   3.566   6.202
 7228TIP3   OH221626   0.811   3.051   5.956
 7228TIP3    H121627   0.777   3.132   5.918
 7228TIP3    H221628   0.745   2.985   5.936
 7229TIP3   OH221629   0.944   3.530   6.156
 7229TIP3    H121630   0.936   3.518   6.251
 7229TIP3    H221631   0.860   3.502   6.121
 7230TIP3   OH221632   1.190   3.505   6.019
 7230TIP3    H121633   1.110   3.495   6.071
 7230TIP3    H221634   1.258   3.463   6.071
 7231TIP3   OH221635   1.407   3.438   6.174
 7231TIP3    H121636   1.420   3.344   6.184
 7231TIP3    H221637   1.401   3.470   6.264
 7232TIP3   OH221638   0.432   3.337   6.344
 7232TIP3    H121639   0.422   3.254   6.298
 7232TIP3    H221640   0.465   3.313   6.431
 7233TIP3   OH221641   0.874   3.024   6.218
 7233TIP3    H121642   0.942   2.958   6.209
 7233TIP3    H221643   0.842   3.038   6.129
 7234TIP3   OH221644   0.970   3.248   6.347
 7234TIP3    H121645   0.937   3.175   6.295
 7234TIP3    H221646   0.897   3.309   6.353
 7235TIP3   OH221647   0.213   4.510   4.429
 7235TIP3    H121648   0.303   4.492   4.404
 7235TIP3    H221649   0.174   4.551   4.352
 7236TIP3   OH221650   1.454   4.711   5.083
 7236TIP3    H121651   1.477   4.734   5.173
 7236TIP3    H221652   1.513   4.763   5.029
 7237TIP3   OH221653   1.483   4.733   5.361
 7237TIP3    H121654   1.434   4.651   5.359
 7237TIP3    H221655   1.552   4.717   5.426
 7238TIP3   OH221656   1.545   4.416   5.941
 7238TIP3    H121657   1.473   4.426   6.003
 7238TIP3    H221658   1.585   4.503   5.938
 7239TIP3   OH221659   1.361   3.949   4.553
 7239TIP3    H121660   1.418   4.019   4.521
 7239TIP3    H221661   1.404   3.917   4.632
 7240TIP3   OH221662   1.473   3.820   4.781
 7240TIP3    H121663   1.401   3.763   4.806
 7240TIP3    H221664   1.485   3.878   4.856
 7241TIP3   OH221665   1.553   4.196   5.200
 7241TIP3    H121666   1.609   4.143   5.143
 7241TIP3    H221667   1.520   4.265   5.143
 7242TIP3   OH221668   1.339   4.495   5.374
 7242TIP3    H121669   1.274   4.538   5.430
 7242TIP3    H221670   1.287   4.454   5.305
 7243TIP3   OH221671   1.394   3.729   4.392
 7243TIP3    H121672   1.323   3.725   4.329
 7243TIP3    H221673   1.376   3.807   4.445
 7244TIP3   OH221674   1.233   3.389   4.334
 7244TIP3    H121675   1.200   3.412   4.248
 7244TIP3    H221676   1.223   3.293   4.339
 7245TIP3   OH221677   1.272   3.658   4.876
 7245TIP3    H121678   1.276   3.564   4.861
 7245TIP3    H221679   1.253   3.668   4.969
 7246TIP3   OH221680   1.752   3.914   5.768
 7246TIP3    H121681   1.666   3.881   5.793
 7246TIP3    H221682   1.811   3.841   5.785
 7247TIP3   OH221683   1.199   3.121   4.335
 7247TIP3    H121684   1.273   3.074   4.374
 7247TIP3    H221685   1.123   3.065   4.352
 7248TIP3   OH221686   1.274   3.388   4.766
 7248TIP3    H121687   1.317   3.303   4.779
 7248TIP3    H221688   1.316   3.425   4.689
 7249TIP3   OH221689   1.414   3.568   5.302
 7249TIP3    H121690   1.501   3.583   5.266
 7249TIP3    H221691   1.418   3.607   5.390
 7250TIP3   OH221692   0.030   3.433   6.364
 7250TIP3    H121693   0.108   3.477   6.329
 7250TIP3    H221694   0.047   3.425   6.458
 7251TIP3   OH221695   1.958   3.304   6.058
 7251TIP3    H121696   2.023   3.249   6.015
 7251TIP3    H221697   1.919   3.356   5.988
 7252TIP3   OH221698   1.386   3.136   4.820
 7252TIP3    H121699   1.428   3.122   4.905
 7252TIP3    H221700   1.322   3.064   4.813
 7253TIP3   OH221701   0.148   3.102   5.565
 7253TIP3    H121702   0.195   3.019   5.569
 7253TIP3    H221703   0.215   3.166   5.539
 7254TIP3   OH221704   1.814   3.418   5.856
 7254TIP3    H121705   1.727   3.458   5.859
 7254TIP3    H221706   1.803   3.339   5.804
 7255TIP3   OH221707   1.448   3.041   4.439
 7255TIP3    H121708   1.509   2.993   4.383
 7255TIP3    H221709   1.491   3.125   4.454
 7256TIP3   OH221710   8.407   2.840   5.248
 7256TIP3    H121711   8.335   2.777   5.255
 7256TIP3    H221712   8.401   2.874   5.159
 7257TIP3   OH221713   1.028   4.625   4.727
 7257TIP3    H121714   1.075   4.604   4.647
 7257TIP3    H221715   1.077   4.697   4.766
 7258TIP3   OH221716   8.465   3.016   6.146
 7258TIP3    H121717   8.376   2.982   6.156
 7258TIP3    H221718   8.486   3.003   6.054
 7259TIP3   OH221719   0.274   4.429   5.707
 7259TIP3    H121720   0.310   4.501   5.655
 7259TIP3    H221721   0.305   4.350   5.664
 7260TIP3   OH221722   0.791   4.672   5.788
 7260TIP3    H121723   0.823   4.671   5.879
 7260TIP3    H221724   0.860   4.716   5.739
 7261TIP3   OH221725   0.977   4.835   5.661
 7261TIP3    H121726   1.049   4.782   5.625
 7261TIP3    H221727   1.020   4.905   5.710
 7262TIP3   OH221728   1.724   3.177   5.749
 7262TIP3    H121729   1.641   3.186   5.700
 7262TIP3    H221730   1.746   3.084   5.739
 7263TIP3   OH221731   0.318   4.625   5.510
 7263TIP3    H121732   0.223   4.620   5.515
 7263TIP3    H221733   0.340   4.582   5.428
 7264TIP3   OH221734   0.670   4.707   5.353
 7264TIP3    H121735   0.673   4.728   5.259
 7264TIP3    H221736   0.680   4.791   5.397
 7265TIP3   OH221737   0.926   4.633   5.393
 7265TIP3    H121738   0.834   4.655   5.386
 7265TIP3    H221739   0.972   4.707   5.353
 7266TIP3   OH221740   1.110   4.822   5.298
 7266TIP3    H121741   1.100   4.908   5.257
 7266TIP3    H221742   1.135   4.763   5.226
 7267TIP3   OH221743   0.098   4.397   5.207
 7267TIP3    H121744   0.055   4.312   5.221
 7267TIP3    H221745   0.189   4.374   5.188
 7268TIP3   OH221746   0.415   4.505   5.287
 7268TIP3    H121747   0.404   4.430   5.229
 7268TIP3    H221748   0.485   4.479   5.347
 7269TIP3   OH221749   0.952   3.072   5.382
 7269TIP3    H121750   0.898   3.007   5.427
 7269TIP3    H221751   1.009   3.020   5.325
 7270TIP3   OH221752   1.425   2.977   5.269
 7270TIP3    H121753   1.460   3.034   5.201
 7270TIP3    H221754   1.334   3.003   5.277
 7271TIP3   OH221755   1.541   3.093   5.047
 7271TIP3    H121756   1.610   3.031   5.021
 7271TIP3    H221757   1.580   3.179   5.032
 7272TIP3   OH221758   0.177   2.785   5.373
 7272TIP3    H121759   0.084   2.764   5.363
 7272TIP3    H221760   0.220   2.699   5.372
 7273TIP3   OH221761   0.059   2.657   5.054
 7273TIP3    H121762   0.089   2.696   4.972
 7273TIP3    H221763   0.050   2.732   5.113
 7274TIP3   OH221764   0.633   2.839   5.270
 7274TIP3    H121765   0.687   2.865   5.195
 7274TIP3    H221766   0.687   2.860   5.347
 7275TIP3   OH221767   1.126   2.895   5.239
 7275TIP3    H121768   1.179   2.882   5.160
 7275TIP3    H221769   1.092   2.808   5.259
 7276TIP3   OH221770   1.191   2.930   4.812
 7276TIP3    H121771   1.116   2.983   4.840
 7276TIP3    H221772   1.177   2.845   4.854
 7277TIP3   OH221773   0.131   2.796   4.814
 7277TIP3    H121774   0.174   2.730   4.759
 7277TIP3    H221775   0.202   2.855   4.839
 7278TIP3   OH221776   0.591   3.019   4.906
 7278TIP3    H121777   0.650   2.959   4.951
 7278TIP3    H221778   0.614   3.106   4.941
 7279TIP3   OH221779   0.469   4.431   4.377
 7279TIP3    H121780   0.557   4.455   4.346
 7279TIP3    H221781   0.446   4.354   4.326
 7280TIP3   OH221782   1.172   4.564   4.498
 7280TIP3    H121783   1.165   4.469   4.492
 7280TIP3    H221784   1.134   4.596   4.416
 7281TIP3   OH221785   0.448   3.068   6.249
 7281TIP3    H121786   0.403   3.013   6.314
 7281TIP3    H221787   0.537   3.077   6.283
 7282TIP3   OH221788   0.680   3.081   6.405
 7282TIP3    H121789   0.753   3.058   6.347
 7282TIP3    H221790   0.672   3.006   6.464
 7283TIP3   OH221791   1.469   3.168   6.182
 7283TIP3    H121792   1.488   3.141   6.272
 7283TIP3    H221793   1.553   3.165   6.138
 7284TIP3   OH221794   1.399   4.713   5.685
 7284TIP3    H121795   1.323   4.679   5.636
 7284TIP3    H221796   1.381   4.806   5.694
 7285TIP3   OH221797   1.988   3.995   5.185
 7285TIP3    H121798   1.998   3.907   5.221
 7285TIP3    H221799   2.025   4.053   5.252
 7286TIP3   OH221800   1.955   4.401   4.900
 7286TIP3    H121801   1.928   4.360   4.982
 7286TIP3    H221802   2.034   4.353   4.874
 7287TIP3   OH221803   1.619   3.596   4.679
 7287TIP3    H121804   1.573   3.672   4.713
 7287TIP3    H221805   1.552   3.547   4.632
 7288TIP3   OH221806   1.807   3.894   4.842
 7288TIP3    H121807   1.815   3.816   4.895
 7288TIP3    H221808   1.742   3.871   4.775
 7289TIP3   OH221809   2.606   4.804   4.526
 7289TIP3    H121810   2.653   4.745   4.467
 7289TIP3    H221811   2.616   4.765   4.613
 7290TIP3   OH221812   3.523   3.608   4.851
 7290TIP3    H121813   3.527   3.692   4.897
 7290TIP3    H221814   3.559   3.627   4.764
 7291TIP3   OH221815   2.180   3.471   4.862
 7291TIP3    H121816   2.168   3.530   4.788
 7291TIP3    H221817   2.142   3.388   4.832
 7292TIP3   OH221818   2.920   3.552   4.458
 7292TIP3    H121819   2.973   3.555   4.538
 7292TIP3    H221820   2.974   3.595   4.392
 7293TIP3   OH221821   1.845   3.668   4.990
 7293TIP3    H121822   1.925   3.644   5.037
 7293TIP3    H221823   1.841   3.606   4.917
 7294TIP3   OH221824   3.539   3.822   5.036
 7294TIP3    H121825   3.462   3.875   5.012
 7294TIP3    H221826   3.518   3.787   5.122
 7295TIP3   OH221827   2.203   3.454   5.303
 7295TIP3    H121828   2.160   3.499   5.230
 7295TIP3    H221829   2.147   3.470   5.378
 7296TIP3   OH221830   2.305   4.233   5.106
 7296TIP3    H121831   2.242   4.299   5.135
 7296TIP3    H221832   2.352   4.274   5.033
 7297TIP3   OH221833   3.083   3.570   4.682
 7297TIP3    H121834   3.052   3.526   4.761
 7297TIP3    H221835   3.147   3.634   4.714
 7298TIP3   OH221836   2.091   3.584   5.088
 7298TIP3    H121837   2.146   3.662   5.098
 7298TIP3    H221838   2.128   3.539   5.012
 7299TIP3   OH221839   2.134   4.438   5.176
 7299TIP3    H121840   2.125   4.529   5.147
 7299TIP3    H221841   2.059   4.423   5.233
 7300TIP3   OH221842   1.529   4.137   4.430
 7300TIP3    H121843   1.492   4.150   4.342
 7300TIP3    H221844   1.549   4.225   4.460
 7301TIP3   OH221845   2.967   4.647   4.688
 7301TIP3    H121846   2.875   4.630   4.708
 7301TIP3    H221847   2.965   4.723   4.630
 7302TIP3   OH221848   3.290   3.560   5.025
 7302TIP3    H121849   3.199   3.564   4.997
 7302TIP3    H221850   3.341   3.569   4.944
 7303TIP3   OH221851   2.521   3.143   5.004
 7303TIP3    H121852   2.537   3.061   5.049
 7303TIP3    H221853   2.457   3.189   5.058
 7304TIP3   OH221854   2.734   4.653   4.332
 7304TIP3    H121855   2.785   4.585   4.290
 7304TIP3    H221856   2.765   4.735   4.293
 7305TIP3   OH221857   3.205   4.551   5.001
 7305TIP3    H121858   3.207   4.483   4.934
 7305TIP3    H221859   3.187   4.632   4.952
 7306TIP3   OH221860   2.462   3.741   3.969
 7306TIP3    H121861   2.526   3.785   4.025
 7306TIP3    H221862   2.511   3.669   3.929
 7307TIP3   OH221863   3.394   4.197   4.859
 7307TIP3    H121864   3.315   4.252   4.860
 7307TIP3    H221865   3.405   4.173   4.767
 7308TIP3   OH221866   2.770   4.009   4.304
 7308TIP3    H121867   2.776   4.105   4.299
 7308TIP3    H221868   2.802   3.987   4.392
 7309TIP3   OH221869   3.088   4.059   5.197
 7309TIP3    H121870   3.096   4.141   5.246
 7309TIP3    H221871   3.003   4.065   5.154
 7310TIP3   OH221872   2.171   4.274   4.761
 7310TIP3    H121873   2.140   4.332   4.691
 7310TIP3    H221874   2.265   4.286   4.763
 7311TIP3   OH221875   2.711   4.615   4.782
 7311TIP3    H121876   2.703   4.697   4.830
 7311TIP3    H221877   2.711   4.547   4.849
 7312TIP3   OH221878   2.345   4.535   5.336
 7312TIP3    H121879   2.286   4.593   5.385
 7312TIP3    H221880   2.286   4.481   5.283
 7313TIP3   OH221881   2.682   3.871   4.079
 7313TIP3    H121882   2.717   3.931   4.146
 7313TIP3    H221883   2.714   3.907   3.997
 7314TIP3   OH221884   2.082   4.100   5.442
 7314TIP3    H121885   2.091   4.188   5.479
 7314TIP3    H221886   1.997   4.069   5.475
 7315TIP3   OH221887   2.518   4.490   4.306
 7315TIP3    H121888   2.572   4.565   4.331
 7315TIP3    H221889   2.434   4.529   4.282
 7316TIP3   OH221890   2.138   4.696   5.423
 7316TIP3    H121891   2.110   4.708   5.332
 7316TIP3    H221892   2.057   4.680   5.472
 7317TIP3   OH221893   3.189   3.107   4.129
 7317TIP3    H121894   3.111   3.125   4.182
 7317TIP3    H221895   3.198   3.185   4.074
 7318TIP3   OH221896   1.948   3.900   4.512
 7318TIP3    H121897   1.876   3.925   4.453
 7318TIP3    H221898   1.942   3.805   4.518
 7319TIP3   OH221899   3.010   4.481   3.686
 7319TIP3    H121900   3.003   4.575   3.672
 7319TIP3    H221901   3.099   4.458   3.659
 7320TIP3   OH221902   1.743   4.236   5.394
 7320TIP3    H121903   1.675   4.218   5.329
 7320TIP3    H221904   1.770   4.149   5.424
 7321TIP3   OH221905   1.561   4.456   5.034
 7321TIP3    H121906   1.645   4.483   5.071
 7321TIP3    H221907   1.501   4.528   5.054
 7322TIP3   OH221908   3.428   4.886   5.079
 7322TIP3    H121909   3.435   4.793   5.097
 7322TIP3    H221910   3.348   4.914   5.123
 7323TIP3   OH221911   2.530   4.682   5.195
 7323TIP3    H121912   2.525   4.773   5.226
 7323TIP3    H221913   2.464   4.635   5.247
 7324TIP3   OH221914   2.332   4.790   4.147
 7324TIP3    H121915   2.282   4.761   4.071
 7324TIP3    H221916   2.286   4.868   4.177
 7325TIP3   OH221917   1.752   4.634   4.528
 7325TIP3    H121918   1.792   4.629   4.615
 7325TIP3    H221919   1.701   4.554   4.521
 7326TIP3   OH221920   2.514   4.707   3.779
 7326TIP3    H121921   2.566   4.635   3.743
 7326TIP3    H221922   2.551   4.722   3.866
 7327TIP3   OH221923   2.582   4.756   4.044
 7327TIP3    H121924   2.499   4.761   4.091
 7327TIP3    H221925   2.649   4.760   4.113
 7328TIP3   OH221926   3.330   4.006   5.354
 7328TIP3    H121927   3.246   3.999   5.308
 7328TIP3    H221928   3.352   3.916   5.376
 7329TIP3   OH221929   1.919   4.440   5.345
 7329TIP3    H121930   1.972   4.436   5.425
 7329TIP3    H221931   1.853   4.371   5.357
 7330TIP3   OH221932   2.308   3.239   5.163
 7330TIP3    H121933   2.224   3.208   5.129
 7330TIP3    H221934   2.288   3.322   5.206
 7331TIP3   OH221935   2.847   3.384   5.356
 7331TIP3    H121936   2.920   3.356   5.412
 7331TIP3    H221937   2.768   3.356   5.403
 7332TIP3   OH221938   3.091   3.794   5.287
 7332TIP3    H121939   3.045   3.782   5.370
 7332TIP3    H221940   3.068   3.883   5.260
 7333TIP3   OH221941   2.755   3.941   3.825
 7333TIP3    H121942   2.707   3.913   3.746
 7333TIP3    H221943   2.844   3.957   3.794
 7334TIP3   OH221944   2.455   3.284   4.131
 7334TIP3    H121945   2.429   3.279   4.223
 7334TIP3    H221946   2.422   3.203   4.092
 7335TIP3   OH221947   2.238   3.814   5.136
 7335TIP3    H121948   2.193   3.806   5.220
 7335TIP3    H221949   2.298   3.888   5.149
 7336TIP3   OH221950   2.094   3.642   4.660
 7336TIP3    H121951   2.011   3.605   4.690
 7336TIP3    H221952   2.112   3.596   4.578
 7337TIP3   OH221953   2.593   3.732   4.366
 7337TIP3    H121954   2.618   3.824   4.365
 7337TIP3    H221955   2.662   3.688   4.316
 7338TIP3   OH221956   2.798   3.995   5.480
 7338TIP3    H121957   2.770   3.923   5.537
 7338TIP3    H221958   2.890   4.008   5.503
 7339TIP3   OH221959   2.082   3.784   5.364
 7339TIP3    H121960   2.068   3.845   5.436
 7339TIP3    H221961   2.068   3.698   5.404
 7340TIP3   OH221962   2.124   3.262   4.098
 7340TIP3    H121963   2.116   3.259   4.193
 7340TIP3    H221964   2.048   3.312   4.069
 7341TIP3   OH221965   1.681   3.307   4.959
 7341TIP3    H121966   1.751   3.343   5.013
 7341TIP3    H221967   1.725   3.276   4.880
 7342TIP3   OH221968   1.579   3.286   4.476
 7342TIP3    H121969   1.625   3.322   4.400
 7342TIP3    H221970   1.516   3.354   4.500
 7343TIP3   OH221971   1.873   3.516   4.758
 7343TIP3    H121972   1.784   3.524   4.722
 7343TIP3    H221973   1.898   3.425   4.740
 7344TIP3   OH221974   2.151   3.512   4.428
 7344TIP3    H121975   2.246   3.525   4.416
 7344TIP3    H221976   2.114   3.535   4.343
 7345TIP3   OH221977   3.019   3.544   4.971
 7345TIP3    H121978   2.953   3.572   5.034
 7345TIP3    H221979   3.011   3.448   4.969
 7346TIP3   OH221980   2.036   3.564   4.186
 7346TIP3    H121981   1.973   3.516   4.134
 7346TIP3    H221982   2.089   3.613   4.122
 7347TIP3   OH221983   3.143   5.239   5.168
 7347TIP3    H121984   3.140   5.257   5.074
 7347TIP3    H221985   3.222   5.284   5.198
 7348TIP3   OH221986   2.089   4.356   5.568
 7348TIP3    H121987   2.170   4.369   5.616
 7348TIP3    H221988   2.020   4.358   5.635
 7349TIP3   OH221989   2.028   3.273   4.731
 7349TIP3    H121990   2.001   3.197   4.782
 7349TIP3    H221991   2.071   3.237   4.654
 7350TIP3   OH221992   2.504   3.693   5.169
 7350TIP3    H121993   2.431   3.744   5.133
 7350TIP3    H221994   2.575   3.757   5.178
 7351TIP3   OH221995   3.169   4.354   4.812
 7351TIP3    H121996   3.183   4.318   4.725
 7351TIP3    H221997   3.077   4.380   4.813
 7352TIP3   OH221998   2.708   3.385   4.108
 7352TIP3    H121999   2.614   3.366   4.117
 7352TIP3    H222000   2.716   3.478   4.130
 7353TIP3   OH222001   2.646   4.405   5.240
 7353TIP3    H122002   2.689   4.386   5.323
 7353TIP3    H222003   2.609   4.492   5.251
 7354TIP3   OH222004   2.780   3.636   4.182
 7354TIP3    H122005   2.875   3.636   4.194
 7354TIP3    H222006   2.762   3.719   4.137
 7355TIP3   OH222007   2.480   4.264   4.133
 7355TIP3    H122008   2.412   4.328   4.115
 7355TIP3    H222009   2.445   4.181   4.101
 7356TIP3   OH222010   1.835   3.998   5.513
 7356TIP3    H122011   1.813   3.981   5.605
 7356TIP3    H222012   1.772   3.946   5.463
 7357TIP3   OH222013   2.565   4.151   5.526
 7357TIP3    H122014   2.494   4.090   5.506
 7357TIP3    H222015   2.644   4.106   5.499
 7358TIP3   OH222016   2.808   4.695   5.129
 7358TIP3    H122017   2.714   4.681   5.132
 7358TIP3    H222018   2.829   4.736   5.213
 7359TIP3   OH222019   3.190   3.720   3.979
 7359TIP3    H122020   3.129   3.685   3.914
 7359TIP3    H222021   3.193   3.814   3.960
 7360TIP3   OH222022   3.451   4.599   5.101
 7360TIP3    H122023   3.356   4.593   5.092
 7360TIP3    H222024   3.485   4.573   5.015
 7361TIP3   OH222025   2.942   4.575   3.975
 7361TIP3    H122026   2.909   4.529   4.052
 7361TIP3    H222027   2.940   4.509   3.906
 7362TIP3   OH222028   2.066   4.444   4.568
 7362TIP3    H122029   2.065   4.514   4.502
 7362TIP3    H222030   1.976   4.411   4.568
 7363TIP3   OH222031   1.631   3.714   4.252
 7363TIP3    H122032   1.679   3.793   4.277
 7363TIP3    H222033   1.551   3.717   4.303
 7364TIP3   OH222034   2.349   4.738   4.979
 7364TIP3    H122035   2.383   4.817   4.935
 7364TIP3    H222036   2.421   4.711   5.036
 7365TIP3   OH222037   1.991   4.647   4.388
 7365TIP3    H122038   1.902   4.655   4.423
 7365TIP3    H222039   2.025   4.736   4.392
 7366TIP3   OH222040   2.743   4.415   4.980
 7366TIP3    H122041   2.687   4.398   5.055
 7366TIP3    H222042   2.831   4.422   5.017
 7367TIP3   OH222043   2.676   4.271   3.827
 7367TIP3    H122044   2.715   4.223   3.900
 7367TIP3    H222045   2.585   4.240   3.823
 7368TIP3   OH222046   2.943   4.925   5.016
 7368TIP3    H122047   2.876   4.857   5.023
 7368TIP3    H222048   2.916   4.975   4.939
 7369TIP3   OH222049   3.006   4.756   3.646
 7369TIP3    H122050   3.024   4.813   3.571
 7369TIP3    H222051   2.935   4.799   3.693
 7370TIP3   OH222052   2.039   3.536   5.506
 7370TIP3    H122053   1.945   3.550   5.514
 7370TIP3    H222054   2.062   3.484   5.583
 7371TIP3   OH222055   1.772   4.631   5.163
 7371TIP3    H122056   1.820   4.572   5.221
 7371TIP3    H222057   1.787   4.718   5.200
 7372TIP3   OH222058   2.143   4.216   3.862
 7372TIP3    H122059   2.112   4.133   3.828
 7372TIP3    H222060   2.086   4.234   3.937
 7373TIP3   OH222061   1.989   4.277   4.086
 7373TIP3    H122062   2.022   4.241   4.168
 7373TIP3    H222063   1.992   4.372   4.099
 7374TIP3   OH222064   1.733   3.967   4.337
 7374TIP3    H122065   1.663   4.015   4.384
 7374TIP3    H222066   1.749   4.020   4.259
 7375TIP3   OH222067   2.871   3.626   5.210
 7375TIP3    H122068   2.957   3.655   5.242
 7375TIP3    H222069   2.855   3.544   5.255
 7376TIP3   OH222070   2.771   3.338   4.378
 7376TIP3    H122071   2.756   3.354   4.284
 7376TIP3    H222072   2.818   3.416   4.408
 7377TIP3   OH222073   2.292   4.465   4.087
 7377TIP3    H122074   2.201   4.480   4.114
 7377TIP3    H222075   2.309   4.531   4.020
 7378TIP3   OH222076   2.433   3.526   4.445
 7378TIP3    H122077   2.477   3.601   4.404
 7378TIP3    H222078   2.491   3.502   4.518
 7379TIP3   OH222079   2.720   3.866   5.230
 7379TIP3    H122080   2.748   3.903   5.314
 7379TIP3    H222081   2.770   3.784   5.222
 7380TIP3   OH222082   2.612   3.226   4.572
 7380TIP3    H122083   2.656   3.244   4.655
 7380TIP3    H222084   2.670   3.263   4.505
 7381TIP3   OH222085   2.027   4.544   4.133
 7381TIP3    H122086   2.001   4.611   4.071
 7381TIP3    H222087   2.011   4.583   4.219
 7382TIP3   OH222088   2.108   3.241   4.376
 7382TIP3    H122089   2.101   3.332   4.405
 7382TIP3    H222090   2.201   3.220   4.386
 7383TIP3   OH222091   3.348   3.725   5.235
 7383TIP3    H122092   3.259   3.743   5.264
 7383TIP3    H222093   3.338   3.661   5.164
 7384TIP3   OH222094   1.738   4.142   4.107
 7384TIP3    H122095   1.799   4.215   4.097
 7384TIP3    H222096   1.770   4.075   4.046
 7385TIP3   OH222097   1.648   3.434   4.258
 7385TIP3    H122098   1.657   3.529   4.255
 7385TIP3    H222099   1.588   3.413   4.186
 7386TIP3   OH222100   2.984   4.906   4.578
 7386TIP3    H122101   2.942   4.955   4.508
 7386TIP3    H222102   3.077   4.923   4.567
 7387TIP3   OH222103   2.048   3.154   5.115
 7387TIP3    H122104   2.020   3.121   5.029
 7387TIP3    H222105   2.041   3.079   5.173
 7388TIP3   OH222106   1.577   4.410   4.508
 7388TIP3    H122107   1.533   4.445   4.585
 7388TIP3    H222108   1.533   4.452   4.434
 7389TIP3   OH222109   1.771   4.944   5.578
 7389TIP3    H122110   1.854   4.944   5.625
 7389TIP3    H222111   1.748   4.851   5.571
 7390TIP3   OH222112   2.242   4.859   5.619
 7390TIP3    H122113   2.333   4.831   5.631
 7390TIP3    H222114   2.209   4.805   5.547
 7391TIP3   OH222115   2.209   4.457   3.743
 7391TIP3    H122116   2.181   4.378   3.789
 7391TIP3    H222117   2.284   4.429   3.691
 7392TIP3   OH222118   2.862   4.803   5.374
 7392TIP3    H122119   2.872   4.732   5.438
 7392TIP3    H222120   2.937   4.860   5.390
 7393TIP3   OH222121   2.649   4.498   3.664
 7393TIP3    H122122   2.684   4.430   3.721
 7393TIP3    H222123   2.706   4.495   3.587
 7394TIP3   OH222124   1.886   4.356   5.762
 7394TIP3    H122125   1.913   4.265   5.770
 7394TIP3    H222126   1.799   4.353   5.722
 7395TIP3   OH222127   1.863   3.954   3.953
 7395TIP3    H122128   1.911   3.928   4.032
 7395TIP3    H222129   1.930   3.965   3.886
 7396TIP3   OH222130   2.500   4.428   5.541
 7396TIP3    H122131   2.454   4.447   5.459
 7396TIP3    H222132   2.533   4.339   5.530
 7397TIP3   OH222133   2.415   4.175   3.807
 7397TIP3    H122134   2.324   4.190   3.835
 7397TIP3    H222135   2.419   4.082   3.786
 7398TIP3   OH222136   2.976   4.469   5.127
 7398TIP3    H122137   3.059   4.502   5.092
 7398TIP3    H222138   2.922   4.547   5.136
 7399TIP3   OH222139   2.026   4.118   5.775
 7399TIP3    H122140   2.093   4.058   5.741
 7399TIP3    H222141   2.049   4.130   5.867
 7400TIP3   OH222142   2.030   3.894   4.163
 7400TIP3    H122143   2.027   3.861   4.253
 7400TIP3    H222144   2.091   3.836   4.117
 7401TIP3   OH222145   2.344   3.986   5.444
 7401TIP3    H122146   2.257   4.025   5.448
 7401TIP3    H222147   2.369   3.992   5.352
 7402TIP3   OH222148   2.187   3.720   4.015
 7402TIP3    H122149   2.159   3.717   3.924
 7402TIP3    H222150   2.283   3.723   4.011
 7403TIP3   OH222151   2.855   4.349   5.516
 7403TIP3    H122152   2.930   4.313   5.468
 7403TIP3    H222153   2.852   4.297   5.597
 7404TIP3   OH222154   2.988   4.002   3.690
 7404TIP3    H122155   2.972   3.954   3.609
 7404TIP3    H222156   2.962   4.092   3.671
 7405TIP3   OH222157   2.452   3.750   5.553
 7405TIP3    H122158   2.452   3.673   5.496
 7405TIP3    H222159   2.414   3.819   5.499
 7406TIP3   OH222160   2.455   3.530   5.378
 7406TIP3    H122161   2.487   3.576   5.300
 7406TIP3    H222162   2.368   3.499   5.354
 7407TIP3   OH222163   2.430   4.003   5.186
 7407TIP3    H122164   2.525   4.011   5.179
 7407TIP3    H222165   2.396   4.086   5.152
 7408TIP3   OH222166   3.062   4.028   5.600
 7408TIP3    H122167   3.085   3.961   5.665
 7408TIP3    H222168   3.146   4.069   5.577
 7409TIP3   OH222169   3.104   4.310   5.318
 7409TIP3    H122170   3.050   4.366   5.263
 7409TIP3    H222171   3.194   4.327   5.289
 7410TIP3   OH222172   2.338   3.832   5.792
 7410TIP3    H122173   2.268   3.770   5.812
 7410TIP3    H222174   2.368   3.808   5.705
 7411TIP3   OH222175   2.592   3.301   5.448
 7411TIP3    H122176   2.548   3.382   5.422
 7411TIP3    H222177   2.529   3.232   5.428
 7412TIP3   OH222178   2.712   3.791   5.645
 7412TIP3    H122179   2.704   3.776   5.739
 7412TIP3    H222180   2.626   3.768   5.609
 7413TIP3   OH222181   2.959   3.740   5.514
 7413TIP3    H122182   2.885   3.738   5.574
 7413TIP3    H222183   3.034   3.715   5.568
 7414TIP3   OH222184   3.211   3.694   5.636
 7414TIP3    H122185   3.218   3.601   5.659
 7414TIP3    H222186   3.192   3.738   5.719
 7415TIP3   OH222187   2.171   3.609   5.848
 7415TIP3    H122188   2.177   3.522   5.809
 7415TIP3    H222189   2.212   3.600   5.934
 7416TIP3   OH222190   2.658   3.286   5.711
 7416TIP3    H122191   2.730   3.223   5.705
 7416TIP3    H222192   2.628   3.297   5.621
 7417TIP3   OH222193   2.751   3.506   5.851
 7417TIP3    H122194   2.721   3.434   5.795
 7417TIP3    H222195   2.678   3.569   5.849
 7418TIP3   OH222196   1.988   4.739   3.940
 7418TIP3    H122197   2.080   4.741   3.912
 7418TIP3    H222198   1.942   4.794   3.877
 7419TIP3   OH222199   1.468   4.130   4.147
 7419TIP3    H122200   1.561   4.144   4.135
 7419TIP3    H222201   1.450   4.047   4.102
 7420TIP3   OH222202   1.377   4.722   4.592
 7420TIP3    H122203   1.313   4.667   4.546
 7420TIP3    H222204   1.423   4.661   4.650
 7421TIP3   OH222205   1.525   4.555   4.759
 7421TIP3    H122206   1.515   4.488   4.826
 7421TIP3    H222207   1.574   4.625   4.803
 7422TIP3   OH222208   3.251   4.975   4.575
 7422TIP3    H122209   3.276   4.999   4.665
 7422TIP3    H222210   3.305   5.032   4.520
 7423TIP3   OH222211   3.281   5.002   4.855
 7423TIP3    H122212   3.231   4.921   4.852
 7423TIP3    H222213   3.352   4.984   4.917
 7424TIP3   OH222214   3.322   4.692   5.419
 7424TIP3    H122215   3.253   4.699   5.486
 7424TIP3    H222216   3.370   4.775   5.425
 7425TIP3   OH222217   3.132   4.234   3.986
 7425TIP3    H122218   3.204   4.292   3.959
 7425TIP3    H222219   3.072   4.291   4.034
 7426TIP3   OH222220   3.128   4.775   4.867
 7426TIP3    H122221   3.061   4.818   4.920
 7426TIP3    H222222   3.080   4.731   4.797
 7427TIP3   OH222223   3.180   3.982   3.885
 7427TIP3    H122224   3.113   3.980   3.816
 7427TIP3    H222225   3.167   4.065   3.930
 7428TIP3   OH222226   3.029   3.620   3.782
 7428TIP3    H122227   2.979   3.636   3.702
 7428TIP3    H222228   3.030   3.524   3.790
 7429TIP3   OH222229   1.743   4.052   5.064
 7429TIP3    H122230   1.755   4.004   4.982
 7429TIP3    H222231   1.822   4.032   5.114
 7430TIP3   OH222232   3.366   4.349   5.230
 7430TIP3    H122233   3.428   4.277   5.220
 7430TIP3    H222234   3.403   4.420   5.179
 7431TIP3   OH222235   3.536   4.133   5.226
 7431TIP3    H122236   3.463   4.087   5.268
 7431TIP3    H222237   3.613   4.083   5.251
 7432TIP3   OH222238   3.008   3.344   3.778
 7432TIP3    H122239   3.069   3.322   3.848
 7432TIP3    H222240   2.924   3.311   3.807
 7433TIP3   OH222241   3.060   3.625   4.216
 7433TIP3    H122242   3.106   3.545   4.240
 7433TIP3    H222243   3.111   3.663   4.145
 7434TIP3   OH222244   3.240   3.782   4.780
 7434TIP3    H122245   3.195   3.845   4.723
 7434TIP3    H222246   3.258   3.832   4.860
 7435TIP3   OH222247   3.300   3.965   4.987
 7435TIP3    H122248   3.239   3.985   5.058
 7435TIP3    H222249   3.333   4.051   4.959
 7436TIP3   OH222250   1.906   3.680   5.802
 7436TIP3    H122251   2.001   3.674   5.814
 7436TIP3    H222252   1.872   3.597   5.837
 7437TIP3   OH222253   3.745   3.571   5.542
 7437TIP3    H122254   3.811   3.511   5.510
 7437TIP3    H222255   3.717   3.621   5.464
 7438TIP3   OH222256   3.184   3.388   4.293
 7438TIP3    H122257   3.225   3.378   4.379
 7438TIP3    H222258   3.117   3.319   4.291
 7439TIP3   OH222259   1.891   3.382   5.123
 7439TIP3    H122260   1.944   3.302   5.132
 7439TIP3    H222261   1.955   3.453   5.125
 7440TIP3   OH222262   1.669   3.641   5.218
 7440TIP3    H122263   1.722   3.648   5.138
 7440TIP3    H222264   1.678   3.727   5.260
 7441TIP3   OH222265   3.616   3.691   5.330
 7441TIP3    H122266   3.535   3.724   5.370
 7441TIP3    H222267   3.589   3.610   5.286
 7442TIP3   OH222268   3.233   3.306   3.940
 7442TIP3    H122269   3.281   3.243   3.885
 7442TIP3    H222270   3.292   3.380   3.949
 7443TIP3   OH222271   1.655   3.141   4.695
 7443TIP3    H122272   1.571   3.132   4.741
 7443TIP3    H222273   1.636   3.200   4.622
 7444TIP3   OH222274   2.796   4.879   4.202
 7444TIP3    H122275   2.857   4.877   4.128
 7444TIP3    H222276   2.832   4.946   4.261
 7445TIP3   OH222277   1.882   3.208   5.516
 7445TIP3    H122278   1.833   3.205   5.597
 7445TIP3    H222279   1.829   3.263   5.458
 7446TIP3   OH222280   1.918   4.661   5.588
 7446TIP3    H122281   1.824   4.647   5.579
 7446TIP3    H222282   1.937   4.641   5.680
 7447TIP3   OH222283   2.123   4.713   5.138
 7447TIP3    H122284   2.073   4.789   5.109
 7447TIP3    H222285   2.206   4.719   5.091
 7448TIP3   OH222286   2.524   4.948   5.279
 7448TIP3    H122287   2.559   4.939   5.367
 7448TIP3    H222288   2.590   4.999   5.232
 7449TIP3   OH222289   2.722   5.096   5.154
 7449TIP3    H122290   2.791   5.042   5.114
 7449TIP3    H222291   2.770   5.158   5.210
 7450TIP3   OH222292   3.535   3.424   5.248
 7450TIP3    H122293   3.448   3.406   5.214
 7450TIP3    H222294   3.581   3.340   5.244
 7451TIP3   OH222295   1.786   4.950   5.191
 7451TIP3    H122296   1.696   4.970   5.166
 7451TIP3    H222297   1.807   5.015   5.258
 7452TIP3   OH222298   2.015   4.945   5.038
 7452TIP3    H122299   1.932   4.948   5.086
 7452TIP3    H222300   1.992   4.970   4.948
 7453TIP3   OH222301   2.427   4.962   4.833
 7453TIP3    H122302   2.356   4.981   4.772
 7453TIP3    H222303   2.443   5.046   4.877
 7454TIP3   OH222304   2.691   4.881   4.862
 7454TIP3    H122305   2.599   4.907   4.850
 7454TIP3    H222306   2.741   4.953   4.824
 7455TIP3   OH222307   2.890   5.067   4.781
 7455TIP3    H122308   2.891   5.155   4.744
 7455TIP3    H222309   2.922   5.011   4.711
 7456TIP3   OH222310   1.691   4.737   4.912
 7456TIP3    H122311   1.714   4.706   4.999
 7456TIP3    H222312   1.763   4.707   4.856
 7457TIP3   OH222313   1.894   4.631   4.767
 7457TIP3    H122314   1.910   4.549   4.813
 7457TIP3    H222315   1.980   4.674   4.764
 7458TIP3   OH222316   2.163   4.722   4.767
 7458TIP3    H122317   2.197   4.649   4.715
 7458TIP3    H222318   2.216   4.722   4.846
 7459TIP3   OH222319   2.720   3.259   4.820
 7459TIP3    H122320   2.669   3.230   4.896
 7459TIP3    H222321   2.811   3.257   4.850
 7460TIP3   OH222322   3.334   3.342   4.517
 7460TIP3    H122323   3.414   3.294   4.498
 7460TIP3    H222324   3.363   3.430   4.538
 7461TIP3   OH222325   1.961   3.047   4.875
 7461TIP3    H122326   1.872   3.013   4.888
 7461TIP3    H222327   2.016   2.969   4.868
 7462TIP3   OH222328   1.751   2.943   4.514
 7462TIP3    H122329   1.795   2.993   4.446
 7462TIP3    H222330   1.726   3.008   4.580
 7463TIP3   OH222331   2.427   3.098   4.747
 7463TIP3    H122332   2.484   3.148   4.689
 7463TIP3    H222333   2.459   3.120   4.835
 7464TIP3   OH222334   2.994   3.184   4.310
 7464TIP3    H122335   2.917   3.234   4.335
 7464TIP3    H222336   2.983   3.099   4.352
 7465TIP3   OH222337   1.459   4.534   4.294
 7465TIP3    H122338   1.379   4.499   4.255
 7465TIP3    H222339   1.463   4.625   4.264
 7466TIP3   OH222340   1.887   3.082   4.302
 7466TIP3    H122341   1.927   3.024   4.237
 7466TIP3    H222342   1.959   3.136   4.334
 7467TIP3   OH222343   2.385   3.260   4.400
 7467TIP3    H122344   2.452   3.222   4.457
 7467TIP3    H222345   2.395   3.355   4.411
 7468TIP3   OH222346   2.261   4.681   3.892
 7468TIP3    H122347   2.341   4.710   3.849
 7468TIP3    H222348   2.229   4.610   3.837
 7469TIP3   OH222349   2.961   4.845   3.984
 7469TIP3    H122350   2.961   4.749   3.980
 7469TIP3    H222351   2.919   4.872   3.902
 7470TIP3   OH222352   2.189   3.339   5.756
 7470TIP3    H122353   2.156   3.272   5.816
 7470TIP3    H222354   2.282   3.347   5.779
 7471TIP3   OH222355   2.438   3.342   5.879
 7471TIP3    H122356   2.516   3.322   5.828
 7471TIP3    H222357   2.433   3.271   5.944
 7472TIP3   OH222358   1.553   4.537   3.944
 7472TIP3    H122359   1.555   4.556   4.038
 7472TIP3    H222360   1.633   4.487   3.927
 7473TIP3   OH222361   3.258   3.422   5.667
 7473TIP3    H122362   3.275   3.394   5.757
 7473TIP3    H222363   3.344   3.419   5.624
 7474TIP3   OH222364   3.177   4.964   5.171
 7474TIP3    H122365   3.098   4.938   5.125
 7474TIP3    H222366   3.169   5.059   5.182
 7475TIP3   OH222367   4.393   5.076   4.026
 7475TIP3    H122368   4.415   5.011   3.960
 7475TIP3    H222369   4.416   5.036   4.109
 7476TIP3   OH222370   5.307   3.889   4.360
 7476TIP3    H122371   5.318   3.973   4.406
 7476TIP3    H222372   5.353   3.901   4.277
 7477TIP3   OH222373   4.010   3.730   4.315
 7477TIP3    H122374   3.982   3.801   4.257
 7477TIP3    H222375   3.962   3.653   4.284
 7478TIP3   OH222376   4.742   3.799   3.976
 7478TIP3    H122377   4.738   3.870   4.040
 7478TIP3    H222378   4.781   3.839   3.899
 7479TIP3   OH222379   5.349   4.115   4.515
 7479TIP3    H122380   5.270   4.160   4.488
 7479TIP3    H222381   5.373   4.157   4.598
 7480TIP3   OH222382   3.997   3.713   4.793
 7480TIP3    H122383   3.956   3.748   4.715
 7480TIP3    H222384   3.936   3.734   4.864
 7481TIP3   OH222385   4.360   4.584   3.747
 7481TIP3    H122386   4.310   4.542   3.677
 7481TIP3    H222387   4.301   4.651   3.782
 7482TIP3   OH222388   4.906   3.791   4.275
 7482TIP3    H122389   4.852   3.714   4.259
 7482TIP3    H222390   4.960   3.800   4.196
 7483TIP3   OH222391   3.897   3.809   4.557
 7483TIP3    H122392   3.936   3.896   4.568
 7483TIP3    H222393   3.933   3.776   4.475
 7484TIP3   OH222394   3.926   4.691   4.676
 7484TIP3    H122395   3.918   4.779   4.638
 7484TIP3    H222396   3.849   4.683   4.732
 7485TIP3   OH222397   3.326   4.411   3.898
 7485TIP3    H122398   3.297   4.435   3.810
 7485TIP3    H222399   3.352   4.493   3.938
 7486TIP3   OH222400   4.773   4.914   4.165
 7486TIP3    H122401   4.683   4.894   4.189
 7486TIP3    H222402   4.768   4.996   4.117
 7487TIP3   OH222403   5.086   3.788   4.506
 7487TIP3    H122404   5.017   3.786   4.439
 7487TIP3    H222405   5.164   3.817   4.459
 7488TIP3   OH222406   4.336   3.401   4.524
 7488TIP3    H122407   4.327   3.309   4.550
 7488TIP3    H222408   4.261   3.444   4.564
 7489TIP3   OH222409   4.469   4.927   3.800
 7489TIP3    H122410   4.522   4.849   3.783
 7489TIP3    H222411   4.526   5.000   3.776
 7490TIP3   OH222412   4.607   4.694   3.745
 7490TIP3    H122413   4.524   4.647   3.735
 7490TIP3    H222414   4.643   4.661   3.827
 7491TIP3   OH222415   5.020   4.797   4.511
 7491TIP3    H122416   4.975   4.730   4.460
 7491TIP3    H222417   4.995   4.880   4.470
 7492TIP3   OH222418   4.311   4.221   3.766
 7492TIP3    H122419   4.225   4.263   3.770
 7492TIP3    H222420   4.324   4.203   3.673
 7493TIP3   OH222421   4.254   3.978   3.476
 7493TIP3    H122422   4.322   4.021   3.528
 7493TIP3    H222423   4.301   3.918   3.418
 7494TIP3   OH222424   4.587   4.301   3.761
 7494TIP3    H122425   4.495   4.312   3.783
 7494TIP3    H222426   4.628   4.274   3.843
 7495TIP3   OH222427   4.514   4.893   4.253
 7495TIP3    H122428   4.506   4.971   4.307
 7495TIP3    H222429   4.490   4.821   4.311
 7496TIP3   OH222430   4.139   4.785   4.826
 7496TIP3    H122431   4.079   4.844   4.872
 7496TIP3    H222432   4.082   4.731   4.771
 7497TIP3   OH222433   4.489   4.124   3.554
 7497TIP3    H122434   4.535   4.191   3.607
 7497TIP3    H222435   4.510   4.147   3.464
 7498TIP3   OH222436   3.901   4.343   4.955
 7498TIP3    H122437   3.905   4.436   4.981
 7498TIP3    H222438   3.809   4.320   4.964
 7499TIP3   OH222439   4.216   4.815   3.811
 7499TIP3    H122440   4.299   4.862   3.819
 7499TIP3    H222441   4.158   4.876   3.765
 7500TIP3   OH222442   3.930   4.949   4.910
 7500TIP3    H122443   3.906   4.959   4.818
 7500TIP3    H222444   3.847   4.937   4.955
 7501TIP3   OH222445   4.980   3.372   3.606
 7501TIP3    H122446   4.905   3.391   3.663
 7501TIP3    H222447   4.986   3.449   3.549
 7502TIP3   OH222448   3.765   4.166   3.923
 7502TIP3    H122449   3.672   4.170   3.901
 7502TIP3    H222450   3.771   4.098   3.990
 7503TIP3   OH222451   4.801   4.729   3.159
 7503TIP3    H122452   4.792   4.824   3.145
 7503TIP3    H222453   4.893   4.711   3.144
 7504TIP3   OH222454   3.532   4.489   4.861
 7504TIP3    H122455   3.473   4.453   4.794
 7504TIP3    H222456   3.571   4.413   4.903
 7505TIP3   OH222457   3.352   4.725   4.499
 7505TIP3    H122458   3.435   4.723   4.547
 7505TIP3    H222459   3.306   4.801   4.535
 7506TIP3   OH222460   5.234   5.171   4.564
 7506TIP3    H122461   5.243   5.076   4.572
 7506TIP3    H222462   5.153   5.191   4.610
 7507TIP3   OH222463   4.327   4.929   4.685
 7507TIP3    H122464   4.319   5.020   4.714
 7507TIP3    H222465   4.261   4.882   4.736
 7508TIP3   OH222466   4.109   5.035   3.643
 7508TIP3    H122467   4.062   5.016   3.561
 7508TIP3    H222468   4.074   5.119   3.672
 7509TIP3   OH222469   3.555   4.896   4.035
 7509TIP3    H122470   3.600   4.886   4.119
 7509TIP3    H222471   3.502   4.817   4.027
 7510TIP3   OH222472   4.315   4.965   3.269
 7510TIP3    H122473   4.368   4.892   3.236
 7510TIP3    H222474   4.348   4.981   3.357
 7511TIP3   OH222475   4.362   5.013   3.539
 7511TIP3    H122476   4.275   5.016   3.579
 7511TIP3    H222477   4.419   4.981   3.609
 7512TIP3   OH222478   5.106   4.263   4.842
 7512TIP3    H122479   5.015   4.289   4.831
 7512TIP3    H222480   5.107   4.170   4.820
 7513TIP3   OH222481   3.707   4.701   4.840
 7513TIP3    H122482   3.762   4.690   4.918
 7513TIP3    H222483   3.643   4.630   4.845
 7514TIP3   OH222484   4.104   3.499   4.646
 7514TIP3    H122485   4.019   3.468   4.613
 7514TIP3    H222486   4.082   3.581   4.692
 7515TIP3   OH222487   4.655   3.580   4.830
 7515TIP3    H122488   4.723   3.580   4.897
 7515TIP3    H222489   4.573   3.585   4.879
 7516TIP3   OH222490   4.531   4.167   3.282
 7516TIP3    H122491   4.510   4.142   3.192
 7516TIP3    H222492   4.621   4.199   3.277
 7517TIP3   OH222493   4.279   3.535   3.631
 7517TIP3    H122494   4.244   3.544   3.720
 7517TIP3    H222495   4.227   3.466   3.592
 7518TIP3   OH222496   4.040   4.042   4.610
 7518TIP3    H122497   3.992   4.058   4.692
 7518TIP3    H222498   4.038   4.126   4.565
 7519TIP3   OH222499   3.902   3.899   4.122
 7519TIP3    H122500   3.816   3.866   4.150
 7519TIP3    H222501   3.914   3.861   4.035
 7520TIP3   OH222502   4.403   3.985   3.890
 7520TIP3    H122503   4.372   4.070   3.856
 7520TIP3    H222504   4.464   3.954   3.823
 7521TIP3   OH222505   4.586   4.274   4.985
 7521TIP3    H122506   4.558   4.203   5.043
 7521TIP3    H222507   4.658   4.237   4.934
 7522TIP3   OH222508   3.896   4.045   4.848
 7522TIP3    H122509   3.901   4.114   4.914
 7522TIP3    H222510   3.872   3.967   4.897
 7523TIP3   OH222511   3.494   3.597   4.409
 7523TIP3    H122512   3.559   3.599   4.480
 7523TIP3    H222513   3.515   3.517   4.360
 7524TIP3   OH222514   3.394   3.535   3.956
 7524TIP3    H122515   3.448   3.571   3.886
 7524TIP3    H222516   3.329   3.603   3.974
 7525TIP3   OH222517   4.277   3.757   4.235
 7525TIP3    H122518   4.193   3.746   4.279
 7525TIP3    H222519   4.337   3.700   4.284
 7526TIP3   OH222520   3.682   3.752   4.202
 7526TIP3    H122521   3.603   3.728   4.252
 7526TIP3    H222522   3.734   3.671   4.201
 7527TIP3   OH222523   3.959   3.783   3.875
 7527TIP3    H122524   4.052   3.794   3.896
 7527TIP3    H222525   3.958   3.775   3.779
 7528TIP3   OH222526   4.940   5.499   4.658
 7528TIP3    H122527   4.936   5.517   4.564
 7528TIP3    H222528   5.019   5.546   4.687
 7529TIP3   OH222529   3.878   4.609   5.061
 7529TIP3    H122530   3.961   4.627   5.105
 7529TIP3    H222531   3.812   4.613   5.130
 7530TIP3   OH222532   3.849   3.531   4.200
 7530TIP3    H122533   3.823   3.451   4.245
 7530TIP3    H222534   3.864   3.504   4.109
 7531TIP3   OH222535   4.299   3.950   4.637
 7531TIP3    H122536   4.209   3.975   4.617
 7531TIP3    H222537   4.347   4.033   4.638
 7532TIP3   OH222538   4.052   4.339   3.740
 7532TIP3    H122539   3.986   4.277   3.708
 7532TIP3    H222540   4.024   4.359   3.829
 7533TIP3   OH222541   4.481   3.680   3.522
 7533TIP3    H122542   4.409   3.633   3.565
 7533TIP3    H222543   4.510   3.744   3.587
 7534TIP3   OH222544   4.469   4.674   4.699
 7534TIP3    H122545   4.491   4.654   4.790
 7534TIP3    H222546   4.426   4.759   4.703
 7535TIP3   OH222547   4.574   3.889   3.684
 7535TIP3    H122548   4.669   3.888   3.696
 7535TIP3    H222549   4.557   3.968   3.631
 7536TIP3   OH222550   4.188   4.482   3.551
 7536TIP3    H122551   4.143   4.566   3.548
 7536TIP3    H222552   4.138   4.430   3.614
 7537TIP3   OH222553   3.633   4.275   4.998
 7537TIP3    H122554   3.642   4.255   5.092
 7537TIP3    H222555   3.563   4.217   4.968
 7538TIP3   OH222556   4.355   4.420   5.017
 7538TIP3    H122557   4.288   4.358   4.988
 7538TIP3    H222558   4.438   4.378   4.994
 7539TIP3   OH222559   4.592   4.994   4.603
 7539TIP3    H122560   4.502   4.960   4.608
 7539TIP3    H222561   4.617   5.006   4.695
 7540TIP3   OH222562   4.985   3.999   3.513
 7540TIP3    H122563   4.930   3.960   3.444
 7540TIP3    H222564   5.003   4.088   3.482
 7541TIP3   OH222565   5.263   4.895   4.582
 7541TIP3    H122566   5.171   4.871   4.587
 7541TIP3    H222567   5.295   4.853   4.502
 7542TIP3   OH222568   4.727   4.814   3.430
 7542TIP3    H122569   4.692   4.751   3.494
 7542TIP3    H222570   4.741   4.763   3.351
 7543TIP3   OH222571   3.809   4.648   4.027
 7543TIP3    H122572   3.836   4.727   3.980
 7543TIP3    H222573   3.714   4.643   4.014
 7544TIP3   OH222574   3.414   3.957   3.742
 7544TIP3    H122575   3.462   4.037   3.763
 7544TIP3    H222576   3.334   3.962   3.795
 7545TIP3   OH222577   3.934   4.393   3.988
 7545TIP3    H122578   3.891   4.478   3.999
 7545TIP3    H222579   3.863   4.331   3.978
 7546TIP3   OH222580   4.145   5.000   4.472
 7546TIP3    H122581   4.180   5.078   4.430
 7546TIP3    H222582   4.218   4.965   4.524
 7547TIP3   OH222583   3.786   4.902   3.884
 7547TIP3    H122584   3.700   4.913   3.926
 7547TIP3    H222585   3.824   4.989   3.886
 7548TIP3   OH222586   4.449   4.676   4.419
 7548TIP3    H122587   4.460   4.670   4.514
 7548TIP3    H222588   4.418   4.589   4.393
 7549TIP3   OH222589   4.503   4.530   3.312
 7549TIP3    H122590   4.548   4.497   3.390
 7549TIP3    H222591   4.412   4.500   3.323
 7550TIP3   OH222592   4.753   5.185   4.497
 7550TIP3    H122593   4.687   5.119   4.519
 7550TIP3    H222594   4.715   5.232   4.422
 7551TIP3   OH222595   4.795   5.006   3.126
 7551TIP3    H122596   4.805   5.064   3.050
 7551TIP3    H222597   4.729   5.049   3.181
 7552TIP3   OH222598   3.820   3.807   4.993
 7552TIP3    H122599   3.725   3.816   5.004
 7552TIP3    H222600   3.849   3.758   5.070
 7553TIP3   OH222601   4.659   4.427   3.517
 7553TIP3    H122602   4.638   4.399   3.606
 7553TIP3    H222603   4.753   4.446   3.519
 7554TIP3   OH222604   3.569   4.900   4.651
 7554TIP3    H122605   3.618   4.841   4.709
 7554TIP3    H222606   3.589   4.988   4.683
 7555TIP3   OH222607   3.845   4.516   3.333
 7555TIP3    H122608   3.855   4.425   3.307
 7555TIP3    H222609   3.825   4.512   3.427
 7556TIP3   OH222610   3.786   4.531   3.605
 7556TIP3    H122611   3.861   4.505   3.659
 7556TIP3    H222612   3.784   4.627   3.612
 7557TIP3   OH222613   3.509   4.213   3.815
 7557TIP3    H122614   3.445   4.262   3.866
 7557TIP3    H222615   3.529   4.269   3.740
 7558TIP3   OH222616   4.573   3.603   3.887
 7558TIP3    H122617   4.521   3.648   3.820
 7558TIP3    H222618   4.630   3.671   3.923
 7559TIP3   OH222619   4.054   4.716   3.545
 7559TIP3    H122620   3.971   4.742   3.585
 7559TIP3    H222621   4.080   4.790   3.491
 7560TIP3   OH222622   4.224   3.793   3.968
 7560TIP3    H122623   4.284   3.863   3.941
 7560TIP3    H222624   4.238   3.785   4.062
 7561TIP3   OH222625   4.400   3.483   4.069
 7561TIP3    H122626   4.420   3.530   4.150
 7561TIP3    H222627   4.457   3.522   4.003
 7562TIP3   OH222628   3.807   4.803   3.628
 7562TIP3    H122629   3.787   4.874   3.568
 7562TIP3    H222630   3.797   4.841   3.715
 7563TIP3   OH222631   3.901   3.505   3.920
 7563TIP3    H122632   3.891   3.597   3.898
 7563TIP3    H222633   3.994   3.486   3.902
 7564TIP3   OH222634   5.084   3.995   4.744
 7564TIP3    H122635   5.034   3.946   4.809
 7564TIP3    H222636   5.098   3.933   4.672
 7565TIP3   OH222637   3.543   4.392   3.602
 7565TIP3    H122638   3.613   4.457   3.610
 7565TIP3    H222639   3.577   4.330   3.537
 7566TIP3   OH222640   3.446   3.683   3.710
 7566TIP3    H122641   3.433   3.774   3.736
 7566TIP3    H222642   3.359   3.653   3.683
 7567TIP3   OH222643   4.778   5.173   4.064
 7567TIP3    H122644   4.736   5.223   3.994
 7567TIP3    H222645   4.872   5.187   4.050
 7568TIP3   OH222646   3.845   3.413   4.596
 7568TIP3    H122647   3.820   3.380   4.509
 7568TIP3    H222648   3.835   3.337   4.654
 7569TIP3   OH222649   3.383   4.675   3.994
 7569TIP3    H122650   3.338   4.706   4.072
 7569TIP3    H222651   3.336   4.716   3.921
 7570TIP3   OH222652   3.576   5.209   5.068
 7570TIP3    H122653   3.657   5.218   5.118
 7570TIP3    H222654   3.567   5.115   5.053
 7571TIP3   OH222655   4.036   5.116   5.103
 7571TIP3    H122656   4.127   5.090   5.115
 7571TIP3    H222657   4.004   5.060   5.032
 7572TIP3   OH222658   4.001   4.715   3.224
 7572TIP3    H122659   3.953   4.646   3.269
 7572TIP3    H222660   4.076   4.671   3.184
 7573TIP3   OH222661   4.658   5.048   4.866
 7573TIP3    H122662   4.672   4.979   4.931
 7573TIP3    H222663   4.731   5.109   4.879
 7574TIP3   OH222664   4.449   4.753   3.155
 7574TIP3    H122665   4.485   4.686   3.213
 7574TIP3    H222666   4.508   4.753   3.079
 7575TIP3   OH222667   3.680   4.606   5.256
 7575TIP3    H122668   3.704   4.514   5.267
 7575TIP3    H222669   3.593   4.603   5.216
 7576TIP3   OH222670   3.677   4.208   3.449
 7576TIP3    H122671   3.731   4.185   3.525
 7576TIP3    H222672   3.739   4.223   3.378
 7577TIP3   OH222673   4.295   4.692   5.032
 7577TIP3    H122674   4.248   4.710   4.951
 7577TIP3    H222675   4.325   4.602   5.023
 7578TIP3   OH222676   4.231   4.443   3.284
 7578TIP3    H122677   4.206   4.456   3.376
 7578TIP3    H222678   4.219   4.349   3.270
 7579TIP3   OH222679   3.793   4.352   5.254
 7579TIP3    H122680   3.871   4.317   5.212
 7579TIP3    H222681   3.819   4.364   5.346
 7580TIP3   OH222682   3.858   4.156   3.658
 7580TIP3    H122683   3.828   4.141   3.748
 7580TIP3    H222684   3.900   4.073   3.633
 7581TIP3   OH222685   4.162   4.244   4.909
 7581TIP3    H122686   4.074   4.280   4.916
 7581TIP3    H222687   4.188   4.263   4.819
 7582TIP3   OH222688   3.986   3.927   3.572
 7582TIP3    H122689   3.967   3.834   3.559
 7582TIP3    H222690   4.075   3.938   3.539
 7583TIP3   OH222691   4.662   4.602   5.015
 7583TIP3    H122692   4.728   4.556   4.963
 7583TIP3    H222693   4.648   4.545   5.091
 7584TIP3   OH222694   4.783   4.234   3.175
 7584TIP3    H122695   4.822   4.193   3.097
 7584TIP3    H222696   4.758   4.322   3.145
 7585TIP3   OH222697   4.259   4.012   5.028
 7585TIP3    H122698   4.254   3.934   4.972
 7585TIP3    H222699   4.225   4.083   4.974
 7586TIP3   OH222700   4.254   3.789   4.854
 7586TIP3    H122701   4.281   3.835   4.774
 7586TIP3    H222702   4.164   3.762   4.836
 7587TIP3   OH222703   4.263   4.301   4.659
 7587TIP3    H122704   4.338   4.355   4.635
 7587TIP3    H222705   4.207   4.303   4.581
 7588TIP3   OH222706   4.900   4.275   5.162
 7588TIP3    H122707   4.867   4.211   5.099
 7588TIP3    H222708   4.959   4.331   5.111
 7589TIP3   OH222709   4.899   4.567   4.840
 7589TIP3    H122710   4.845   4.632   4.795
 7589TIP3    H222711   4.984   4.572   4.797
 7590TIP3   OH222712   4.142   4.089   5.270
 7590TIP3    H122713   4.076   4.022   5.290
 7590TIP3    H222714   4.171   4.067   5.181
 7591TIP3   OH222715   4.388   3.558   4.925
 7591TIP3    H122716   4.346   3.640   4.901
 7591TIP3    H222717   4.321   3.491   4.911
 7592TIP3   OH222718   4.522   4.042   5.121
 7592TIP3    H122719   4.509   4.024   5.214
 7592TIP3    H222720   4.437   4.023   5.080
 7593TIP3   OH222721   4.792   4.068   5.016
 7593TIP3    H122722   4.708   4.036   5.048
 7593TIP3    H222723   4.856   4.006   5.052
 7594TIP3   OH222724   5.014   3.948   5.145
 7594TIP3    H122725   5.020   3.853   5.155
 7594TIP3    H222726   4.999   3.980   5.234
 7595TIP3   OH222727   3.986   3.863   5.331
 7595TIP3    H122728   3.986   3.774   5.293
 7595TIP3    H222729   4.023   3.852   5.418
 7596TIP3   OH222730   4.453   3.537   5.190
 7596TIP3    H122731   4.523   3.473   5.183
 7596TIP3    H222732   4.422   3.550   5.101
 7597TIP3   OH222733   4.542   3.754   5.335
 7597TIP3    H122734   4.510   3.683   5.280
 7597TIP3    H222735   4.472   3.820   5.332
 7598TIP3   OH222736   3.803   5.009   3.443
 7598TIP3    H122737   3.892   4.990   3.413
 7598TIP3    H222738   3.763   5.055   3.369
 7599TIP3   OH222739   3.269   4.401   3.606
 7599TIP3    H122740   3.364   4.408   3.606
 7599TIP3    H222741   3.251   4.313   3.572
 7600TIP3   OH222742   3.174   4.986   4.079
 7600TIP3    H122743   3.107   4.936   4.033
 7600TIP3    H222744   3.219   4.922   4.135
 7601TIP3   OH222745   3.324   4.817   4.239
 7601TIP3    H122746   3.313   4.753   4.309
 7601TIP3    H222747   3.376   4.887   4.278
 7602TIP3   OH222748   5.049   5.224   4.061
 7602TIP3    H122749   5.067   5.243   4.154
 7602TIP3    H222750   5.092   5.295   4.014
 7603TIP3   OH222751   5.074   5.251   4.340
 7603TIP3    H122752   5.025   5.169   4.344
 7603TIP3    H222753   5.145   5.240   4.403
 7604TIP3   OH222754   5.129   4.947   4.905
 7604TIP3    H122755   5.055   4.954   4.966
 7604TIP3    H222756   5.173   5.032   4.911
 7605TIP3   OH222757   4.941   4.473   3.524
 7605TIP3    H122758   4.985   4.540   3.471
 7605TIP3    H222759   4.987   4.474   3.608
 7606TIP3   OH222760   5.152   4.713   4.169
 7606TIP3    H122761   5.157   4.631   4.120
 7606TIP3    H222762   5.135   4.779   4.101
 7607TIP3   OH222763   4.931   5.016   4.366
 7607TIP3    H122764   4.862   5.063   4.412
 7607TIP3    H222765   4.886   4.974   4.292
 7608TIP3   OH222766   4.981   4.242   3.373
 7608TIP3    H122767   4.908   4.235   3.312
 7608TIP3    H222768   4.963   4.321   3.424
 7609TIP3   OH222769   4.836   3.908   3.307
 7609TIP3    H122770   4.802   3.944   3.225
 7609TIP3    H222771   4.824   3.813   3.298
 7610TIP3   OH222772   5.145   4.598   4.717
 7610TIP3    H122773   5.209   4.530   4.694
 7610TIP3    H222774   5.143   4.655   4.640
 7611TIP3   OH222775   5.314   4.375   4.704
 7611TIP3    H122776   5.242   4.338   4.755
 7611TIP3    H222777   5.391   4.325   4.732
 7612TIP3   OH222778   4.785   3.640   3.257
 7612TIP3    H122779   4.857   3.610   3.312
 7612TIP3    H222780   4.712   3.581   3.278
 7613TIP3   OH222781   4.851   3.882   3.729
 7613TIP3    H122782   4.902   3.801   3.742
 7613TIP3    H222783   4.900   3.931   3.664
 7614TIP3   OH222784   5.105   4.224   4.428
 7614TIP3    H122785   5.027   4.214   4.482
 7614TIP3    H222786   5.073   4.249   4.342
 7615TIP3   OH222787   3.728   3.956   5.316
 7615TIP3    H122788   3.822   3.935   5.318
 7615TIP3    H222789   3.685   3.871   5.325
 7616TIP3   OH222790   5.557   3.821   5.030
 7616TIP3    H122791   5.620   3.762   4.989
 7616TIP3    H222792   5.519   3.870   4.958
 7617TIP3   OH222793   4.985   3.647   3.793
 7617TIP3    H122794   5.032   3.641   3.876
 7617TIP3    H222795   4.921   3.575   3.796
 7618TIP3   OH222796   3.683   3.637   4.616
 7618TIP3    H122797   3.739   3.559   4.621
 7618TIP3    H222798   3.743   3.708   4.595
 7619TIP3   OH222799   5.399   3.944   4.840
 7619TIP3    H122800   5.335   3.981   4.901
 7619TIP3    H222801   5.349   3.879   4.790
 7620TIP3   OH222802   5.007   3.578   3.415
 7620TIP3    H122803   5.057   3.515   3.364
 7620TIP3    H222804   5.068   3.650   3.431
 7621TIP3   OH222805   3.451   3.402   4.191
 7621TIP3    H122806   3.363   3.390   4.226
 7621TIP3    H222807   3.439   3.459   4.115
 7622TIP3   OH222808   4.615   5.127   3.699
 7622TIP3    H122809   4.673   5.122   3.623
 7622TIP3    H222810   4.650   5.201   3.750
 7623TIP3   OH222811   3.680   3.444   5.005
 7623TIP3    H122812   3.630   3.446   5.086
 7623TIP3    H222813   3.628   3.495   4.943
 7624TIP3   OH222814   3.702   4.930   5.075
 7624TIP3    H122815   3.610   4.904   5.071
 7624TIP3    H222816   3.727   4.917   5.166
 7625TIP3   OH222817   3.916   4.966   4.626
 7625TIP3    H122818   3.868   5.043   4.595
 7625TIP3    H222819   4.000   4.971   4.580
 7626TIP3   OH222820   4.316   5.199   4.763
 7626TIP3    H122821   4.352   5.190   4.851
 7626TIP3    H222822   4.380   5.250   4.715
 7627TIP3   OH222823   4.512   5.352   4.641
 7627TIP3    H122824   4.577   5.296   4.599
 7627TIP3    H222825   4.564   5.412   4.696
 7628TIP3   OH222826   5.308   3.673   4.741
 7628TIP3    H122827   5.220   3.645   4.713
 7628TIP3    H222828   5.362   3.594   4.733
 7629TIP3   OH222829   3.581   5.206   4.678
 7629TIP3    H122830   3.490   5.225   4.654
 7629TIP3    H222831   3.603   5.273   4.743
 7630TIP3   OH222832   3.810   5.201   4.524
 7630TIP3    H122833   3.728   5.204   4.572
 7630TIP3    H222834   3.787   5.227   4.435
 7631TIP3   OH222835   4.217   5.224   4.322
 7631TIP3    H122836   4.147   5.243   4.259
 7631TIP3    H222837   4.231   5.308   4.367
 7632TIP3   OH222838   4.484   5.153   4.341
 7632TIP3    H122839   4.392   5.178   4.331
 7632TIP3    H222840   4.533   5.228   4.308
 7633TIP3   OH222841   4.686   5.336   4.267
 7633TIP3    H122842   4.687   5.422   4.227
 7633TIP3    H222843   4.716   5.277   4.198
 7634TIP3   OH222844   3.495   4.992   4.394
 7634TIP3    H122845   3.508   4.962   4.484
 7634TIP3    H222846   3.571   4.959   4.347
 7635TIP3   OH222847   3.710   4.884   4.267
 7635TIP3    H122848   3.741   4.800   4.303
 7635TIP3    H222849   3.790   4.937   4.259
 7636TIP3   OH222850   3.972   4.984   4.254
 7636TIP3    H122851   4.013   4.912   4.206
 7636TIP3    H222852   4.019   4.988   4.337
 7637TIP3   OH222853   4.463   3.565   4.332
 7637TIP3    H122854   4.426   3.514   4.404
 7637TIP3    H222855   4.557   3.564   4.347
 7638TIP3   OH222856   5.064   3.513   4.231
 7638TIP3    H122857   5.099   3.569   4.162
 7638TIP3    H222858   4.970   3.528   4.229
 7639TIP3   OH222859   5.164   3.643   4.008
 7639TIP3    H122860   5.220   3.569   3.983
 7639TIP3    H222861   5.218   3.720   3.990
 7640TIP3   OH222862   3.769   3.308   4.350
 7640TIP3    H122863   3.680   3.276   4.362
 7640TIP3    H222864   3.823   3.230   4.345
 7641TIP3   OH222865   3.579   3.213   4.025
 7641TIP3    H122866   3.608   3.268   3.953
 7641TIP3    H222867   3.540   3.274   4.088
 7642TIP3   OH222868   4.237   3.341   4.257
 7642TIP3    H122869   4.282   3.395   4.191
 7642TIP3    H222870   4.269   3.374   4.341
 7643TIP3   OH222871   4.787   3.544   4.222
 7643TIP3    H122872   4.748   3.522   4.137
 7643TIP3    H222873   4.770   3.467   4.276
 7644TIP3   OH222874   4.792   3.446   3.800
 7644TIP3    H122875   4.710   3.492   3.820
 7644TIP3    H222876   4.781   3.359   3.838
 7645TIP3   OH222877   3.252   4.789   3.780
 7645TIP3    H122878   3.168   4.756   3.747
 7645TIP3    H222879   3.257   4.879   3.748
 7646TIP3   OH222880   3.694   3.355   3.809
 7646TIP3    H122881   3.742   3.294   3.752
 7646TIP3    H222882   3.762   3.408   3.850
 7647TIP3   OH222883   4.184   3.535   3.890
 7647TIP3    H122884   4.239   3.488   3.953
 7647TIP3    H222885   4.190   3.626   3.916
 7648TIP3   OH222886   4.059   4.938   3.371
 7648TIP3    H122887   4.142   4.967   3.333
 7648TIP3    H222888   4.029   4.868   3.313
 7649TIP3   OH222889   4.767   5.082   3.470
 7649TIP3    H122890   4.759   4.987   3.460
 7649TIP3    H222891   4.721   5.118   3.394
 7650TIP3   OH222892   3.990   3.591   5.245
 7650TIP3    H122893   3.951   3.528   5.306
 7650TIP3    H222894   4.081   3.597   5.272
 7651TIP3   OH222895   4.237   3.593   5.370
 7651TIP3    H122896   4.313   3.567   5.319
 7651TIP3    H222897   4.227   3.524   5.436
 7652TIP3   OH222898   3.361   4.783   3.427
 7652TIP3    H122899   3.362   4.795   3.522
 7652TIP3    H222900   3.443   4.736   3.409
 7653TIP3   OH222901   5.065   3.677   5.157
 7653TIP3    H122902   5.080   3.650   5.248
 7653TIP3    H222903   5.152   3.674   5.117
 7654TIP3   OH222904   4.979   5.227   4.659
 7654TIP3    H122905   4.903   5.198   4.608
 7654TIP3    H222906   4.967   5.321   4.671
 7655TIP3   OH222907   6.497   4.911   3.496
 7655TIP3    H122908   6.492   4.838   3.558
 7655TIP3    H222909   6.526   4.986   3.549
 7656TIP3   OH222910   5.522   4.899   3.896
 7656TIP3    H122911   5.505   4.812   3.860
 7656TIP3    H222912   5.575   4.882   3.975
 7657TIP3   OH222913   6.158   5.293   3.534
 7657TIP3    H122914   6.212   5.256   3.464
 7657TIP3    H222915   6.194   5.257   3.615
 7658TIP3   OH222916   7.090   4.140   3.849
 7658TIP3    H122917   7.104   4.225   3.891
 7658TIP3    H222918   7.100   4.157   3.755
 7659TIP3   OH222919   5.818   3.965   3.828
 7659TIP3    H122920   5.779   4.032   3.771
 7659TIP3    H222921   5.780   3.883   3.797
 7660TIP3   OH222922   6.528   4.036   3.468
 7660TIP3    H122923   6.580   4.040   3.548
 7660TIP3    H222924   6.554   4.114   3.419
 7661TIP3   OH222925   7.144   4.363   4.013
 7661TIP3    H122926   7.057   4.399   4.001
 7661TIP3    H222927   7.173   4.398   4.098
 7662TIP3   OH222928   5.801   3.954   4.294
 7662TIP3    H122929   5.767   3.996   4.215
 7662TIP3    H222930   5.739   3.978   4.363
 7663TIP3   OH222931   6.145   4.828   3.226
 7663TIP3    H122932   6.143   4.733   3.214
 7663TIP3    H222933   6.117   4.842   3.316
 7664TIP3   OH222934   5.901   4.771   4.048
 7664TIP3    H122935   5.835   4.831   4.084
 7664TIP3    H222936   5.984   4.818   4.060
 7665TIP3   OH222937   6.690   4.078   3.686
 7665TIP3    H122938   6.642   4.068   3.768
 7665TIP3    H222939   6.743   4.156   3.698
 7666TIP3   OH222940   5.713   4.065   4.063
 7666TIP3    H122941   5.755   4.151   4.068
 7666TIP3    H222942   5.748   4.025   3.984
 7667TIP3   OH222943   5.716   4.954   4.138
 7667TIP3    H122944   5.713   5.047   4.113
 7667TIP3    H222945   5.645   4.944   4.201
 7668TIP3   OH222946   5.103   4.656   3.395
 7668TIP3    H122947   5.080   4.677   3.304
 7668TIP3    H222948   5.129   4.741   3.432
 7669TIP3   OH222949   6.531   5.160   3.648
 7669TIP3    H122950   6.438   5.151   3.667
 7669TIP3    H222951   6.537   5.242   3.598
 7670TIP3   OH222952   6.869   4.030   4.007
 7670TIP3    H122953   6.780   4.044   3.973
 7670TIP3    H222954   6.926   4.060   3.937
 7671TIP3   OH222955   6.143   3.664   4.006
 7671TIP3    H122956   6.133   3.572   4.030
 7671TIP3    H222957   6.066   3.706   4.044
 7672TIP3   OH222958   6.283   5.192   3.314
 7672TIP3    H122959   6.333   5.113   3.292
 7672TIP3    H222960   6.316   5.259   3.255
 7673TIP3   OH222961   6.401   4.959   3.240
 7673TIP3    H122962   6.329   4.898   3.225
 7673TIP3    H222963   6.442   4.929   3.321
 7674TIP3   OH222964   6.780   5.042   3.979
 7674TIP3    H122965   6.763   4.967   3.922
 7674TIP3    H222966   6.767   5.119   3.923
 7675TIP3   OH222967   6.097   4.563   3.199
 7675TIP3    H122968   6.004   4.540   3.195
 7675TIP3    H222969   6.141   4.488   3.160
 7676TIP3   OH222970   6.045   4.260   2.952
 7676TIP3    H122971   6.113   4.302   3.005
 7676TIP3    H222972   6.091   4.192   2.903
 7677TIP3   OH222973   6.968   4.708   3.847
 7677TIP3    H122974   6.882   4.750   3.845
 7677TIP3    H222975   7.002   4.719   3.759
 7678TIP3   OH222976   6.414   4.544   3.247
 7678TIP3    H122977   6.363   4.562   3.326
 7678TIP3    H222978   6.500   4.516   3.280
 7679TIP3   OH222979   6.677   4.558   4.152
 7679TIP3    H122980   6.662   4.642   4.194
 7679TIP3    H222981   6.604   4.548   4.092
 7680TIP3   OH222982   6.258   5.144   3.747
 7680TIP3    H122983   6.277   5.219   3.803
 7680TIP3    H222984   6.280   5.068   3.801
 7681TIP3   OH222985   5.934   5.046   4.302
 7681TIP3    H122986   5.880   5.106   4.354
 7681TIP3    H222987   5.871   4.993   4.253
 7682TIP3   OH222988   6.274   4.379   3.067
 7682TIP3    H122989   6.328   4.439   3.119
 7682TIP3    H222990   6.307   4.389   2.978
 7683TIP3   OH222991   5.697   4.613   4.438
 7683TIP3    H122992   5.696   4.705   4.464
 7683TIP3    H222993   5.605   4.587   4.437
 7684TIP3   OH222994   6.015   5.143   3.292
 7684TIP3    H122995   6.109   5.153   3.309
 7684TIP3    H222996   5.976   5.138   3.379
 7685TIP3   OH222997   5.731   5.207   4.396
 7685TIP3    H122998   5.700   5.225   4.308
 7685TIP3    H222999   5.652   5.192   4.447
 7686TIP3   OH223000   6.779   3.625   3.102
 7686TIP3    H123001   6.704   3.646   3.157
 7686TIP3    H223002   6.791   3.702   3.047
 7687TIP3   OH223003   5.535   4.360   3.399
 7687TIP3    H123004   5.452   4.398   3.371
 7687TIP3    H223005   5.530   4.360   3.495
 7688TIP3   OH223006   6.606   4.999   2.659
 7688TIP3    H123007   6.601   5.092   2.638
 7688TIP3    H223008   6.694   4.973   2.633
 7689TIP3   OH223009   5.340   4.754   4.361
 7689TIP3    H123010   5.272   4.736   4.296
 7689TIP3    H223011   5.364   4.668   4.395
 7690TIP3   OH223012   5.156   4.967   4.005
 7690TIP3    H123013   5.243   4.993   4.036
 7690TIP3    H223014   5.099   5.040   4.029
 7691TIP3   OH223015   7.004   5.387   4.047
 7691TIP3    H123016   7.010   5.293   4.063
 7691TIP3    H223017   6.925   5.414   4.094
 7692TIP3   OH223018   6.105   5.199   4.146
 7692TIP3    H123019   6.105   5.287   4.182
 7692TIP3    H223020   6.049   5.149   4.205
 7693TIP3   OH223021   5.858   5.316   3.079
 7693TIP3    H123022   5.781   5.310   3.022
 7693TIP3    H223023   5.853   5.404   3.116
 7694TIP3   OH223024   5.350   5.138   3.495
 7694TIP3    H123025   5.394   5.126   3.579
 7694TIP3    H223026   5.305   5.055   3.479
 7695TIP3   OH223027   6.913   4.512   4.316
 7695TIP3    H123028   6.834   4.528   4.264
 7695TIP3    H223029   6.932   4.419   4.304
 7696TIP3   OH223030   5.514   4.961   4.320
 7696TIP3    H123031   5.562   4.959   4.403
 7696TIP3    H223032   5.450   4.891   4.328
 7697TIP3   OH223033   5.898   3.747   4.131
 7697TIP3    H123034   5.813   3.724   4.093
 7697TIP3    H223035   5.881   3.827   4.181
 7698TIP3   OH223036   6.421   3.898   4.316
 7698TIP3    H123037   6.481   3.892   4.390
 7698TIP3    H223038   6.337   3.870   4.351
 7699TIP3   OH223039   6.682   4.294   4.252
 7699TIP3    H123040   6.636   4.294   4.336
 7699TIP3    H223041   6.663   4.380   4.215
 7700TIP3   OH223042   6.347   4.375   2.794
 7700TIP3    H123043   6.302   4.377   2.709
 7700TIP3    H223044   6.426   4.427   2.781
 7701TIP3   OH223045   6.061   3.801   3.121
 7701TIP3    H123046   6.026   3.810   3.209
 7701TIP3    H223047   6.022   3.720   3.088
 7702TIP3   OH223048   5.843   4.305   4.107
 7702TIP3    H123049   5.797   4.311   4.191
 7702TIP3    H223050   5.889   4.389   4.100
 7703TIP3   OH223051   5.700   4.141   3.658
 7703TIP3    H123052   5.705   4.236   3.666
 7703TIP3    H223053   5.705   4.124   3.564
 7704TIP3   OH223054   6.390   4.511   4.451
 7704TIP3    H123055   6.366   4.440   4.511
 7704TIP3    H223056   6.482   4.528   4.471
 7705TIP3   OH223057   5.689   4.293   4.335
 7705TIP3    H123058   5.707   4.358   4.403
 7705TIP3    H223059   5.665   4.214   4.383
 7706TIP3   OH223060   5.716   3.780   3.068
 7706TIP3    H123061   5.708   3.779   3.163
 7706TIP3    H223062   5.637   3.825   3.037
 7707TIP3   OH223063   5.174   3.802   3.454
 7707TIP3    H123064   5.220   3.840   3.379
 7707TIP3    H223065   5.120   3.873   3.487
 7708TIP3   OH223066   6.457   4.511   3.995
 7708TIP3    H123067   6.427   4.495   3.905
 7708TIP3    H223068   6.394   4.465   4.050
 7709TIP3   OH223069   6.082   3.929   3.719
 7709TIP3    H123070   6.001   3.949   3.765
 7709TIP3    H223071   6.151   3.957   3.779
 7710TIP3   OH223072   5.751   4.050   3.389
 7710TIP3    H123073   5.829   4.091   3.352
 7710TIP3    H223074   5.686   4.056   3.319
 7711TIP3   OH223075   6.566   4.037   3.931
 7711TIP3    H123076   6.529   4.092   4.000
 7711TIP3    H223077   6.493   3.982   3.902
 7712TIP3   OH223078   5.609   4.063   3.155
 7712TIP3    H123079   5.547   4.014   3.100
 7712TIP3    H223080   5.664   4.110   3.093
 7713TIP3   OH223081   6.738   5.749   4.143
 7713TIP3    H123082   6.734   5.768   4.049
 7713TIP3    H223083   6.817   5.793   4.172
 7714TIP3   OH223084   5.676   4.870   4.551
 7714TIP3    H123085   5.758   4.888   4.597
 7714TIP3    H223086   5.608   4.879   4.618
 7715TIP3   OH223087   5.696   3.746   3.719
 7715TIP3    H123088   5.638   3.689   3.769
 7715TIP3    H223089   5.708   3.701   3.636
 7716TIP3   OH223090   6.099   4.195   4.158
 7716TIP3    H123091   6.023   4.231   4.112
 7716TIP3    H223092   6.167   4.262   4.148
 7717TIP3   OH223093   5.788   4.641   3.230
 7717TIP3    H123094   5.734   4.563   3.220
 7717TIP3    H223095   5.775   4.668   3.320
 7718TIP3   OH223096   6.729   4.840   3.796
 7718TIP3    H123097   6.768   4.889   3.724
 7718TIP3    H223098   6.648   4.804   3.760
 7719TIP3   OH223099   6.271   3.929   3.001
 7719TIP3    H123100   6.198   3.890   3.050
 7719TIP3    H223101   6.310   3.992   3.062
 7720TIP3   OH223102   6.235   4.921   4.176
 7720TIP3    H123103   6.298   4.900   4.246
 7720TIP3    H223104   6.212   5.013   4.192
 7721TIP3   OH223105   6.382   4.124   3.159
 7721TIP3    H123106   6.473   4.140   3.185
 7721TIP3    H223107   6.346   4.212   3.142
 7722TIP3   OH223108   5.937   4.739   3.016
 7722TIP3    H123109   6.005   4.788   3.063
 7722TIP3    H223110   5.882   4.702   3.085
 7723TIP3   OH223111   5.435   4.544   4.518
 7723TIP3    H123112   5.483   4.569   4.597
 7723TIP3    H223113   5.383   4.468   4.545
 7724TIP3   OH223114   6.160   4.666   4.494
 7724TIP3    H123115   6.091   4.606   4.464
 7724TIP3    H223116   6.241   4.626   4.465
 7725TIP3   OH223117   6.387   5.216   4.091
 7725TIP3    H123118   6.292   5.209   4.092
 7725TIP3    H223119   6.411   5.250   4.177
 7726TIP3   OH223120   6.789   4.249   2.983
 7726TIP3    H123121   6.737   4.202   2.918
 7726TIP3    H223122   6.789   4.340   2.952
 7727TIP3   OH223123   7.027   5.104   4.079
 7727TIP3    H123124   6.933   5.094   4.066
 7727TIP3    H223125   7.065   5.083   3.993
 7728TIP3   OH223126   6.525   5.069   2.926
 7728TIP3    H123127   6.497   5.000   2.987
 7728TIP3    H223128   6.543   5.022   2.844
 7729TIP3   OH223129   6.488   4.713   3.698
 7729TIP3    H123130   6.418   4.676   3.644
 7729TIP3    H223131   6.509   4.644   3.761
 7730TIP3   OH223132   5.210   4.226   3.218
 7730TIP3    H123133   5.258   4.306   3.240
 7730TIP3    H223134   5.134   4.227   3.277
 7731TIP3   OH223135   5.985   5.203   3.893
 7731TIP3    H123136   5.990   5.296   3.871
 7731TIP3    H223137   6.034   5.194   3.975
 7732TIP3   OH223138   5.546   5.217   3.310
 7732TIP3    H123139   5.478   5.189   3.371
 7732TIP3    H223140   5.589   5.290   3.355
 7733TIP3   OH223141   6.303   4.924   3.902
 7733TIP3    H123142   6.290   4.909   3.996
 7733TIP3    H223143   6.345   4.844   3.871
 7734TIP3   OH223144   6.276   4.815   2.809
 7734TIP3    H123145   6.326   4.782   2.884
 7734TIP3    H223146   6.195   4.765   2.811
 7735TIP3   OH223147   6.541   5.427   3.984
 7735TIP3    H123148   6.474   5.361   3.998
 7735TIP3    H223149   6.509   5.477   3.908
 7736TIP3   OH223150   6.602   5.272   2.615
 7736TIP3    H123151   6.618   5.331   2.541
 7736TIP3    H223152   6.532   5.313   2.664
 7737TIP3   OH223153   5.624   4.052   4.485
 7737TIP3    H123154   5.530   4.066   4.491
 7737TIP3    H223155   5.645   3.998   4.561
 7738TIP3   OH223156   6.449   4.708   3.006
 7738TIP3    H123157   6.431   4.666   3.090
 7738TIP3    H223158   6.544   4.715   3.004
 7739TIP3   OH223159   5.366   5.149   4.130
 7739TIP3    H123160   5.413   5.093   4.192
 7739TIP3    H223161   5.375   5.237   4.167
 7740TIP3   OH223162   5.635   4.764   2.822
 7740TIP3    H123163   5.648   4.673   2.797
 7740TIP3    H223164   5.622   4.761   2.917
 7741TIP3   OH223165   5.586   4.788   3.093
 7741TIP3    H123166   5.654   4.751   3.149
 7741TIP3    H223167   5.593   4.882   3.106
 7742TIP3   OH223168   5.303   4.479   3.299
 7742TIP3    H123169   5.241   4.528   3.353
 7742TIP3    H223170   5.326   4.539   3.229
 7743TIP3   OH223171   6.464   4.140   4.175
 7743TIP3    H123172   6.551   4.165   4.204
 7743TIP3    H223173   6.448   4.056   4.218
 7744TIP3   OH223174   6.361   3.857   3.357
 7744TIP3    H123175   6.330   3.910   3.284
 7744TIP3    H223176   6.418   3.916   3.407
 7745TIP3   OH223177   5.871   5.034   2.989
 7745TIP3    H123178   5.783   5.013   3.020
 7745TIP3    H223179   5.871   5.007   2.897
 7746TIP3   OH223180   6.315   4.375   4.198
 7746TIP3    H123181   6.342   4.415   4.281
 7746TIP3    H223182   6.364   4.294   4.193
 7747TIP3   OH223183   6.181   3.746   3.540
 7747TIP3    H123184   6.161   3.818   3.601
 7747TIP3    H223185   6.250   3.781   3.484
 7748TIP3   OH223186   5.622   5.061   3.099
 7748TIP3    H123187   5.610   5.129   3.032
 7748TIP3    H223188   5.595   5.103   3.180
 7749TIP3   OH223189   5.692   3.761   3.343
 7749TIP3    H123190   5.676   3.848   3.380
 7749TIP3    H223191   5.786   3.746   3.354
 7750TIP3   OH223192   6.947   4.241   4.230
 7750TIP3    H123193   6.852   4.246   4.240
 7750TIP3    H223194   6.960   4.192   4.149
 7751TIP3   OH223195   5.338   4.661   3.088
 7751TIP3    H123196   5.410   4.723   3.099
 7751TIP3    H223197   5.371   4.597   3.024
 7752TIP3   OH223198   5.246   3.947   3.231
 7752TIP3    H123199   5.263   4.041   3.237
 7752TIP3    H223200   5.183   3.938   3.160
 7753TIP3   OH223201   6.568   5.418   3.544
 7753TIP3    H123202   6.529   5.466   3.471
 7753TIP3    H223203   6.662   5.435   3.536
 7754TIP3   OH223204   5.621   3.679   4.098
 7754TIP3    H123205   5.599   3.645   4.011
 7754TIP3    H223206   5.622   3.602   4.154
 7755TIP3   OH223207   5.156   4.923   3.477
 7755TIP3    H123208   5.124   4.967   3.555
 7755TIP3    H223209   5.114   4.968   3.404
 7756TIP3   OH223210   5.361   5.459   4.549
 7756TIP3    H123211   5.444   5.460   4.597
 7756TIP3    H223212   5.335   5.367   4.548
 7757TIP3   OH223213   5.830   5.371   4.597
 7757TIP3    H123214   5.923   5.352   4.607
 7757TIP3    H223215   5.802   5.316   4.524
 7758TIP3   OH223216   5.809   4.956   2.731
 7758TIP3    H123217   5.753   4.883   2.760
 7758TIP3    H223218   5.876   4.914   2.677
 7759TIP3   OH223219   6.448   5.309   4.341
 7759TIP3    H123220   6.460   5.239   4.405
 7759TIP3    H223221   6.522   5.368   4.356
 7760TIP3   OH223222   6.214   5.030   2.626
 7760TIP3    H123223   6.249   4.978   2.698
 7760TIP3    H223224   6.280   5.022   2.557
 7761TIP3   OH223225   5.479   4.867   4.749
 7761TIP3    H123226   5.491   4.773   4.760
 7761TIP3    H223227   5.395   4.876   4.704
 7762TIP3   OH223228   5.467   4.470   2.939
 7762TIP3    H123229   5.517   4.447   3.017
 7762TIP3    H223230   5.532   4.480   2.870
 7763TIP3   OH223231   6.088   4.942   4.512
 7763TIP3    H123232   6.048   4.962   4.428
 7763TIP3    H223233   6.128   4.856   4.500
 7764TIP3   OH223234   6.025   4.684   2.764
 7764TIP3    H123235   5.984   4.698   2.849
 7764TIP3    H223236   6.013   4.590   2.746
 7765TIP3   OH223237   6.563   4.994   4.145
 7765TIP3    H123238   6.640   5.014   4.092
 7765TIP3    H223239   6.498   5.058   4.117
 7766TIP3   OH223240   5.598   4.605   4.736
 7766TIP3    H123241   5.681   4.592   4.691
 7766TIP3    H223242   5.621   4.624   4.827
 7767TIP3   OH223243   5.642   4.411   3.151
 7767TIP3    H123244   5.610   4.375   3.234
 7767TIP3    H223245   5.687   4.338   3.109
 7768TIP3   OH223246   5.941   4.486   4.406
 7768TIP3    H123247   5.858   4.533   4.416
 7768TIP3    H223248   5.966   4.500   4.315
 7769TIP3   OH223249   5.772   4.219   2.995
 7769TIP3    H123250   5.744   4.223   2.903
 7769TIP3    H223251   5.867   4.229   2.991
 7770TIP3   OH223252   6.456   4.861   4.496
 7770TIP3    H123253   6.520   4.821   4.437
 7770TIP3    H223254   6.453   4.802   4.572
 7771TIP3   OH223255   6.560   4.517   2.681
 7771TIP3    H123256   6.548   4.475   2.596
 7771TIP3    H223257   6.535   4.608   2.668
 7772TIP3   OH223258   6.053   4.263   4.527
 7772TIP3    H123259   6.051   4.183   4.473
 7772TIP3    H223260   6.016   4.330   4.470
 7773TIP3   OH223261   6.051   4.033   4.366
 7773TIP3    H123262   6.080   4.083   4.290
 7773TIP3    H223263   5.962   4.005   4.345
 7774TIP3   OH223264   6.020   4.535   4.151
 7774TIP3    H123265   6.108   4.520   4.118
 7774TIP3    H223266   5.986   4.607   4.098
 7775TIP3   OH223267   6.658   4.556   4.550
 7775TIP3    H123268   6.702   4.471   4.539
 7775TIP3    H223269   6.728   4.621   4.537
 7776TIP3   OH223270   6.689   4.809   4.302
 7776TIP3    H123271   6.636   4.873   4.254
 7776TIP3    H223272   6.778   4.821   4.268
 7777TIP3   OH223273   5.937   4.344   4.765
 7777TIP3    H123274   5.867   4.281   4.781
 7777TIP3    H223275   5.966   4.324   4.676
 7778TIP3   OH223276   6.182   3.802   4.423
 7778TIP3    H123277   6.136   3.884   4.405
 7778TIP3    H223278   6.118   3.734   4.402
 7779TIP3   OH223279   6.314   4.300   4.615
 7779TIP3    H123280   6.301   4.289   4.709
 7779TIP3    H223281   6.228   4.281   4.577
 7780TIP3   OH223282   6.564   4.265   4.493
 7780TIP3    H123283   6.482   4.263   4.541
 7780TIP3    H223284   6.630   4.235   4.555
 7781TIP3   OH223285   6.786   4.201   4.651
 7781TIP3    H123286   6.777   4.110   4.678
 7781TIP3    H223287   6.785   4.251   4.733
 7782TIP3   OH223288   5.767   4.124   4.823
 7782TIP3    H123289   5.773   4.036   4.784
 7782TIP3    H223290   5.807   4.115   4.909
 7783TIP3   OH223291   6.239   3.805   4.692
 7783TIP3    H123292   6.270   3.716   4.710
 7783TIP3    H223293   6.220   3.806   4.598
 7784TIP3   OH223294   6.347   4.020   4.826
 7784TIP3    H123295   6.314   3.948   4.772
 7784TIP3    H223296   6.276   4.085   4.826
 7785TIP3   OH223297   5.628   5.286   2.927
 7785TIP3    H123298   5.634   5.295   2.832
 7785TIP3    H223299   5.548   5.333   2.951
 7786TIP3   OH223300   5.065   4.656   3.109
 7786TIP3    H123301   5.159   4.673   3.105
 7786TIP3    H223302   5.055   4.568   3.073
 7787TIP3   OH223303   4.973   5.235   3.565
 7787TIP3    H123304   4.907   5.182   3.520
 7787TIP3    H223305   5.016   5.175   3.626
 7788TIP3   OH223306   5.116   5.069   3.733
 7788TIP3    H123307   5.109   5.003   3.803
 7788TIP3    H223308   5.171   5.137   3.771
 7789TIP3   OH223309   6.834   5.492   3.543
 7789TIP3    H123310   6.858   5.509   3.634
 7789TIP3    H223311   6.901   5.536   3.491
 7790TIP3   OH223312   6.859   5.506   3.825
 7790TIP3    H123313   6.813   5.422   3.819
 7790TIP3    H223314   6.931   5.490   3.886
 7791TIP3   OH223315   6.919   5.203   4.401
 7791TIP3    H123316   6.847   5.213   4.465
 7791TIP3    H223317   6.965   5.286   4.404
 7792TIP3   OH223318   6.735   4.715   3.011
 7792TIP3    H123319   6.794   4.786   2.983
 7792TIP3    H223320   6.778   4.677   3.087
 7793TIP3   OH223321   6.861   4.572   3.215
 7793TIP3    H123322   6.795   4.535   3.274
 7793TIP3    H223323   6.927   4.610   3.274
 7794TIP3   OH223324   6.911   4.978   3.636
 7794TIP3    H123325   6.965   4.907   3.601
 7794TIP3    H223326   6.922   5.050   3.574
 7795TIP3   OH223327   6.715   5.266   3.831
 7795TIP3    H123328   6.652   5.312   3.887
 7795TIP3    H223329   6.662   5.225   3.763
 7796TIP3   OH223330   6.772   4.493   2.853
 7796TIP3    H123331   6.699   4.495   2.792
 7796TIP3    H223332   6.759   4.569   2.910
 7797TIP3   OH223333   6.654   4.135   2.772
 7797TIP3    H123334   6.593   4.171   2.707
 7797TIP3    H223335   6.642   4.041   2.767
 7798TIP3   OH223336   6.653   4.430   3.352
 7798TIP3    H123337   6.658   4.340   3.321
 7798TIP3    H223338   6.635   4.423   3.446
 7799TIP3   OH223339   6.950   4.851   4.210
 7799TIP3    H123340   7.016   4.783   4.192
 7799TIP3    H223341   6.974   4.923   4.151
 7800TIP3   OH223342   7.128   4.638   4.202
 7800TIP3    H123343   7.053   4.595   4.243
 7800TIP3    H223344   7.203   4.583   4.226
 7801TIP3   OH223345   6.600   3.864   2.748
 7801TIP3    H123346   6.656   3.841   2.822
 7801TIP3    H223347   6.515   3.825   2.768
 7802TIP3   OH223348   6.659   4.170   3.229
 7802TIP3    H123349   6.699   4.087   3.251
 7802TIP3    H223350   6.705   4.199   3.150
 7803TIP3   OH223351   6.838   4.302   3.753
 7803TIP3    H123352   6.915   4.335   3.706
 7803TIP3    H223353   6.835   4.353   3.834
 7804TIP3   OH223354   6.892   4.475   3.977
 7804TIP3    H123355   6.816   4.500   4.029
 7804TIP3    H223356   6.918   4.555   3.932
 7805TIP3   OH223357   5.505   4.186   4.760
 7805TIP3    H123358   5.599   4.179   4.775
 7805TIP3    H223359   5.469   4.103   4.793
 7806TIP3   OH223360   7.361   4.028   4.532
 7806TIP3    H123361   7.415   3.965   4.482
 7806TIP3    H223362   7.308   4.072   4.465
 7807TIP3   OH223363   6.775   3.915   3.276
 7807TIP3    H123364   6.817   3.904   3.361
 7807TIP3    H223365   6.708   3.847   3.273
 7808TIP3   OH223366   5.484   3.920   4.137
 7808TIP3    H123367   5.523   3.833   4.128
 7808TIP3    H223368   5.556   3.980   4.121
 7809TIP3   OH223369   7.204   4.183   4.357
 7809TIP3    H123370   7.122   4.221   4.388
 7809TIP3    H223371   7.178   4.117   4.293
 7810TIP3   OH223372   6.820   3.825   2.916
 7810TIP3    H123373   6.869   3.764   2.861
 7810TIP3    H223374   6.878   3.901   2.924
 7811TIP3   OH223375   5.229   3.617   3.648
 7811TIP3    H123376   5.147   3.621   3.697
 7811TIP3    H223377   5.227   3.693   3.590
 7812TIP3   OH223378   6.363   5.403   3.157
 7812TIP3    H123379   6.434   5.378   3.099
 7812TIP3    H223380   6.404   5.461   3.222
 7813TIP3   OH223381   5.472   3.725   4.511
 7813TIP3    H123382   5.417   3.720   4.589
 7813TIP3    H223383   5.420   3.775   4.448
 7814TIP3   OH223384   5.513   5.172   4.565
 7814TIP3    H123385   5.418   5.164   4.557
 7814TIP3    H223386   5.530   5.175   4.659
 7815TIP3   OH223387   5.728   5.226   4.099
 7815TIP3    H123388   5.673   5.300   4.071
 7815TIP3    H223389   5.812   5.241   4.056
 7816TIP3   OH223390   6.115   5.456   4.249
 7816TIP3    H123391   6.149   5.448   4.338
 7816TIP3    H223392   6.181   5.508   4.202
 7817TIP3   OH223393   6.316   5.604   4.128
 7817TIP3    H123394   6.385   5.552   4.086
 7817TIP3    H223395   6.362   5.666   4.184
 7818TIP3   OH223396   7.100   3.942   4.224
 7818TIP3    H123397   7.013   3.937   4.185
 7818TIP3    H223398   7.134   3.853   4.217
 7819TIP3   OH223399   5.373   5.460   4.162
 7819TIP3    H123400   5.282   5.476   4.138
 7819TIP3    H223401   5.393   5.528   4.227
 7820TIP3   OH223402   5.604   5.454   4.009
 7820TIP3    H123403   5.522   5.458   4.058
 7820TIP3    H223404   5.581   5.485   3.921
 7821TIP3   OH223405   6.005   5.465   3.816
 7821TIP3    H123406   5.937   5.489   3.754
 7821TIP3    H223407   6.023   5.546   3.864
 7822TIP3   OH223408   6.279   5.403   3.836
 7822TIP3    H123409   6.188   5.432   3.825
 7822TIP3    H223410   6.331   5.475   3.801
 7823TIP3   OH223411   6.480   5.577   3.752
 7823TIP3    H123412   6.485   5.666   3.717
 7823TIP3    H223413   6.513   5.521   3.682
 7824TIP3   OH223414   5.299   5.242   3.869
 7824TIP3    H123415   5.313   5.215   3.960
 7824TIP3    H223416   5.373   5.206   3.821
 7825TIP3   OH223417   5.500   5.111   3.729
 7825TIP3    H123418   5.499   5.038   3.791
 7825TIP3    H223419   5.583   5.102   3.682
 7826TIP3   OH223420   6.334   3.873   3.865
 7826TIP3    H123421   6.282   3.801   3.900
 7826TIP3    H223422   6.395   3.830   3.805
 7827TIP3   OH223423   6.821   3.778   3.732
 7827TIP3    H123424   6.860   3.829   3.661
 7827TIP3    H223425   6.734   3.815   3.744
 7828TIP3   OH223426   6.935   3.862   3.497
 7828TIP3    H123427   7.005   3.801   3.472
 7828TIP3    H223428   6.972   3.948   3.482
 7829TIP3   OH223429   5.552   3.556   3.860
 7829TIP3    H123430   5.462   3.524   3.865
 7829TIP3    H223431   5.606   3.477   3.852
 7830TIP3   OH223432   5.357   3.443   3.475
 7830TIP3    H123433   5.390   3.499   3.405
 7830TIP3    H223434   5.318   3.503   3.539
 7831TIP3   OH223435   6.035   3.602   3.741
 7831TIP3    H123436   6.075   3.654   3.671
 7831TIP3    H223437   6.067   3.641   3.822
 7832TIP3   OH223438   6.526   3.744   3.716
 7832TIP3    H123439   6.556   3.712   3.631
 7832TIP3    H223440   6.532   3.668   3.774
 7833TIP3   OH223441   6.585   3.705   3.281
 7833TIP3    H123442   6.504   3.752   3.302
 7833TIP3    H223443   6.574   3.620   3.323
 7834TIP3   OH223444   5.045   5.043   3.253
 7834TIP3    H123445   4.960   5.013   3.221
 7834TIP3    H223446   5.050   5.134   3.225
 7835TIP3   OH223447   5.475   3.598   3.257
 7835TIP3    H123448   5.522   3.539   3.198
 7835TIP3    H223449   5.544   3.654   3.295
 7836TIP3   OH223450   5.962   3.815   3.383
 7836TIP3    H123451   6.033   3.773   3.432
 7836TIP3    H223452   5.933   3.887   3.438
 7837TIP3   OH223453   6.551   5.337   2.964
 7837TIP3    H123454   6.547   5.241   2.956
 7837TIP3    H223455   6.514   5.369   2.882
 7838TIP3   OH223456   5.780   3.852   4.735
 7838TIP3    H123457   5.745   3.783   4.791
 7838TIP3    H223458   5.871   3.861   4.761
 7839TIP3   OH223459   6.024   3.863   4.864
 7839TIP3    H123460   6.101   3.844   4.811
 7839TIP3    H223461   6.019   3.791   4.926
 7840TIP3   OH223462   5.160   5.030   2.913
 7840TIP3    H123463   5.158   5.043   3.008
 7840TIP3    H223464   5.244   4.987   2.896
 7841TIP3   OH223465   6.861   3.843   4.659
 7841TIP3    H123466   6.884   3.866   4.749
 7841TIP3    H223467   6.910   3.905   4.605
 7842TIP3   OH223468   6.762   5.474   4.150
 7842TIP3    H123469   6.687   5.449   4.096
 7842TIP3    H223470   6.757   5.569   4.156
 7843TIP3   OH223471   8.047   4.864   2.878
 7843TIP3    H123472   8.008   4.950   2.867
 7843TIP3    H223473   7.974   4.803   2.866
 7844TIP3   OH223474   7.973   4.870   3.304
 7844TIP3    H123475   8.034   4.858   3.377
 7844TIP3    H223476   7.947   4.782   3.280
 7845TIP3   OH223477   7.340   4.730   3.658
 7845TIP3    H123478   7.377   4.678   3.729
 7845TIP3    H223479   7.416   4.758   3.606
 7846TIP3   OH223480   8.286   5.135   2.958
 7846TIP3    H123481   8.277   5.088   3.041
 7846TIP3    H223482   8.297   5.227   2.985
 7847TIP3   OH223483   7.310   5.140   3.365
 7847TIP3    H123484   7.299   5.045   3.356
 7847TIP3    H223485   7.402   5.151   3.388
 7848TIP3   OH223486   7.018   4.354   3.122
 7848TIP3    H123487   6.978   4.435   3.154
 7848TIP3    H223488   6.946   4.304   3.085
 7849TIP3   OH223489   7.097   4.665   3.345
 7849TIP3    H123490   7.146   4.587   3.370
 7849TIP3    H223491   7.163   4.730   3.323
 7850TIP3   OH223492   7.843   5.108   3.321
 7850TIP3    H123493   7.877   5.022   3.298
 7850TIP3    H223494   7.918   5.155   3.356
 7851TIP3   OH223495   8.226   4.567   3.359
 7851TIP3    H123496   8.201   4.479   3.385
 7851TIP3    H223497   8.165   4.590   3.290
 7852TIP3   OH223498   7.587   4.232   3.319
 7852TIP3    H123499   7.566   4.302   3.257
 7852TIP3    H223500   7.539   4.156   3.286
 7853TIP3   OH223501   8.247   4.341   2.932
 7853TIP3    H123502   8.293   4.301   3.006
 7853TIP3    H223503   8.255   4.435   2.948
 7854TIP3   OH223504   7.236   4.445   3.434
 7854TIP3    H123505   7.317   4.424   3.481
 7854TIP3    H223506   7.239   4.389   3.356
 7855TIP3   OH223507   7.644   4.643   3.253
 7855TIP3    H123508   7.738   4.629   3.264
 7855TIP3    H223509   7.611   4.560   3.219
 7856TIP3   OH223510   7.583   4.243   3.769
 7856TIP3    H123511   7.532   4.279   3.696
 7856TIP3    H223512   7.530   4.261   3.846
 7857TIP3   OH223513   7.923   5.078   2.755
 7857TIP3    H123514   7.880   5.054   2.673
 7857TIP3    H223515   7.866   5.145   2.792
 7858TIP3   OH223516   7.679   5.017   3.524
 7858TIP3    H123517   7.628   5.086   3.565
 7858TIP3    H223518   7.730   5.062   3.456
 7859TIP3   OH223519   7.473   4.344   3.539
 7859TIP3    H123520   7.527   4.420   3.559
 7859TIP3    H223521   7.518   4.300   3.467
 7860TIP3   OH223522   7.518   5.211   3.632
 7860TIP3    H123523   7.508   5.299   3.598
 7860TIP3    H223524   7.443   5.199   3.690
 7861TIP3   OH223525   6.911   4.908   2.890
 7861TIP3    H123526   6.874   4.928   2.805
 7861TIP3    H223527   6.936   4.992   2.927
 7862TIP3   OH223528   8.283   5.397   3.032
 7862TIP3    H123529   8.218   5.400   3.102
 7862TIP3    H223530   8.299   5.489   3.011
 7863TIP3   OH223531   7.854   3.896   3.459
 7863TIP3    H123532   7.872   3.818   3.511
 7863TIP3    H223533   7.799   3.951   3.516
 7864TIP3   OH223534   8.029   5.458   2.774
 7864TIP3    H123535   8.079   5.377   2.788
 7864TIP3    H223536   8.095   5.525   2.760
 7865TIP3   OH223537   8.163   5.202   2.727
 7865TIP3    H123538   8.080   5.157   2.745
 7865TIP3    H223539   8.216   5.187   2.805
 7866TIP3   OH223540   0.158   5.273   3.466
 7866TIP3    H123541   0.092   5.242   3.405
 7866TIP3    H223542   0.114   5.340   3.518
 7867TIP3   OH223543   7.854   4.719   2.730
 7867TIP3    H123544   7.773   4.768   2.719
 7867TIP3    H223545   7.896   4.724   2.644
 7868TIP3   OH223546   7.825   4.512   2.438
 7868TIP3    H123547   7.894   4.550   2.493
 7868TIP3    H223548   7.868   4.441   2.391
 7869TIP3   OH223549   8.222   4.838   2.676
 7869TIP3    H123550   8.161   4.859   2.747
 7869TIP3    H223551   8.274   4.765   2.709
 7870TIP3   OH223552   8.352   4.824   3.700
 7870TIP3    H123553   8.430   4.877   3.686
 7870TIP3    H223554   8.282   4.872   3.655
 7871TIP3   OH223555   7.456   4.777   3.102
 7871TIP3    H123556   7.422   4.714   3.038
 7871TIP3    H223557   7.526   4.730   3.146
 7872TIP3   OH223558   7.594   5.198   3.239
 7872TIP3    H123559   7.582   5.169   3.149
 7872TIP3    H223560   7.682   5.168   3.263
 7873TIP3   OH223561   7.552   4.779   3.478
 7873TIP3    H123562   7.592   4.741   3.399
 7873TIP3    H223563   7.602   4.859   3.493
 7874TIP3   OH223564   8.143   5.391   3.262
 7874TIP3    H123565   8.112   5.478   3.289
 7874TIP3    H223566   8.108   5.331   3.328
 7875TIP3   OH223567   7.741   5.291   3.792
 7875TIP3    H123568   7.735   5.381   3.823
 7875TIP3    H223569   7.656   5.272   3.754
 7876TIP3   OH223570   8.065   4.622   2.547
 7876TIP3    H123571   8.097   4.701   2.590
 7876TIP3    H223572   8.090   4.633   2.455
 7877TIP3   OH223573   7.483   4.852   3.947
 7877TIP3    H123574   7.489   4.946   3.963
 7877TIP3    H223575   7.389   4.835   3.941
 7878TIP3   OH223576   7.791   5.315   2.806
 7878TIP3    H123577   7.866   5.374   2.801
 7878TIP3    H223578   7.753   5.317   2.718
 7879TIP3   OH223579   7.335   4.615   2.901
 7879TIP3    H123580   7.254   4.658   2.874
 7879TIP3    H223581   7.308   4.527   2.928
 7880TIP3   OH223582   8.459   5.280   1.989
 7880TIP3    H123583   8.421   5.367   1.974
 7880TIP3    H223584   8.554   5.295   1.984
 7881TIP3   OH223585   7.112   5.015   3.836
 7881TIP3    H123586   7.043   4.996   3.773
 7881TIP3    H223587   7.147   4.929   3.859
 7882TIP3   OH223588   6.996   5.196   3.475
 7882TIP3    H123589   7.090   5.187   3.458
 7882TIP3    H223590   6.990   5.273   3.533
 7883TIP3   OH223591   7.920   5.429   3.634
 7883TIP3    H123592   7.905   5.503   3.693
 7883TIP3    H223593   7.855   5.364   3.660
 7884TIP3   OH223594   7.677   5.592   2.615
 7884TIP3    H123595   7.634   5.516   2.575
 7884TIP3    H223596   7.750   5.611   2.557
 7885TIP3   OH223597   7.144   5.397   2.997
 7885TIP3    H123598   7.185   5.390   3.083
 7885TIP3    H223599   7.092   5.317   2.988
 7886TIP3   OH223600   7.878   5.502   2.238
 7886TIP3    H123601   7.919   5.428   2.193
 7886TIP3    H223602   7.928   5.510   2.319
 7887TIP3   OH223603   7.952   5.513   2.515
 7887TIP3    H123604   7.953   5.510   2.610
 7887TIP3    H223605   8.022   5.454   2.488
 7888TIP3   OH223606   7.308   5.206   3.807
 7888TIP3    H123607   7.361   5.194   3.886
 7888TIP3    H223608   7.237   5.142   3.816
 7889TIP3   OH223609   7.672   4.025   3.625
 7889TIP3    H123610   7.587   3.994   3.594
 7889TIP3    H223611   7.653   4.106   3.672
 7890TIP3   OH223612   8.150   4.174   3.857
 7890TIP3    H123613   8.202   4.148   3.933
 7890TIP3    H223614   8.059   4.160   3.885
 7891TIP3   OH223615   0.062   4.667   3.864
 7891TIP3    H123616   0.091   4.576   3.863
 7891TIP3    H223617   0.011   4.676   3.783
 7892TIP3   OH223618   8.176   4.668   2.295
 7892TIP3    H123619   8.124   4.734   2.251
 7892TIP3    H223620   8.245   4.717   2.340
 7893TIP3   OH223621   7.806   4.052   2.585
 7893TIP3    H123622   7.785   4.060   2.677
 7893TIP3    H223623   7.775   3.965   2.560
 7894TIP3   OH223624   7.623   4.555   3.625
 7894TIP3    H123625   7.582   4.564   3.711
 7894TIP3    H223626   7.606   4.638   3.581
 7895TIP3   OH223627   7.506   4.428   3.145
 7895TIP3    H123628   7.418   4.401   3.171
 7895TIP3    H223629   7.517   4.393   3.056
 7896TIP3   OH223630   7.968   4.510   2.873
 7896TIP3    H123631   7.927   4.583   2.827
 7896TIP3    H223632   8.029   4.472   2.809
 7897TIP3   OH223633   8.146   4.768   3.952
 7897TIP3    H123634   8.132   4.696   4.013
 7897TIP3    H223635   8.238   4.792   3.964
 7898TIP3   OH223636   8.085   4.490   3.122
 7898TIP3    H123637   8.038   4.513   3.042
 7898TIP3    H223638   8.108   4.398   3.112
 7899TIP3   OH223639   7.466   4.569   3.850
 7899TIP3    H123640   7.489   4.633   3.918
 7899TIP3    H223641   7.450   4.488   3.898
 7900TIP3   OH223642   7.489   4.022   2.556
 7900TIP3    H123643   7.488   4.030   2.652
 7900TIP3    H223644   7.417   4.077   2.527
 7901TIP3   OH223645   7.067   4.081   3.411
 7901TIP3    H123646   7.134   4.117   3.469
 7901TIP3    H223647   7.114   4.055   3.332
 7902TIP3   OH223648   6.981   4.054   2.930
 7902TIP3    H123649   7.026   4.089   2.854
 7902TIP3    H223650   6.920   4.122   2.956
 7903TIP3   OH223651   8.139   4.791   3.506
 7903TIP3    H123652   8.186   4.727   3.452
 7903TIP3    H223653   8.111   4.742   3.583
 7904TIP3   OH223654   7.832   4.287   3.202
 7904TIP3    H123655   7.759   4.265   3.260
 7904TIP3    H223656   7.905   4.235   3.234
 7905TIP3   OH223657   7.275   4.296   3.206
 7905TIP3    H123658   7.187   4.301   3.169
 7905TIP3    H223659   7.303   4.206   3.189
 7906TIP3   OH223660   7.512   4.301   2.902
 7906TIP3    H123661   7.607   4.310   2.893
 7906TIP3    H223662   7.479   4.316   2.813
 7907TIP3   OH223663   8.196   4.304   3.421
 7907TIP3    H123664   8.170   4.324   3.511
 7907TIP3    H223665   8.292   4.298   3.425
 7908TIP3   OH223666   7.408   4.321   2.651
 7908TIP3    H123667   7.342   4.276   2.597
 7908TIP3    H223668   7.461   4.370   2.588
 7909TIP3   OH223669   0.013   6.073   3.666
 7909TIP3    H123670   0.007   6.068   3.571
 7909TIP3    H223671   0.106   6.063   3.685
 7910TIP3   OH223672   7.468   5.118   4.039
 7910TIP3    H123673   7.550   5.143   4.081
 7910TIP3    H223674   7.401   5.128   4.107
 7911TIP3   OH223675   7.908   4.594   3.308
 7911TIP3    H123676   7.956   4.536   3.250
 7911TIP3    H223677   7.907   4.549   3.393
 7912TIP3   OH223678   7.420   4.048   3.191
 7912TIP3    H123679   7.390   3.972   3.242
 7912TIP3    H223680   7.470   4.010   3.119
 7913TIP3   OH223681   7.883   4.498   3.567
 7913TIP3    H123682   7.794   4.523   3.588
 7913TIP3    H223683   7.938   4.558   3.619
 7914TIP3   OH223684   7.621   4.866   2.671
 7914TIP3    H123685   7.553   4.801   2.652
 7914TIP3    H223686   7.602   4.896   2.760
 7915TIP3   OH223687   0.017   5.041   3.345
 7915TIP3    H123688   0.092   5.042   3.285
 7915TIP3    H223689  -0.059   5.048   3.288
 7916TIP3   OH223690   8.026   4.187   2.512
 7916TIP3    H123691   7.947   4.149   2.549
 7916TIP3    H223692   8.055   4.252   2.576
 7917TIP3   OH223693   8.056   5.200   3.729
 7917TIP3    H123694   8.025   5.171   3.815
 7917TIP3    H223695   8.014   5.284   3.715
 7918TIP3   OH223696   8.124   4.390   2.664
 7918TIP3    H123697   8.213   4.402   2.697
 7918TIP3    H223698   8.105   4.472   2.618
 7919TIP3   OH223699   7.320   4.854   3.331
 7919TIP3    H123700   7.360   4.838   3.245
 7919TIP3    H223701   7.387   4.827   3.394
 7920TIP3   OH223702   7.768   5.039   2.517
 7920TIP3    H123703   7.726   5.124   2.532
 7920TIP3    H223704   7.714   4.976   2.564
 7921TIP3   OH223705   7.209   4.786   3.972
 7921TIP3    H123706   7.215   4.757   4.063
 7921TIP3    H223707   7.133   4.739   3.936
 7922TIP3   OH223708   7.921   4.913   3.992
 7922TIP3    H123709   7.855   4.850   3.963
 7922TIP3    H223710   8.004   4.874   3.967
 7923TIP3   OH223711   8.186   5.478   3.572
 7923TIP3    H123712   8.093   5.454   3.569
 7923TIP3    H223713   8.203   5.497   3.664
 7924TIP3   OH223714   8.437   5.261   2.370
 7924TIP3    H123715   8.418   5.247   2.463
 7924TIP3    H223716   8.421   5.176   2.330
 7925TIP3   OH223717   8.268   5.015   3.214
 7925TIP3    H123718   8.177   5.002   3.240
 7925TIP3    H223719   8.295   4.930   3.179
 7926TIP3   OH223720   7.441   5.195   2.988
 7926TIP3    H123721   7.435   5.273   2.933
 7926TIP3    H223722   7.368   5.204   3.050
 7927TIP3   OH223723   7.008   4.483   2.712
 7927TIP3    H123724   7.054   4.564   2.735
 7927TIP3    H223725   6.929   4.484   2.766
 7928TIP3   OH223726   7.546   4.956   2.911
 7928TIP3    H123727   7.516   5.043   2.938
 7928TIP3    H223728   7.520   4.898   2.983
 7929TIP3   OH223729   7.743   5.532   3.441
 7929TIP3    H123730   7.780   5.607   3.395
 7929TIP3    H223731   7.811   5.506   3.502
 7930TIP3   OH223732   7.366   5.431   2.843
 7930TIP3    H123733   7.282   5.424   2.888
 7930TIP3    H223734   7.398   5.519   2.863
 7931TIP3   OH223735   8.082   5.181   3.444
 7931TIP3    H123736   8.067   5.184   3.539
 7931TIP3    H223737   8.175   5.158   3.435
 7932TIP3   OH223738   8.006   5.137   2.307
 7932TIP3    H123739   8.089   5.134   2.354
 7932TIP3    H223740   7.943   5.094   2.366
 7933TIP3   OH223741   8.316   5.695   3.477
 7933TIP3    H123742   8.256   5.623   3.498
 7933TIP3    H223743   8.260   5.761   3.435
 7934TIP3   OH223744   7.416   4.319   3.974
 7934TIP3    H123745   7.321   4.327   3.975
 7934TIP3    H223746   7.437   4.267   4.052
 7935TIP3   OH223747   8.194   5.044   2.500
 7935TIP3    H123748   8.212   4.967   2.555
 7935TIP3    H223749   8.183   5.116   2.562
 7936TIP3   OH223750   7.156   5.415   3.623
 7936TIP3    H123751   7.209   5.353   3.674
 7936TIP3    H223752   7.178   5.501   3.659
 7937TIP3   OH223753   7.430   5.026   2.316
 7937TIP3    H123754   7.445   4.936   2.286
 7937TIP3    H223755   7.413   5.018   2.410
 7938TIP3   OH223756   7.376   5.045   2.586
 7938TIP3    H123757   7.438   5.016   2.653
 7938TIP3    H223758   7.376   5.140   2.592
 7939TIP3   OH223759   7.107   4.732   2.794
 7939TIP3    H123760   7.043   4.780   2.847
 7939TIP3    H223761   7.127   4.791   2.721
 7940TIP3   OH223762   8.158   4.393   3.681
 7940TIP3    H123763   8.243   4.434   3.692
 7940TIP3    H223764   8.149   4.335   3.757
 7941TIP3   OH223765   8.092   4.129   2.835
 7941TIP3    H123766   8.143   4.097   2.761
 7941TIP3    H223767   8.134   4.212   2.860
 7942TIP3   OH223768   7.662   5.288   2.562
 7942TIP3    H123769   7.568   5.286   2.578
 7942TIP3    H223770   7.672   5.333   2.478
 7943TIP3   OH223771   7.786   4.315   2.935
 7943TIP3    H123772   7.848   4.383   2.907
 7943TIP3    H223773   7.799   4.308   3.029
 7944TIP3   OH223774   8.063   4.646   3.722
 7944TIP3    H123775   8.091   4.690   3.802
 7944TIP3    H223776   8.101   4.559   3.726
 7945TIP3   OH223777   7.952   4.010   3.036
 7945TIP3    H123778   7.977   4.062   3.112
 7945TIP3    H223779   8.001   4.049   2.963
 7946TIP3   OH223780   7.394   5.320   2.595
 7946TIP3    H123781   7.370   5.390   2.534
 7946TIP3    H223782   7.377   5.356   2.682
 7947TIP3   OH223783   7.476   4.028   2.834
 7947TIP3    H123784   7.459   4.116   2.868
 7947TIP3    H223785   7.570   4.016   2.845
 7948TIP3   OH223786   8.231   4.749   3.134
 7948TIP3    H123787   8.208   4.657   3.118
 7948TIP3    H223788   8.326   4.749   3.142
 7949TIP3   OH223789   7.132   4.910   2.578
 7949TIP3    H123790   7.203   4.973   2.587
 7949TIP3    H223791   7.163   4.848   2.512
 7950TIP3   OH223792   7.033   4.204   2.705
 7950TIP3    H123793   7.050   4.298   2.715
 7950TIP3    H223794   6.946   4.200   2.663
 7951TIP3   OH223795   8.326   5.675   3.015
 7951TIP3    H123796   8.286   5.725   2.944
 7951TIP3    H223797   8.416   5.706   3.018
 7952TIP3   OH223798   7.423   3.923   3.578
 7952TIP3    H123799   7.399   3.891   3.491
 7952TIP3    H223800   7.418   3.846   3.635
 7953TIP3   OH223801   6.963   5.181   2.970
 7953TIP3    H123802   6.919   5.215   3.048
 7953TIP3    H223803   6.919   5.223   2.897
 7954TIP3   OH223804   7.177   5.728   4.031
 7954TIP3    H123805   7.255   5.751   4.081
 7954TIP3    H223806   7.176   5.632   4.030
 7955TIP3   OH223807   7.583   5.225   2.209
 7955TIP3    H123808   7.533   5.154   2.249
 7955TIP3    H223809   7.652   5.180   2.160
 7956TIP3   OH223810   8.215   5.560   3.830
 7956TIP3    H123811   8.222   5.495   3.900
 7956TIP3    H223812   8.276   5.629   3.855
 7957TIP3   OH223813   7.969   5.294   2.088
 7957TIP3    H123814   8.003   5.245   2.163
 7957TIP3    H223815   8.046   5.311   2.034
 7958TIP3   OH223816   7.262   5.110   4.230
 7958TIP3    H123817   7.286   5.018   4.239
 7958TIP3    H223818   7.175   5.109   4.190
 7959TIP3   OH223819   7.258   4.723   2.423
 7959TIP3    H123820   7.308   4.700   2.501
 7959TIP3    H223821   7.324   4.738   2.356
 7960TIP3   OH223822   7.876   5.183   4.005
 7960TIP3    H123823   7.830   5.213   3.927
 7960TIP3    H223824   7.891   5.090   3.990
 7961TIP3   OH223825   7.772   4.931   2.252
 7961TIP3    H123826   7.774   4.951   2.345
 7961TIP3    H223827   7.758   4.836   2.248
 7962TIP3   OH223828   8.331   5.237   3.769
 7962TIP3    H123829   8.343   5.234   3.674
 7962TIP3    H223830   8.236   5.233   3.781
 7963TIP3   OH223831   7.386   4.858   4.236
 7963TIP3    H123832   7.460   4.850   4.177
 7963TIP3    H223833   7.425   4.880   4.321
 7964TIP3   OH223834   7.428   4.669   2.640
 7964TIP3    H123835   7.406   4.641   2.728
 7964TIP3    H223836   7.472   4.594   2.600
 7965TIP3   OH223837   7.731   4.736   3.888
 7965TIP3    H123838   7.649   4.783   3.901
 7965TIP3    H223839   7.764   4.767   3.804
 7966TIP3   OH223840   7.554   4.479   2.481
 7966TIP3    H123841   7.525   4.486   2.390
 7966TIP3    H223842   7.649   4.489   2.477
 7967TIP3   OH223843   8.224   5.117   4.030
 7967TIP3    H123844   8.302   5.082   3.986
 7967TIP3    H223845   8.215   5.063   4.109
 7968TIP3   OH223846   7.833   4.512   4.009
 7968TIP3    H123847   7.844   4.443   3.944
 7968TIP3    H223848   7.804   4.588   3.958
 7969TIP3   OH223849   7.842   4.327   3.795
 7969TIP3    H123850   7.876   4.364   3.713
 7969TIP3    H223851   7.750   4.308   3.777
 7970TIP3   OH223852   7.835   4.843   3.664
 7970TIP3    H123853   7.927   4.854   3.638
 7970TIP3    H223854   7.789   4.912   3.616
 7971TIP3   OH223855   8.406   4.810   4.035
 7971TIP3    H123856   8.453   4.740   3.990
 7971TIP3    H223857   8.432   4.890   3.990
 7972TIP3   OH223858   8.459   5.030   3.886
 7972TIP3    H123859   8.415   5.099   3.837
 7972TIP3    H223860   8.523   4.994   3.824
 7973TIP3   OH223861   7.711   4.596   4.243
 7973TIP3    H123862   7.650   4.524   4.262
 7973TIP3    H223863   7.745   4.575   4.156
 7974TIP3   OH223864   7.899   4.083   3.919
 7974TIP3    H123865   7.858   4.159   3.876
 7974TIP3    H223866   7.844   4.009   3.893
 7975TIP3   OH223867   8.100   4.550   4.105
 7975TIP3    H123868   8.122   4.543   4.198
 7975TIP3    H223869   8.008   4.525   4.100
 7976TIP3   OH223870   8.298   4.474   3.929
 7976TIP3    H123871   8.221   4.500   3.980
 7976TIP3    H223872   8.364   4.450   3.994
 7977TIP3   OH223873   8.457   4.407   4.152
 7977TIP3    H123874   8.500   4.346   4.212
 7977TIP3    H223875   8.448   4.488   4.203
 7978TIP3   OH223876   7.566   4.360   4.313
 7978TIP3    H123877   7.575   4.273   4.275
 7978TIP3    H223878   7.610   4.354   4.398
 7979TIP3   OH223879   8.037   4.062   4.150
 7979TIP3    H123880   8.079   3.976   4.150
 7979TIP3    H223881   7.984   4.064   4.070
 7980TIP3   OH223882   8.127   4.270   4.300
 7980TIP3    H123883   8.106   4.198   4.240
 7980TIP3    H223884   8.050   4.326   4.298
 7981TIP3   OH223885   7.397   5.547   2.430
 7981TIP3    H123886   7.482   5.517   2.397
 7981TIP3    H223887   7.352   5.582   2.353
 7982TIP3   OH223888   6.858   4.908   2.588
 7982TIP3    H123889   6.953   4.919   2.589
 7982TIP3    H223890   6.845   4.820   2.552
 7983TIP3   OH223891   6.766   5.485   3.052
 7983TIP3    H123892   6.698   5.430   3.012
 7983TIP3    H223893   6.809   5.427   3.115
 7984TIP3   OH223894   6.910   5.324   3.226
 7984TIP3    H123895   6.902   5.255   3.292
 7984TIP3    H223896   6.960   5.393   3.269
 7985TIP3   OH223897   0.295   5.758   3.262
 7985TIP3    H123898   0.291   5.665   3.287
 7985TIP3    H223899   0.276   5.805   3.344
 7986TIP3   OH223900   0.115   5.550   3.829
 7986TIP3    H123901   0.058   5.487   3.873
 7986TIP3    H223902   0.203   5.529   3.861
 7987TIP3   OH223903   8.468   5.590   3.276
 7987TIP3    H123904   8.426   5.631   3.352
 7987TIP3    H223905   8.406   5.604   3.204
 7988TIP3   OH223906   0.049   4.617   2.879
 7988TIP3    H123907   0.143   4.603   2.893
 7988TIP3    H223908   0.042   4.709   2.854
 7989TIP3   OH223909   7.077   4.761   3.601
 7989TIP3    H123910   7.069   4.727   3.512
 7989TIP3    H223911   7.171   4.759   3.620
 7990TIP3   OH223912   7.300   4.425   4.257
 7990TIP3    H123913   7.395   4.420   4.271
 7990TIP3    H223914   7.267   4.343   4.293
 7991TIP3   OH223915   7.269   4.153   3.584
 7991TIP3    H123916   7.321   4.073   3.593
 7991TIP3    H223917   7.334   4.222   3.575
 7992TIP3   OH223918   7.070   4.419   3.661
 7992TIP3    H123919   7.116   4.411   3.577
 7992TIP3    H223920   7.102   4.502   3.697
 7993TIP3   OH223921   7.043   3.908   3.153
 7993TIP3    H123922   6.959   3.905   3.199
 7993TIP3    H223923   7.029   3.968   3.080
 7994TIP3   OH223924   8.230   5.623   2.685
 7994TIP3    H123925   8.266   5.632   2.597
 7994TIP3    H223926   8.230   5.713   2.720
 7995TIP3   OH223927   7.262   3.980   3.993
 7995TIP3    H123928   7.207   3.973   4.071
 7995TIP3    H223929   7.208   4.028   3.930
 7996TIP3   OH223930   7.255   5.474   4.120
 7996TIP3    H123931   7.174   5.432   4.089
 7996TIP3    H223932   7.275   5.429   4.202
 7997TIP3   OH223933   7.499   5.467   3.551
 7997TIP3    H123934   7.454   5.551   3.545
 7997TIP3    H223935   7.591   5.487   3.532
 7998TIP3   OH223936   8.104   5.882   3.601
 7998TIP3    H123937   8.107   5.798   3.647
 7998TIP3    H223938   8.153   5.942   3.657
 7999TIP3   OH223939   7.167   5.726   3.644
 7999TIP3    H123940   7.075   5.745   3.625
 7999TIP3    H223941   7.192   5.790   3.710
 8000TIP3   OH223942   7.399   5.718   3.498
 8000TIP3    H123943   7.318   5.720   3.549
 8000TIP3    H223944   7.372   5.746   3.410
 8001TIP3   OH223945   7.811   5.747   3.274
 8001TIP3    H123946   7.730   5.764   3.226
 8001TIP3    H223947   7.825   5.826   3.326
 8002TIP3   OH223948   8.068   5.653   3.306
 8002TIP3    H123949   7.978   5.681   3.293
 8002TIP3    H223950   8.120   5.730   3.282
 8003TIP3   OH223951   8.255   5.848   3.230
 8003TIP3    H123952   8.262   5.936   3.193
 8003TIP3    H223953   8.280   5.790   3.158
 8004TIP3   OH223954   7.085   5.499   3.368
 8004TIP3    H123955   7.106   5.478   3.459
 8004TIP3    H223956   7.159   5.465   3.318
 8005TIP3   OH223957   7.290   5.378   3.229
 8005TIP3    H123958   7.294   5.296   3.279
 8005TIP3    H223959   7.376   5.418   3.241
 8006TIP3   OH223960   7.555   5.468   3.248
 8006TIP3    H123961   7.572   5.374   3.237
 8006TIP3    H223962   7.610   5.494   3.322
 8007TIP3   OH223963   8.049   4.134   3.264
 8007TIP3    H123964   8.060   4.059   3.323
 8007TIP3    H223965   8.100   4.204   3.304
 8008TIP3   OH223966   7.348   3.822   3.332
 8008TIP3    H123967   7.258   3.789   3.344
 8008TIP3    H223968   7.402   3.743   3.327
 8009TIP3   OH223969   7.164   3.720   2.980
 8009TIP3    H123970   7.191   3.774   2.906
 8009TIP3    H223971   7.129   3.782   3.044
 8010TIP3   OH223972   7.756   3.893   3.202
 8010TIP3    H123973   7.824   3.933   3.147
 8010TIP3    H223974   7.791   3.899   3.291
 8011TIP3   OH223975   8.510   3.946   3.187
 8011TIP3    H123976   8.436   3.946   3.126
 8011TIP3    H223977   8.485   3.884   3.255
 8012TIP3   OH223978   6.845   5.302   2.752
 8012TIP3    H123979   6.762   5.269   2.718
 8012TIP3    H223980   6.850   5.392   2.721
 8013TIP3   OH223981   7.272   3.858   2.751
 8013TIP3    H123982   7.321   3.800   2.693
 8013TIP3    H223983   7.338   3.916   2.788
 8014TIP3   OH223984   7.748   4.058   2.853
 8014TIP3    H123985   7.804   4.010   2.913
 8014TIP3    H223986   7.762   4.150   2.874
 8015TIP3   OH223987   7.637   5.452   2.345
 8015TIP3    H123988   7.716   5.486   2.305
 8015TIP3    H223989   7.610   5.379   2.289
 8016TIP3   OH223990   8.343   5.574   2.433
 8016TIP3    H123991   8.436   5.576   2.411
 8016TIP3    H223992   8.299   5.606   2.354
 8017TIP3   OH223993   7.588   4.085   4.240
 8017TIP3    H123994   7.550   4.012   4.289
 8017TIP3    H223995   7.679   4.089   4.268
 8018TIP3   OH223996   7.843   4.088   4.351
 8018TIP3    H123997   7.905   4.103   4.280
 8018TIP3    H223998   7.875   4.010   4.396
 8019TIP3   OH223999   6.958   5.295   2.401
 8019TIP3    H124000   6.958   5.304   2.496
 8019TIP3    H224001   7.039   5.248   2.381
 8020TIP3   OH224002   8.505   5.792   3.646
 8020TIP3    H124003   8.434   5.766   3.587
 8020TIP3    H224004   8.492   5.886   3.660
 8021TIP3   OH224005   0.574   5.669   4.604
 8021TIP3    H124006   0.541   5.722   4.676
 8021TIP3    H224007   0.496   5.627   4.568
 8022TIP3   OH224008   0.546   5.669   4.905
 8022TIP3    H124009   0.550   5.703   4.995
 8022TIP3    H224010   0.515   5.579   4.916
 8023TIP3   OH224011   0.786   5.957   4.657
 8023TIP3    H124012   0.789   5.885   4.720
 8023TIP3    H224013   0.807   6.035   4.708
 8024TIP3   OH224014   0.465   6.417   4.739
 8024TIP3    H124015   0.515   6.358   4.683
 8024TIP3    H224016   0.374   6.402   4.714
 8025TIP3   OH224017   0.327   5.743   5.109
 8025TIP3    H124018   0.296   5.745   5.018
 8025TIP3    H224019   0.354   5.833   5.127
 8026TIP3   OH224020   1.345   5.183   5.015
 8026TIP3    H124021   1.361   5.268   5.055
 8026TIP3    H224022   1.371   5.194   4.923
 8027TIP3   OH224023   0.776   5.350   5.047
 8027TIP3    H124024   0.805   5.260   5.056
 8027TIP3    H224025   0.714   5.349   4.974
 8028TIP3   OH224026   0.776   5.093   4.628
 8028TIP3    H124027   0.841   5.089   4.698
 8028TIP3    H224028   0.823   5.132   4.554
 8029TIP3   OH224029   1.402   5.402   5.187
 8029TIP3    H124030   1.313   5.437   5.177
 8029TIP3    H224031   1.430   5.433   5.273
 8030TIP3   OH224032   0.376   5.858   4.439
 8030TIP3    H124033   0.395   5.790   4.375
 8030TIP3    H224034   0.459   5.904   4.450
 8031TIP3   OH224035   0.935   5.134   4.844
 8031TIP3    H124036   0.906   5.103   4.930
 8031TIP3    H224037   0.995   5.207   4.864
 8032TIP3   OH224038   0.823   6.195   4.805
 8032TIP3    H124039   0.734   6.185   4.837
 8032TIP3    H224040   0.824   6.279   4.760
 8033TIP3   OH224041   1.139   5.083   5.186
 8033TIP3    H124042   1.052   5.094   5.146
 8033TIP3    H224043   1.201   5.107   5.118
 8034TIP3   OH224044   0.425   4.759   5.186
 8034TIP3    H124045   0.437   4.670   5.220
 8034TIP3    H224046   0.430   4.815   5.263
 8035TIP3   OH224047   0.563   6.229   4.558
 8035TIP3    H124048   0.574   6.139   4.526
 8035TIP3    H224049   0.587   6.284   4.484
 8036TIP3   OH224050   0.625   5.979   4.438
 8036TIP3    H124051   0.664   5.932   4.364
 8036TIP3    H224052   0.685   5.964   4.511
 8037TIP3   OH224053   1.044   6.095   5.163
 8037TIP3    H124054   1.022   6.019   5.109
 8037TIP3    H224055   1.028   6.170   5.107
 8038TIP3   OH224056   0.383   5.543   4.456
 8038TIP3    H124057   0.296   5.574   4.483
 8038TIP3    H224058   0.390   5.571   4.364
 8039TIP3   OH224059   0.348   5.248   4.134
 8039TIP3    H124060   0.405   5.304   4.187
 8039TIP3    H224061   0.408   5.199   4.078
 8040TIP3   OH224062   1.225   5.751   5.024
 8040TIP3    H124063   1.140   5.794   5.022
 8040TIP3    H224064   1.259   5.760   4.935
 8041TIP3   OH224065   0.707   5.580   4.385
 8041TIP3    H124066   0.662   5.615   4.462
 8041TIP3    H224067   0.790   5.546   4.419
 8042TIP3   OH224068   0.958   5.620   5.351
 8042TIP3    H124069   0.941   5.702   5.396
 8042TIP3    H224070   0.876   5.600   5.306
 8043TIP3   OH224071   0.584   6.202   4.936
 8043TIP3    H124072   0.571   6.291   4.971
 8043TIP3    H224073   0.620   6.153   5.010
 8044TIP3   OH224074   0.552   5.419   4.222
 8044TIP3    H124075   0.594   5.487   4.275
 8044TIP3    H224076   0.583   5.436   4.132
 8045TIP3   OH224077   1.043   4.656   4.269
 8045TIP3    H124078   0.968   4.672   4.326
 8045TIP3    H224079   1.051   4.736   4.217
 8046TIP3   OH224080   0.851   6.044   3.824
 8046TIP3    H124081   0.852   6.136   3.798
 8046TIP3    H224082   0.939   6.013   3.805
 8047TIP3   OH224083   1.276   6.462   5.232
 8047TIP3    H124084   1.283   6.367   5.240
 8047TIP3    H224085   1.192   6.483   5.271
 8048TIP3   OH224086   0.338   6.264   3.934
 8048TIP3    H124087   0.405   6.203   3.904
 8048TIP3    H224088   0.367   6.290   4.022
 8049TIP3   OH224089   0.421   6.328   4.204
 8049TIP3    H124090   0.390   6.239   4.221
 8049TIP3    H224091   0.501   6.336   4.257
 8050TIP3   OH224092   1.172   5.563   5.515
 8050TIP3    H124093   1.099   5.577   5.454
 8050TIP3    H224094   1.190   5.469   5.510
 8051TIP3   OH224095   0.760   4.933   5.489
 8051TIP3    H124096   0.829   4.903   5.548
 8051TIP3    H224097   0.690   4.965   5.546
 8052TIP3   OH224098   0.927   5.341   5.420
 8052TIP3    H124099   0.898   5.328   5.510
 8052TIP3    H224100   0.914   5.434   5.403
 8053TIP3   OH224101   0.645   5.451   3.972
 8053TIP3    H124102   0.598   5.440   3.889
 8053TIP3    H224103   0.727   5.495   3.946
 8054TIP3   OH224104   0.333   4.858   4.230
 8054TIP3    H124105   0.323   4.859   4.325
 8054TIP3    H224106   0.296   4.774   4.203
 8055TIP3   OH224107   0.509   5.321   4.547
 8055TIP3    H124108   0.455   5.395   4.519
 8055TIP3    H224109   0.548   5.287   4.467
 8056TIP3   OH224110   0.684   5.569   5.638
 8056TIP3    H124111   0.654   5.512   5.708
 8056TIP3    H224112   0.778   5.578   5.653
 8057TIP3   OH224113   0.673   5.318   4.764
 8057TIP3    H124114   0.617   5.340   4.690
 8057TIP3    H224115   0.717   5.237   4.739
 8058TIP3   OH224116   0.728   5.522   5.248
 8058TIP3    H124117   0.748   5.463   5.176
 8058TIP3    H224118   0.661   5.476   5.298
 8059TIP3   OH224119   0.370   4.951   4.912
 8059TIP3    H124120   0.304   4.962   4.981
 8059TIP3    H224121   0.453   4.973   4.955
 8060TIP3   OH224122   0.825   5.079   5.093
 8060TIP3    H124123   0.798   5.106   5.181
 8060TIP3    H224124   0.758   5.018   5.064
 8061TIP3   OH224125   0.977   6.796   5.326
 8061TIP3    H124126   0.963   6.791   5.231
 8061TIP3    H224127   1.056   6.849   5.336
 8062TIP3   OH224128   0.493   5.395   4.951
 8062TIP3    H124129   0.548   5.369   4.877
 8062TIP3    H224130   0.419   5.334   4.949
 8063TIP3   OH224131   0.426   5.206   5.223
 8063TIP3    H124132   0.405   5.299   5.227
 8063TIP3    H224133   0.519   5.202   5.247
 8064TIP3   OH224134   0.993   5.893   4.986
 8064TIP3    H124135   1.031   5.942   4.914
 8064TIP3    H224136   0.919   5.846   4.948
 8065TIP3   OH224137   0.586   4.944   4.270
 8065TIP3    H124138   0.492   4.934   4.251
 8065TIP3    H224139   0.597   5.038   4.285
 8066TIP3   OH224140   0.519   6.042   5.388
 8066TIP3    H124141   0.541   5.951   5.405
 8066TIP3    H224142   0.424   6.042   5.376
 8067TIP3   OH224143   0.652   5.199   4.341
 8067TIP3    H124144   0.747   5.207   4.351
 8067TIP3    H224145   0.628   5.273   4.286
 8068TIP3   OH224146   0.135   5.814   4.207
 8068TIP3    H124147   0.080   5.891   4.220
 8068TIP3    H224148   0.088   5.743   4.251
 8069TIP3   OH224149   0.439   5.698   5.778
 8069TIP3    H124150   0.414   5.634   5.711
 8069TIP3    H224151   0.521   5.736   5.745
 8070TIP3   OH224152   0.624   6.305   5.298
 8070TIP3    H124153   0.586   6.218   5.305
 8070TIP3    H224154   0.675   6.316   5.378
 8071TIP3   OH224155   1.038   5.303   4.172
 8071TIP3    H124156   0.978   5.257   4.112
 8071TIP3    H224157   1.045   5.391   4.137
 8072TIP3   OH224158   1.291   6.188   5.240
 8072TIP3    H124159   1.200   6.161   5.242
 8072TIP3    H224160   1.326   6.150   5.159
 8073TIP3   OH224161   0.776   6.109   4.083
 8073TIP3    H124162   0.712   6.044   4.112
 8073TIP3    H224163   0.802   6.078   3.996
 8074TIP3   OH224164   0.801   5.754   4.848
 8074TIP3    H124165   0.709   5.735   4.865
 8074TIP3    H224166   0.837   5.672   4.816
 8075TIP3   OH224167   0.667   6.033   5.135
 8075TIP3    H124168   0.573   6.031   5.154
 8075TIP3    H224169   0.689   5.942   5.115
 8076TIP3   OH224170   0.579   5.898   4.023
 8076TIP3    H124171   0.618   5.856   4.099
 8076TIP3    H224172   0.536   5.826   3.976
 8077TIP3   OH224173   0.795   6.460   5.143
 8077TIP3    H124174   0.728   6.406   5.184
 8077TIP3    H224175   0.748   6.513   5.078
 8078TIP3   OH224176   0.857   6.316   3.779
 8078TIP3    H124177   0.858   6.369   3.699
 8078TIP3    H224178   0.790   6.357   3.834
 8079TIP3   OH224179   0.727   5.809   4.235
 8079TIP3    H124180   0.710   5.727   4.281
 8079TIP3    H224181   0.819   5.804   4.210
 8080TIP3   OH224182   0.731   5.164   5.335
 8080TIP3    H124183   0.806   5.217   5.363
 8080TIP3    H224184   0.732   5.089   5.393
 8081TIP3   OH224185   0.651   4.869   4.525
 8081TIP3    H124186   0.621   4.886   4.436
 8081TIP3    H224187   0.699   4.948   4.550
 8082TIP3   OH224188   0.209   5.100   4.708
 8082TIP3    H124189   0.184   5.190   4.688
 8082TIP3    H224190   0.303   5.097   4.692
 8083TIP3   OH224191   0.587   5.391   5.452
 8083TIP3    H124192   0.642   5.430   5.520
 8083TIP3    H224193   0.616   5.300   5.446
 8084TIP3   OH224194   0.493   4.769   4.734
 8084TIP3    H124195   0.458   4.848   4.776
 8084TIP3    H224196   0.550   4.803   4.664
 8085TIP3   OH224197   1.193   5.290   5.403
 8085TIP3    H124198   1.098   5.299   5.414
 8085TIP3    H224199   1.203   5.232   5.328
 8086TIP3   OH224200   0.885   5.497   4.784
 8086TIP3    H124201   0.804   5.445   4.788
 8086TIP3    H224202   0.946   5.451   4.841
 8087TIP3   OH224203   0.841   6.464   4.740
 8087TIP3    H124204   0.795   6.500   4.665
 8087TIP3    H224205   0.934   6.476   4.720
 8088TIP3   OH224206   0.801   6.303   5.517
 8088TIP3    H124207   0.762   6.261   5.594
 8088TIP3    H224208   0.830   6.231   5.462
 8089TIP3   OH224209   0.511   6.081   3.830
 8089TIP3    H124210   0.548   6.024   3.898
 8089TIP3    H224211   0.567   6.066   3.753
 8090TIP3   OH224212   0.219   5.784   3.943
 8090TIP3    H124213   0.182   5.802   4.029
 8090TIP3    H224214   0.167   5.710   3.911
 8091TIP3   OH224215   0.846   6.082   5.353
 8091TIP3    H124216   0.918   6.092   5.291
 8091TIP3    H224217   0.769   6.068   5.298
 8092TIP3   OH224218   8.462   5.305   4.201
 8092TIP3    H124219   8.476   5.302   4.106
 8092TIP3    H224220   8.529   5.366   4.232
 8093TIP3   OH224221   0.708   5.906   5.703
 8093TIP3    H124222   0.738   5.862   5.624
 8093TIP3    H224223   0.729   5.845   5.774
 8094TIP3   OH224224   0.855   5.565   3.835
 8094TIP3    H124225   0.834   5.517   3.755
 8094TIP3    H224226   0.824   5.654   3.820
 8095TIP3   OH224227   0.338   4.986   5.378
 8095TIP3    H124228   0.361   5.040   5.303
 8095TIP3    H224229   0.324   5.049   5.449
 8096TIP3   OH224230   0.518   5.758   5.397
 8096TIP3    H124231   0.562   5.676   5.422
 8096TIP3    H224232   0.425   5.734   5.393
 8097TIP3   OH224233   0.948   5.586   5.716
 8097TIP3    H124234   0.966   5.528   5.790
 8097TIP3    H224235   1.030   5.589   5.667
 8098TIP3   OH224236   0.952   5.867   5.489
 8098TIP3    H124237   0.904   5.941   5.451
 8098TIP3    H224238   1.041   5.876   5.456
 8099TIP3   OH224239   0.494   4.818   5.591
 8099TIP3    H124240   0.453   4.897   5.553
 8099TIP3    H224241   0.433   4.747   5.570
 8100TIP3   OH224242   0.622   5.371   5.819
 8100TIP3    H124243   0.659   5.363   5.907
 8100TIP3    H224244   0.547   5.312   5.819
 8101TIP3   OH224245   0.840   5.287   5.666
 8101TIP3    H124246   0.765   5.301   5.724
 8101TIP3    H224247   0.907   5.249   5.723
 8102TIP3   OH224248   1.052   5.229   5.839
 8102TIP3    H124249   1.083   5.172   5.909
 8102TIP3    H224250   1.026   5.309   5.884
 8103TIP3   OH224251   0.664   4.918   5.779
 8103TIP3    H124252   0.715   4.839   5.797
 8103TIP3    H224253   0.593   4.888   5.722
 8104TIP3   OH224254   0.612   5.078   5.993
 8104TIP3    H124255   0.647   5.022   5.924
 8104TIP3    H224256   0.518   5.076   5.981
 8105TIP3   OH224257   1.114   6.508   4.719
 8105TIP3    H124258   1.135   6.534   4.809
 8105TIP3    H224259   1.177   6.555   4.665
 8106TIP3   OH224260   1.153   6.534   4.995
 8106TIP3    H124261   1.092   6.461   4.984
 8106TIP3    H224262   1.208   6.508   5.069
 8107TIP3   OH224263   1.174   6.253   5.578
 8107TIP3    H124264   1.085   6.267   5.611
 8107TIP3    H224265   1.214   6.341   5.578
 8108TIP3   OH224266   0.996   5.769   4.183
 8108TIP3    H124267   1.055   5.837   4.151
 8108TIP3    H224268   1.043   5.729   4.256
 8109TIP3   OH224269   1.120   5.624   4.382
 8109TIP3    H124270   1.052   5.579   4.432
 8109TIP3    H224271   1.182   5.654   4.448
 8110TIP3   OH224272   1.170   6.020   4.815
 8110TIP3    H124273   1.219   5.946   4.780
 8110TIP3    H224274   1.160   6.080   4.741
 8111TIP3   OH224275   0.983   6.314   5.002
 8111TIP3    H124276   0.912   6.359   5.048
 8111TIP3    H224277   0.939   6.269   4.930
 8112TIP3   OH224278   1.038   5.541   4.035
 8112TIP3    H124279   0.974   5.541   3.963
 8112TIP3    H224280   1.018   5.619   4.086
 8113TIP3   OH224281   0.880   5.191   3.985
 8113TIP3    H124282   0.832   5.228   3.911
 8113TIP3    H224283   0.878   5.096   3.969
 8114TIP3   OH224284   0.930   5.473   4.512
 8114TIP3    H124285   0.933   5.378   4.501
 8114TIP3    H224286   0.917   5.486   4.606
 8115TIP3   OH224287   1.204   5.899   5.376
 8115TIP3    H124288   1.269   5.830   5.367
 8115TIP3    H224289   1.197   5.938   5.289
 8116TIP3   OH224290   1.379   5.686   5.378
 8116TIP3    H124291   1.307   5.645   5.427
 8116TIP3    H224292   1.454   5.630   5.395
 8117TIP3   OH224293   0.861   4.921   3.942
 8117TIP3    H124294   0.928   4.895   4.005
 8117TIP3    H224295   0.781   4.877   3.971
 8118TIP3   OH224296   0.927   5.200   4.410
 8118TIP3    H124297   0.971   5.115   4.419
 8118TIP3    H224298   0.968   5.240   4.333
 8119TIP3   OH224299   1.080   5.358   4.929
 8119TIP3    H124300   1.161   5.380   4.885
 8119TIP3    H224301   1.087   5.398   5.015
 8120TIP3   OH224302   1.149   5.518   5.155
 8120TIP3    H124303   1.081   5.548   5.215
 8120TIP3    H224304   1.176   5.597   5.108
 8121TIP3   OH224305   1.600   5.119   5.700
 8121TIP3    H124306   1.663   5.061   5.658
 8121TIP3    H224307   1.560   5.168   5.628
 8122TIP3   OH224308   1.030   4.944   4.458
 8122TIP3    H124309   1.074   4.932   4.542
 8122TIP3    H224310   0.975   4.867   4.448
 8123TIP3   OH224311   1.449   5.228   5.497
 8123TIP3    H124312   1.361   5.264   5.506
 8123TIP3    H224313   1.437   5.151   5.441
 8124TIP3   OH224314   1.082   4.868   4.100
 8124TIP3    H124315   1.130   4.809   4.043
 8124TIP3    H224316   1.135   4.948   4.102
 8125TIP3   OH224317   0.650   6.390   4.350
 8125TIP3    H124318   0.715   6.385   4.280
 8125TIP3    H224319   0.681   6.459   4.408
 8126TIP3   OH224320   0.621   6.698   5.318
 8126TIP3    H124321   0.588   6.648   5.243
 8126TIP3    H224322   0.655   6.633   5.378
 8127TIP3   OH224323   1.366   4.985   5.381
 8127TIP3    H124324   1.277   4.976   5.347
 8127TIP3    H224325   1.401   4.896   5.381
 8128TIP3   OH224326   0.526   6.469   5.001
 8128TIP3    H124327   0.436   6.472   5.035
 8128TIP3    H224328   0.516   6.468   4.906
 8129TIP3   OH224329   0.771   6.663   4.921
 8129TIP3    H124330   0.733   6.732   4.868
 8129TIP3    H224331   0.778   6.588   4.862
 8130TIP3   OH224332   0.615   4.909   5.034
 8130TIP3    H124333   0.553   4.846   5.071
 8130TIP3    H224334   0.669   4.857   4.974
 8131TIP3   OH224335   1.072   4.838   4.926
 8131TIP3    H124336   1.106   4.883   4.849
 8131TIP3    H224337   0.977   4.838   4.914
 8132TIP3   OH224338   1.185   4.899   4.683
 8132TIP3    H124339   1.254   4.840   4.653
 8132TIP3    H224340   1.221   4.987   4.669
 8133TIP3   OH224341   0.313   4.663   4.924
 8133TIP3    H124342   0.388   4.675   4.866
 8133TIP3    H224343   0.350   4.667   5.012
 8134TIP3   OH224344   0.801   4.766   4.892
 8134TIP3    H124345   0.814   4.721   4.809
 8134TIP3    H224346   0.803   4.696   4.958
 8135TIP3   OH224347   0.865   4.715   4.465
 8135TIP3    H124348   0.784   4.763   4.481
 8135TIP3    H224349   0.852   4.630   4.508
 8136TIP3   OH224350   0.332   4.881   4.503
 8136TIP3    H124351   0.307   4.827   4.578
 8136TIP3    H224352   0.392   4.947   4.540
 8137TIP3   OH224353   0.817   6.373   4.129
 8137TIP3    H124354   0.809   6.279   4.118
 8137TIP3    H224355   0.773   6.410   4.053
 8138TIP3   OH224356   1.021   6.522   5.305
 8138TIP3    H124357   0.944   6.488   5.259
 8138TIP3    H224358   0.999   6.614   5.322
 8139TIP3   OH224359   2.299   5.908   4.063
 8139TIP3    H124360   2.264   5.995   4.043
 8139TIP3    H224361   2.230   5.848   4.036
 8140TIP3   OH224362   2.297   5.904   4.489
 8140TIP3    H124363   2.350   5.884   4.566
 8140TIP3    H224364   2.253   5.822   4.469
 8141TIP3   OH224365   1.596   5.765   4.837
 8141TIP3    H124366   1.634   5.710   4.905
 8141TIP3    H224367   1.669   5.786   4.778
 8142TIP3   OH224368   2.565   6.212   4.159
 8142TIP3    H124369   2.552   6.145   4.227
 8142TIP3    H224370   2.585   6.291   4.208
 8143TIP3   OH224371   1.585   6.219   4.562
 8143TIP3    H124372   1.566   6.125   4.553
 8143TIP3    H224373   1.676   6.228   4.536
 8144TIP3   OH224374   1.272   5.398   4.306
 8144TIP3    H124375   1.230   5.482   4.327
 8144TIP3    H224376   1.204   5.347   4.263
 8145TIP3   OH224377   1.346   5.693   4.529
 8145TIP3    H124378   1.395   5.615   4.555
 8145TIP3    H224379   1.404   5.740   4.470
 8146TIP3   OH224380   2.232   6.632   4.179
 8146TIP3    H124381   2.251   6.573   4.105
 8146TIP3    H224382   2.246   6.578   4.257
 8147TIP3   OH224383   2.095   6.126   4.493
 8147TIP3    H124384   2.137   6.048   4.460
 8147TIP3    H224385   2.167   6.183   4.522
 8148TIP3   OH224386   3.138   5.443   4.508
 8148TIP3    H124387   3.155   5.527   4.550
 8148TIP3    H224388   3.162   5.456   4.417
 8149TIP3   OH224389   2.510   5.612   4.527
 8149TIP3    H124390   2.542   5.527   4.554
 8149TIP3    H224391   2.472   5.597   4.440
 8150TIP3   OH224392   1.864   5.265   4.479
 8150TIP3    H124393   1.844   5.339   4.422
 8150TIP3    H224394   1.810   5.194   4.445
 8151TIP3   OH224395   2.565   5.373   4.125
 8151TIP3    H124396   2.629   5.366   4.195
 8151TIP3    H224397   2.615   5.407   4.050
 8152TIP3   OH224398   1.493   5.478   4.615
 8152TIP3    H124399   1.577   5.459   4.656
 8152TIP3    H224400   1.495   5.428   4.533
 8153TIP3   OH224401   1.907   5.684   4.436
 8153TIP3    H124402   2.001   5.670   4.439
 8153TIP3    H224403   1.872   5.604   4.398
 8154TIP3   OH224404   3.194   5.662   4.675
 8154TIP3    H124405   3.106   5.699   4.668
 8154TIP3    H224406   3.230   5.699   4.755
 8155TIP3   OH224407   1.846   5.277   4.939
 8155TIP3    H124408   1.796   5.309   4.864
 8155TIP3    H224409   1.790   5.292   5.015
 8156TIP3   OH224410   2.164   6.118   3.949
 8156TIP3    H124411   2.138   6.099   3.858
 8156TIP3    H224412   2.121   6.202   3.968
 8157TIP3   OH224413   1.940   6.047   4.707
 8157TIP3    H124414   1.888   6.119   4.742
 8157TIP3    H224415   1.988   6.085   4.634
 8158TIP3   OH224416   2.724   5.390   4.348
 8158TIP3    H124417   2.679   5.372   4.430
 8158TIP3    H224418   2.779   5.466   4.366
 8159TIP3   OH224419   1.740   5.376   4.703
 8159TIP3    H124420   1.797   5.450   4.724
 8159TIP3    H224421   1.784   5.331   4.630
 8160TIP3   OH224422   1.788   6.253   4.816
 8160TIP3    H124423   1.771   6.341   4.783
 8160TIP3    H224424   1.712   6.234   4.870
 8161TIP3   OH224425   1.167   5.954   4.061
 8161TIP3    H124426   1.130   5.967   3.974
 8161TIP3    H224427   1.189   6.043   4.091
 8162TIP3   OH224428   2.597   6.464   4.300
 8162TIP3    H124429   2.508   6.456   4.335
 8162TIP3    H224430   2.596   6.545   4.248
 8163TIP3   OH224431   2.938   5.330   4.676
 8163TIP3    H124432   2.853   5.355   4.640
 8163TIP3    H224433   3.001   5.359   4.610
 8164TIP3   OH224434   2.189   4.985   4.669
 8164TIP3    H124435   2.179   4.893   4.692
 8164TIP3    H224436   2.112   5.028   4.706
 8165TIP3   OH224437   2.305   6.484   3.953
 8165TIP3    H124438   2.357   6.404   3.942
 8165TIP3    H224439   2.364   6.555   3.925
 8166TIP3   OH224440   2.462   6.268   3.906
 8166TIP3    H124441   2.463   6.189   3.852
 8166TIP3    H224442   2.500   6.240   3.990
 8167TIP3   OH224443   2.835   6.346   4.644
 8167TIP3    H124444   2.818   6.271   4.587
 8167TIP3    H224445   2.820   6.422   4.588
 8168TIP3   OH224446   2.124   5.748   3.915
 8168TIP3    H124447   2.042   5.793   3.897
 8168TIP3    H224448   2.169   5.744   3.831
 8169TIP3   OH224449   2.095   5.554   3.607
 8169TIP3    H124450   2.164   5.600   3.655
 8169TIP3    H224451   2.140   5.482   3.564
 8170TIP3   OH224452   3.017   6.005   4.513
 8170TIP3    H124453   2.933   6.050   4.511
 8170TIP3    H224454   3.054   6.018   4.425
 8171TIP3   OH224455   2.484   5.842   3.873
 8171TIP3    H124456   2.429   5.868   3.947
 8171TIP3    H224457   2.566   5.814   3.914
 8172TIP3   OH224458   2.713   5.866   4.822
 8172TIP3    H124459   2.710   5.949   4.869
 8172TIP3    H224460   2.632   5.862   4.772
 8173TIP3   OH224461   1.702   5.819   4.290
 8173TIP3    H124462   1.665   5.760   4.225
 8173TIP3    H224463   1.776   5.771   4.327
 8174TIP3   OH224464   1.834   6.246   4.430
 8174TIP3    H124465   1.806   6.228   4.340
 8174TIP3    H224466   1.921   6.206   4.436
 8175TIP3   OH224467   1.807   5.811   4.660
 8175TIP3    H124468   1.843   5.775   4.579
 8175TIP3    H224469   1.858   5.891   4.675
 8176TIP3   OH224470   2.354   6.454   4.425
 8176TIP3    H124471   2.347   6.532   4.481
 8176TIP3    H224472   2.343   6.380   4.485
 8177TIP3   OH224473   1.990   6.352   4.978
 8177TIP3    H124474   1.928   6.409   5.023
 8177TIP3    H224475   1.935   6.297   4.921
 8178TIP3   OH224476   2.317   5.695   3.710
 8178TIP3    H124477   2.375   5.755   3.757
 8178TIP3    H224478   2.344   5.702   3.619
 8179TIP3   OH224479   1.737   5.900   5.125
 8179TIP3    H124480   1.738   5.994   5.143
 8179TIP3    H224481   1.644   5.878   5.116
 8180TIP3   OH224482   2.052   6.375   3.970
 8180TIP3    H124483   2.139   6.416   3.971
 8180TIP3    H224484   1.999   6.434   3.916
 8181TIP3   OH224485   1.774   6.510   5.049
 8181TIP3    H124486   1.751   6.518   4.956
 8181TIP3    H224487   1.690   6.494   5.093
 8182TIP3   OH224488   2.821   4.926   3.760
 8182TIP3    H124489   2.744   4.949   3.812
 8182TIP3    H224490   2.834   5.002   3.703
 8183TIP3   OH224491   1.581   5.659   4.092
 8183TIP3    H124492   1.505   5.703   4.054
 8183TIP3    H224493   1.558   5.566   4.092
 8184TIP3   OH224494   2.651   6.304   3.317
 8184TIP3    H124495   2.647   6.398   3.297
 8184TIP3    H224496   2.740   6.278   3.295
 8185TIP3   OH224497   1.370   6.065   5.010
 8185TIP3    H124498   1.301   6.045   4.946
 8185TIP3    H224499   1.403   5.979   5.036
 8186TIP3   OH224500   1.222   6.235   4.636
 8186TIP3    H124501   1.318   6.232   4.645
 8186TIP3    H224502   1.196   6.308   4.693
 8187TIP3   OH224503   3.064   6.706   4.713
 8187TIP3    H124504   3.069   6.612   4.726
 8187TIP3    H224505   2.985   6.732   4.760
 8188TIP3   OH224506   2.174   6.497   4.837
 8188TIP3    H124507   2.165   6.587   4.866
 8188TIP3    H224508   2.110   6.448   4.889
 8189TIP3   OH224509   1.949   6.589   3.793
 8189TIP3    H124510   1.905   6.569   3.710
 8189TIP3    H224511   1.915   6.675   3.818
 8190TIP3   OH224512   1.387   6.450   4.174
 8190TIP3    H124513   1.427   6.439   4.260
 8190TIP3    H224514   1.336   6.370   4.161
 8191TIP3   OH224515   2.152   6.523   3.417
 8191TIP3    H124516   2.202   6.450   3.382
 8191TIP3    H224517   2.187   6.537   3.505
 8192TIP3   OH224518   2.203   6.562   3.689
 8192TIP3    H124519   2.117   6.567   3.731
 8192TIP3    H224520   2.260   6.525   3.756
 8193TIP3   OH224521   2.956   5.825   4.985
 8193TIP3    H124522   2.875   5.833   4.934
 8193TIP3    H224523   2.975   5.731   4.983
 8194TIP3   OH224524   1.569   6.251   4.989
 8194TIP3    H124525   1.622   6.237   5.068
 8194TIP3    H224526   1.501   6.184   4.993
 8195TIP3   OH224527   1.950   5.063   4.795
 8195TIP3    H124528   1.867   5.028   4.762
 8195TIP3    H224529   1.925   5.141   4.843
 8196TIP3   OH224530   2.498   5.176   4.996
 8196TIP3    H124531   2.569   5.151   5.056
 8196TIP3    H224532   2.418   5.160   5.046
 8197TIP3   OH224533   2.714   5.599   4.910
 8197TIP3    H124534   2.674   5.596   4.997
 8197TIP3    H224535   2.700   5.689   4.880
 8198TIP3   OH224536   2.396   5.693   3.449
 8198TIP3    H124537   2.348   5.688   3.367
 8198TIP3    H224538   2.478   5.738   3.427
 8199TIP3   OH224539   2.102   5.136   3.764
 8199TIP3    H124540   2.055   5.104   3.841
 8199TIP3    H224541   2.036   5.141   3.695
 8200TIP3   OH224542   1.891   5.587   4.801
 8200TIP3    H124543   1.845   5.593   4.885
 8200TIP3    H224544   1.868   5.668   4.756
 8201TIP3   OH224545   1.771   5.471   4.323
 8201TIP3    H124546   1.682   5.445   4.347
 8201TIP3    H224547   1.782   5.440   4.234
 8202TIP3   OH224548   2.249   5.543   4.052
 8202TIP3    H124549   2.200   5.615   4.011
 8202TIP3    H224550   2.306   5.511   3.983
 8203TIP3   OH224551   2.437   5.811   5.124
 8203TIP3    H124552   2.410   5.743   5.186
 8203TIP3    H224553   2.529   5.826   5.144
 8204TIP3   OH224554   2.417   5.559   4.274
 8204TIP3    H124555   2.349   5.580   4.211
 8204TIP3    H224556   2.465   5.486   4.235
 8205TIP3   OH224557   1.728   5.602   5.023
 8205TIP3    H124558   1.757   5.660   5.094
 8205TIP3    H224559   1.708   5.519   5.067
 8206TIP3   OH224560   1.314   5.123   4.605
 8206TIP3    H124561   1.388   5.159   4.653
 8206TIP3    H224562   1.349   5.104   4.518
 8207TIP3   OH224563   1.225   5.106   4.112
 8207TIP3    H124564   1.271   5.140   4.036
 8207TIP3    H224565   1.159   5.172   4.133
 8208TIP3   OH224566   2.461   5.812   4.702
 8208TIP3    H124567   2.485   5.746   4.637
 8208TIP3    H224568   2.417   5.762   4.772
 8209TIP3   OH224569   2.134   5.259   4.373
 8209TIP3    H124570   2.055   5.258   4.427
 8209TIP3    H224571   2.206   5.253   4.436
 8210TIP3   OH224572   1.532   5.344   4.381
 8210TIP3    H124573   1.444   5.349   4.343
 8210TIP3    H224574   1.562   5.255   4.361
 8211TIP3   OH224575   1.783   5.349   4.078
 8211TIP3    H124576   1.878   5.352   4.063
 8211TIP3    H224577   1.745   5.365   3.992
 8212TIP3   OH224578   2.579   5.350   4.585
 8212TIP3    H124579   2.560   5.367   4.678
 8212TIP3    H224580   2.510   5.290   4.557
 8213TIP3   OH224581   1.664   5.386   3.836
 8213TIP3    H124582   1.603   5.331   3.787
 8213TIP3    H224583   1.723   5.421   3.770
 8214TIP3   OH224584   2.779   7.051   4.802
 8214TIP3    H124585   2.774   7.067   4.707
 8214TIP3    H224586   2.858   7.097   4.830
 8215TIP3   OH224587   1.719   6.169   5.217
 8215TIP3    H124588   1.801   6.184   5.264
 8215TIP3    H224589   1.652   6.171   5.286
 8216TIP3   OH224590   2.182   5.633   4.482
 8216TIP3    H124591   2.245   5.584   4.430
 8216TIP3    H224592   2.181   5.589   4.567
 8217TIP3   OH224593   1.672   5.098   4.355
 8217TIP3    H124594   1.646   5.017   4.399
 8217TIP3    H224595   1.688   5.071   4.264
 8218TIP3   OH224596   2.157   5.530   4.745
 8218TIP3    H124597   2.069   5.561   4.769
 8218TIP3    H224598   2.216   5.582   4.799
 8219TIP3   OH224599   1.885   5.887   3.860
 8219TIP3    H124600   1.812   5.829   3.838
 8219TIP3    H224601   1.861   5.925   3.944
 8220TIP3   OH224602   2.781   6.141   4.466
 8220TIP3    H124603   2.818   6.189   4.392
 8220TIP3    H224604   2.702   6.100   4.432
 8221TIP3   OH224605   2.363   5.203   3.768
 8221TIP3    H124606   2.269   5.185   3.766
 8221TIP3    H224607   2.369   5.298   3.780
 8222TIP3   OH224608   2.300   6.225   4.872
 8222TIP3    H124609   2.355   6.213   4.949
 8222TIP3    H224610   2.265   6.314   4.881
 8223TIP3   OH224611   2.417   5.468   3.839
 8223TIP3    H124612   2.512   5.475   3.847
 8223TIP3    H224613   2.392   5.544   3.786
 8224TIP3   OH224614   1.595   5.942   4.516
 8224TIP3    H124615   1.622   5.911   4.430
 8224TIP3    H224616   1.651   5.896   4.577
 8225TIP3   OH224617   2.041   6.046   3.702
 8225TIP3    H124618   1.994   6.129   3.700
 8225TIP3    H224619   1.986   5.988   3.755
 8226TIP3   OH224620   1.461   5.836   5.148
 8226TIP3    H124621   1.466   5.806   5.238
 8226TIP3    H224622   1.390   5.785   5.109
 8227TIP3   OH224623   2.206   5.966   5.163
 8227TIP3    H124624   2.138   5.907   5.130
 8227TIP3    H224625   2.288   5.926   5.135
 8228TIP3   OH224626   2.445   6.514   4.762
 8228TIP3    H124627   2.350   6.502   4.764
 8228TIP3    H224628   2.467   6.552   4.847
 8229TIP3   OH224629   2.829   5.555   3.652
 8229TIP3    H124630   2.774   5.508   3.589
 8229TIP3    H224631   2.834   5.644   3.618
 8230TIP3   OH224632   3.080   6.427   4.736
 8230TIP3    H124633   2.986   6.411   4.728
 8230TIP3    H224634   3.116   6.398   4.652
 8231TIP3   OH224635   2.572   6.378   3.580
 8231TIP3    H124636   2.543   6.307   3.636
 8231TIP3    H224637   2.591   6.337   3.496
 8232TIP3   OH224638   2.551   6.007   4.363
 8232TIP3    H124639   2.461   5.985   4.386
 8232TIP3    H224640   2.586   5.927   4.325
 8233TIP3   OH224641   1.700   6.242   4.182
 8233TIP3    H124642   1.705   6.320   4.127
 8233TIP3    H224643   1.610   6.210   4.171
 8234TIP3   OH224644   1.266   5.524   3.881
 8234TIP3    H124645   1.310   5.607   3.902
 8234TIP3    H224646   1.188   5.524   3.936
 8235TIP3   OH224647   1.792   5.995   4.090
 8235TIP3    H124648   1.782   6.085   4.122
 8235TIP3    H224649   1.763   5.940   4.163
 8236TIP3   OH224650   1.986   6.566   4.633
 8236TIP3    H124651   2.023   6.638   4.582
 8236TIP3    H224652   2.060   6.531   4.682
 8237TIP3   OH224653   1.622   6.467   4.029
 8237TIP3    H124654   1.535   6.474   4.068
 8237TIP3    H224655   1.655   6.557   4.030
 8238TIP3   OH224656   2.334   6.230   4.597
 8238TIP3    H124657   2.325   6.225   4.692
 8238TIP3    H224658   2.406   6.171   4.576
 8239TIP3   OH224659   2.339   6.108   3.479
 8239TIP3    H124660   2.380   6.091   3.564
 8239TIP3    H224661   2.255   6.062   3.484
 8240TIP3   OH224662   2.596   6.728   4.645
 8240TIP3    H124663   2.526   6.665   4.660
 8240TIP3    H224664   2.566   6.781   4.571
 8241TIP3   OH224665   2.654   6.579   3.286
 8241TIP3    H124666   2.698   6.650   3.240
 8241TIP3    H224667   2.577   6.619   3.325
 8242TIP3   OH224668   1.674   5.352   5.145
 8242TIP3    H124669   1.579   5.360   5.149
 8242TIP3    H224670   1.696   5.293   5.217
 8243TIP3   OH224671   2.506   6.058   3.702
 8243TIP3    H124672   2.489   5.983   3.758
 8243TIP3    H224673   2.600   6.053   3.682
 8244TIP3   OH224674   1.459   6.417   4.785
 8244TIP3    H124675   1.521   6.374   4.727
 8244TIP3    H224676   1.474   6.376   4.871
 8245TIP3   OH224677   1.683   6.072   3.487
 8245TIP3    H124678   1.692   5.981   3.459
 8245TIP3    H224679   1.667   6.067   3.581
 8246TIP3   OH224680   1.627   6.089   3.759
 8246TIP3    H124681   1.698   6.061   3.816
 8246TIP3    H224682   1.628   6.185   3.765
 8247TIP3   OH224683   1.361   5.776   3.968
 8247TIP3    H124684   1.296   5.823   4.018
 8247TIP3    H224685   1.382   5.833   3.894
 8248TIP3   OH224686   2.520   5.409   4.848
 8248TIP3    H124687   2.599   5.454   4.879
 8248TIP3    H224688   2.514   5.331   4.904
 8249TIP3   OH224689   2.415   5.154   4.037
 8249TIP3    H124690   2.392   5.173   3.946
 8249TIP3    H224691   2.457   5.235   4.068
 8250TIP3   OH224692   1.897   6.274   3.698
 8250TIP3    H124693   1.813   6.300   3.736
 8250TIP3    H224694   1.921   6.347   3.641
 8251TIP3   OH224695   2.065   5.345   4.116
 8251TIP3    H124696   2.126   5.414   4.090
 8251TIP3    H224697   2.087   5.326   4.207
 8252TIP3   OH224698   2.362   5.645   4.898
 8252TIP3    H124699   2.388   5.687   4.980
 8252TIP3    H224700   2.411   5.563   4.896
 8253TIP3   OH224701   2.224   5.050   4.208
 8253TIP3    H124702   2.198   5.127   4.258
 8253TIP3    H224703   2.292   5.081   4.149
 8254TIP3   OH224704   1.648   6.363   3.776
 8254TIP3    H124705   1.627   6.434   3.715
 8254TIP3    H224706   1.637   6.401   3.863
 8255TIP3   OH224707   1.728   5.069   4.075
 8255TIP3    H124708   1.724   5.164   4.072
 8255TIP3    H224709   1.817   5.048   4.047
 8256TIP3   OH224710   2.980   5.551   4.895
 8256TIP3    H124711   2.885   5.556   4.904
 8256TIP3    H224712   2.994   5.497   4.817
 8257TIP3   OH224713   2.643   5.748   4.275
 8257TIP3    H124714   2.566   5.693   4.285
 8257TIP3    H224715   2.709   5.708   4.330
 8258TIP3   OH224716   1.382   5.956   3.753
 8258TIP3    H124717   1.453   6.019   3.762
 8258TIP3    H224718   1.413   5.893   3.689
 8259TIP3   OH224719   1.308   5.248   3.894
 8259TIP3    H124720   1.303   5.343   3.893
 8259TIP3    H224721   1.339   5.224   3.807
 8260TIP3   OH224722   2.620   6.731   4.203
 8260TIP3    H124723   2.585   6.782   4.130
 8260TIP3    H224724   2.715   6.738   4.195
 8261TIP3   OH224725   1.690   4.972   4.751
 8261TIP3    H124726   1.662   4.940   4.665
 8261TIP3    H224727   1.678   4.897   4.809
 8262TIP3   OH224728   1.214   6.230   4.136
 8262TIP3    H124729   1.159   6.258   4.209
 8262TIP3    H224730   1.173   6.269   4.058
 8263TIP3   OH224731   1.389   6.746   5.149
 8263TIP3    H124732   1.472   6.770   5.190
 8263TIP3    H224733   1.371   6.658   5.180
 8264TIP3   OH224734   1.858   6.671   5.255
 8264TIP3    H124735   1.951   6.657   5.273
 8264TIP3    H224736   1.840   6.617   5.179
 8265TIP3   OH224737   1.839   6.272   3.378
 8265TIP3    H124738   1.791   6.202   3.422
 8265TIP3    H224739   1.913   6.228   3.337
 8266TIP3   OH224740   2.494   6.616   5.012
 8266TIP3    H124741   2.507   6.544   5.074
 8266TIP3    H224742   2.570   6.673   5.025
 8267TIP3   OH224743   2.281   6.311   3.301
 8267TIP3    H124744   2.316   6.248   3.364
 8267TIP3    H224745   2.340   6.305   3.226
 8268TIP3   OH224746   1.513   6.167   5.407
 8268TIP3    H124747   1.534   6.074   5.417
 8268TIP3    H224748   1.428   6.167   5.362
 8269TIP3   OH224749   1.505   5.767   3.602
 8269TIP3    H124750   1.556   5.740   3.679
 8269TIP3    H224751   1.570   5.779   3.533
 8270TIP3   OH224752   2.136   6.242   5.185
 8270TIP3    H124753   2.097   6.265   5.101
 8270TIP3    H224754   2.174   6.155   5.171
 8271TIP3   OH224755   2.085   5.987   3.438
 8271TIP3    H124756   2.060   5.998   3.530
 8271TIP3    H224757   2.066   5.895   3.419
 8272TIP3   OH224758   2.614   6.290   4.802
 8272TIP3    H124759   2.691   6.315   4.751
 8272TIP3    H224760   2.549   6.358   4.782
 8273TIP3   OH224761   1.632   5.916   5.409
 8273TIP3    H124762   1.705   5.889   5.354
 8273TIP3    H224763   1.670   5.928   5.496
 8274TIP3   OH224764   1.680   5.707   3.814
 8274TIP3    H124765   1.659   5.669   3.900
 8274TIP3    H224766   1.728   5.638   3.768
 8275TIP3   OH224767   1.987   5.784   5.070
 8275TIP3    H124768   1.905   5.831   5.081
 8275TIP3    H224769   2.021   5.814   4.987
 8276TIP3   OH224770   1.820   5.528   3.659
 8276TIP3    H124771   1.790   5.523   3.569
 8276TIP3    H224772   1.916   5.527   3.653
 8277TIP3   OH224773   2.496   6.162   5.151
 8277TIP3    H124774   2.566   6.125   5.097
 8277TIP3    H224775   2.494   6.106   5.229
 8278TIP3   OH224776   2.618   5.816   3.336
 8278TIP3    H124777   2.603   5.774   3.251
 8278TIP3    H224778   2.593   5.907   3.322
 8279TIP3   OH224779   2.097   5.557   5.179
 8279TIP3    H124780   2.101   5.485   5.115
 8279TIP3    H224781   2.061   5.631   5.130
 8280TIP3   OH224782   2.107   5.358   4.975
 8280TIP3    H124783   2.134   5.394   4.891
 8280TIP3    H224784   2.016   5.332   4.962
 8281TIP3   OH224785   2.110   5.888   4.854
 8281TIP3    H124786   2.200   5.915   4.834
 8281TIP3    H224787   2.056   5.947   4.802
 8282TIP3   OH224788   2.705   5.841   5.223
 8282TIP3    H124789   2.741   5.753   5.232
 8282TIP3    H224790   2.781   5.896   5.204
 8283TIP3   OH224791   2.734   6.110   4.965
 8283TIP3    H124792   2.682   6.173   4.915
 8283TIP3    H224793   2.824   6.123   4.935
 8284TIP3   OH224794   1.982   5.642   5.421
 8284TIP3    H124795   1.915   5.577   5.441
 8284TIP3    H224796   2.012   5.619   5.333
 8285TIP3   OH224797   2.230   5.126   5.075
 8285TIP3    H124798   2.190   5.207   5.043
 8285TIP3    H224799   2.163   5.059   5.061
 8286TIP3   OH224800   2.354   5.599   5.278
 8286TIP3    H124801   2.345   5.586   5.373
 8286TIP3    H224802   2.268   5.577   5.243
 8287TIP3   OH224803   2.601   5.556   5.151
 8287TIP3    H124804   2.522   5.555   5.205
 8287TIP3    H224805   2.672   5.529   5.210
 8288TIP3   OH224806   2.834   5.518   5.301
 8288TIP3    H124807   2.850   5.424   5.308
 8288TIP3    H224808   2.831   5.548   5.392
 8289TIP3   OH224809   1.817   5.421   5.484
 8289TIP3    H124810   1.823   5.333   5.446
 8289TIP3    H224811   1.857   5.412   5.571
 8290TIP3   OH224812   2.295   5.105   5.341
 8290TIP3    H124813   2.365   5.040   5.335
 8290TIP3    H224814   2.265   5.116   5.251
 8291TIP3   OH224815   2.390   5.320   5.486
 8291TIP3    H124816   2.360   5.248   5.432
 8291TIP3    H224817   2.317   5.382   5.487
 8292TIP3   OH224818   1.644   6.574   3.594
 8292TIP3    H124819   1.732   6.551   3.565
 8292TIP3    H224820   1.605   6.618   3.519
 8293TIP3   OH224821   1.108   5.948   3.777
 8293TIP3    H124822   1.203   5.960   3.770
 8293TIP3    H224823   1.091   5.862   3.737
 8294TIP3   OH224824   1.015   6.535   4.222
 8294TIP3    H124825   0.950   6.483   4.175
 8294TIP3    H224826   1.059   6.472   4.281
 8295TIP3   OH224827   1.152   6.369   4.396
 8295TIP3    H124828   1.149   6.295   4.455
 8295TIP3    H224829   1.189   6.441   4.448
 8296TIP3   OH224830   2.894   6.770   4.206
 8296TIP3    H124831   2.917   6.802   4.293
 8296TIP3    H224832   2.951   6.820   4.147
 8297TIP3   OH224833   2.910   6.806   4.489
 8297TIP3    H124834   2.864   6.723   4.481
 8297TIP3    H224835   2.981   6.789   4.552
 8298TIP3   OH224836   2.962   6.506   5.065
 8298TIP3    H124837   2.893   6.516   5.130
 8298TIP3    H224838   3.009   6.589   5.067
 8299TIP3   OH224839   2.783   6.023   3.670
 8299TIP3    H124840   2.841   6.092   3.638
 8299TIP3    H224841   2.829   5.984   3.744
 8300TIP3   OH224842   2.914   5.878   3.869
 8300TIP3    H124843   2.847   5.840   3.925
 8300TIP3    H224844   2.979   5.914   3.930
 8301TIP3   OH224845   2.962   6.279   4.304
 8301TIP3    H124846   3.015   6.210   4.263
 8301TIP3    H224847   2.965   6.351   4.242
 8302TIP3   OH224848   2.769   6.567   4.494
 8302TIP3    H124849   2.702   6.612   4.545
 8302TIP3    H224850   2.720   6.528   4.421
 8303TIP3   OH224851   2.823   5.796   3.518
 8303TIP3    H124852   2.753   5.796   3.452
 8303TIP3    H224853   2.806   5.874   3.570
 8304TIP3   OH224854   2.682   5.441   3.451
 8304TIP3    H124855   2.633   5.480   3.379
 8304TIP3    H224856   2.672   5.347   3.438
 8305TIP3   OH224857   2.710   5.740   4.005
 8305TIP3    H124858   2.715   5.646   3.990
 8305TIP3    H224859   2.691   5.749   4.098
 8306TIP3   OH224860   1.334   5.803   4.778
 8306TIP3    H124861   1.325   5.768   4.690
 8306TIP3    H224862   1.428   5.799   4.796
 8307TIP3   OH224863   2.992   6.155   4.870
 8307TIP3    H124864   3.058   6.088   4.854
 8307TIP3    H224865   3.006   6.220   4.801
 8308TIP3   OH224866   3.169   5.944   4.861
 8308TIP3    H124867   3.096   5.903   4.906
 8308TIP3    H224868   3.245   5.889   4.882
 8309TIP3   OH224869   2.640   5.169   3.420
 8309TIP3    H124870   2.702   5.146   3.489
 8309TIP3    H224871   2.556   5.136   3.452
 8310TIP3   OH224872   2.707   5.464   3.894
 8310TIP3    H124873   2.752   5.381   3.906
 8310TIP3    H224874   2.748   5.502   3.816
 8311TIP3   OH224875   2.858   5.626   4.416
 8311TIP3    H124876   2.938   5.643   4.367
 8311TIP3    H224877   2.873   5.666   4.501
 8312TIP3   OH224878   2.934   5.776   4.644
 8312TIP3    H124879   2.861   5.805   4.698
 8312TIP3    H224880   2.965   5.855   4.601
 8313TIP3   OH224881   1.552   5.478   5.432
 8313TIP3    H124882   1.647   5.473   5.445
 8313TIP3    H224883   1.518   5.397   5.469
 8314TIP3   OH224884   3.391   5.378   5.181
 8314TIP3    H124885   3.457   5.320   5.143
 8314TIP3    H224886   3.356   5.427   5.107
 8315TIP3   OH224887   2.822   5.214   3.943
 8315TIP3    H124888   2.866   5.197   4.026
 8315TIP3    H224889   2.758   5.143   3.934
 8316TIP3   OH224890   1.527   5.195   4.773
 8316TIP3    H124891   1.579   5.115   4.776
 8316TIP3    H224892   1.589   5.264   4.752
 8317TIP3   OH224893   1.319   5.458   4.836
 8317TIP3    H124894   1.365   5.444   4.754
 8317TIP3    H224895   1.350   5.543   4.867
 8318TIP3   OH224896   3.243   5.493   4.982
 8318TIP3    H124897   3.159   5.533   5.006
 8318TIP3    H224898   3.220   5.416   4.931
 8319TIP3   OH224899   2.867   5.127   3.580
 8319TIP3    H124900   2.916   5.067   3.524
 8319TIP3    H224901   2.922   5.205   3.584
 8320TIP3   OH224902   1.298   4.973   4.340
 8320TIP3    H124903   1.211   4.955   4.375
 8320TIP3    H224904   1.282   5.026   4.262
 8321TIP3   OH224905   2.451   6.687   3.853
 8321TIP3    H124906   2.507   6.677   3.776
 8321TIP3    H224907   2.491   6.759   3.902
 8322TIP3   OH224908   1.527   5.028   5.154
 8322TIP3    H124909   1.474   5.018   5.233
 8322TIP3    H224910   1.470   5.075   5.093
 8323TIP3   OH224911   1.550   6.489   5.211
 8323TIP3    H124912   1.458   6.464   5.219
 8323TIP3    H224913   1.587   6.473   5.298
 8324TIP3   OH224914   1.751   6.529   4.769
 8324TIP3    H124915   1.706   6.606   4.736
 8324TIP3    H224916   1.839   6.533   4.730
 8325TIP3   OH224917   2.156   6.763   4.920
 8325TIP3    H124918   2.195   6.755   5.007
 8325TIP3    H224919   2.220   6.814   4.870
 8326TIP3   OH224920   2.352   6.912   4.791
 8326TIP3    H124921   2.413   6.858   4.741
 8326TIP3    H224922   2.407   6.968   4.844
 8327TIP3   OH224923   3.157   5.250   4.877
 8327TIP3    H124924   3.072   5.242   4.834
 8327TIP3    H224925   3.193   5.161   4.873
 8328TIP3   OH224926   1.399   6.712   4.828
 8328TIP3    H124927   1.373   6.713   4.736
 8328TIP3    H224928   1.460   6.638   4.836
 8329TIP3   OH224929   1.652   6.767   4.667
 8329TIP3    H124930   1.593   6.832   4.704
 8329TIP3    H224931   1.643   6.777   4.572
 8330TIP3   OH224932   2.066   6.774   4.471
 8330TIP3    H124933   2.005   6.786   4.398
 8330TIP3    H224934   2.080   6.862   4.506
 8331TIP3   OH224935   2.329   6.711   4.526
 8331TIP3    H124936   2.238   6.730   4.502
 8331TIP3    H224937   2.381   6.775   4.476
 8332TIP3   OH224938   2.527   6.877   4.417
 8332TIP3    H124939   2.525   6.966   4.383
 8332TIP3    H224940   2.557   6.823   4.344
 8333TIP3   OH224941   1.349   6.569   4.583
 8333TIP3    H124942   1.375   6.516   4.658
 8333TIP3    H224943   1.405   6.539   4.512
 8334TIP3   OH224944   1.525   6.446   4.418
 8334TIP3    H124945   1.539   6.360   4.457
 8334TIP3    H224946   1.613   6.483   4.408
 8335TIP3   OH224947   1.797   6.522   4.430
 8335TIP3    H124948   1.814   6.430   4.412
 8335TIP3    H224949   1.857   6.544   4.501
 8336TIP3   OH224950   2.362   5.173   4.519
 8336TIP3    H124951   2.317   5.105   4.569
 8336TIP3    H224952   2.428   5.126   4.468
 8337TIP3   OH224953   2.859   5.072   4.398
 8337TIP3    H124954   2.898   5.125   4.329
 8337TIP3    H224955   2.769   5.104   4.404
 8338TIP3   OH224956   2.977   5.160   4.167
 8338TIP3    H124957   3.047   5.100   4.140
 8338TIP3    H224958   3.014   5.248   4.155
 8339TIP3   OH224959   1.604   4.870   4.508
 8339TIP3    H124960   1.514   4.837   4.515
 8339TIP3    H224961   1.657   4.791   4.497
 8340TIP3   OH224962   1.430   4.780   4.173
 8340TIP3    H124963   1.454   4.828   4.094
 8340TIP3    H224964   1.392   4.845   4.231
 8341TIP3   OH224965   2.092   4.900   4.409
 8341TIP3    H124966   2.132   4.950   4.337
 8341TIP3    H224967   2.125   4.943   4.488
 8342TIP3   OH224968   2.568   5.041   4.390
 8342TIP3    H124969   2.575   5.014   4.298
 8342TIP3    H224970   2.581   4.961   4.440
 8343TIP3   OH224971   2.632   5.008   3.943
 8343TIP3    H124972   2.553   5.055   3.969
 8343TIP3    H224973   2.620   4.919   3.977
 8344TIP3   OH224974   1.099   6.349   3.916
 8344TIP3    H124975   1.017   6.318   3.878
 8344TIP3    H224976   1.103   6.441   3.892
 8345TIP3   OH224977   1.527   4.917   3.940
 8345TIP3    H124978   1.574   4.861   3.878
 8345TIP3    H224979   1.595   4.970   3.981
 8346TIP3   OH224980   2.005   5.090   4.026
 8346TIP3    H124981   2.068   5.042   4.079
 8346TIP3    H224982   2.022   5.182   4.045
 8347TIP3   OH224983   1.898   6.496   3.522
 8347TIP3    H124984   1.981   6.523   3.484
 8347TIP3    H224985   1.868   6.424   3.466
 8348TIP3   OH224986   2.603   6.648   3.622
 8348TIP3    H124987   2.599   6.553   3.614
 8348TIP3    H224988   2.562   6.682   3.543
 8349TIP3   OH224989   1.828   5.149   5.398
 8349TIP3    H124990   1.793   5.082   5.456
 8349TIP3    H224991   1.920   5.156   5.423
 8350TIP3   OH224992   2.076   5.157   5.519
 8350TIP3    H124993   2.154   5.135   5.469
 8350TIP3    H224994   2.069   5.087   5.584
 8351TIP3   OH224995   1.209   6.341   3.578
 8351TIP3    H124996   1.207   6.345   3.673
 8351TIP3    H224997   1.289   6.293   3.557
 8352TIP3   OH224998   2.901   5.248   5.308
 8352TIP3    H124999   2.917   5.218   5.397
 8352TIP3    H225000   2.986   5.243   5.264
 8353TIP3   OH225001   2.815   6.778   4.813
 8353TIP3    H125002   2.742   6.748   4.758
 8353TIP3    H225003   2.804   6.873   4.818
 8354TIP3   OH225004   4.092   6.163   3.555
 8354TIP3    H125005   4.070   6.252   3.527
 8354TIP3    H225006   4.022   6.108   3.518
 8355TIP3   OH225007   4.094   6.161   3.975
 8355TIP3    H125008   4.147   6.140   4.052
 8355TIP3    H225009   4.049   6.079   3.954
 8356TIP3   OH225010   3.391   6.018   4.320
 8356TIP3    H125011   3.430   5.966   4.390
 8356TIP3    H225012   3.465   6.043   4.265
 8357TIP3   OH225013   4.358   6.468   3.650
 8357TIP3    H125014   4.349   6.401   3.717
 8357TIP3    H225015   4.381   6.547   3.698
 8358TIP3   OH225016   3.381   6.450   4.012
 8358TIP3    H125017   3.364   6.356   4.016
 8358TIP3    H225018   3.476   6.456   3.999
 8359TIP3   OH225019   3.066   5.651   3.790
 8359TIP3    H125020   3.027   5.736   3.814
 8359TIP3    H225021   2.994   5.603   3.749
 8360TIP3   OH225022   3.143   5.961   4.013
 8360TIP3    H125023   3.194   5.883   4.038
 8360TIP3    H225024   3.209   6.024   3.984
 8361TIP3   OH225025   4.021   6.894   3.661
 8361TIP3    H125026   4.044   6.831   3.593
 8361TIP3    H225027   4.026   6.844   3.743
 8362TIP3   OH225028   3.897   6.382   3.978
 8362TIP3    H125029   3.942   6.303   3.948
 8362TIP3    H225030   3.967   6.439   4.008
 8363TIP3   OH225031   4.935   5.700   3.995
 8363TIP3    H125032   4.953   5.782   4.041
 8363TIP3    H225033   4.954   5.719   3.904
 8364TIP3   OH225034   4.300   5.867   4.011
 8364TIP3    H125035   4.334   5.782   4.038
 8364TIP3    H225036   4.266   5.852   3.923
 8365TIP3   OH225037   3.662   5.526   3.971
 8365TIP3    H125038   3.642   5.599   3.914
 8365TIP3    H225039   3.606   5.454   3.940
 8366TIP3   OH225040   4.357   5.631   3.609
 8366TIP3    H125041   4.421   5.623   3.680
 8366TIP3    H225042   4.406   5.668   3.536
 8367TIP3   OH225043   3.285   5.740   4.103
 8367TIP3    H125044   3.369   5.723   4.146
 8367TIP3    H225045   3.289   5.689   4.021
 8368TIP3   OH225046   3.704   5.940   3.922
 8368TIP3    H125047   3.799   5.926   3.927
 8368TIP3    H225048   3.670   5.858   3.885
 8369TIP3   OH225049   4.990   5.916   4.163
 8369TIP3    H125050   4.903   5.955   4.157
 8369TIP3    H225051   5.029   5.956   4.241
 8370TIP3   OH225052   3.642   5.533   4.426
 8370TIP3    H125053   3.592   5.568   4.352
 8370TIP3    H225054   3.587   5.549   4.503
 8371TIP3   OH225055   3.995   6.384   3.416
 8371TIP3    H125056   3.957   6.354   3.333
 8371TIP3    H225057   3.939   6.457   3.442
 8372TIP3   OH225058   3.736   6.305   4.190
 8372TIP3    H125059   3.683   6.377   4.224
 8372TIP3    H225060   3.785   6.344   4.117
 8373TIP3   OH225061   4.518   5.645   3.831
 8373TIP3    H125062   4.473   5.627   3.914
 8373TIP3    H225063   4.574   5.721   3.850
 8374TIP3   OH225064   3.533   5.637   4.193
 8374TIP3    H125065   3.589   5.712   4.216
 8374TIP3    H225066   3.580   5.594   4.121
 8375TIP3   OH225067   3.581   6.509   4.296
 8375TIP3    H125068   3.567   6.598   4.264
 8375TIP3    H225069   3.503   6.489   4.348
 8376TIP3   OH225070   2.957   6.209   3.551
 8376TIP3    H125071   2.924   6.230   3.463
 8376TIP3    H225072   2.980   6.294   3.589
 8377TIP3   OH225073   4.396   6.714   3.790
 8377TIP3    H125074   4.308   6.708   3.827
 8377TIP3    H225075   4.397   6.797   3.743
 8378TIP3   OH225076   4.729   5.593   4.157
 8378TIP3    H125077   4.645   5.620   4.120
 8378TIP3    H225078   4.794   5.621   4.093
 8379TIP3   OH225079   3.984   5.244   4.150
 8379TIP3    H125080   3.980   5.152   4.177
 8379TIP3    H225081   3.907   5.284   4.190
 8380TIP3   OH225082   4.101   6.746   3.439
 8380TIP3    H125083   4.153   6.666   3.431
 8380TIP3    H225084   4.158   6.816   3.410
 8381TIP3   OH225085   4.241   6.516   3.403
 8381TIP3    H125086   4.168   6.454   3.401
 8381TIP3    H225087   4.292   6.492   3.480
 8382TIP3   OH225088   4.627   6.603   4.131
 8382TIP3    H125089   4.612   6.527   4.074
 8382TIP3    H225090   4.614   6.679   4.074
 8383TIP3   OH225091   3.919   6.015   3.393
 8383TIP3    H125092   3.836   6.058   3.374
 8383TIP3    H225093   3.968   6.017   3.311
 8384TIP3   OH225094   3.892   5.826   3.085
 8384TIP3    H125095   3.958   5.882   3.125
 8384TIP3    H225096   3.942   5.764   3.032
 8385TIP3   OH225097   4.812   6.257   4.000
 8385TIP3    H125098   4.728   6.303   3.999
 8385TIP3    H225099   4.850   6.274   3.914
 8386TIP3   OH225100   4.271   6.031   3.390
 8386TIP3    H125101   4.221   6.081   3.454
 8386TIP3    H225102   4.362   6.041   3.417
 8387TIP3   OH225103   4.509   6.122   4.309
 8387TIP3    H125104   4.506   6.206   4.355
 8387TIP3    H225105   4.428   6.118   4.259
 8388TIP3   OH225106   3.503   6.072   3.773
 8388TIP3    H125107   3.468   6.012   3.706
 8388TIP3    H225108   3.577   6.024   3.811
 8389TIP3   OH225109   3.642   6.498   3.909
 8389TIP3    H125110   3.618   6.484   3.818
 8389TIP3    H225111   3.729   6.460   3.917
 8390TIP3   OH225112   3.604   6.069   4.145
 8390TIP3    H125113   3.642   6.033   4.065
 8390TIP3    H225114   3.653   6.150   4.160
 8391TIP3   OH225115   4.155   6.711   3.918
 8391TIP3    H125116   4.145   6.789   3.972
 8391TIP3    H225117   4.142   6.638   3.978
 8392TIP3   OH225118   3.778   6.607   4.465
 8392TIP3    H125119   3.717   6.665   4.511
 8392TIP3    H225120   3.723   6.556   4.406
 8393TIP3   OH225121   4.103   5.984   3.177
 8393TIP3    H125122   4.169   6.018   3.237
 8393TIP3    H225123   4.112   6.038   3.099
 8394TIP3   OH225124   3.534   6.153   4.609
 8394TIP3    H125125   3.538   6.247   4.627
 8394TIP3    H225126   3.441   6.133   4.601
 8395TIP3   OH225127   3.854   6.622   3.457
 8395TIP3    H125128   3.935   6.673   3.457
 8395TIP3    H225129   3.795   6.673   3.401
 8396TIP3   OH225130   3.566   6.766   4.549
 8396TIP3    H125131   3.544   6.775   4.456
 8396TIP3    H225132   3.483   6.751   4.593
 8397TIP3   OH225133   4.621   5.178   3.255
 8397TIP3    H125134   4.545   5.201   3.308
 8397TIP3    H225135   4.636   5.255   3.199
 8398TIP3   OH225136   3.379   5.915   3.571
 8398TIP3    H125137   3.304   5.963   3.538
 8398TIP3    H225138   3.346   5.826   3.586
 8399TIP3   OH225139   4.443   6.553   2.824
 8399TIP3    H125140   4.436   6.645   2.798
 8399TIP3    H225141   4.528   6.525   2.791
 8400TIP3   OH225142   3.163   6.322   4.499
 8400TIP3    H125143   3.095   6.303   4.435
 8400TIP3    H225144   3.198   6.236   4.522
 8401TIP3   OH225145   3.012   6.509   4.147
 8401TIP3    H125146   3.106   6.525   4.149
 8401TIP3    H225147   2.972   6.588   4.182
 8402TIP3   OH225148   4.856   6.952   4.204
 8402TIP3    H125149   4.860   6.858   4.218
 8402TIP3    H225150   4.774   6.979   4.246
 8403TIP3   OH225151   3.968   6.749   4.326
 8403TIP3    H125152   3.960   6.840   4.355
 8403TIP3    H225153   3.901   6.702   4.376
 8404TIP3   OH225154   3.749   6.851   3.274
 8404TIP3    H125155   3.700   6.831   3.195
 8404TIP3    H225156   3.711   6.933   3.306
 8405TIP3   OH225157   3.182   6.700   3.659
 8405TIP3    H125158   3.227   6.694   3.744
 8405TIP3    H225159   3.133   6.618   3.653
 8406TIP3   OH225160   3.956   6.758   2.901
 8406TIP3    H125161   4.006   6.682   2.872
 8406TIP3    H225162   3.989   6.776   2.989
 8407TIP3   OH225163   4.001   6.818   3.170
 8407TIP3    H125164   3.915   6.825   3.211
 8407TIP3    H225165   4.057   6.779   3.237
 8408TIP3   OH225166   4.751   6.079   4.474
 8408TIP3    H125167   4.670   6.089   4.424
 8408TIP3    H225168   4.770   5.986   4.470
 8409TIP3   OH225169   3.365   6.508   4.468
 8409TIP3    H125170   3.415   6.493   4.548
 8409TIP3    H225171   3.292   6.446   4.474
 8410TIP3   OH225172   3.746   5.319   4.282
 8410TIP3    H125173   3.662   5.285   4.251
 8410TIP3    H225174   3.723   5.398   4.330
 8411TIP3   OH225175   4.292   5.436   4.485
 8411TIP3    H125176   4.363   5.410   4.544
 8411TIP3    H225177   4.212   5.420   4.535
 8412TIP3   OH225178   4.510   5.856   4.396
 8412TIP3    H125179   4.470   5.852   4.483
 8412TIP3    H225180   4.496   5.946   4.367
 8413TIP3   OH225181   3.900   5.353   3.249
 8413TIP3    H125182   3.863   5.361   3.337
 8413TIP3    H225183   3.863   5.271   3.215
 8414TIP3   OH225184   3.687   5.846   4.290
 8414TIP3    H125185   3.642   5.854   4.374
 8414TIP3    H225186   3.666   5.928   4.244
 8415TIP3   OH225187   3.567   5.725   3.810
 8415TIP3    H125188   3.477   5.702   3.834
 8415TIP3    H225189   3.576   5.694   3.720
 8416TIP3   OH225190   4.043   5.806   3.527
 8416TIP3    H125191   3.996   5.880   3.490
 8416TIP3    H225192   4.104   5.779   3.458
 8417TIP3   OH225193   4.232   6.067   4.611
 8417TIP3    H125194   4.205   5.999   4.673
 8417TIP3    H225195   4.325   6.082   4.631
 8418TIP3   OH225196   4.210   5.819   3.756
 8418TIP3    H125197   4.145   5.846   3.692
 8418TIP3    H225198   4.256   5.746   3.715
 8419TIP3   OH225199   3.525   5.861   4.512
 8419TIP3    H125200   3.543   5.924   4.582
 8419TIP3    H225201   3.506   5.779   4.558
 8420TIP3   OH225202   3.565   5.334   3.226
 8420TIP3    H125203   3.556   5.341   3.321
 8420TIP3    H225204   3.488   5.379   3.192
 8421TIP3   OH225205   3.110   5.382   4.093
 8421TIP3    H125206   3.183   5.418   4.145
 8421TIP3    H225207   3.148   5.364   4.007
 8422TIP3   OH225208   3.020   5.359   3.594
 8422TIP3    H125209   3.065   5.394   3.517
 8422TIP3    H225210   2.957   5.427   3.618
 8423TIP3   OH225211   4.256   6.067   4.188
 8423TIP3    H125212   4.279   6.001   4.124
 8423TIP3    H225213   4.213   6.018   4.258
 8424TIP3   OH225214   3.930   5.516   3.858
 8424TIP3    H125215   3.852   5.517   3.913
 8424TIP3    H225216   4.003   5.510   3.919
 8425TIP3   OH225217   3.326   5.602   3.869
 8425TIP3    H125218   3.238   5.606   3.832
 8425TIP3    H225219   3.355   5.512   3.853
 8426TIP3   OH225220   3.582   5.604   3.563
 8426TIP3    H125221   3.676   5.616   3.553
 8426TIP3    H225222   3.546   5.622   3.476
 8427TIP3   OH225223   4.374   5.606   4.069
 8427TIP3    H125224   4.358   5.623   4.162
 8427TIP3    H225225   4.305   5.546   4.042
 8428TIP3   OH225226   3.471   5.626   3.314
 8428TIP3    H125227   3.408   5.578   3.260
 8428TIP3    H225228   3.525   5.674   3.251
 8429TIP3   OH225229   4.573   7.304   4.291
 8429TIP3    H125230   4.570   7.321   4.196
 8429TIP3    H225231   4.652   7.350   4.321
 8430TIP3   OH225232   3.517   6.420   4.701
 8430TIP3    H125233   3.597   6.440   4.748
 8430TIP3    H225234   3.448   6.428   4.767
 8431TIP3   OH225235   3.977   5.888   3.968
 8431TIP3    H125236   4.044   5.841   3.918
 8431TIP3    H225237   3.978   5.846   4.054
 8432TIP3   OH225238   3.470   5.354   3.854
 8432TIP3    H125239   3.443   5.278   3.906
 8432TIP3    H225240   3.490   5.318   3.768
 8433TIP3   OH225241   3.953   5.788   4.234
 8433TIP3    H125242   3.866   5.821   4.257
 8433TIP3    H225243   4.013   5.840   4.287
 8434TIP3   OH225244   3.675   6.146   3.344
 8434TIP3    H125245   3.602   6.089   3.322
 8434TIP3    H225246   3.652   6.183   3.430
 8435TIP3   OH225247   4.578   6.397   3.954
 8435TIP3    H125248   4.614   6.446   3.880
 8435TIP3    H225249   4.498   6.357   3.920
 8436TIP3   OH225250   4.151   5.466   3.251
 8436TIP3    H125251   4.057   5.445   3.246
 8436TIP3    H225252   4.154   5.562   3.257
 8437TIP3   OH225253   4.095   6.482   4.361
 8437TIP3    H125254   4.147   6.472   4.441
 8437TIP3    H225255   4.056   6.569   4.369
 8438TIP3   OH225256   4.204   5.737   3.303
 8438TIP3    H125257   4.297   5.749   3.324
 8438TIP3    H225258   4.180   5.817   3.256
 8439TIP3   OH225259   3.374   6.161   4.000
 8439TIP3    H125260   3.411   6.141   3.914
 8439TIP3    H225261   3.440   6.131   4.062
 8440TIP3   OH225262   3.836   6.313   3.198
 8440TIP3    H125263   3.786   6.395   3.196
 8440TIP3    H225264   3.778   6.251   3.243
 8441TIP3   OH225265   3.259   6.091   4.632
 8441TIP3    H125266   3.264   6.066   4.724
 8441TIP3    H225267   3.184   6.041   4.598
 8442TIP3   OH225268   4.001   6.223   4.651
 8442TIP3    H125269   3.932   6.163   4.621
 8442TIP3    H225270   4.082   6.182   4.622
 8443TIP3   OH225271   4.239   6.770   4.249
 8443TIP3    H125272   4.144   6.757   4.253
 8443TIP3    H225273   4.261   6.807   4.335
 8444TIP3   OH225274   4.627   5.806   3.144
 8444TIP3    H125275   4.572   5.758   3.081
 8444TIP3    H225276   4.631   5.895   3.109
 8445TIP3   OH225277   4.872   6.673   4.226
 8445TIP3    H125278   4.778   6.660   4.214
 8445TIP3    H225279   4.910   6.649   4.141
 8446TIP3   OH225280   4.366   6.630   3.084
 8446TIP3    H125281   4.345   6.560   3.145
 8446TIP3    H225282   4.387   6.585   3.002
 8447TIP3   OH225283   4.347   6.265   3.852
 8447TIP3    H125284   4.257   6.243   3.875
 8447TIP3    H225285   4.383   6.184   3.814
 8448TIP3   OH225286   3.501   6.500   3.665
 8448TIP3    H125287   3.501   6.576   3.606
 8448TIP3    H225288   3.408   6.487   3.686
 8449TIP3   OH225289   3.061   5.784   3.377
 8449TIP3    H125290   3.104   5.867   3.398
 8449TIP3    H225291   2.980   5.785   3.429
 8450TIP3   OH225292   3.586   6.252   3.577
 8450TIP3    H125293   3.570   6.342   3.605
 8450TIP3    H225294   3.559   6.198   3.651
 8451TIP3   OH225295   3.784   6.821   4.119
 8451TIP3    H125296   3.820   6.894   4.068
 8451TIP3    H225297   3.858   6.787   4.169
 8452TIP3   OH225298   3.414   6.724   3.512
 8452TIP3    H125299   3.328   6.729   3.554
 8452TIP3    H225300   3.449   6.813   3.518
 8453TIP3   OH225301   4.133   6.487   4.087
 8453TIP3    H125302   4.122   6.481   4.182
 8453TIP3    H225303   4.206   6.428   4.068
 8454TIP3   OH225304   4.394   6.980   4.131
 8454TIP3    H125305   4.323   6.918   4.149
 8454TIP3    H225306   4.361   7.035   4.060
 8455TIP3   OH225307   4.446   6.828   2.770
 8455TIP3    H125308   4.479   6.896   2.711
 8455TIP3    H225309   4.371   6.868   2.814
 8456TIP3   OH225310   3.471   5.608   4.633
 8456TIP3    H125311   3.376   5.616   4.639
 8456TIP3    H225312   3.495   5.556   4.709
 8457TIP3   OH225313   3.210   6.720   4.281
 8457TIP3    H125314   3.263   6.660   4.334
 8457TIP3    H225315   3.228   6.806   4.319
 8458TIP3   OH225316   3.461   6.330   2.979
 8458TIP3    H125317   3.488   6.242   2.952
 8458TIP3    H225318   3.454   6.324   3.074
 8459TIP3   OH225319   3.421   6.347   3.253
 8459TIP3    H125320   3.496   6.323   3.307
 8459TIP3    H225321   3.419   6.443   3.257
 8460TIP3   OH225322   3.155   6.035   3.458
 8460TIP3    H125323   3.090   6.083   3.509
 8460TIP3    H225324   3.176   6.093   3.385
 8461TIP3   OH225325   4.320   5.664   4.332
 8461TIP3    H125326   4.397   5.711   4.363
 8461TIP3    H225327   4.312   5.588   4.389
 8462TIP3   OH225328   4.211   5.412   3.518
 8462TIP3    H125329   4.189   5.432   3.427
 8462TIP3    H225330   4.253   5.492   3.550
 8463TIP3   OH225331   3.686   6.539   3.193
 8463TIP3    H125332   3.598   6.564   3.224
 8463TIP3    H225333   3.710   6.608   3.131
 8464TIP3   OH225334   3.862   5.611   3.604
 8464TIP3    H125335   3.922   5.680   3.575
 8464TIP3    H225336   3.887   5.593   3.694
 8465TIP3   OH225337   4.158   5.902   4.386
 8465TIP3    H125338   4.184   5.945   4.468
 8465TIP3    H225339   4.209   5.820   4.386
 8466TIP3   OH225340   4.024   5.307   3.694
 8466TIP3    H125341   4.000   5.384   3.746
 8466TIP3    H225342   4.093   5.338   3.636
 8467TIP3   OH225343   3.433   6.622   3.258
 8467TIP3    H125344   3.417   6.695   3.199
 8467TIP3    H225345   3.423   6.660   3.346
 8468TIP3   OH225346   3.536   5.331   3.506
 8468TIP3    H125347   3.525   5.422   3.533
 8468TIP3    H225348   3.631   5.316   3.512
 8469TIP3   OH225349   4.777   5.807   4.382
 8469TIP3    H125350   4.682   5.812   4.392
 8469TIP3    H225351   4.791   5.758   4.301
 8470TIP3   OH225352   4.439   6.007   3.767
 8470TIP3    H125353   4.361   5.952   3.773
 8470TIP3    H225354   4.504   5.964   3.823
 8471TIP3   OH225355   3.179   6.213   3.242
 8471TIP3    H125356   3.251   6.275   3.253
 8471TIP3    H225357   3.211   6.150   3.177
 8472TIP3   OH225358   3.083   5.506   3.371
 8472TIP3    H125359   3.097   5.600   3.380
 8472TIP3    H225360   3.020   5.498   3.299
 8473TIP3   OH225361   4.420   6.980   3.705
 8473TIP3    H125362   4.379   7.032   3.636
 8473TIP3    H225363   4.514   6.992   3.691
 8474TIP3   OH225364   3.485   5.229   4.243
 8474TIP3    H125365   3.457   5.197   4.157
 8474TIP3    H225366   3.479   5.153   4.301
 8475TIP3   OH225367   3.007   6.477   3.641
 8475TIP3    H125368   2.964   6.516   3.717
 8475TIP3    H225369   2.967   6.519   3.565
 8476TIP3   OH225370   3.214   7.020   4.704
 8476TIP3    H125371   3.296   7.026   4.753
 8476TIP3    H225372   3.204   6.926   4.686
 8477TIP3   OH225373   3.676   6.927   4.743
 8477TIP3    H125374   3.767   6.898   4.751
 8477TIP3    H225375   3.641   6.874   4.671
 8478TIP3   OH225376   3.633   6.516   2.871
 8478TIP3    H125377   3.575   6.455   2.916
 8478TIP3    H225378   3.710   6.464   2.849
 8479TIP3   OH225379   4.290   6.869   4.500
 8479TIP3    H125380   4.304   6.798   4.563
 8479TIP3    H225381   4.364   6.928   4.514
 8480TIP3   OH225382   4.092   6.539   2.796
 8480TIP3    H125383   4.127   6.462   2.842
 8480TIP3    H225384   4.144   6.543   2.715
 8481TIP3   OH225385   3.311   6.420   4.891
 8481TIP3    H125386   3.331   6.327   4.902
 8481TIP3    H225387   3.224   6.421   4.850
 8482TIP3   OH225388   3.299   6.022   3.088
 8482TIP3    H125389   3.350   5.996   3.165
 8482TIP3    H225390   3.364   6.037   3.019
 8483TIP3   OH225391   3.932   6.500   4.669
 8483TIP3    H125392   3.888   6.522   4.586
 8483TIP3    H225393   3.968   6.413   4.655
 8484TIP3   OH225394   3.782   6.265   2.923
 8484TIP3    H125395   3.822   6.279   3.009
 8484TIP3    H225396   3.799   6.174   2.902
 8485TIP3   OH225397   4.409   6.546   4.290
 8485TIP3    H125398   4.485   6.571   4.238
 8485TIP3    H225399   4.343   6.614   4.271
 8486TIP3   OH225400   3.426   6.164   4.896
 8486TIP3    H125401   3.501   6.147   4.840
 8486TIP3    H225402   3.464   6.182   4.982
 8487TIP3   OH225403   3.472   5.961   3.300
 8487TIP3    H125404   3.455   5.929   3.388
 8487TIP3    H225405   3.525   5.893   3.259
 8488TIP3   OH225406   3.790   6.045   4.557
 8488TIP3    H125407   3.706   6.088   4.567
 8488TIP3    H225408   3.822   6.074   4.471
 8489TIP3   OH225409   3.622   5.783   3.146
 8489TIP3    H125410   3.591   5.787   3.056
 8489TIP3    H225411   3.717   5.796   3.140
 8490TIP3   OH225412   4.291   6.419   4.639
 8490TIP3    H125413   4.360   6.381   4.584
 8490TIP3    H225414   4.288   6.363   4.716
 8491TIP3   OH225415   4.481   6.089   2.779
 8491TIP3    H125416   4.424   6.025   2.736
 8491TIP3    H225417   4.429   6.169   2.781
 8492TIP3   OH225418   3.893   5.814   4.665
 8492TIP3    H125419   3.897   5.743   4.601
 8492TIP3    H225420   3.859   5.889   4.616
 8493TIP3   OH225421   3.902   5.615   4.462
 8493TIP3    H125422   3.930   5.652   4.378
 8493TIP3    H225423   3.811   5.590   4.447
 8494TIP3   OH225424   3.907   6.145   4.333
 8494TIP3    H125425   3.996   6.176   4.319
 8494TIP3    H225426   3.851   6.204   4.283
 8495TIP3   OH225427   4.500   6.098   4.710
 8495TIP3    H125428   4.538   6.010   4.721
 8495TIP3    H225429   4.576   6.153   4.691
 8496TIP3   OH225430   4.532   6.366   4.451
 8496TIP3    H125431   4.480   6.429   4.402
 8496TIP3    H225432   4.622   6.380   4.419
 8497TIP3   OH225433   3.777   5.900   4.907
 8497TIP3    H125434   3.709   5.836   4.928
 8497TIP3    H225435   3.807   5.876   4.820
 8498TIP3   OH225436   4.024   5.383   4.563
 8498TIP3    H125437   3.984   5.464   4.530
 8498TIP3    H225438   3.959   5.315   4.548
 8499TIP3   OH225439   4.150   5.855   4.766
 8499TIP3    H125440   4.141   5.842   4.860
 8499TIP3    H225441   4.064   5.834   4.730
 8500TIP3   OH225442   4.395   5.811   4.636
 8500TIP3    H125443   4.317   5.810   4.690
 8500TIP3    H225444   4.466   5.784   4.694
 8501TIP3   OH225445   4.630   5.774   4.784
 8501TIP3    H125446   4.645   5.679   4.792
 8501TIP3    H225447   4.626   5.805   4.874
 8502TIP3   OH225448   3.611   5.679   4.971
 8502TIP3    H125449   3.618   5.591   4.934
 8502TIP3    H225450   3.650   5.672   5.058
 8503TIP3   OH225451   4.092   5.362   4.828
 8503TIP3    H125452   4.160   5.294   4.822
 8503TIP3    H225453   4.062   5.373   4.737
 8504TIP3   OH225454   4.187   5.579   4.970
 8504TIP3    H125455   4.157   5.506   4.915
 8504TIP3    H225456   4.113   5.640   4.970
 8505TIP3   OH225457   3.446   6.833   3.076
 8505TIP3    H125458   3.533   6.806   3.045
 8505TIP3    H225459   3.407   6.878   3.001
 8506TIP3   OH225460   2.905   6.210   3.257
 8506TIP3    H125461   3.000   6.221   3.254
 8506TIP3    H225462   2.890   6.124   3.218
 8507TIP3   OH225463   2.806   6.808   3.725
 8507TIP3    H125464   2.738   6.759   3.677
 8507TIP3    H225465   2.847   6.742   3.782
 8508TIP3   OH225466   2.947   6.626   3.884
 8508TIP3    H125467   2.937   6.557   3.951
 8508TIP3    H225468   3.000   6.693   3.927
 8509TIP3   OH225469   4.690   7.035   3.694
 8509TIP3    H125470   4.713   7.066   3.781
 8509TIP3    H225471   4.748   7.084   3.635
 8510TIP3   OH225472   4.709   7.064   3.978
 8510TIP3    H125473   4.663   6.980   3.969
 8510TIP3    H225474   4.780   7.046   4.039
 8511TIP3   OH225475   4.768   6.770   4.561
 8511TIP3    H125476   4.694   6.774   4.622
 8511TIP3    H225477   4.813   6.854   4.573
 8512TIP3   OH225478   4.622   6.270   3.144
 8512TIP3    H125479   4.673   6.348   3.126
 8512TIP3    H225480   4.656   6.236   3.226
 8513TIP3   OH225481   4.728   6.133   3.362
 8513TIP3    H125482   4.658   6.098   3.417
 8513TIP3    H225483   4.789   6.173   3.423
 8514TIP3   OH225484   4.754   6.537   3.791
 8514TIP3    H125485   4.808   6.467   3.753
 8514TIP3    H225486   4.759   6.608   3.727
 8515TIP3   OH225487   4.568   6.824   3.980
 8515TIP3    H125488   4.501   6.869   4.031
 8515TIP3    H225489   4.520   6.783   3.908
 8516TIP3   OH225490   4.629   6.040   3.002
 8516TIP3    H125491   4.567   6.050   2.929
 8516TIP3    H225492   4.617   6.119   3.054
 8517TIP3   OH225493   4.487   5.687   2.942
 8517TIP3    H125494   4.437   5.730   2.873
 8517TIP3    H225495   4.475   5.593   2.926
 8518TIP3   OH225496   4.529   5.998   3.504
 8518TIP3    H125497   4.525   5.904   3.488
 8518TIP3    H225498   4.503   6.008   3.595
 8519TIP3   OH225499   3.128   6.057   4.268
 8519TIP3    H125500   3.118   6.026   4.179
 8519TIP3    H225501   3.222   6.054   4.285
 8520TIP3   OH225502   4.791   6.412   4.356
 8520TIP3    H125503   4.855   6.343   4.341
 8520TIP3    H225504   4.812   6.479   4.291
 8521TIP3   OH225505   4.964   6.199   4.349
 8521TIP3    H125506   4.891   6.157   4.395
 8521TIP3    H225507   5.040   6.144   4.368
 8522TIP3   OH225508   4.441   5.414   2.915
 8522TIP3    H125509   4.497   5.397   2.991
 8522TIP3    H225510   4.353   5.389   2.944
 8523TIP3   OH225511   4.506   5.723   3.388
 8523TIP3    H125512   4.550   5.639   3.396
 8523TIP3    H225513   4.543   5.762   3.309
 8524TIP3   OH225514   4.654   5.879   3.905
 8524TIP3    H125515   4.733   5.897   3.855
 8524TIP3    H225516   4.668   5.920   3.990
 8525TIP3   OH225517   4.729   6.029   4.132
 8525TIP3    H125518   4.657   6.059   4.187
 8525TIP3    H225519   4.761   6.109   4.089
 8526TIP3   OH225520   3.348   5.739   4.909
 8526TIP3    H125521   3.442   5.735   4.927
 8526TIP3    H225522   3.313   5.658   4.946
 8527TIP3   OH225523   5.192   5.635   4.671
 8527TIP3    H125524   5.254   5.577   4.629
 8527TIP3    H225525   5.152   5.684   4.599
 8528TIP3   OH225526   4.620   5.469   3.427
 8528TIP3    H125527   4.664   5.453   3.510
 8528TIP3    H225528   4.555   5.399   3.421
 8529TIP3   OH225529   3.322   5.453   4.261
 8529TIP3    H125530   3.376   5.374   4.266
 8529TIP3    H225531   3.384   5.524   4.242
 8530TIP3   OH225532   3.102   5.715   4.318
 8530TIP3    H125533   3.153   5.705   4.238
 8530TIP3    H225534   3.129   5.800   4.353
 8531TIP3   OH225535   5.039   5.746   4.474
 8531TIP3    H125536   4.958   5.788   4.501
 8531TIP3    H225537   5.012   5.673   4.419
 8532TIP3   OH225538   4.669   5.380   3.075
 8532TIP3    H125539   4.718   5.321   3.018
 8532TIP3    H225540   4.719   5.461   3.074
 8533TIP3   OH225541   3.091   5.228   3.823
 8533TIP3    H125542   3.005   5.216   3.863
 8533TIP3    H225543   3.074   5.282   3.746
 8534TIP3   OH225544   4.245   6.948   3.336
 8534TIP3    H125545   4.301   6.935   3.260
 8534TIP3    H225546   4.292   7.013   3.389
 8535TIP3   OH225547   3.318   5.279   4.642
 8535TIP3    H125548   3.270   5.278   4.725
 8535TIP3    H225549   3.263   5.329   4.583
 8536TIP3   OH225550   3.339   6.742   4.712
 8536TIP3    H125551   3.246   6.718   4.705
 8536TIP3    H225552   3.361   6.728   4.804
 8537TIP3   OH225553   3.555   6.786   4.267
 8537TIP3    H125554   3.504   6.860   4.234
 8537TIP3    H225555   3.640   6.793   4.224
 8538TIP3   OH225556   3.951   7.016   4.406
 8538TIP3    H125557   3.989   7.009   4.493
 8538TIP3    H225558   4.014   7.070   4.357
 8539TIP3   OH225559   4.140   7.171   4.277
 8539TIP3    H125560   4.200   7.119   4.224
 8539TIP3    H225561   4.198   7.227   4.329
 8540TIP3   OH225562   4.951   5.502   4.364
 8540TIP3    H125563   4.863   5.494   4.329
 8540TIP3    H225564   4.986   5.413   4.361
 8541TIP3   OH225565   3.222   7.019   4.320
 8541TIP3    H125566   3.131   7.038   4.296
 8541TIP3    H225567   3.245   7.087   4.383
 8542TIP3   OH225568   3.447   7.016   4.161
 8542TIP3    H125569   3.364   7.020   4.209
 8542TIP3    H225570   3.424   7.042   4.072
 8543TIP3   OH225571   3.861   7.031   3.955
 8543TIP3    H125572   3.790   7.042   3.892
 8543TIP3    H225573   3.870   7.117   3.996
 8544TIP3   OH225574   4.125   6.972   4.011
 8544TIP3    H125575   4.034   6.989   3.988
 8544TIP3    H225576   4.176   7.036   3.962
 8545TIP3   OH225577   4.326   7.140   3.908
 8545TIP3    H125578   4.326   7.227   3.868
 8545TIP3    H225579   4.357   7.082   3.838
 8546TIP3   OH225580   3.122   6.800   4.031
 8546TIP3    H125581   3.150   6.778   4.120
 8546TIP3    H225582   3.195   6.770   3.975
 8547TIP3   OH225583   3.329   6.690   3.893
 8547TIP3    H125584   3.341   6.606   3.937
 8547TIP3    H225585   3.415   6.732   3.895
 8548TIP3   OH225586   3.597   6.776   3.915
 8548TIP3    H125587   3.616   6.683   3.899
 8548TIP3    H225588   3.651   6.799   3.990
 8549TIP3   OH225589   4.155   5.431   4.003
 8549TIP3    H125590   4.111   5.363   4.054
 8549TIP3    H225591   4.223   5.385   3.954
 8550TIP3   OH225592   4.657   5.339   3.883
 8550TIP3    H125593   4.695   5.389   3.811
 8550TIP3    H225594   4.566   5.370   3.889
 8551TIP3   OH225595   4.777   5.414   3.648
 8551TIP3    H125596   4.847   5.354   3.622
 8551TIP3    H225597   4.814   5.501   3.638
 8552TIP3   OH225598   3.402   5.127   4.000
 8552TIP3    H125599   3.313   5.093   4.008
 8552TIP3    H225600   3.457   5.048   3.995
 8553TIP3   OH225601   3.222   5.034   3.658
 8553TIP3    H125602   3.246   5.083   3.579
 8553TIP3    H225603   3.184   5.100   3.716
 8554TIP3   OH225604   3.885   5.158   3.894
 8554TIP3    H125605   3.927   5.209   3.824
 8554TIP3    H225606   3.918   5.197   3.974
 8555TIP3   OH225607   4.365   5.305   3.877
 8555TIP3    H125608   4.379   5.271   3.789
 8555TIP3    H225609   4.376   5.229   3.934
 8556TIP3   OH225610   4.431   5.260   3.436
 8556TIP3    H125611   4.352   5.310   3.459
 8556TIP3    H225612   4.417   5.174   3.476
 8557TIP3   OH225613   2.897   6.596   3.423
 8557TIP3    H125614   2.811   6.562   3.396
 8557TIP3    H225615   2.902   6.683   3.383
 8558TIP3   OH225616   3.326   5.163   3.416
 8558TIP3    H125617   3.372   5.102   3.358
 8558TIP3    H225618   3.394   5.219   3.451
 8559TIP3   OH225619   3.812   5.358   3.512
 8559TIP3    H125620   3.873   5.308   3.567
 8559TIP3    H225621   3.826   5.449   3.537
 8560TIP3   OH225622   3.697   6.747   3.002
 8560TIP3    H125623   3.783   6.768   2.966
 8560TIP3    H225624   3.667   6.673   2.949
 8561TIP3   OH225625   4.398   6.899   3.109
 8561TIP3    H125626   4.392   6.803   3.105
 8561TIP3    H225627   4.355   6.929   3.029
 8562TIP3   OH225628   3.626   5.408   4.880
 8562TIP3    H125629   3.591   5.343   4.941
 8562TIP3    H225630   3.718   5.416   4.904
 8563TIP3   OH225631   3.874   5.413   5.003
 8563TIP3    H125632   3.952   5.392   4.952
 8563TIP3    H225633   3.869   5.345   5.070
 8564TIP3   OH225634   3.001   6.599   3.061
 8564TIP3    H125635   3.002   6.611   3.156
 8564TIP3    H225636   3.082   6.552   3.042
 8565TIP3   OH225637   4.695   5.503   4.793
 8565TIP3    H125638   4.710   5.473   4.882
 8565TIP3    H225639   4.781   5.498   4.751
 8566TIP3   OH225640   4.609   7.031   4.302
 8566TIP3    H125641   4.538   7.001   4.246
 8566TIP3    H225642   4.599   7.126   4.306
 8567TIP3   OH225643   5.891   6.421   3.037
 8567TIP3    H125644   5.861   6.509   3.012
 8567TIP3    H225645   5.819   6.363   3.010
 8568TIP3   OH225646   5.891   6.412   3.464
 8568TIP3    H125647   5.936   6.395   3.547
 8568TIP3    H225648   5.846   6.330   3.445
 8569TIP3   OH225649   5.187   6.284   3.808
 8569TIP3    H125650   5.217   6.224   3.876
 8569TIP3    H225651   5.267   6.307   3.760
 8570TIP3   OH225652   6.157   6.720   3.137
 8570TIP3    H125653   6.145   6.656   3.206
 8570TIP3    H225654   6.178   6.802   3.182
 8571TIP3   OH225655   5.173   6.702   3.496
 8571TIP3    H125656   5.156   6.608   3.501
 8571TIP3    H225657   5.268   6.709   3.490
 8572TIP3   OH225658   4.864   5.904   3.277
 8572TIP3    H125659   4.828   5.989   3.304
 8572TIP3    H225660   4.791   5.858   3.237
 8573TIP3   OH225661   4.950   6.226   3.505
 8573TIP3    H125662   4.999   6.148   3.530
 8573TIP3    H225663   5.017   6.291   3.483
 8574TIP3   OH225664   5.814   7.153   3.147
 8574TIP3    H125665   5.843   7.090   3.081
 8574TIP3    H225666   5.818   7.105   3.229
 8575TIP3   OH225667   5.696   6.635   3.471
 8575TIP3    H125668   5.741   6.557   3.441
 8575TIP3    H225669   5.765   6.693   3.502
 8576TIP3   OH225670   6.720   5.962   3.486
 8576TIP3    H125671   6.742   6.043   3.531
 8576TIP3    H225672   6.738   5.980   3.393
 8577TIP3   OH225673   6.089   6.128   3.509
 8577TIP3    H125674   6.127   6.044   3.536
 8577TIP3    H225675   6.062   6.114   3.418
 8578TIP3   OH225676   5.457   5.778   3.457
 8578TIP3    H125677   5.435   5.855   3.404
 8578TIP3    H225678   5.394   5.711   3.428
 8579TIP3   OH225679   6.161   5.886   3.101
 8579TIP3    H125680   6.226   5.876   3.170
 8579TIP3    H225681   6.211   5.923   3.027
 8580TIP3   OH225682   5.081   5.998   3.592
 8580TIP3    H125683   5.164   5.979   3.636
 8580TIP3    H225684   5.086   5.947   3.511
 8581TIP3   OH225685   5.506   6.198   3.398
 8581TIP3    H125686   5.600   6.181   3.407
 8581TIP3    H225687   5.470   6.116   3.366
 8582TIP3   OH225688   6.784   6.178   3.649
 8582TIP3    H125689   6.698   6.218   3.644
 8582TIP3    H225690   6.822   6.212   3.730
 8583TIP3   OH225691   5.439   5.791   3.915
 8583TIP3    H125692   5.388   5.831   3.844
 8583TIP3    H225693   5.385   5.803   3.993
 8584TIP3   OH225694   5.789   6.640   2.899
 8584TIP3    H125695   5.751   6.611   2.817
 8584TIP3    H225696   5.737   6.716   2.925
 8585TIP3   OH225697   5.543   6.554   3.689
 8585TIP3    H125698   5.484   6.623   3.721
 8585TIP3    H225699   5.591   6.595   3.617
 8586TIP3   OH225700   6.323   5.890   3.326
 8586TIP3    H125701   6.271   5.882   3.405
 8586TIP3    H225702   6.375   5.969   3.339
 8587TIP3   OH225703   5.329   5.895   3.682
 8587TIP3    H125704   5.381   5.972   3.707
 8587TIP3    H225705   5.379   5.854   3.612
 8588TIP3   OH225706   5.368   6.756   3.773
 8588TIP3    H125707   5.354   6.845   3.740
 8588TIP3    H225708   5.293   6.739   3.830
 8589TIP3   OH225709   4.775   6.480   3.037
 8589TIP3    H125710   4.726   6.500   2.957
 8589TIP3    H225711   4.796   6.565   3.075
 8590TIP3   OH225712   6.193   6.968   3.273
 8590TIP3    H125713   6.106   6.961   3.312
 8590TIP3    H225714   6.191   7.051   3.226
 8591TIP3   OH225715   6.526   5.834   3.645
 8591TIP3    H125716   6.443   5.876   3.622
 8591TIP3    H225717   6.588   5.868   3.581
 8592TIP3   OH225718   5.794   5.531   3.645
 8592TIP3    H125719   5.761   5.484   3.568
 8592TIP3    H225720   5.715   5.554   3.694
 8593TIP3   OH225721   5.904   6.999   2.933
 8593TIP3    H125722   5.956   6.920   2.921
 8593TIP3    H225723   5.960   7.070   2.903
 8594TIP3   OH225724   6.040   6.767   2.890
 8594TIP3    H125725   5.965   6.708   2.891
 8594TIP3    H225726   6.089   6.743   2.969
 8595TIP3   OH225727   6.427   6.861   3.617
 8595TIP3    H125728   6.411   6.785   3.561
 8595TIP3    H225729   6.410   6.937   3.561
 8596TIP3   OH225730   5.718   6.259   2.889
 8596TIP3    H125731   5.635   6.303   2.871
 8596TIP3    H225732   5.764   6.260   2.805
 8597TIP3   OH225733   5.683   6.070   2.581
 8597TIP3    H125734   5.748   6.118   2.631
 8597TIP3    H225735   5.733   6.004   2.532
 8598TIP3   OH225736   6.612   6.515   3.481
 8598TIP3    H125737   6.528   6.561   3.482
 8598TIP3    H225738   6.648   6.532   3.393
 8599TIP3   OH225739   6.076   6.348   2.849
 8599TIP3    H125740   6.021   6.378   2.922
 8599TIP3    H225741   6.160   6.327   2.890
 8600TIP3   OH225742   6.301   6.375   3.781
 8600TIP3    H125743   6.309   6.457   3.829
 8600TIP3    H225744   6.213   6.376   3.745
 8601TIP3   OH225745   5.303   6.331   3.254
 8601TIP3    H125746   5.266   6.271   3.190
 8601TIP3    H225747   5.377   6.284   3.292
 8602TIP3   OH225748   5.438   6.751   3.400
 8602TIP3    H125749   5.418   6.737   3.307
 8602TIP3    H225750   5.525   6.714   3.411
 8603TIP3   OH225751   5.403   6.328   3.621
 8603TIP3    H125752   5.443   6.296   3.540
 8603TIP3    H225753   5.454   6.406   3.644
 8604TIP3   OH225754   5.955   6.961   3.404
 8604TIP3    H125755   5.940   7.042   3.453
 8604TIP3    H225756   5.939   6.891   3.467
 8605TIP3   OH225757   5.570   6.874   3.921
 8605TIP3    H125758   5.512   6.924   3.979
 8605TIP3    H225759   5.512   6.817   3.872
 8606TIP3   OH225760   5.908   6.208   2.681
 8606TIP3    H125761   5.967   6.267   2.728
 8606TIP3    H225762   5.937   6.214   2.589
 8607TIP3   OH225763   5.330   6.411   4.103
 8607TIP3    H125764   5.333   6.506   4.115
 8607TIP3    H225765   5.237   6.392   4.091
 8608TIP3   OH225766   5.655   6.881   2.936
 8608TIP3    H125767   5.737   6.929   2.944
 8608TIP3    H225768   5.596   6.941   2.891
 8609TIP3   OH225769   5.356   7.021   4.027
 8609TIP3    H125770   5.336   7.027   3.934
 8609TIP3    H225771   5.271   7.010   4.070
 8610TIP3   OH225772   6.419   5.436   2.741
 8610TIP3    H125773   6.344   5.457   2.796
 8610TIP3    H225774   6.429   5.513   2.684
 8611TIP3   OH225775   5.175   6.173   3.054
 8611TIP3    H125776   5.101   6.223   3.020
 8611TIP3    H225777   5.138   6.088   3.077
 8612TIP3   OH225778   6.238   6.813   2.294
 8612TIP3    H125779   6.234   6.907   2.275
 8612TIP3    H225780   6.328   6.788   2.274
 8613TIP3   OH225781   4.957   6.582   3.984
 8613TIP3    H125782   4.888   6.561   3.921
 8613TIP3    H225783   4.992   6.497   4.011
 8614TIP3   OH225784   4.818   6.762   3.629
 8614TIP3    H125785   4.913   6.769   3.626
 8614TIP3    H225786   4.789   6.841   3.674
 8615TIP3   OH225787   6.656   7.222   3.687
 8615TIP3    H125788   6.661   7.127   3.700
 8615TIP3    H225789   6.578   7.249   3.734
 8616TIP3   OH225790   5.770   7.010   3.799
 8616TIP3    H125791   5.766   7.099   3.833
 8616TIP3    H225792   5.698   6.964   3.844
 8617TIP3   OH225793   5.545   7.103   2.769
 8617TIP3    H125794   5.500   7.085   2.686
 8617TIP3    H225795   5.510   7.187   2.798
 8618TIP3   OH225796   4.981   6.967   3.146
 8618TIP3    H125797   5.026   6.958   3.231
 8618TIP3    H225798   4.933   6.885   3.137
 8619TIP3   OH225799   5.744   7.037   2.395
 8619TIP3    H125800   5.795   6.964   2.360
 8619TIP3    H225801   5.780   7.051   2.483
 8620TIP3   OH225802   5.799   7.081   2.664
 8620TIP3    H125803   5.714   7.083   2.707
 8620TIP3    H225804   5.860   7.051   2.731
 8621TIP3   OH225805   6.557   6.339   3.965
 8621TIP3    H125806   6.470   6.355   3.928
 8621TIP3    H225807   6.571   6.245   3.951
 8622TIP3   OH225808   5.158   6.767   3.954
 8622TIP3    H125809   5.211   6.751   4.032
 8622TIP3    H225810   5.085   6.705   3.960
 8623TIP3   OH225811   5.544   5.579   3.769
 8623TIP3    H125812   5.462   5.543   3.738
 8623TIP3    H225813   5.519   5.659   3.817
 8624TIP3   OH225814   6.093   5.678   3.971
 8624TIP3    H125815   6.164   5.659   4.032
 8624TIP3    H225816   6.014   5.673   4.025
 8625TIP3   OH225817   6.312   6.108   3.858
 8625TIP3    H125818   6.276   6.105   3.946
 8625TIP3    H225819   6.298   6.199   3.830
 8626TIP3   OH225820   5.987   6.184   2.417
 8626TIP3    H125821   5.942   6.192   2.332
 8626TIP3    H225822   6.068   6.233   2.405
 8627TIP3   OH225823   5.702   5.611   2.739
 8627TIP3    H125824   5.662   5.617   2.826
 8627TIP3    H225825   5.665   5.531   2.701
 8628TIP3   OH225826   5.487   6.107   3.763
 8628TIP3    H125827   5.486   6.140   3.853
 8628TIP3    H225828   5.458   6.181   3.710
 8629TIP3   OH225829   5.363   5.981   3.299
 8629TIP3    H125830   5.274   5.960   3.324
 8629TIP3    H225831   5.371   5.948   3.209
 8630TIP3   OH225832   5.844   6.055   3.025
 8630TIP3    H125833   5.797   6.128   2.985
 8630TIP3    H225834   5.903   6.024   2.955
 8631TIP3   OH225835   6.013   6.073   3.250
 8631TIP3    H125836   5.944   6.095   3.188
 8631TIP3    H225837   6.059   5.999   3.210
 8632TIP3   OH225838   5.286   6.106   3.996
 8632TIP3    H125839   5.356   6.156   4.037
 8632TIP3    H225840   5.282   6.024   4.046
 8633TIP3   OH225841   5.370   5.586   2.713
 8633TIP3    H125842   5.358   5.595   2.808
 8633TIP3    H225843   5.292   5.627   2.675
 8634TIP3   OH225844   4.907   5.639   3.582
 8634TIP3    H125845   4.979   5.675   3.634
 8634TIP3    H225846   4.941   5.634   3.493
 8635TIP3   OH225847   4.817   5.617   3.075
 8635TIP3    H125848   4.857   5.653   2.996
 8635TIP3    H225849   4.753   5.682   3.103
 8636TIP3   OH225850   6.026   6.315   3.697
 8636TIP3    H125851   6.053   6.250   3.632
 8636TIP3    H225852   6.000   6.263   3.773
 8637TIP3   OH225853   5.719   5.768   3.346
 8637TIP3    H125854   5.644   5.781   3.403
 8637TIP3    H225855   5.795   5.770   3.406
 8638TIP3   OH225856   5.123   5.858   3.358
 8638TIP3    H125857   5.035   5.865   3.322
 8638TIP3    H225858   5.148   5.767   3.341
 8639TIP3   OH225859   5.377   5.858   3.053
 8639TIP3    H125860   5.471   5.873   3.042
 8639TIP3    H225861   5.340   5.876   2.967
 8640TIP3   OH225862   6.170   5.866   3.554
 8640TIP3    H125863   6.156   5.878   3.648
 8640TIP3    H225864   6.096   5.812   3.526
 8641TIP3   OH225865   5.267   5.874   2.804
 8641TIP3    H125866   5.203   5.827   2.751
 8641TIP3    H225867   5.318   5.925   2.741
 8642TIP3   OH225868   6.371   7.564   3.775
 8642TIP3    H125869   6.364   7.582   3.681
 8642TIP3    H225870   6.451   7.609   3.802
 8643TIP3   OH225871   5.305   6.682   4.185
 8643TIP3    H125872   5.387   6.696   4.232
 8643TIP3    H225873   5.238   6.684   4.254
 8644TIP3   OH225874   5.775   6.139   3.457
 8644TIP3    H125875   5.850   6.097   3.414
 8644TIP3    H225876   5.775   6.103   3.546
 8645TIP3   OH225877   5.268   5.604   3.342
 8645TIP3    H125878   5.240   5.529   3.394
 8645TIP3    H225879   5.273   5.570   3.252
 8646TIP3   OH225880   5.756   6.047   3.724
 8646TIP3    H125881   5.668   6.081   3.741
 8646TIP3    H225882   5.812   6.096   3.784
 8647TIP3   OH225883   5.481   6.395   2.835
 8647TIP3    H125884   5.405   6.342   2.810
 8647TIP3    H225885   5.455   6.438   2.916
 8648TIP3   OH225886   6.377   6.654   3.439
 8648TIP3    H125887   6.411   6.705   3.365
 8648TIP3    H225888   6.296   6.615   3.407
 8649TIP3   OH225889   5.956   5.712   2.736
 8649TIP3    H125890   5.862   5.692   2.733
 8649TIP3    H225891   5.959   5.807   2.747
 8650TIP3   OH225892   5.883   6.743   3.850
 8650TIP3    H125893   5.940   6.737   3.926
 8650TIP3    H225894   5.842   6.829   3.857
 8651TIP3   OH225895   6.009   5.978   2.808
 8651TIP3    H125896   6.104   5.986   2.819
 8651TIP3    H225897   5.984   6.056   2.757
 8652TIP3   OH225898   5.169   6.412   3.484
 8652TIP3    H125899   5.208   6.395   3.398
 8652TIP3    H225900   5.236   6.384   3.546
 8653TIP3   OH225901   5.634   6.558   2.678
 8653TIP3    H125902   5.586   6.641   2.675
 8653TIP3    H225903   5.578   6.501   2.731
 8654TIP3   OH225904   5.049   6.357   4.123
 8654TIP3    H125905   5.063   6.330   4.214
 8654TIP3    H225906   4.980   6.300   4.091
 8655TIP3   OH225907   5.727   6.457   4.132
 8655TIP3    H125908   5.774   6.441   4.050
 8655TIP3    H225909   5.790   6.503   4.187
 8656TIP3   OH225910   6.042   7.024   3.739
 8656TIP3    H125911   5.947   7.013   3.736
 8656TIP3    H225912   6.061   7.052   3.829
 8657TIP3   OH225913   6.421   6.069   2.626
 8657TIP3    H125914   6.365   6.023   2.565
 8657TIP3    H225915   6.427   6.158   2.591
 8658TIP3   OH225916   6.673   6.939   3.709
 8658TIP3    H125917   6.578   6.925   3.705
 8658TIP3    H225918   6.705   6.912   3.623
 8659TIP3   OH225919   6.162   6.885   2.560
 8659TIP3    H125920   6.132   6.817   2.620
 8659TIP3    H225921   6.178   6.840   2.477
 8660TIP3   OH225922   6.144   6.521   3.341
 8660TIP3    H125923   6.055   6.500   3.370
 8660TIP3    H225924   6.177   6.440   3.303
 8661TIP3   OH225925   5.298   6.757   3.151
 8661TIP3    H125926   5.296   6.833   3.093
 8661TIP3    H225927   5.207   6.747   3.181
 8662TIP3   OH225928   4.856   6.044   2.847
 8662TIP3    H125929   4.897   6.128   2.870
 8662TIP3    H225930   4.778   6.040   2.903
 8663TIP3   OH225931   5.384   6.512   3.058
 8663TIP3    H125932   5.367   6.602   3.086
 8663TIP3    H225933   5.357   6.457   3.131
 8664TIP3   OH225934   5.577   7.081   3.604
 8664TIP3    H125935   5.612   7.155   3.554
 8664TIP3    H225936   5.653   7.048   3.653
 8665TIP3   OH225937   5.214   6.980   2.999
 8665TIP3    H125938   5.128   6.988   3.040
 8665TIP3    H225939   5.251   7.069   3.004
 8666TIP3   OH225940   5.931   6.743   3.579
 8666TIP3    H125941   5.912   6.740   3.673
 8666TIP3    H225942   6.015   6.699   3.571
 8667TIP3   OH225943   5.924   6.620   2.446
 8667TIP3    H125944   5.975   6.589   2.521
 8667TIP3    H225945   5.839   6.577   2.456
 8668TIP3   OH225946   6.188   7.236   3.622
 8668TIP3    H125947   6.121   7.172   3.643
 8668TIP3    H225948   6.152   7.286   3.548
 8669TIP3   OH225949   6.244   7.087   2.261
 8669TIP3    H125950   6.286   7.158   2.213
 8669TIP3    H225951   6.166   7.127   2.300
 8670TIP3   OH225952   5.268   5.851   4.126
 8670TIP3    H125953   5.173   5.862   4.133
 8670TIP3    H225954   5.293   5.804   4.205
 8671TIP3   OH225955   6.099   6.525   2.634
 8671TIP3    H125956   6.085   6.475   2.715
 8671TIP3    H225957   6.194   6.536   2.630
 8672TIP3   OH225958   5.005   6.978   3.770
 8672TIP3    H125959   5.056   6.917   3.822
 8672TIP3    H225960   5.023   7.064   3.808
 8673TIP3   OH225961   5.277   6.585   2.460
 8673TIP3    H125962   5.287   6.493   2.435
 8673TIP3    H225963   5.262   6.582   2.554
 8674TIP3   OH225964   5.218   6.603   2.732
 8674TIP3    H125965   5.281   6.576   2.799
 8674TIP3    H225966   5.216   6.698   2.736
 8675TIP3   OH225967   4.955   6.293   2.936
 8675TIP3    H125968   4.894   6.342   2.991
 8675TIP3    H225969   4.973   6.351   2.862
 8676TIP3   OH225970   6.119   5.910   3.819
 8676TIP3    H125971   6.195   5.959   3.850
 8676TIP3    H225972   6.114   5.834   3.877
 8677TIP3   OH225973   6.016   5.667   3.006
 8677TIP3    H125974   5.996   5.685   2.914
 8677TIP3    H225975   6.058   5.747   3.037
 8678TIP3   OH225976   5.487   6.786   2.670
 8678TIP3    H125977   5.403   6.811   2.708
 8678TIP3    H225978   5.513   6.861   2.617
 8679TIP3   OH225979   5.656   5.865   3.091
 8679TIP3    H125980   5.718   5.933   3.066
 8679TIP3    H225981   5.677   5.846   3.182
 8680TIP3   OH225982   5.958   6.135   3.900
 8680TIP3    H125983   5.963   6.143   3.996
 8680TIP3    H225984   6.008   6.055   3.881
 8681TIP3   OH225985   5.823   5.571   3.178
 8681TIP3    H125986   5.800   5.645   3.234
 8681TIP3    H225987   5.898   5.602   3.126
 8682TIP3   OH225988   5.238   6.875   2.747
 8682TIP3    H125989   5.217   6.946   2.687
 8682TIP3    H225990   5.228   6.914   2.834
 8683TIP3   OH225991   5.335   5.584   2.993
 8683TIP3    H125992   5.314   5.674   3.017
 8683TIP3    H225993   5.430   5.578   3.002
 8684TIP3   OH225994   6.580   6.074   3.862
 8684TIP3    H125995   6.484   6.073   3.866
 8684TIP3    H225996   6.601   6.030   3.780
 8685TIP3   OH225997   6.234   6.262   3.250
 8685TIP3    H125998   6.156   6.207   3.261
 8685TIP3    H225999   6.300   6.221   3.306
 8686TIP3   OH226000   4.972   6.473   2.722
 8686TIP3    H126001   5.044   6.535   2.731
 8686TIP3    H226002   5.004   6.409   2.658
 8687TIP3   OH226003   4.881   5.764   2.852
 8687TIP3    H126004   4.896   5.858   2.866
 8687TIP3    H226005   4.833   5.760   2.769
 8688TIP3   OH226006   6.212   7.232   3.185
 8688TIP3    H126007   6.170   7.284   3.117
 8688TIP3    H226008   6.305   7.247   3.173
 8689TIP3   OH226009   5.288   5.482   3.724
 8689TIP3    H126010   5.258   5.450   3.639
 8689TIP3    H226011   5.282   5.406   3.782
 8690TIP3   OH226012   4.810   6.747   3.123
 8690TIP3    H126013   4.763   6.780   3.200
 8690TIP3    H226014   4.765   6.787   3.048
 8691TIP3   OH226015   5.020   7.284   4.195
 8691TIP3    H126016   5.100   7.303   4.243
 8691TIP3    H226017   5.027   7.191   4.173
 8692TIP3   OH226018   5.468   7.189   4.213
 8692TIP3    H126019   5.558   7.160   4.226
 8692TIP3    H226020   5.434   7.132   4.144
 8693TIP3   OH226021   5.431   6.788   2.352
 8693TIP3    H126022   5.384   6.717   2.397
 8693TIP3    H226023   5.506   6.745   2.311
 8694TIP3   OH226024   6.084   7.094   4.001
 8694TIP3    H126025   6.092   7.017   4.058
 8694TIP3    H226026   6.161   7.147   4.020
 8695TIP3   OH226027   5.873   6.827   2.275
 8695TIP3    H126028   5.906   6.762   2.337
 8695TIP3    H226029   5.932   6.821   2.201
 8696TIP3   OH226030   5.104   6.674   4.379
 8696TIP3    H126031   5.127   6.582   4.390
 8696TIP3    H226032   5.017   6.672   4.339
 8697TIP3   OH226033   5.096   6.279   2.575
 8697TIP3    H126034   5.147   6.256   2.652
 8697TIP3    H226035   5.161   6.292   2.506
 8698TIP3   OH226036   5.707   6.795   4.164
 8698TIP3    H126037   5.691   6.764   4.075
 8698TIP3    H226038   5.781   6.743   4.195
 8699TIP3   OH226039   5.668   6.502   2.412
 8699TIP3    H126040   5.645   6.513   2.504
 8699TIP3    H226041   5.648   6.410   2.394
 8700TIP3   OH226042   6.206   6.793   3.769
 8700TIP3    H126043   6.285   6.823   3.724
 8700TIP3    H226044   6.143   6.865   3.758
 8701TIP3   OH226045   5.222   6.421   4.381
 8701TIP3    H126046   5.294   6.405   4.320
 8701TIP3    H226047   5.265   6.438   4.465
 8702TIP3   OH226048   5.271   6.221   2.787
 8702TIP3    H126049   5.248   6.190   2.875
 8702TIP3    H226050   5.318   6.147   2.747
 8703TIP3   OH226051   5.535   6.254   3.996
 8703TIP3    H126052   5.483   6.320   4.041
 8703TIP3    H226053   5.604   6.304   3.953
 8704TIP3   OH226054   5.412   6.034   2.635
 8704TIP3    H126055   5.382   6.039   2.544
 8704TIP3    H226056   5.507   6.044   2.629
 8705TIP3   OH226057   6.206   6.322   2.315
 8705TIP3    H126058   6.193   6.283   2.228
 8705TIP3    H226059   6.182   6.414   2.303
 8706TIP3   OH226060   5.676   6.074   4.152
 8706TIP3    H126061   5.688   5.998   4.095
 8706TIP3    H226062   5.634   6.140   4.097
 8707TIP3   OH226063   5.700   5.871   3.950
 8707TIP3    H126064   5.728   5.910   3.868
 8707TIP3    H226065   5.608   5.847   3.936
 8708TIP3   OH226066   5.718   6.386   3.830
 8708TIP3    H126067   5.805   6.407   3.796
 8708TIP3    H226068   5.659   6.449   3.788
 8709TIP3   OH226069   6.396   6.348   4.289
 8709TIP3    H126070   6.433   6.321   4.205
 8709TIP3    H226071   6.379   6.441   4.278
 8710TIP3   OH226072   6.348   6.609   3.919
 8710TIP3    H126073   6.287   6.673   3.882
 8710TIP3    H226074   6.435   6.639   3.890
 8711TIP3   OH226075   5.572   6.165   4.398
 8711TIP3    H126076   5.503   6.101   4.417
 8711TIP3    H226077   5.599   6.145   4.309
 8712TIP3   OH226078   5.819   5.638   4.049
 8712TIP3    H126079   5.782   5.720   4.017
 8712TIP3    H226080   5.750   5.573   4.033
 8713TIP3   OH226081   5.952   6.113   4.201
 8713TIP3    H126082   5.969   6.133   4.293
 8713TIP3    H226083   5.857   6.101   4.196
 8714TIP3   OH226084   6.208   6.067   4.100
 8714TIP3    H126085   6.128   6.082   4.150
 8714TIP3    H226086   6.276   6.057   4.166
 8715TIP3   OH226087   6.440   6.023   4.259
 8715TIP3    H126088   6.447   5.929   4.273
 8715TIP3    H226089   6.426   6.059   4.347
 8716TIP3   OH226090   5.406   5.938   4.460
 8716TIP3    H126091   5.414   5.851   4.422
 8716TIP3    H226092   5.446   5.931   4.546
 8717TIP3   OH226093   5.883   5.609   4.313
 8717TIP3    H126094   5.956   5.548   4.306
 8717TIP3    H226095   5.854   5.624   4.223
 8718TIP3   OH226096   5.972   5.825   4.461
 8718TIP3    H126097   5.941   5.755   4.404
 8718TIP3    H226098   5.902   5.891   4.458
 8719TIP3   OH226099   5.233   7.082   2.563
 8719TIP3    H126100   5.323   7.063   2.539
 8719TIP3    H226101   5.197   7.129   2.488
 8720TIP3   OH226102   4.697   6.475   2.733
 8720TIP3    H126103   4.792   6.484   2.736
 8720TIP3    H226104   4.682   6.387   2.701
 8721TIP3   OH226105   4.603   7.051   3.206
 8721TIP3    H126106   4.539   6.997   3.160
 8721TIP3    H226107   4.648   6.990   3.266
 8722TIP3   OH226108   4.746   6.884   3.374
 8722TIP3    H126109   4.736   6.814   3.440
 8722TIP3    H226110   4.798   6.951   3.418
 8723TIP3   OH226111   6.482   7.286   3.181
 8723TIP3    H126112   6.500   7.313   3.271
 8723TIP3    H226113   6.534   7.345   3.127
 8724TIP3   OH226114   6.500   7.319   3.461
 8724TIP3    H126115   6.453   7.236   3.457
 8724TIP3    H226116   6.569   7.305   3.525
 8725TIP3   OH226117   6.543   7.010   4.034
 8725TIP3    H126118   6.470   7.017   4.095
 8725TIP3    H226119   6.588   7.095   4.041
 8726TIP3   OH226120   6.379   6.532   2.640
 8726TIP3    H126121   6.435   6.604   2.612
 8726TIP3    H226122   6.424   6.496   2.717
 8727TIP3   OH226123   6.508   6.392   2.844
 8727TIP3    H126124   6.440   6.357   2.901
 8727TIP3    H226125   6.573   6.430   2.904
 8728TIP3   OH226126   6.557   6.795   3.277
 8728TIP3    H126127   6.609   6.729   3.230
 8728TIP3    H226128   6.556   6.871   3.218
 8729TIP3   OH226129   6.359   7.080   3.466
 8729TIP3    H126130   6.293   7.124   3.519
 8729TIP3    H226131   6.310   7.039   3.395
 8730TIP3   OH226132   6.418   6.307   2.488
 8730TIP3    H126133   6.346   6.306   2.425
 8730TIP3    H226134   6.403   6.385   2.540
 8731TIP3   OH226135   6.269   5.954   2.431
 8731TIP3    H126136   6.223   5.993   2.358
 8731TIP3    H226137   6.258   5.859   2.419
 8732TIP3   OH226138   6.305   6.257   2.982
 8732TIP3    H126139   6.309   6.162   2.968
 8732TIP3    H226140   6.285   6.267   3.075
 8733TIP3   OH226141   4.924   6.321   3.759
 8733TIP3    H126142   4.915   6.288   3.669
 8733TIP3    H226143   5.018   6.318   3.777
 8734TIP3   OH226144   6.603   6.676   3.835
 8734TIP3    H126145   6.667   6.606   3.819
 8734TIP3    H226146   6.628   6.745   3.773
 8735TIP3   OH226147   6.769   6.456   3.834
 8735TIP3    H126148   6.695   6.420   3.884
 8735TIP3    H226149   6.842   6.397   3.855
 8736TIP3   OH226150   6.228   5.681   2.403
 8736TIP3    H126151   6.294   5.658   2.468
 8736TIP3    H226152   6.149   5.637   2.432
 8737TIP3   OH226153   6.300   5.981   2.869
 8737TIP3    H126154   6.348   5.898   2.880
 8737TIP3    H226155   6.339   6.021   2.791
 8738TIP3   OH226156   6.446   6.135   3.389
 8738TIP3    H126157   6.527   6.152   3.340
 8738TIP3    H226158   6.460   6.176   3.474
 8739TIP3   OH226159   6.523   6.288   3.614
 8739TIP3    H126160   6.450   6.315   3.670
 8739TIP3    H226161   6.553   6.369   3.573
 8740TIP3   OH226162   5.142   5.991   4.394
 8740TIP3    H126163   5.235   5.990   4.413
 8740TIP3    H226164   5.108   5.911   4.433
 8741TIP3   OH226165   6.991   5.878   4.160
 8741TIP3    H126166   7.057   5.825   4.115
 8741TIP3    H226167   6.952   5.933   4.092
 8742TIP3   OH226168   6.423   5.734   2.912
 8742TIP3    H126169   6.467   5.717   2.996
 8742TIP3    H226170   6.359   5.663   2.904
 8743TIP3   OH226171   5.122   5.707   3.742
 8743TIP3    H126172   5.177   5.629   3.748
 8743TIP3    H226173   5.184   5.779   3.728
 8744TIP3   OH226174   4.899   5.966   3.808
 8744TIP3    H126175   4.949   5.963   3.727
 8744TIP3    H226176   4.929   6.047   3.851
 8745TIP3   OH226177   6.842   6.010   3.974
 8745TIP3    H126178   6.772   6.052   4.023
 8745TIP3    H226179   6.798   5.946   3.918
 8746TIP3   OH226180   6.459   5.638   2.557
 8746TIP3    H126181   6.507   5.579   2.500
 8746TIP3    H226182   6.511   5.718   2.559
 8747TIP3   OH226183   4.887   5.484   3.304
 8747TIP3    H126184   4.802   5.473   3.346
 8747TIP3    H226185   4.869   5.539   3.228
 8748TIP3   OH226186   6.043   7.199   2.822
 8748TIP3    H126187   6.101   7.193   2.746
 8748TIP3    H226188   6.079   7.271   2.874
 8749TIP3   OH226189   5.107   5.522   4.123
 8749TIP3    H126190   5.060   5.524   4.207
 8749TIP3    H226191   5.056   5.579   4.066
 8750TIP3   OH226192   5.124   7.012   4.190
 8750TIP3    H126193   5.033   6.981   4.188
 8750TIP3    H226194   5.157   6.983   4.275
 8751TIP3   OH226195   5.345   7.035   3.746
 8751TIP3    H126196   5.297   7.111   3.716
 8751TIP3    H226197   5.432   7.044   3.707
 8752TIP3   OH226198   5.765   7.269   3.891
 8752TIP3    H126199   5.803   7.264   3.979
 8752TIP3    H226200   5.825   7.325   3.842
 8753TIP3   OH226201   5.945   7.431   3.762
 8753TIP3    H126202   6.008   7.380   3.710
 8753TIP3    H226203   5.999   7.489   3.816
 8754TIP3   OH226204   6.745   5.763   3.854
 8754TIP3    H126205   6.659   5.759   3.811
 8754TIP3    H226206   6.780   5.674   3.848
 8755TIP3   OH226207   5.012   7.280   3.801
 8755TIP3    H126208   4.921   7.297   3.778
 8755TIP3    H226209   5.034   7.348   3.865
 8756TIP3   OH226210   5.243   7.271   3.650
 8756TIP3    H126211   5.160   7.278   3.698
 8756TIP3    H226212   5.221   7.296   3.560
 8757TIP3   OH226213   5.656   7.290   3.441
 8757TIP3    H126214   5.584   7.301   3.378
 8757TIP3    H226215   5.668   7.377   3.479
 8758TIP3   OH226216   5.917   7.219   3.495
 8758TIP3    H126217   5.826   7.242   3.474
 8758TIP3    H226218   5.969   7.284   3.449
 8759TIP3   OH226219   6.116   7.384   3.395
 8759TIP3    H126220   6.113   7.473   3.359
 8759TIP3    H226221   6.147   7.330   3.322
 8760TIP3   OH226222   4.921   7.061   3.518
 8760TIP3    H126223   4.946   7.038   3.608
 8760TIP3    H226224   4.993   7.028   3.464
 8761TIP3   OH226225   5.125   6.945   3.380
 8761TIP3    H126226   5.136   6.861   3.423
 8761TIP3    H226227   5.212   6.986   3.385
 8762TIP3   OH226228   5.391   7.028   3.403
 8762TIP3    H126229   5.411   6.936   3.390
 8762TIP3    H226230   5.446   7.054   3.478
 8763TIP3   OH226231   5.954   5.702   3.485
 8763TIP3    H126232   5.911   5.648   3.552
 8763TIP3    H226233   6.012   5.641   3.439
 8764TIP3   OH226234   6.443   5.584   3.354
 8764TIP3    H126235   6.497   5.623   3.285
 8764TIP3    H226236   6.386   5.655   3.383
 8765TIP3   OH226237   6.576   5.668   3.134
 8765TIP3    H126238   6.646   5.607   3.107
 8765TIP3    H226239   6.615   5.755   3.123
 8766TIP3   OH226240   5.202   5.375   3.484
 8766TIP3    H126241   5.112   5.344   3.495
 8766TIP3    H226242   5.254   5.295   3.475
 8767TIP3   OH226243   5.019   5.292   3.142
 8767TIP3    H126244   5.040   5.342   3.062
 8767TIP3    H226245   4.978   5.357   3.200
 8768TIP3   OH226246   5.677   5.455   3.399
 8768TIP3    H126247   5.737   5.473   3.326
 8768TIP3    H226248   5.617   5.530   3.399
 8769TIP3   OH226249   6.126   5.521   3.374
 8769TIP3    H126250   6.194   5.504   3.309
 8769TIP3    H226251   6.133   5.448   3.435
 8770TIP3   OH226252   6.242   5.520   2.935
 8770TIP3    H126253   6.157   5.557   2.957
 8770TIP3    H226254   6.269   5.473   3.014
 8771TIP3   OH226255   4.690   6.859   2.903
 8771TIP3    H126256   4.608   6.821   2.873
 8771TIP3    H226257   4.690   6.949   2.869
 8772TIP3   OH226258   5.122   5.418   2.901
 8772TIP3    H126259   5.167   5.358   2.842
 8772TIP3    H226260   5.191   5.475   2.934
 8773TIP3   OH226261   5.609   5.610   3.004
 8773TIP3    H126262   5.678   5.570   3.057
 8773TIP3    H226263   5.615   5.703   3.022
 8774TIP3   OH226264   5.490   7.011   2.498
 8774TIP3    H126265   5.574   7.038   2.461
 8774TIP3    H226266   5.460   6.940   2.441
 8775TIP3   OH226267   6.195   7.155   2.593
 8775TIP3    H126268   6.188   7.059   2.587
 8775TIP3    H226269   6.151   7.188   2.515
 8776TIP3   OH226270   5.415   5.664   4.365
 8776TIP3    H126271   5.380   5.598   4.425
 8776TIP3    H226272   5.507   5.672   4.390
 8777TIP3   OH226273   5.663   5.666   4.488
 8777TIP3    H126274   5.742   5.645   4.439
 8777TIP3    H226275   5.657   5.598   4.555
 8778TIP3   OH226276   4.798   6.853   2.553
 8778TIP3    H126277   4.799   6.859   2.649
 8778TIP3    H226278   4.878   6.807   2.531
 8779TIP3   OH226279   6.494   5.752   4.281
 8779TIP3    H126280   6.511   5.726   4.372
 8779TIP3    H226281   6.580   5.750   4.239
 8780TIP3   OH226282   6.408   7.290   3.787
 8780TIP3    H126283   6.334   7.261   3.735
 8780TIP3    H226284   6.396   7.385   3.794
 8781TIP3   OH226285   7.702   6.672   2.563
 8781TIP3    H126286   7.672   6.759   2.537
 8781TIP3    H226287   7.639   6.612   2.524
 8782TIP3   OH226288   7.694   6.587   2.853
 8782TIP3    H126289   7.739   6.605   2.936
 8782TIP3    H226290   7.614   6.541   2.879
 8783TIP3   OH226291   6.994   6.562   3.301
 8783TIP3    H126292   7.022   6.485   3.352
 8783TIP3    H226293   7.044   6.634   3.338
 8784TIP3   OH226294   7.869   7.009   2.643
 8784TIP3    H126295   7.887   6.926   2.686
 8784TIP3    H226296   7.836   7.066   2.712
 8785TIP3   OH226297   6.963   6.952   2.987
 8785TIP3    H126298   6.948   6.858   2.997
 8785TIP3    H226299   7.057   6.960   2.976
 8786TIP3   OH226300   6.655   6.165   2.765
 8786TIP3    H126301   6.618   6.250   2.790
 8786TIP3    H226302   6.583   6.119   2.723
 8787TIP3   OH226303   6.738   6.476   2.984
 8787TIP3    H126304   6.788   6.398   3.010
 8787TIP3    H226305   6.804   6.541   2.962
 8788TIP3   OH226306   7.558   7.314   2.657
 8788TIP3    H126307   7.635   7.273   2.697
 8788TIP3    H226308   7.529   7.378   2.722
 8789TIP3   OH226309   7.469   6.897   2.955
 8789TIP3    H126310   7.500   6.855   2.875
 8789TIP3    H226311   7.549   6.925   2.999
 8790TIP3   OH226312  -0.016   6.250   2.994
 8790TIP3    H126313   0.029   6.334   2.997
 8790TIP3    H226314  -0.009   6.223   2.902
 8791TIP3   OH226315   7.880   6.379   2.994
 8791TIP3    H126316   7.922   6.312   3.048
 8791TIP3    H226317   7.889   6.460   3.044
 8792TIP3   OH226318   7.243   6.031   2.932
 8792TIP3    H126319   7.218   6.106   2.878
 8792TIP3    H226320   7.183   5.961   2.905
 8793TIP3   OH226321   7.919   6.143   2.597
 8793TIP3    H126322   7.985   6.140   2.666
 8793TIP3    H226323   7.962   6.189   2.525
 8794TIP3   OH226324   6.877   6.253   3.076
 8794TIP3    H126325   6.960   6.234   3.120
 8794TIP3    H226326   6.880   6.201   2.996
 8795TIP3   OH226327   7.315   6.432   2.861
 8795TIP3    H126328   7.351   6.396   2.942
 8795TIP3    H226329   7.265   6.361   2.822
 8796TIP3   OH226330   7.229   6.040   3.400
 8796TIP3    H126331   7.179   6.079   3.327
 8796TIP3    H226332   7.174   6.057   3.477
 8797TIP3   OH226333   7.580   6.888   2.417
 8797TIP3    H126334   7.537   6.862   2.336
 8797TIP3    H226335   7.540   6.972   2.440
 8798TIP3   OH226336   7.325   6.813   3.185
 8798TIP3    H126337   7.269   6.885   3.217
 8798TIP3    H226338   7.377   6.852   3.115
 8799TIP3   OH226339   8.113   6.150   2.803
 8799TIP3    H126340   8.075   6.154   2.891
 8799TIP3    H226341   8.164   6.231   2.795
 8800TIP3   OH226342   7.124   6.143   3.163
 8800TIP3    H126343   7.179   6.218   3.186
 8800TIP3    H226344   7.171   6.100   3.091
 8801TIP3   OH226345   7.167   7.021   3.274
 8801TIP3    H126346   7.155   7.110   3.240
 8801TIP3    H226347   7.088   7.005   3.326
 8802TIP3   OH226348   6.549   6.723   2.526
 8802TIP3    H126349   6.513   6.744   2.440
 8802TIP3    H226350   6.572   6.808   2.563
 8803TIP3   OH226351   8.289   6.091   3.111
 8803TIP3    H126352   8.201   6.123   3.091
 8803TIP3    H226353   8.348   6.154   3.068
 8804TIP3   OH226354   7.549   5.718   3.134
 8804TIP3    H126355   7.555   5.631   3.174
 8804TIP3    H226356   7.480   5.763   3.183
 8805TIP3   OH226357   7.848   6.952   2.367
 8805TIP3    H126358   7.753   6.941   2.373
 8805TIP3    H226359   7.874   6.987   2.452
 8806TIP3   OH226360   7.522   6.528   2.415
 8806TIP3    H126361   7.441   6.570   2.384
 8806TIP3    H226362   7.563   6.493   2.336
 8807TIP3   OH226363   7.480   6.314   2.075
 8807TIP3    H126364   7.540   6.363   2.132
 8807TIP3    H226365   7.536   6.250   2.032
 8808TIP3   OH226366   8.421   6.767   3.005
 8808TIP3    H126367   8.332   6.791   2.982
 8808TIP3    H226368   8.470   6.773   2.922
 8809TIP3   OH226369   7.855   6.614   2.331
 8809TIP3    H126370   7.817   6.667   2.401
 8809TIP3    H226371   7.932   6.573   2.371
 8810TIP3   OH226372   8.107   6.644   3.294
 8810TIP3    H126373   8.094   6.722   3.348
 8810TIP3    H226374   8.039   6.651   3.227
 8811TIP3   OH226375   7.102   6.583   2.753
 8811TIP3    H126376   7.059   6.531   2.686
 8811TIP3    H226377   7.181   6.533   2.776
 8812TIP3   OH226378   7.219   7.006   2.891
 8812TIP3    H126379   7.205   6.994   2.797
 8812TIP3    H226380   7.307   6.972   2.907
 8813TIP3   OH226381   7.237   6.576   3.094
 8813TIP3    H126382   7.264   6.576   3.002
 8813TIP3    H226383   7.268   6.659   3.129
 8814TIP3   OH226384   7.772   7.144   2.874
 8814TIP3    H126385   7.797   7.218   2.928
 8814TIP3    H226386   7.749   7.075   2.936
 8815TIP3   OH226387   7.366   7.112   3.442
 8815TIP3    H126388   7.307   7.172   3.488
 8815TIP3    H226389   7.309   7.063   3.382
 8816TIP3   OH226390   7.687   6.447   2.203
 8816TIP3    H126391   7.743   6.504   2.256
 8816TIP3    H226392   7.711   6.467   2.113
 8817TIP3   OH226393   7.116   6.673   3.553
 8817TIP3    H126394   7.124   6.762   3.586
 8817TIP3    H226395   7.025   6.649   3.570
 8818TIP3   OH226396   7.468   7.140   2.453
 8818TIP3    H126397   7.496   7.201   2.520
 8818TIP3    H226398   7.426   7.194   2.386
 8819TIP3   OH226399   7.155   7.272   3.520
 8819TIP3    H126400   7.131   7.284   3.428
 8819TIP3    H226401   7.072   7.258   3.565
 8820TIP3   OH226402   8.204   5.671   2.214
 8820TIP3    H126403   8.130   5.709   2.263
 8820TIP3    H226404   8.266   5.744   2.205
 8821TIP3   OH226405   6.971   6.436   2.547
 8821TIP3    H126406   6.898   6.488   2.512
 8821TIP3    H226407   6.934   6.349   2.562
 8822TIP3   OH226408   6.754   6.830   3.474
 8822TIP3    H126409   6.684   6.815   3.410
 8822TIP3    H226410   6.785   6.743   3.497
 8823TIP3   OH226411   6.595   7.033   3.130
 8823TIP3    H126412   6.685   7.060   3.150
 8823TIP3    H226413   6.542   7.108   3.155
 8824TIP3   OH226414   7.560   7.254   3.308
 8824TIP3    H126415   7.548   7.346   3.332
 8824TIP3    H226416   7.491   7.208   3.355
 8825TIP3   OH226417   7.355   7.308   2.254
 8825TIP3    H126418   7.337   7.318   2.161
 8825TIP3    H226419   7.329   7.391   2.293
 8826TIP3   OH226420   6.775   7.212   2.629
 8826TIP3    H126421   6.817   7.205   2.714
 8826TIP3    H226422   6.725   7.130   2.620
 8827TIP3   OH226423   8.363   6.624   3.414
 8827TIP3    H126424   8.275   6.625   3.378
 8827TIP3    H226425   8.396   6.536   3.397
 8828TIP3   OH226426   6.951   7.020   3.443
 8828TIP3    H126427   7.001   7.009   3.524
 8828TIP3    H226428   6.879   6.958   3.450
 8829TIP3   OH226429   7.327   5.828   3.254
 8829TIP3    H126430   7.240   5.795   3.230
 8829TIP3    H226431   7.309   5.908   3.303
 8830TIP3   OH226432   7.881   5.948   3.449
 8830TIP3    H126433   7.956   5.927   3.505
 8830TIP3    H226434   7.805   5.929   3.504
 8831TIP3   OH226435   8.119   6.375   3.361
 8831TIP3    H126436   8.073   6.365   3.444
 8831TIP3    H226437   8.103   6.466   3.336
 8832TIP3   OH226438   7.772   6.521   1.963
 8832TIP3    H126439   7.756   6.508   1.869
 8832TIP3    H226440   7.831   6.596   1.966
 8833TIP3   OH226441   7.474   5.874   2.218
 8833TIP3    H126442   7.428   5.886   2.302
 8833TIP3    H226443   7.445   5.788   2.187
 8834TIP3   OH226444   7.272   6.356   3.251
 8834TIP3    H126445   7.226   6.367   3.334
 8834TIP3    H226446   7.255   6.437   3.203
 8835TIP3   OH226447   7.150   6.233   2.774
 8835TIP3    H126448   7.060   6.211   2.797
 8835TIP3    H226449   7.160   6.200   2.685
 8836TIP3   OH226450   7.820   6.587   3.584
 8836TIP3    H126451   7.794   6.514   3.639
 8836TIP3    H226452   7.914   6.597   3.600
 8837TIP3   OH226453   7.110   6.371   3.475
 8837TIP3    H126454   7.120   6.435   3.545
 8837TIP3    H226455   7.095   6.288   3.520
 8838TIP3   OH226456   7.152   5.846   2.205
 8838TIP3    H126457   7.138   5.855   2.300
 8838TIP3    H226458   7.076   5.889   2.166
 8839TIP3   OH226459   6.702   5.893   3.062
 8839TIP3    H126460   6.773   5.929   3.114
 8839TIP3    H226461   6.739   5.881   2.975
 8840TIP3   OH226462   6.610   5.874   2.564
 8840TIP3    H126463   6.653   5.910   2.486
 8840TIP3    H226464   6.547   5.941   2.589
 8841TIP3   OH226465   7.514   6.067   2.867
 8841TIP3    H126466   7.426   6.048   2.898
 8841TIP3    H226467   7.557   6.112   2.939
 8842TIP3   OH226468   6.913   6.109   2.842
 8842TIP3    H126469   6.824   6.120   2.808
 8842TIP3    H226470   6.935   6.018   2.824
 8843TIP3   OH226471   7.181   6.113   2.532
 8843TIP3    H126472   7.275   6.114   2.513
 8843TIP3    H226473   7.140   6.130   2.447
 8844TIP3   OH226474   8.010   6.123   3.057
 8844TIP3    H126475   7.984   6.143   3.147
 8844TIP3    H226476   7.951   6.052   3.030
 8845TIP3   OH226477   7.056   6.135   2.292
 8845TIP3    H126478   6.992   6.088   2.238
 8845TIP3    H226479   7.108   6.185   2.228
 8846TIP3   OH226480   7.110   6.928   3.672
 8846TIP3    H126481   7.191   6.946   3.719
 8846TIP3    H226482   7.041   6.935   3.738
 8847TIP3   OH226483   7.060   5.852   2.819
 8847TIP3    H126484   7.031   5.777   2.871
 8847TIP3    H226485   7.059   5.820   2.729
 8848TIP3   OH226486   7.530   6.253   3.223
 8848TIP3    H126487   7.448   6.300   3.235
 8848TIP3    H226488   7.596   6.310   3.264
 8849TIP3   OH226489   7.287   6.656   2.324
 8849TIP3    H126490   7.212   6.602   2.298
 8849TIP3    H226491   7.260   6.696   2.406
 8850TIP3   OH226492   8.157   6.827   2.957
 8850TIP3    H126493   8.124   6.916   2.967
 8850TIP3    H226494   8.093   6.773   3.003
 8851TIP3   OH226495   7.737   5.945   2.233
 8851TIP3    H126496   7.642   5.938   2.225
 8851TIP3    H226497   7.754   6.039   2.237
 8852TIP3   OH226498   7.709   7.008   3.342
 8852TIP3    H126499   7.717   6.976   3.432
 8852TIP3    H226500   7.656   7.087   3.349
 8853TIP3   OH226501   7.805   6.203   2.273
 8853TIP3    H126502   7.897   6.220   2.293
 8853TIP3    H226503   7.770   6.289   2.250
 8854TIP3   OH226504   6.965   6.656   2.988
 8854TIP3    H126505   7.012   6.640   2.906
 8854TIP3    H226506   7.024   6.625   3.056
 8855TIP3   OH226507   7.437   6.812   2.154
 8855TIP3    H126508   7.387   6.893   2.154
 8855TIP3    H226509   7.387   6.752   2.210
 8856TIP3   OH226510   6.852   6.594   3.603
 8856TIP3    H126511   6.854   6.566   3.695
 8856TIP3    H226512   6.776   6.549   3.566
 8857TIP3   OH226513   7.589   6.736   3.618
 8857TIP3    H126514   7.522   6.678   3.583
 8857TIP3    H226515   7.672   6.695   3.594
 8858TIP3   OH226516   7.828   7.283   3.211
 8858TIP3    H126517   7.736   7.271   3.234
 8858TIP3    H226518   7.868   7.324   3.288
 8859TIP3   OH226519   7.929   6.767   2.773
 8859TIP3    H126520   7.910   6.759   2.867
 8859TIP3    H226521   8.024   6.771   2.768
 8860TIP3   OH226522   7.094   7.008   2.638
 8860TIP3    H126523   7.095   7.086   2.581
 8860TIP3    H226524   7.004   7.002   2.669
 8861TIP3   OH226525   6.660   6.300   2.354
 8861TIP3    H126526   6.700   6.385   2.374
 8861TIP3    H226527   6.578   6.300   2.402
 8862TIP3   OH226528   7.187   6.763   2.553
 8862TIP3    H126529   7.165   6.853   2.576
 8862TIP3    H226530   7.157   6.710   2.627
 8863TIP3   OH226531   7.379   7.326   3.093
 8863TIP3    H126532   7.418   7.384   3.028
 8863TIP3    H226533   7.453   7.293   3.144
 8864TIP3   OH226534   7.015   7.237   2.494
 8864TIP3    H126535   6.926   7.241   2.529
 8864TIP3    H226536   7.048   7.326   2.500
 8865TIP3   OH226537   7.715   6.948   3.069
 8865TIP3    H126538   7.708   6.971   3.162
 8865TIP3    H226539   7.771   6.870   3.068
 8866TIP3   OH226540   7.648   6.865   1.971
 8866TIP3    H126541   7.730   6.831   2.006
 8866TIP3    H226542   7.583   6.847   2.039
 8867TIP3   OH226543   7.064   6.122   3.606
 8867TIP3    H126544   6.969   6.128   3.617
 8867TIP3    H226545   7.093   6.073   3.683
 8868TIP3   OH226546   7.871   6.769   2.105
 8868TIP3    H126547   7.867   6.705   2.176
 8868TIP3    H226548   7.902   6.849   2.147
 8869TIP3   OH226549   6.800   7.227   3.251
 8869TIP3    H126550   6.853   7.171   3.307
 8869TIP3    H226551   6.808   7.315   3.289
 8870TIP3   OH226552   7.074   6.853   1.947
 8870TIP3    H126553   7.105   6.767   1.919
 8870TIP3    H226554   7.052   6.841   2.040
 8871TIP3   OH226555   7.012   6.858   2.220
 8871TIP3    H126556   7.083   6.831   2.278
 8871TIP3    H226557   7.011   6.954   2.227
 8872TIP3   OH226558   6.749   6.554   2.431
 8872TIP3    H126559   6.682   6.600   2.482
 8872TIP3    H226560   6.767   6.612   2.357
 8873TIP3   OH226561   7.918   6.179   3.303
 8873TIP3    H126562   7.987   6.228   3.347
 8873TIP3    H226563   7.902   6.104   3.360
 8874TIP3   OH226564   7.801   5.916   2.500
 8874TIP3    H126565   7.778   5.931   2.408
 8874TIP3    H226566   7.845   5.997   2.526
 8875TIP3   OH226567   7.288   7.038   2.172
 8875TIP3    H126568   7.198   7.063   2.194
 8875TIP3    H226569   7.339   7.119   2.184
 8876TIP3   OH226570   7.482   6.093   2.585
 8876TIP3    H126571   7.543   6.158   2.550
 8876TIP3    H226572   7.491   6.100   2.680
 8877TIP3   OH226573   7.713   6.395   3.379
 8877TIP3    H126574   7.749   6.469   3.428
 8877TIP3    H226575   7.784   6.331   3.378
 8878TIP3   OH226576   7.676   5.871   2.741
 8878TIP3    H126577   7.638   5.951   2.777
 8878TIP3    H226578   7.724   5.900   2.663
 8879TIP3   OH226579   7.035   7.131   2.242
 8879TIP3    H126580   7.016   7.206   2.186
 8879TIP3    H226581   7.030   7.164   2.331
 8880TIP3   OH226582   7.114   5.842   2.488
 8880TIP3    H126583   7.105   5.935   2.509
 8880TIP3    H226584   7.208   5.826   2.490
 8881TIP3   OH226585   8.394   6.364   3.337
 8881TIP3    H126586   8.300   6.350   3.347
 8881TIP3    H226587   8.425   6.286   3.291
 8882TIP3   OH226588   7.961   6.480   2.757
 8882TIP3    H126589   7.925   6.434   2.833
 8882TIP3    H226590   8.055   6.465   2.762
 8883TIP3   OH226591   6.766   6.729   2.215
 8883TIP3    H126592   6.837   6.793   2.223
 8883TIP3    H226593   6.798   6.666   2.150
 8884TIP3   OH226594   6.678   6.022   2.343
 8884TIP3    H126595   6.693   6.115   2.356
 8884TIP3    H226596   6.622   6.017   2.265
 8885TIP3   OH226597   7.072   5.734   3.214
 8885TIP3    H126598   7.042   5.699   3.130
 8885TIP3    H226599   7.066   5.660   3.274
 8886TIP3   OH226600   6.601   6.988   2.614
 8886TIP3    H126601   6.560   7.026   2.692
 8886TIP3    H226602   6.558   7.031   2.540
 8887TIP3   OH226603   6.802   7.537   3.672
 8887TIP3    H126604   6.884   7.542   3.721
 8887TIP3    H226605   6.786   7.443   3.662
 8888TIP3   OH226606   7.262   7.430   3.715
 8888TIP3    H126607   7.353   7.400   3.720
 8888TIP3    H226608   7.224   7.380   3.643
 8889TIP3   OH226609   7.239   7.054   1.849
 8889TIP3    H126610   7.187   6.985   1.889
 8889TIP3    H226611   7.324   7.013   1.831
 8890TIP3   OH226612   7.945   7.357   3.461
 8890TIP3    H126613   7.901   7.296   3.521
 8890TIP3    H226614   8.038   7.337   3.471
 8891TIP3   OH226615   6.904   6.928   3.862
 8891TIP3    H126616   6.925   6.835   3.871
 8891TIP3    H226617   6.817   6.929   3.822
 8892TIP3   OH226618   6.892   6.537   2.069
 8892TIP3    H126619   6.945   6.516   2.146
 8892TIP3    H226620   6.956   6.550   1.999
 8893TIP3   OH226621   7.527   7.007   3.638
 8893TIP3    H126622   7.475   7.025   3.559
 8893TIP3    H226623   7.556   6.916   3.627
 8894TIP3   OH226624   7.357   6.729   1.893
 8894TIP3    H126625   7.384   6.745   1.983
 8894TIP3    H226626   7.379   6.637   1.877
 8895TIP3   OH226627   7.972   7.046   3.265
 8895TIP3    H126628   7.957   7.132   3.225
 8895TIP3    H226629   7.884   7.013   3.286
 8896TIP3   OH226630   7.029   6.675   3.870
 8896TIP3    H126631   7.108   6.640   3.830
 8896TIP3    H226632   7.054   6.696   3.959
 8897TIP3   OH226633   7.074   6.482   2.278
 8897TIP3    H126634   7.052   6.449   2.365
 8897TIP3    H226635   7.119   6.409   2.236
 8898TIP3   OH226636   7.381   6.586   3.493
 8898TIP3    H126637   7.293   6.615   3.518
 8898TIP3    H226638   7.392   6.617   3.404
 8899TIP3   OH226639   7.208   6.290   2.125
 8899TIP3    H126640   7.178   6.294   2.034
 8899TIP3    H226641   7.303   6.296   2.120
 8900TIP3   OH226642   7.879   6.929   3.610
 8900TIP3    H126643   7.951   6.895   3.556
 8900TIP3    H226644   7.879   6.873   3.688
 8901TIP3   OH226645   7.474   6.348   3.633
 8901TIP3    H126646   7.483   6.269   3.580
 8901TIP3    H226647   7.453   6.417   3.570
 8902TIP3   OH226648   7.485   6.119   3.464
 8902TIP3    H126649   7.517   6.152   3.380
 8902TIP3    H226650   7.395   6.091   3.445
 8903TIP3   OH226651   8.084   6.607   3.692
 8903TIP3    H126652   8.103   6.546   3.764
 8903TIP3    H226653   8.168   6.619   3.648
 8904TIP3   OH226654   8.118   6.893   3.435
 8904TIP3    H126655   8.066   6.949   3.377
 8904TIP3    H226656   8.207   6.897   3.399
 8905TIP3   OH226657   7.365   6.421   3.880
 8905TIP3    H126658   7.299   6.355   3.900
 8905TIP3    H226659   7.395   6.398   3.792
 8906TIP3   OH226660   7.622   5.886   3.535
 8906TIP3    H126661   7.575   5.967   3.516
 8906TIP3    H226662   7.556   5.818   3.528
 8907TIP3   OH226663   7.737   6.373   3.733
 8907TIP3    H126664   7.730   6.355   3.827
 8907TIP3    H226665   7.650   6.356   3.698
 8908TIP3   OH226666   7.965   6.315   3.576
 8908TIP3    H126667   7.892   6.319   3.637
 8908TIP3    H226668   8.042   6.298   3.630
 8909TIP3   OH226669   8.202   6.287   3.713
 8909TIP3    H126670   8.214   6.196   3.740
 8909TIP3    H226671   8.189   6.335   3.796
 8910TIP3   OH226672   7.207   6.195   3.944
 8910TIP3    H126673   7.213   6.107   3.907
 8910TIP3    H226674   7.245   6.189   4.031
 8911TIP3   OH226675   7.663   5.882   3.809
 8911TIP3    H126676   7.700   5.796   3.831
 8911TIP3    H226677   7.655   5.882   3.714
 8912TIP3   OH226678   7.774   6.094   3.942
 8912TIP3    H126679   7.744   6.020   3.889
 8912TIP3    H226680   7.701   6.156   3.938
 8913TIP3   OH226681   7.043   7.366   2.088
 8913TIP3    H126682   7.131   7.335   2.067
 8913TIP3    H226683   7.006   7.391   2.004
 8914TIP3   OH226684   6.493   6.720   2.236
 8914TIP3    H126685   6.588   6.732   2.231
 8914TIP3    H226686   6.479   6.631   2.202
 8915TIP3   OH226687   6.403   7.303   2.691
 8915TIP3    H126688   6.337   7.251   2.645
 8915TIP3    H226689   6.446   7.240   2.750
 8916TIP3   OH226690   6.546   7.133   2.859
 8916TIP3    H126691   6.537   7.066   2.927
 8916TIP3    H226692   6.595   7.203   2.900
 8917TIP3   OH226693   8.014   6.238   1.917
 8917TIP3    H126694   7.994   6.237   1.823
 8917TIP3    H226695   8.030   6.147   1.939
 8918TIP3   OH226696   8.051   6.484   2.465
 8918TIP3    H126697   8.064   6.396   2.430
 8918TIP3    H226698   8.114   6.491   2.536
 8919TIP3   OH226699   6.727   6.572   3.240
 8919TIP3    H126700   6.717   6.541   3.150
 8919TIP3    H226701   6.822   6.576   3.253
 8920TIP3   OH226702   8.368   6.883   3.321
 8920TIP3    H126703   8.390   6.797   3.356
 8920TIP3    H226704   8.394   6.879   3.229
 8921TIP3   OH226705   8.016   5.966   1.934
 8921TIP3    H126706   8.081   5.902   1.964
 8921TIP3    H226707   7.933   5.919   1.939
 8922TIP3   OH226708   8.079   6.228   2.360
 8922TIP3    H126709   8.109   6.144   2.396
 8922TIP3    H226710   8.138   6.245   2.287
 8923TIP3   OH226711   8.230   6.406   2.817
 8923TIP3    H126712   8.318   6.406   2.779
 8923TIP3    H226713   8.242   6.444   2.904
 8924TIP3   OH226714   8.276   6.532   3.060
 8924TIP3    H126715   8.224   6.551   3.138
 8924TIP3    H226716   8.339   6.604   3.055
 8925TIP3   OH226717   6.943   6.248   3.878
 8925TIP3    H126718   7.037   6.248   3.899
 8925TIP3    H226719   6.910   6.169   3.920
 8926TIP3   OH226720   8.153   5.988   2.458
 8926TIP3    H126721   8.234   5.966   2.505
 8926TIP3    H226722   8.117   5.903   2.432
 8927TIP3   OH226723   6.915   5.963   3.223
 8927TIP3    H126724   6.966   5.883   3.234
 8927TIP3    H226725   6.980   6.032   3.208
 8928TIP3   OH226726   6.692   6.221   3.291
 8928TIP3    H126727   6.745   6.218   3.212
 8928TIP3    H226728   6.711   6.307   3.329
 8929TIP3   OH226729   6.689   5.746   2.791
 8929TIP3    H126730   6.604   5.734   2.833
 8929TIP3    H226731   6.670   5.798   2.713
 8930TIP3   OH226732   6.905   5.802   3.620
 8930TIP3    H126733   6.858   5.798   3.703
 8930TIP3    H226734   6.846   5.849   3.562
 8931TIP3   OH226735   6.932   7.245   3.686
 8931TIP3    H126736   6.838   7.230   3.680
 8931TIP3    H226737   6.952   7.235   3.779
 8932TIP3   OH226738   7.146   7.296   3.240
 8932TIP3    H126739   7.092   7.367   3.205
 8932TIP3    H226740   7.231   7.307   3.197
 8933TIP3   OH226741   7.549   7.522   3.374
 8933TIP3    H126742   7.596   7.508   3.456
 8933TIP3    H226743   7.608   7.574   3.320
 8934TIP3   OH226744   8.462   6.002   3.403
 8934TIP3    H126745   8.384   5.962   3.365
 8934TIP3    H226746   8.519   6.018   3.328
 8935TIP3   OH226747   6.794   7.522   3.290
 8935TIP3    H126748   6.705   7.547   3.266
 8935TIP3    H226749   6.822   7.589   3.352
 8936TIP3   OH226750   7.020   7.516   3.135
 8936TIP3    H126751   6.937   7.518   3.183
 8936TIP3    H226752   6.996   7.542   3.046
 8937TIP3   OH226753   7.460   7.502   2.894
 8937TIP3    H126754   7.379   7.529   2.851
 8937TIP3    H226755   7.482   7.576   2.951
 8938TIP3   OH226756   6.714   7.317   3.001
 8938TIP3    H126757   6.738   7.294   3.090
 8938TIP3    H226758   6.785   7.282   2.947
 8939TIP3   OH226759   6.913   7.192   2.866
 8939TIP3    H126760   6.921   7.108   2.912
 8939TIP3    H226761   6.999   7.233   2.876
 8940TIP3   OH226762   7.175   7.277   2.909
 8940TIP3    H126763   7.193   7.185   2.893
 8940TIP3    H226764   7.236   7.303   2.978
 8941TIP3   OH226765   8.231   5.869   2.824
 8941TIP3    H126766   8.294   5.891   2.755
 8941TIP3    H226767   8.183   5.950   2.840
 8942TIP3   OH226768   8.382   5.890   2.596
 8942TIP3    H126769   8.456   5.843   2.633
 8942TIP3    H226770   8.421   5.948   2.530
 8943TIP3   OH226771   6.991   5.628   2.970
 8943TIP3    H126772   6.902   5.596   2.980
 8943TIP3    H226773   7.045   5.549   2.966
 8944TIP3   OH226774   6.814   5.547   2.630
 8944TIP3    H126775   6.835   5.593   2.549
 8944TIP3    H226776   6.776   5.614   2.687
 8945TIP3   OH226777   7.472   5.696   2.877
 8945TIP3    H126778   7.397   5.753   2.865
 8945TIP3    H226779   7.494   5.704   2.970
 8946TIP3   OH226780   8.013   5.757   2.400
 8946TIP3    H126781   7.938   5.811   2.423
 8946TIP3    H226782   7.998   5.674   2.445
 8947TIP3   OH226783   6.486   7.107   2.398
 8947TIP3    H126784   6.402   7.072   2.370
 8947TIP3    H226785   6.488   7.196   2.364
 8948TIP3   OH226786   6.912   5.671   2.388
 8948TIP3    H126787   6.959   5.613   2.330
 8948TIP3    H226788   6.979   5.729   2.424
 8949TIP3   OH226789   7.388   5.855   2.485
 8949TIP3    H126790   7.450   5.783   2.498
 8949TIP3    H226791   7.430   5.931   2.523
 8950TIP3   OH226792   7.287   7.292   1.985
 8950TIP3    H126793   7.310   7.347   1.910
 8950TIP3    H226794   7.270   7.206   1.947
 8951TIP3   OH226795   7.214   5.928   3.844
 8951TIP3    H126796   7.179   5.861   3.903
 8951TIP3    H226797   7.306   5.936   3.868
 8952TIP3   OH226798   7.454   5.938   3.980
 8952TIP3    H126799   7.530   5.920   3.924
 8952TIP3    H226800   7.455   5.868   4.045
 8953TIP3   OH226801   6.592   7.110   2.050
 8953TIP3    H126802   6.590   7.120   2.145
 8953TIP3    H226803   6.678   7.072   2.032
 8954TIP3   OH226804   8.266   6.029   3.775
 8954TIP3    H126805   8.282   6.010   3.867
 8954TIP3    H226806   8.353   6.045   3.739
 8955TIP3   OH226807   1.037   7.001   4.677
 8955TIP3    H126808   1.024   7.091   4.704
 8955TIP3    H226809   1.061   7.006   4.584
 8956TIP3   OH226810   0.411   6.862   4.259
 8956TIP3    H126811   0.447   6.912   4.332
 8956TIP3    H226812   0.430   6.916   4.182
 8957TIP3   OH226813   0.990   7.216   4.850
 8957TIP3    H126814   0.917   7.269   4.817
 8957TIP3    H226815   0.956   7.175   4.929
 8958TIP3   OH226816   0.540   6.966   4.478
 8958TIP3    H126817   0.547   6.876   4.508
 8958TIP3    H226818   0.623   7.007   4.503
 8959TIP3   OH226819   0.780   6.946   4.799
 8959TIP3    H126820   0.715   6.977   4.736
 8959TIP3    H226821   0.863   6.948   4.751
 8960TIP3   OH226822   0.721   7.971   4.740
 8960TIP3    H126823   0.636   7.957   4.781
 8960TIP3    H226824   0.713   8.056   4.696
 8961TIP3   OH226825   0.868   7.550   4.656
 8961TIP3    H126826   0.786   7.598   4.662
 8961TIP3    H226827   0.896   7.560   4.565
 8962TIP3   OH226828   0.682   6.479   3.914
 8962TIP3    H126829   0.600   6.500   3.960
 8962TIP3    H226830   0.699   6.556   3.860
 8963TIP3   OH226831   0.849   7.362   5.130
 8963TIP3    H126832   0.770   7.409   5.104
 8963TIP3    H226833   0.834   7.272   5.102
 8964TIP3   OH226834   0.621   7.666   4.611
 8964TIP3    H126835   0.672   7.729   4.560
 8964TIP3    H226836   0.562   7.626   4.547
 8965TIP3   OH226837   0.684   7.098   3.806
 8965TIP3    H126838   0.628   7.054   3.742
 8965TIP3    H226839   0.684   7.190   3.779
 8966TIP3   OH226840   0.923   7.864   4.887
 8966TIP3    H126841   0.848   7.913   4.855
 8966TIP3    H226842   0.970   7.837   4.808
 8967TIP3   OH226843   0.814   7.096   5.033
 8967TIP3    H126844   0.791   7.034   5.103
 8967TIP3    H226845   0.792   7.050   4.952
 8968TIP3   OH226846   0.494   7.251   4.456
 8968TIP3    H126847   0.437   7.174   4.457
 8968TIP3    H226848   0.577   7.220   4.492
 8969TIP3   OH226849   0.511   7.360   3.472
 8969TIP3    H126850   0.455   7.306   3.417
 8969TIP3    H226851   0.580   7.391   3.413
 8970TIP3   OH226852   0.719   6.983   5.463
 8970TIP3    H126853   0.693   6.920   5.396
 8970TIP3    H226854   0.645   7.043   5.469
 8971TIP3   OH226855   0.585   7.567   3.854
 8971TIP3    H126856   0.661   7.611   3.815
 8971TIP3    H226857   0.622   7.514   3.925
 8972TIP3   OH226858   0.736   7.414   4.023
 8972TIP3    H126859   0.680   7.366   4.084
 8972TIP3    H226860   0.804   7.454   4.078
 8973TIP3   OH226861   0.804   7.806   4.460
 8973TIP3    H126862   0.843   7.727   4.422
 8973TIP3    H226863   0.767   7.853   4.386
 8974TIP3   OH226864   0.675   7.348   3.689
 8974TIP3    H126865   0.609   7.349   3.620
 8974TIP3    H226866   0.649   7.418   3.748
 8975TIP3   OH226867   0.545   6.991   3.596
 8975TIP3    H126868   0.488   7.030   3.530
 8975TIP3    H226869   0.531   6.897   3.589
 8976TIP3   OH226870   0.584   7.270   4.191
 8976TIP3    H126871   0.570   7.181   4.159
 8976TIP3    H226872   0.542   7.271   4.277
 8977TIP3   OH226873   0.805   7.664   5.042
 8977TIP3    H126874   0.881   7.608   5.025
 8977TIP3    H226875   0.815   7.737   4.980
 8978TIP3   OH226876   1.043   7.532   5.028
 8978TIP3    H126877   1.009   7.455   5.073
 8978TIP3    H226878   1.129   7.547   5.068
 8979TIP3   OH226879   0.509   6.718   3.584
 8979TIP3    H126880   0.573   6.702   3.653
 8979TIP3    H226881   0.427   6.684   3.619
 8980TIP3   OH226882   0.572   7.018   4.066
 8980TIP3    H126883   0.613   6.932   4.074
 8980TIP3    H226884   0.598   7.049   3.979
 8981TIP3   OH226885   0.734   7.146   4.578
 8981TIP3    H126886   0.809   7.173   4.524
 8981TIP3    H226887   0.735   7.206   4.652
 8982TIP3   OH226888   0.751   7.339   4.777
 8982TIP3    H126889   0.665   7.375   4.801
 8982TIP3    H226890   0.797   7.412   4.735
 8983TIP3   OH226891   1.222   6.927   5.307
 8983TIP3    H126892   1.289   6.864   5.280
 8983TIP3    H226893   1.246   7.009   5.262
 8984TIP3   OH226894   0.676   6.760   4.089
 8984TIP3    H126895   0.709   6.743   4.178
 8984TIP3    H226896   0.604   6.699   4.078
 8985TIP3   OH226897   0.737   6.680   3.737
 8985TIP3    H126898   0.780   6.621   3.675
 8985TIP3    H226899   0.793   6.758   3.739
 8986TIP3   OH226900   0.988   6.751   5.054
 8986TIP3    H126901   0.903   6.732   5.014
 8986TIP3    H226902   1.038   6.670   5.042
 8987TIP3   OH226903   0.724   6.596   4.535
 8987TIP3    H126904   0.764   6.646   4.463
 8987TIP3    H226905   0.634   6.627   4.538
 8988TIP3   OH226906   0.829   6.714   4.317
 8988TIP3    H126907   0.895   6.656   4.281
 8988TIP3    H226908   0.865   6.802   4.303
 8989TIP3   OH226909   0.468   6.686   4.511
 8989TIP3    H126910   0.417   6.723   4.439
 8989TIP3    H226911   0.426   6.603   4.530
 8990TIP3   OH226912   0.472   6.565   4.068
 8990TIP3    H126913   0.388   6.610   4.056
 8990TIP3    H226914   0.451   6.487   4.119
 8991TIP3   OH226915   0.841   6.725   5.558
 8991TIP3    H126916   0.779   6.798   5.562
 8991TIP3    H226917   0.889   6.739   5.477
 8992TIP3   OH226918   1.951   7.603   3.768
 8992TIP3    H126919   1.942   7.696   3.749
 8992TIP3    H226920   1.881   7.561   3.718
 8993TIP3   OH226921   1.925   7.707   4.122
 8993TIP3    H126922   1.970   7.688   4.204
 8993TIP3    H226923   1.885   7.624   4.096
 8994TIP3   OH226924   1.232   7.617   4.475
 8994TIP3    H126925   1.274   7.549   4.527
 8994TIP3    H226926   1.302   7.652   4.420
 8995TIP3   OH226927   2.202   7.983   3.818
 8995TIP3    H126928   2.181   7.926   3.892
 8995TIP3    H226929   2.232   8.064   3.858
 8996TIP3   OH226930   1.351   7.895   4.290
 8996TIP3    H126931   1.256   7.890   4.297
 8996TIP3    H226932   1.368   7.897   4.196
 8997TIP3   OH226933   0.911   7.205   3.943
 8997TIP3    H126934   0.865   7.286   3.968
 8997TIP3    H226935   0.842   7.150   3.905
 8998TIP3   OH226936   0.957   7.506   4.156
 8998TIP3    H126937   1.034   7.449   4.162
 8998TIP3    H226938   0.983   7.575   4.095
 8999TIP3   OH226939   1.754   7.937   4.201
 8999TIP3    H126940   1.774   7.869   4.138
 8999TIP3    H226941   1.839   7.964   4.236
 9000TIP3   OH226942   2.760   7.252   4.163
 9000TIP3    H126943   2.784   7.336   4.202
 9000TIP3    H226944   2.806   7.251   4.079
 9001TIP3   OH226945   2.152   7.422   4.175
 9001TIP3    H126946   2.193   7.339   4.196
 9001TIP3    H226947   2.119   7.411   4.085
 9002TIP3   OH226948   1.505   7.074   4.122
 9002TIP3    H126949   1.486   7.147   4.064
 9002TIP3    H226950   1.452   7.002   4.089
 9003TIP3   OH226951   2.197   7.194   3.755
 9003TIP3    H126952   2.259   7.187   3.828
 9003TIP3    H226953   2.251   7.220   3.681
 9004TIP3   OH226954   1.132   7.296   4.253
 9004TIP3    H126955   1.218   7.277   4.290
 9004TIP3    H226956   1.129   7.248   4.171
 9005TIP3   OH226957   1.567   7.478   4.067
 9005TIP3    H126958   1.662   7.463   4.070
 9005TIP3    H226959   1.532   7.396   4.033
 9006TIP3   OH226960   2.833   7.469   4.322
 9006TIP3    H126961   2.748   7.513   4.315
 9006TIP3    H226962   2.875   7.510   4.398
 9007TIP3   OH226963   1.475   7.073   4.571
 9007TIP3    H126964   1.437   7.111   4.492
 9007TIP3    H226965   1.412   7.093   4.641
 9008TIP3   OH226966   1.905   7.827   3.615
 9008TIP3    H126967   1.851   7.836   3.536
 9008TIP3    H226968   1.916   7.917   3.646
 9009TIP3   OH226969   1.595   7.821   4.386
 9009TIP3    H126970   1.508   7.858   4.372
 9009TIP3    H226971   1.651   7.869   4.324
 9010TIP3   OH226972   2.364   7.201   3.976
 9010TIP3    H126973   2.323   7.184   4.061
 9010TIP3    H226974   2.426   7.272   3.993
 9011TIP3   OH226975   1.378   7.186   4.339
 9011TIP3    H126976   1.433   7.260   4.363
 9011TIP3    H226977   1.423   7.146   4.264
 9012TIP3   OH226978   4.304   0.095   4.430
 9012TIP3    H126979   4.238   0.027   4.414
 9012TIP3    H226980   4.253   0.169   4.462
 9013TIP3   OH226981   0.813   7.652   3.727
 9013TIP3    H126982   0.765   7.643   3.645
 9013TIP3    H226983   0.857   7.736   3.721
 9014TIP3   OH226984   2.559   7.133   4.313
 9014TIP3    H126985   2.475   7.162   4.277
 9014TIP3    H226986   2.624   7.167   4.252
 9015TIP3   OH226987   1.836   6.775   4.297
 9015TIP3    H126988   1.829   6.683   4.322
 9015TIP3    H226989   1.757   6.816   4.333
 9016TIP3   OH226990   5.074   0.032   3.542
 9016TIP3    H126991   5.028   0.007   3.462
 9016TIP3    H226992   5.033  -0.020   3.611
 9017TIP3   OH226993   5.396   0.147   4.223
 9017TIP3    H126994   5.353   0.076   4.176
 9017TIP3    H226995   5.424   0.208   4.155
 9018TIP3   OH226996   1.778   7.515   3.572
 9018TIP3    H126997   1.698   7.565   3.558
 9018TIP3    H226998   1.823   7.517   3.487
 9019TIP3   OH226999   1.730   7.325   3.270
 9019TIP3    H127000   1.794   7.386   3.308
 9019TIP3    H227001   1.783   7.264   3.219
 9020TIP3   OH227002   2.672   7.799   4.159
 9020TIP3    H127003   2.588   7.844   4.155
 9020TIP3    H227004   2.696   7.783   4.068
 9021TIP3   OH227005   2.126   7.594   3.540
 9021TIP3    H127006   2.074   7.610   3.619
 9021TIP3    H227007   2.213   7.573   3.574
 9022TIP3   OH227008   2.346   7.665   4.452
 9022TIP3    H127009   2.342   7.743   4.507
 9022TIP3    H227010   2.264   7.665   4.402
 9023TIP3   OH227011   1.356   7.589   3.920
 9023TIP3    H127012   1.317   7.529   3.856
 9023TIP3    H227013   1.427   7.538   3.960
 9024TIP3   OH227014   1.436   7.931   4.034
 9024TIP3    H127015   1.468   8.019   4.057
 9024TIP3    H227016   1.509   7.890   3.988
 9025TIP3   OH227017   1.466   7.598   4.289
 9025TIP3    H127018   1.506   7.566   4.208
 9025TIP3    H227019   1.518   7.675   4.313
 9026TIP3   OH227020   4.474   0.069   4.655
 9026TIP3    H127021   4.550   0.126   4.647
 9026TIP3    H227022   4.447   0.052   4.565
 9027TIP3   OH227023   1.946   7.489   3.356
 9027TIP3    H127024   2.011   7.541   3.402
 9027TIP3    H227025   1.975   7.490   3.265
 9028TIP3   OH227026   1.375   7.702   4.781
 9028TIP3    H127027   1.369   7.794   4.808
 9028TIP3    H227028   1.286   7.678   4.757
 9029TIP3   OH227029   2.461   6.741   3.401
 9029TIP3    H127030   2.387   6.762   3.458
 9029TIP3    H227031   2.472   6.819   3.346
 9030TIP3   OH227032   1.238   7.425   3.730
 9030TIP3    H127033   1.166   7.476   3.693
 9030TIP3    H227034   1.200   7.338   3.745
 9031TIP3   OH227035   1.022   7.807   4.644
 9031TIP3    H127036   0.941   7.824   4.596
 9031TIP3    H227037   1.053   7.723   4.609
 9032TIP3   OH227038   2.587   7.633   4.632
 9032TIP3    H127039   2.514   7.635   4.571
 9032TIP3    H227040   2.613   7.540   4.634
 9033TIP3   OH227041   1.221   7.962   4.547
 9033TIP3    H127042   1.258   8.016   4.617
 9033TIP3    H227043   1.150   7.913   4.590
 9034TIP3   OH227044   1.597   6.864   4.417
 9034TIP3    H127045   1.515   6.830   4.383
 9034TIP3    H227046   1.575   6.949   4.454
 9035TIP3   OH227047   2.138   6.992   4.628
 9035TIP3    H127048   2.209   6.968   4.687
 9035TIP3    H227049   2.058   6.976   4.678
 9036TIP3   OH227050   2.358   7.403   4.546
 9036TIP3    H127051   2.317   7.399   4.632
 9036TIP3    H227052   2.339   7.492   4.515
 9037TIP3   OH227053   2.010   7.463   3.093
 9037TIP3    H127054   1.985   7.430   3.006
 9037TIP3    H227055   2.035   7.554   3.078
 9038TIP3   OH227056   1.733   6.916   3.397
 9038TIP3    H127057   1.698   6.923   3.486
 9038TIP3    H227058   1.698   6.833   3.364
 9039TIP3   OH227059   1.529   7.386   4.446
 9039TIP3    H127060   1.481   7.398   4.527
 9039TIP3    H227061   1.509   7.463   4.393
 9040TIP3   OH227062   1.410   7.276   3.965
 9040TIP3    H127063   1.321   7.255   3.991
 9040TIP3    H227064   1.418   7.245   3.875
 9041TIP3   OH227065   1.901   7.297   3.678
 9041TIP3    H127066   1.856   7.372   3.640
 9041TIP3    H227067   1.969   7.274   3.615
 9042TIP3   OH227068   2.101   7.606   4.754
 9042TIP3    H127069   2.071   7.539   4.816
 9042TIP3    H227070   2.191   7.623   4.779
 9043TIP3   OH227071   2.059   7.396   3.919
 9043TIP3    H127072   2.016   7.462   3.865
 9043TIP3    H227073   2.072   7.322   3.860
 9044TIP3   OH227074   1.348   7.430   4.652
 9044TIP3    H127075   1.418   7.477   4.699
 9044TIP3    H227076   1.268   7.451   4.701
 9045TIP3   OH227077   1.399   6.898   3.374
 9045TIP3    H127078   1.389   6.899   3.469
 9045TIP3    H227079   1.320   6.942   3.341
 9046TIP3   OH227080   0.956   6.941   4.251
 9046TIP3    H127081   1.033   6.980   4.292
 9046TIP3    H227082   0.982   6.925   4.161
 9047TIP3   OH227083   0.884   6.914   3.751
 9047TIP3    H127084   0.924   6.949   3.671
 9047TIP3    H227085   0.815   6.977   3.772
 9048TIP3   OH227086   2.088   7.627   4.338
 9048TIP3    H127087   2.116   7.559   4.276
 9048TIP3    H227088   2.047   7.579   4.409
 9049TIP3   OH227089   1.771   7.069   4.015
 9049TIP3    H127090   1.695   7.065   4.072
 9049TIP3    H227091   1.846   7.058   4.074
 9050TIP3   OH227092   1.169   7.155   4.021
 9050TIP3    H127093   1.081   7.161   3.985
 9050TIP3    H227094   1.197   7.066   4.001
 9051TIP3   OH227095   1.412   7.153   3.721
 9051TIP3    H127096   1.506   7.163   3.709
 9051TIP3    H227097   1.375   7.171   3.635
 9052TIP3   OH227098   2.238   7.160   4.222
 9052TIP3    H127099   2.210   7.177   4.312
 9052TIP3    H227100   2.177   7.093   4.191
 9053TIP3   OH227101   1.287   7.176   3.479
 9053TIP3    H127102   1.220   7.128   3.429
 9053TIP3    H227103   1.348   7.207   3.412
 9054TIP3   OH227104   1.363   7.940   4.922
 9054TIP3    H127105   1.436   7.948   4.983
 9054TIP3    H227106   1.285   7.952   4.977
 9055TIP3   OH227107   1.836   7.432   4.111
 9055TIP3    H127108   1.903   7.395   4.054
 9055TIP3    H227109   1.844   7.381   4.192
 9056TIP3   OH227110   1.315   6.906   4.002
 9056TIP3    H127111   1.284   6.831   4.052
 9056TIP3    H227112   1.333   6.871   3.915
 9057TIP3   OH227113   1.797   7.328   4.393
 9057TIP3    H127114   1.711   7.365   4.412
 9057TIP3    H227115   1.858   7.384   4.441
 9058TIP3   OH227116   1.551   7.662   3.538
 9058TIP3    H127117   1.471   7.610   3.528
 9058TIP3    H227118   1.543   7.703   3.624
 9059TIP3   OH227119   2.425   7.918   4.117
 9059TIP3    H127120   2.448   7.961   4.035
 9059TIP3    H227121   2.340   7.877   4.100
 9060TIP3   OH227122   1.992   7.002   3.399
 9060TIP3    H127123   1.897   6.989   3.397
 9060TIP3    H227124   2.002   7.097   3.412
 9061TIP3   OH227125   1.955   7.942   4.537
 9061TIP3    H127126   2.011   7.937   4.615
 9061TIP3    H227127   1.905   8.023   4.549
 9062TIP3   OH227128   2.070   7.258   3.462
 9062TIP3    H127129   2.164   7.261   3.476
 9062TIP3    H227130   2.048   7.341   3.421
 9063TIP3   OH227131   1.224   7.637   4.157
 9063TIP3    H127132   1.251   7.633   4.065
 9063TIP3    H227133   1.304   7.616   4.206
 9064TIP3   OH227134   1.584   7.867   3.356
 9064TIP3    H127135   1.632   7.936   3.402
 9064TIP3    H227136   1.580   7.795   3.419
 9065TIP3   OH227137   1.126   7.552   4.770
 9065TIP3    H127138   1.107   7.546   4.863
 9065TIP3    H227139   1.040   7.543   4.727
 9066TIP3   OH227140   1.866   7.738   4.806
 9066TIP3    H127141   1.821   7.719   4.723
 9066TIP3    H227142   1.956   7.711   4.791
 9067TIP3   OH227143   2.465   7.346   3.289
 9067TIP3    H127144   2.411   7.313   3.217
 9067TIP3    H227145   2.486   7.436   3.264
 9068TIP3   OH227146   5.627   0.094   4.347
 9068TIP3    H127147   5.551   0.121   4.297
 9068TIP3    H227148   5.677   0.038   4.287
 9069TIP3   OH227149   2.182   7.800   4.034
 9069TIP3    H127150   2.091   7.776   4.050
 9069TIP3    H227151   2.221   7.721   3.995
 9070TIP3   OH227152   0.900   7.322   3.526
 9070TIP3    H127153   0.954   7.399   3.544
 9070TIP3    H227154   0.824   7.332   3.584
 9071TIP3   OH227155   1.494   7.780   3.785
 9071TIP3    H127156   1.422   7.818   3.735
 9071TIP3    H227157   1.453   7.716   3.842
 9072TIP3   OH227158   2.022   7.966   4.266
 9072TIP3    H127159   2.009   7.963   4.361
 9072TIP3    H227160   2.096   7.908   4.250
 9073TIP3   OH227161   1.894   7.845   3.197
 9073TIP3    H127162   1.970   7.790   3.215
 9073TIP3    H227163   1.838   7.790   3.141
 9074TIP3   OH227164   2.123   7.748   3.316
 9074TIP3    H127165   2.123   7.703   3.400
 9074TIP3    H227166   2.216   7.765   3.298
 9075TIP3   OH227167   1.319   7.778   3.313
 9075TIP3    H127168   1.292   7.742   3.228
 9075TIP3    H227169   1.402   7.822   3.295
 9076TIP3   OH227170   1.033   7.552   3.603
 9076TIP3    H127171   0.966   7.576   3.667
 9076TIP3    H227172   1.033   7.624   3.540
 9077TIP3   OH227173   2.161   7.222   4.480
 9077TIP3    H127174   2.241   7.265   4.510
 9077TIP3    H227175   2.154   7.144   4.535
 9078TIP3   OH227176   2.056   6.967   3.670
 9078TIP3    H127177   2.036   6.981   3.577
 9078TIP3    H227178   2.095   7.049   3.699
 9079TIP3   OH227179   1.687   7.158   3.768
 9079TIP3    H127180   1.761   7.209   3.733
 9079TIP3    H227181   1.713   7.138   3.858
 9080TIP3   OH227182   2.003   7.453   4.534
 9080TIP3    H127183   2.036   7.495   4.614
 9080TIP3    H227184   2.055   7.372   4.526
 9081TIP3   OH227185   1.865   6.863   3.843
 9081TIP3    H127186   1.844   6.940   3.895
 9081TIP3    H227187   1.936   6.892   3.785
 9082TIP3   OH227188   1.375   6.883   3.655
 9082TIP3    H127189   1.364   6.973   3.685
 9082TIP3    H227190   1.469   6.867   3.659
 9083TIP3   OH227191   2.627   7.366   4.539
 9083TIP3    H127192   2.531   7.363   4.545
 9083TIP3    H227193   2.647   7.338   4.450
 9084TIP3   OH227194   2.288   7.563   3.930
 9084TIP3    H127195   2.214   7.501   3.930
 9084TIP3    H227196   2.354   7.521   3.984
 9085TIP3   OH227197   0.963   7.730   3.379
 9085TIP3    H127198   0.931   7.776   3.302
 9085TIP3    H227199   1.029   7.669   3.346
 9086TIP3   OH227200   0.935   7.049   3.520
 9086TIP3    H127201   0.937   7.144   3.532
 9086TIP3    H227202   0.862   7.034   3.460
 9087TIP3   OH227203   1.331   6.785   4.389
 9087TIP3    H127204   1.300   6.754   4.304
 9087TIP3    H227205   1.317   6.711   4.448
 9088TIP3   OH227206   1.124   7.888   5.065
 9088TIP3    H127207   1.175   7.808   5.065
 9088TIP3    H227208   1.059   7.875   4.996
 9089TIP3   OH227209   1.136   7.531   3.301
 9089TIP3    H127210   1.191   7.519   3.379
 9089TIP3    H227211   1.196   7.526   3.227
 9090TIP3   OH227212   1.761   7.977   4.880
 9090TIP3    H127213   1.725   8.011   4.798
 9090TIP3    H227214   1.804   7.895   4.856
 9091TIP3   OH227215   1.648   7.774   3.099
 9091TIP3    H127216   1.633   7.839   3.167
 9091TIP3    H227217   1.612   7.693   3.135
 9092TIP3   OH227218   5.106   0.023   4.441
 9092TIP3    H127219   5.175   0.088   4.431
 9092TIP3    H227220   5.038   0.066   4.492
 9093TIP3   OH227221   1.289   7.664   5.057
 9093TIP3    H127222   1.351   7.666   4.984
 9093TIP3    H227223   1.339   7.695   5.132
 9094TIP3   OH227224   1.350   7.486   3.480
 9094TIP3    H127225   1.318   7.450   3.563
 9094TIP3    H227226   1.383   7.410   3.432
 9095TIP3   OH227227   1.596   7.561   4.696
 9095TIP3    H127228   1.537   7.631   4.724
 9095TIP3    H227229   1.659   7.604   4.638
 9096TIP3   OH227230   1.458   7.295   3.306
 9096TIP3    H127231   1.433   7.285   3.214
 9096TIP3    H227232   1.553   7.307   3.304
 9097TIP3   OH227233   2.114   7.927   4.775
 9097TIP3    H127234   2.201   7.889   4.767
 9097TIP3    H227235   2.094   7.922   4.868
 9098TIP3   OH227236   2.322   7.619   2.964
 9098TIP3    H127237   2.270   7.569   2.900
 9098TIP3    H227238   2.397   7.650   2.914
 9099TIP3   OH227239   1.731   7.361   4.825
 9099TIP3    H127240   1.740   7.287   4.765
 9099TIP3    H227241   1.691   7.430   4.772
 9100TIP3   OH227242   1.736   7.162   4.617
 9100TIP3    H127243   1.769   7.204   4.538
 9100TIP3    H227244   1.645   7.141   4.598
 9101TIP3   OH227245   1.779   7.704   4.546
 9101TIP3    H127246   1.862   7.745   4.522
 9101TIP3    H227247   1.714   7.744   4.489
 9102TIP3   OH227248   2.361   7.641   4.856
 9102TIP3    H127249   2.405   7.558   4.875
 9102TIP3    H227250   2.427   7.692   4.808
 9103TIP3   OH227251   2.386   7.881   4.630
 9103TIP3    H127252   2.328   7.934   4.576
 9103TIP3    H227253   2.472   7.892   4.590
 9104TIP3   OH227254   1.619   7.463   5.063
 9104TIP3    H127255   1.531   7.426   5.072
 9104TIP3    H227256   1.649   7.434   4.977
 9105TIP3   OH227257   1.876   6.942   4.712
 9105TIP3    H127258   1.832   7.020   4.678
 9105TIP3    H227259   1.817   6.870   4.688
 9106TIP3   OH227260   1.997   7.408   4.915
 9106TIP3    H127261   1.993   7.403   5.010
 9106TIP3    H227262   1.908   7.389   4.886
 9107TIP3   OH227263   2.242   7.350   4.784
 9107TIP3    H127264   2.165   7.352   4.840
 9107TIP3    H227265   2.315   7.332   4.845
 9108TIP3   OH227266   2.474   7.327   4.938
 9108TIP3    H127267   2.489   7.233   4.942
 9108TIP3    H227268   2.469   7.355   5.030
 9109TIP3   OH227269   1.926   6.920   4.979
 9109TIP3    H127270   1.996   6.855   4.978
 9109TIP3    H227271   1.903   6.934   4.887
 9110TIP3   OH227272   2.024   7.132   5.127
 9110TIP3    H127273   1.993   7.060   5.071
 9110TIP3    H227274   1.953   7.195   5.126
 9111TIP3   OH227275   0.719   7.645   3.473
 9111TIP3    H127276   0.799   7.679   3.434
 9111TIP3    H227277   0.666   7.618   3.398
 9112TIP3   OH227278   5.406   0.496   4.563
 9112TIP3    H127279   5.378   0.448   4.641
 9112TIP3    H227280   5.495   0.524   4.582
 9113TIP3   OH227281   2.384   7.809   3.312
 9113TIP3    H127282   2.419   7.894   3.283
 9113TIP3    H227283   2.429   7.792   3.395
 9114TIP3   OH227284   2.503   7.747   3.548
 9114TIP3    H127285   2.465   7.667   3.585
 9114TIP3    H227286   2.596   7.740   3.569
 9115TIP3   OH227287   5.432   0.047   3.949
 9115TIP3    H127288   5.442  -0.033   3.897
 9115TIP3    H227289   5.401   0.112   3.887
 9116TIP3   OH227290   2.495   7.595   3.173
 9116TIP3    H127291   2.424   7.595   3.110
 9116TIP3    H227292   2.478   7.670   3.230
 9117TIP3   OH227293   2.319   7.255   3.074
 9117TIP3    H127294   2.259   7.285   3.006
 9117TIP3    H227295   2.315   7.159   3.069
 9118TIP3   OH227296   2.367   7.533   3.663
 9118TIP3    H127297   2.407   7.447   3.658
 9118TIP3    H227298   2.351   7.546   3.757
 9119TIP3   OH227299   0.971   7.592   4.409
 9119TIP3    H127300   0.956   7.558   4.321
 9119TIP3    H227301   1.067   7.593   4.419
 9120TIP3   OH227302   2.620   7.940   4.502
 9120TIP3    H127303   2.685   7.870   4.492
 9120TIP3    H227304   2.644   8.005   4.436
 9121TIP3   OH227305   2.811   7.749   4.523
 9121TIP3    H127306   2.738   7.702   4.564
 9121TIP3    H227307   2.888   7.694   4.541
 9122TIP3   OH227308   2.281   6.980   3.052
 9122TIP3    H127309   2.345   6.961   3.120
 9122TIP3    H227310   2.199   6.945   3.086
 9123TIP3   OH227311   2.345   7.253   3.522
 9123TIP3    H127312   2.393   7.172   3.539
 9123TIP3    H227313   2.391   7.294   3.449
 9124TIP3   OH227314   2.490   7.437   4.071
 9124TIP3    H127315   2.568   7.461   4.020
 9124TIP3    H227316   2.509   7.468   4.159
 9125TIP3   OH227317   2.575   7.581   4.299
 9125TIP3    H127318   2.496   7.614   4.342
 9125TIP3    H227319   2.609   7.657   4.251
 9126TIP3   OH227320   3.031   7.184   4.820
 9126TIP3    H127321   3.097   7.130   4.778
 9126TIP3    H227322   2.992   7.235   4.749
 9127TIP3   OH227323   2.468   7.016   3.588
 9127TIP3    H127324   2.518   7.020   3.670
 9127TIP3    H227325   2.410   6.941   3.598
 9128TIP3   OH227326   1.175   7.011   4.422
 9128TIP3    H127327   1.226   6.931   4.413
 9128TIP3    H227328   1.232   7.080   4.390
 9129TIP3   OH227329   0.959   7.274   4.476
 9129TIP3    H127330   1.005   7.256   4.394
 9129TIP3    H227331   0.965   7.369   4.487
 9130TIP3   OH227332   2.881   7.296   4.622
 9130TIP3    H127333   2.796   7.338   4.631
 9130TIP3    H227334   2.865   7.219   4.568
 9131TIP3   OH227335   2.500   6.943   3.215
 9131TIP3    H127336   2.550   6.880   3.162
 9131TIP3    H227337   2.561   7.014   3.232
 9132TIP3   OH227338   0.941   6.800   3.990
 9132TIP3    H127339   0.854   6.778   4.021
 9132TIP3    H227340   0.927   6.848   3.909
 9133TIP3   OH227341   1.164   6.897   4.906
 9133TIP3    H127342   1.084   6.872   4.952
 9133TIP3    H227343   1.134   6.941   4.826
 9134TIP3   OH227344   2.792   7.058   4.510
 9134TIP3    H127345   2.706   7.054   4.467
 9134TIP3    H227346   2.825   6.968   4.503
 9135TIP3   OH227347   1.993   6.976   4.155
 9135TIP3    H127348   1.954   6.902   4.201
 9135TIP3    H227349   2.064   6.937   4.104
 9136TIP3   OH227350   2.521   6.906   4.008
 9136TIP3    H127351   2.570   6.959   3.944
 9136TIP3    H227352   2.439   6.954   4.021
 9137TIP3   OH227353   2.647   7.029   3.797
 9137TIP3    H127354   2.717   6.970   3.769
 9137TIP3    H227355   2.681   7.117   3.780
 9138TIP3   OH227356   1.241   6.684   4.151
 9138TIP3    H127357   1.150   6.653   4.153
 9138TIP3    H227358   1.293   6.605   4.140
 9139TIP3   OH227359   1.073   6.604   3.819
 9139TIP3    H127360   1.091   6.649   3.736
 9139TIP3    H227361   1.033   6.671   3.874
 9140TIP3   OH227362   1.718   6.724   4.041
 9140TIP3    H127363   1.764   6.767   3.969
 9140TIP3    H227364   1.767   6.748   4.119
 9141TIP3   OH227365   2.212   6.865   4.033
 9141TIP3    H127366   2.240   6.837   3.946
 9141TIP3    H227367   2.224   6.788   4.089
 9142TIP3   OH227368   2.278   6.812   3.598
 9142TIP3    H127369   2.198   6.860   3.619
 9142TIP3    H227370   2.264   6.724   3.633
 9143TIP3   OH227371   1.166   6.718   3.568
 9143TIP3    H127372   1.211   6.655   3.512
 9143TIP3    H227373   1.236   6.773   3.602
 9144TIP3   OH227374   1.649   6.910   3.661
 9144TIP3    H127375   1.711   6.857   3.711
 9144TIP3    H227376   1.662   6.999   3.695
 9145TIP3   OH227377   1.696   6.995   5.146
 9145TIP3    H127378   1.772   6.971   5.094
 9145TIP3    H227379   1.679   6.917   5.201
 9146TIP3   OH227380   2.538   7.057   4.942
 9146TIP3    H127381   2.556   7.028   5.032
 9146TIP3    H227382   2.623   7.052   4.898
 9147TIP3   OH227383   3.762   7.905   3.257
 9147TIP3    H127384   3.734   7.972   3.319
 9147TIP3    H227385   3.682   7.883   3.209
 9148TIP3   OH227386   3.721   7.958   3.603
 9148TIP3    H127387   3.770   7.950   3.685
 9148TIP3    H227388   3.682   7.871   3.591
 9149TIP3   OH227389   3.021   7.840   3.969
 9149TIP3    H127390   3.055   7.777   4.033
 9149TIP3    H227391   3.093   7.852   3.907
 9150TIP3   OH227392   6.834   0.226   3.297
 9150TIP3    H127393   6.813   0.163   3.366
 9150TIP3    H227394   6.864   0.304   3.344
 9151TIP3   OH227395   5.916   0.215   3.746
 9151TIP3    H127396   5.835   0.164   3.740
 9151TIP3    H227397   5.969   0.184   3.673
 9152TIP3   OH227398   2.769   7.764   3.621
 9152TIP3    H127399   2.833   7.698   3.649
 9152TIP3    H227400   2.819   7.822   3.563
 9153TIP3   OH227401   6.391   0.170   3.661
 9153TIP3    H127402   6.424   0.088   3.623
 9153TIP3    H227403   6.467   0.210   3.703
 9154TIP3   OH227404   4.571   7.508   3.630
 9154TIP3    H127405   4.589   7.592   3.673
 9154TIP3    H227406   4.603   7.520   3.541
 9155TIP3   OH227407   3.947   7.681   3.656
 9155TIP3    H127408   3.981   7.597   3.685
 9155TIP3    H227409   3.910   7.663   3.569
 9156TIP3   OH227410   3.311   7.336   3.603
 9156TIP3    H127411   3.276   7.407   3.550
 9156TIP3    H227412   3.258   7.259   3.579
 9157TIP3   OH227413   3.995   7.441   3.243
 9157TIP3    H127414   4.057   7.435   3.316
 9157TIP3    H227415   4.048   7.469   3.168
 9158TIP3   OH227416   2.928   7.579   3.753
 9158TIP3    H127417   3.014   7.544   3.775
 9158TIP3    H227418   2.876   7.501   3.732
 9159TIP3   OH227419   3.353   7.727   3.564
 9159TIP3    H127420   3.448   7.711   3.567
 9159TIP3    H227421   3.316   7.644   3.533
 9160TIP3   OH227422   4.629   7.726   3.794
 9160TIP3    H127423   4.540   7.761   3.795
 9160TIP3    H227424   4.668   7.759   3.876
 9161TIP3   OH227425   3.267   7.344   4.054
 9161TIP3    H127426   3.207   7.364   3.983
 9161TIP3    H227427   3.216   7.358   4.134
 9162TIP3   OH227428   6.529   0.085   3.006
 9162TIP3    H127429   6.493   0.001   3.035
 9162TIP3    H227430   6.479   0.150   3.055
 9163TIP3   OH227431   6.222   0.064   3.842
 9163TIP3    H127432   6.174   0.131   3.890
 9163TIP3    H227433   6.272   0.112   3.776
 9164TIP3   OH227434   4.151   7.468   3.465
 9164TIP3    H127435   4.111   7.442   3.548
 9164TIP3    H227436   4.213   7.538   3.489
 9165TIP3   OH227437   3.174   7.459   3.814
 9165TIP3    H127438   3.240   7.518   3.851
 9165TIP3    H227439   3.221   7.407   3.749
 9166TIP3   OH227440   6.070   0.252   3.966
 9166TIP3    H127441   6.023   0.254   3.883
 9166TIP3    H227442   6.003   0.227   4.030
 9167TIP3   OH227443   2.642   7.889   3.213
 9167TIP3    H127444   2.578   7.896   3.143
 9167TIP3    H227445   2.667   7.979   3.232
 9168TIP3   OH227446   4.372   7.401   3.800
 9168TIP3    H127447   4.286   7.426   3.765
 9168TIP3    H227448   4.434   7.427   3.733
 9169TIP3   OH227449   3.623   7.037   3.792
 9169TIP3    H127450   3.615   6.945   3.818
 9169TIP3    H227451   3.546   7.079   3.831
 9170TIP3   OH227452   7.189   0.388   3.693
 9170TIP3    H127453   7.128   0.323   3.658
 9170TIP3    H227454   7.208   0.445   3.618
 9171TIP3   OH227455   3.595   7.836   3.047
 9171TIP3    H127456   3.501   7.854   3.040
 9171TIP3    H227457   3.619   7.804   2.960
 9172TIP3   OH227458   3.526   7.603   2.721
 9172TIP3    H127459   3.590   7.655   2.769
 9172TIP3    H227460   3.579   7.538   2.674
 9173TIP3   OH227461   7.288   0.053   3.641
 9173TIP3    H127462   7.200   0.091   3.636
 9173TIP3    H227463   7.322   0.061   3.552
 9174TIP3   OH227464   3.915   7.818   3.042
 9174TIP3    H127465   3.867   7.847   3.119
 9174TIP3    H227466   4.004   7.801   3.074
 9175TIP3   OH227467   4.144   7.908   3.932
 9175TIP3    H127468   4.147   7.985   3.989
 9175TIP3    H227469   4.061   7.916   3.885
 9176TIP3   OH227470   3.154   7.840   3.404
 9176TIP3    H127471   3.110   7.778   3.345
 9176TIP3    H227472   3.217   7.786   3.452
 9177TIP3   OH227473   6.096   0.171   3.543
 9177TIP3    H127474   6.061   0.177   3.455
 9177TIP3    H227475   6.187   0.145   3.532
 9178TIP3   OH227476   3.250   7.852   3.786
 9178TIP3    H127477   3.291   7.813   3.709
 9178TIP3    H227478   3.301   7.931   3.804
 9179TIP3   OH227479   6.312   0.283   4.100
 9179TIP3    H127480   6.331   0.361   4.049
 9179TIP3    H227481   6.223   0.258   4.075
 9180TIP3   OH227482   3.743   7.742   2.833
 9180TIP3    H127483   3.809   7.783   2.889
 9180TIP3    H227484   3.774   7.757   2.744
 9181TIP3   OH227485   3.183   7.963   4.245
 9181TIP3    H127486   3.181   8.058   4.253
 9181TIP3    H227487   3.091   7.936   4.253
 9182TIP3   OH227488   4.257   6.992   2.889
 9182TIP3    H127489   4.181   7.012   2.942
 9182TIP3    H227490   4.268   7.069   2.833
 9183TIP3   OH227491   3.027   7.677   3.221
 9183TIP3    H127492   2.952   7.720   3.179
 9183TIP3    H227493   2.993   7.593   3.250
 9184TIP3   OH227494   2.848   8.041   4.073
 9184TIP3    H127495   2.761   8.023   4.039
 9184TIP3    H227496   2.901   7.967   4.045
 9185TIP3   OH227497   4.387   7.879   4.118
 9185TIP3    H127498   4.306   7.875   4.067
 9185TIP3    H227499   4.414   7.787   4.128
 9186TIP3   OH227500   5.867   0.211   4.135
 9186TIP3    H127501   5.819   0.276   4.186
 9186TIP3    H227502   5.801   0.147   4.107
 9187TIP3   OH227503   3.385   7.130   3.917
 9187TIP3    H127504   3.303   7.094   3.885
 9187TIP3    H227505   3.361   7.212   3.960
 9188TIP3   OH227506   3.921   7.248   4.118
 9188TIP3    H127507   3.991   7.225   4.180
 9188TIP3    H227508   3.840   7.232   4.167
 9189TIP3   OH227509   4.153   7.652   4.032
 9189TIP3    H127510   4.111   7.651   4.118
 9189TIP3    H227511   4.135   7.739   3.998
 9190TIP3   OH227512   3.821   7.780   2.577
 9190TIP3    H127513   3.783   7.753   2.493
 9190TIP3    H227514   3.907   7.816   2.555
 9191TIP3   OH227515   3.528   7.175   2.886
 9191TIP3    H127516   3.495   7.180   2.976
 9191TIP3    H227517   3.494   7.092   2.853
 9192TIP3   OH227518   3.335   7.646   3.943
 9192TIP3    H127519   3.281   7.647   4.023
 9192TIP3    H227520   3.304   7.721   3.893
 9193TIP3   OH227521   3.191   7.530   3.453
 9193TIP3    H127522   3.104   7.502   3.480
 9193TIP3    H227523   3.200   7.497   3.364
 9194TIP3   OH227524   3.692   7.602   3.171
 9194TIP3    H127525   3.661   7.682   3.128
 9194TIP3    H227526   3.754   7.564   3.109
 9195TIP3   OH227527   3.892   7.865   4.244
 9195TIP3    H127528   3.861   7.799   4.305
 9195TIP3    H227529   3.983   7.881   4.269
 9196TIP3   OH227530   3.855   7.625   3.404
 9196TIP3    H127531   3.790   7.655   3.341
 9196TIP3    H227532   3.897   7.550   3.362
 9197TIP3   OH227533   3.153   7.667   4.149
 9197TIP3    H127534   3.158   7.730   4.222
 9197TIP3    H227535   3.137   7.583   4.191
 9198TIP3   OH227536   3.194   7.155   2.859
 9198TIP3    H127537   3.187   7.154   2.954
 9198TIP3    H227538   3.115   7.199   2.829
 9199TIP3   OH227539   2.670   7.163   3.248
 9199TIP3    H127540   2.713   7.200   3.172
 9199TIP3    H227541   2.609   7.231   3.277
 9200TIP3   OH227542   3.884   7.886   3.820
 9200TIP3    H127543   3.912   7.817   3.760
 9200TIP3    H227544   3.843   7.839   3.893
 9201TIP3   OH227545   3.572   7.334   3.497
 9201TIP3    H127546   3.492   7.331   3.550
 9201TIP3    H227547   3.643   7.321   3.560
 9202TIP3   OH227548   2.963   7.386   3.495
 9202TIP3    H127549   2.888   7.370   3.553
 9202TIP3    H227550   3.009   7.302   3.492
 9203TIP3   OH227551   3.215   7.412   3.206
 9203TIP3    H127552   3.309   7.424   3.195
 9203TIP3    H227553   3.178   7.431   3.120
 9204TIP3   OH227554   4.014   7.416   3.706
 9204TIP3    H127555   3.995   7.431   3.798
 9204TIP3    H227556   3.947   7.354   3.677
 9205TIP3   OH227557   3.094   7.442   2.959
 9205TIP3    H127558   3.027   7.392   2.911
 9205TIP3    H227559   3.152   7.476   2.891
 9206TIP3   OH227560   6.039   0.220   4.376
 9206TIP3    H127561   6.110   0.218   4.439
 9206TIP3    H227562   5.960   0.198   4.426
 9207TIP3   OH227563   3.626   7.690   3.603
 9207TIP3    H127564   3.692   7.637   3.559
 9207TIP3    H227565   3.623   7.655   3.692
 9208TIP3   OH227566   3.127   7.156   3.496
 9208TIP3    H127567   3.089   7.087   3.552
 9208TIP3    H227568   3.141   7.113   3.412
 9209TIP3   OH227569   3.596   7.607   3.867
 9209TIP3    H127570   3.509   7.630   3.898
 9209TIP3    H227571   3.656   7.657   3.923
 9210TIP3   OH227572   3.342   7.923   3.045
 9210TIP3    H127573   3.268   7.868   3.021
 9210TIP3    H227574   3.320   7.958   3.131
 9211TIP3   OH227575   7.032   0.161   3.603
 9211TIP3    H127576   7.071   0.195   3.522
 9211TIP3    H227577   6.953   0.116   3.575
 9212TIP3   OH227578   3.787   7.260   2.884
 9212TIP3    H127579   3.692   7.244   2.884
 9212TIP3    H227580   3.795   7.354   2.901
 9213TIP3   OH227581   6.557   0.182   4.011
 9213TIP3    H127582   6.619   0.195   4.083
 9213TIP3    H227583   6.474   0.214   4.045
 9214TIP3   OH227584   3.856   7.515   2.960
 9214TIP3    H127585   3.950   7.522   2.972
 9214TIP3    H227586   3.833   7.590   2.904
 9215TIP3   OH227587   3.033   7.924   3.634
 9215TIP3    H127588   3.063   7.908   3.544
 9215TIP3    H227589   3.104   7.892   3.689
 9216TIP3   OH227590   6.251   0.096   2.857
 9216TIP3    H127591   6.275   0.160   2.924
 9216TIP3    H227592   6.234   0.015   2.905
 9217TIP3   OH227593   2.925   7.858   4.290
 9217TIP3    H127594   2.910   7.827   4.379
 9217TIP3    H227595   2.848   7.829   4.241
 9218TIP3   OH227596   3.645   7.977   4.307
 9218TIP3    H127597   3.579   7.921   4.267
 9218TIP3    H227598   3.728   7.949   4.267
 9219TIP3   OH227599   4.263   7.620   2.774
 9219TIP3    H127600   4.201   7.577   2.714
 9219TIP3    H227601   4.277   7.707   2.735
 9220TIP3   OH227602   7.393   0.394   3.863
 9220TIP3    H127603   7.308   0.411   3.822
 9220TIP3    H227604   7.450   0.368   3.791
 9221TIP3   OH227605   3.976   8.047   3.497
 9221TIP3    H127606   3.889   8.022   3.528
 9221TIP3    H227607   4.013   7.966   3.462
 9222TIP3   OH227608   2.715   7.567   3.010
 9222TIP3    H127609   2.768   7.645   3.022
 9222TIP3    H227610   2.642   7.577   3.072
 9223TIP3   OH227611   6.116   0.030   3.286
 9223TIP3    H127612   6.041   0.070   3.243
 9223TIP3    H227613   6.078  -0.041   3.338
 9224TIP3   OH227614   6.646   0.218   3.751
 9224TIP3    H127615   6.616   0.215   3.842
 9224TIP3    H227616   6.736   0.185   3.755
 9225TIP3   OH227617   6.572   0.064   2.707
 9225TIP3    H127618   6.647   0.004   2.698
 9225TIP3    H227619   6.504   0.025   2.652
 9226TIP3   OH227620   3.110   7.417   4.274
 9226TIP3    H127621   3.015   7.420   4.273
 9226TIP3    H227622   3.132   7.357   4.345
 9227TIP3   OH227623   3.957   8.011   2.860
 9227TIP3    H127624   3.958   7.940   2.923
 9227TIP3    H227625   4.049   8.025   2.837
 9228TIP3   OH227626   5.985   0.077   2.797
 9228TIP3    H127627   5.975   0.094   2.703
 9228TIP3    H227628   6.078   0.094   2.815
 9229TIP3   OH227629   2.842   7.804   3.066
 9229TIP3    H127630   2.779   7.826   3.134
 9229TIP3    H227631   2.825   7.867   2.996
 9230TIP3   OH227632   3.954   7.474   3.967
 9230TIP3    H127633   4.034   7.516   3.999
 9230TIP3    H227634   3.943   7.398   4.023
 9231TIP3   OH227635   3.846   7.222   3.156
 9231TIP3    H127636   3.827   7.237   3.064
 9231TIP3    H227637   3.890   7.301   3.186
 9232TIP3   OH227638   3.496   7.425   3.247
 9232TIP3    H127639   3.562   7.488   3.219
 9232TIP3    H227640   3.519   7.403   3.337
 9233TIP3   OH227641   3.806   7.712   4.019
 9233TIP3    H127642   3.837   7.752   4.101
 9233TIP3    H227643   3.852   7.628   4.015
 9234TIP3   OH227644   3.660   7.121   3.335
 9234TIP3    H127645   3.639   7.198   3.387
 9234TIP3    H227646   3.730   7.149   3.276
 9235TIP3   OH227647   3.173   7.141   3.136
 9235TIP3    H127648   3.158   7.227   3.174
 9235TIP3    H227649   3.267   7.127   3.144
 9236TIP3   OH227650   4.419   7.605   4.016
 9236TIP3    H127651   4.324   7.613   4.027
 9236TIP3    H227652   4.430   7.551   3.939
 9237TIP3   OH227653   4.080   7.805   3.409
 9237TIP3    H127654   4.006   7.745   3.417
 9237TIP3    H227655   4.148   7.767   3.465
 9238TIP3   OH227656   2.761   7.991   2.871
 9238TIP3    H127657   2.805   8.075   2.859
 9238TIP3    H227658   2.812   7.930   2.818
 9239TIP3   OH227659   2.730   7.294   3.015
 9239TIP3    H127660   2.743   7.388   3.023
 9239TIP3    H227661   2.648   7.285   2.966
 9240TIP3   OH227662   3.126   7.041   3.880
 9240TIP3    H127663   3.093   7.015   3.794
 9240TIP3    H227664   3.112   6.964   3.935
 9241TIP3   OH227665   5.831   0.122   4.533
 9241TIP3    H127666   5.866   0.034   4.546
 9241TIP3    H227667   5.760   0.111   4.469
 9242TIP3   OH227668   2.939   7.810   2.775
 9242TIP3    H127669   2.991   7.788   2.851
 9242TIP3    H227670   3.000   7.806   2.701
 9243TIP3   OH227671   6.392   0.214   4.351
 9243TIP3    H127672   6.365   0.248   4.265
 9243TIP3    H227673   6.421   0.125   4.332
 9244TIP3   OH227674   6.307   0.013   2.601
 9244TIP3    H127675   6.291   0.059   2.683
 9244TIP3    H227676   6.249  -0.062   2.603
 9245TIP3   OH227677   6.899   0.270   3.912
 9245TIP3    H127678   6.977   0.326   3.913
 9245TIP3    H227679   6.837   0.315   3.970
 9246TIP3   OH227680   3.128   7.892   4.542
 9246TIP3    H127681   3.202   7.886   4.482
 9246TIP3    H227682   3.164   7.931   4.621
 9247TIP3   OH227683   3.133   7.757   2.976
 9247TIP3    H127684   3.099   7.720   3.057
 9247TIP3    H227685   3.170   7.681   2.929
 9248TIP3   OH227686   3.429   7.841   4.193
 9248TIP3    H127687   3.346   7.887   4.201
 9248TIP3    H227688   3.465   7.870   4.109
 9249TIP3   OH227689   3.259   7.580   2.788
 9249TIP3    H127690   3.226   7.561   2.700
 9249TIP3    H227691   3.354   7.573   2.780
 9250TIP3   OH227692   6.751   0.180   4.270
 9250TIP3    H127693   6.826   0.123   4.256
 9250TIP3    H227694   6.728   0.167   4.362
 9251TIP3   OH227695   4.044   7.903   2.476
 9251TIP3    H127696   4.039   7.856   2.393
 9251TIP3    H227697   4.020   7.993   2.454
 9252TIP3   OH227698   3.533   7.617   4.305
 9252TIP3    H127699   3.535   7.544   4.243
 9252TIP3    H227700   3.496   7.690   4.256
 9253TIP3   OH227701   3.530   7.425   4.096
 9253TIP3    H127702   3.561   7.462   4.014
 9253TIP3    H227703   3.438   7.403   4.080
 9254TIP3   OH227704   3.574   7.938   3.983
 9254TIP3    H127705   3.653   7.991   3.981
 9254TIP3    H227706   3.512   7.986   3.928
 9255TIP3   OH227707   4.152   7.890   4.364
 9255TIP3    H127708   4.195   7.804   4.366
 9255TIP3    H227709   4.223   7.953   4.362
 9256TIP3   OH227710   7.013   0.109   4.098
 9256TIP3    H127711   6.957   0.162   4.043
 9256TIP3    H227712   7.102   0.138   4.078
 9257TIP3   OH227713   3.408   7.713   4.540
 9257TIP3    H127714   3.344   7.645   4.560
 9257TIP3    H227715   3.442   7.688   4.454
 9258TIP3   OH227716   3.657   7.199   4.201
 9258TIP3    H127717   3.616   7.278   4.166
 9258TIP3    H227718   3.593   7.129   4.186
 9259TIP3   OH227719   3.792   7.665   4.401
 9259TIP3    H127720   3.783   7.659   4.496
 9259TIP3    H227721   3.705   7.642   4.367
 9260TIP3   OH227722   4.035   7.607   4.270
 9260TIP3    H127723   3.956   7.611   4.325
 9260TIP3    H227724   4.106   7.590   4.331
 9261TIP3   OH227725   4.268   7.588   4.424
 9261TIP3    H127726   4.283   7.494   4.427
 9261TIP3    H227727   4.265   7.615   4.516
 9262TIP3   OH227728   3.251   7.492   4.607
 9262TIP3    H127729   3.257   7.404   4.568
 9262TIP3    H227730   3.288   7.483   4.694
 9263TIP3   OH227731   3.726   7.176   4.466
 9263TIP3    H127732   3.795   7.110   4.459
 9263TIP3    H227733   3.696   7.188   4.376
 9264TIP3   OH227734   3.819   7.391   4.613
 9264TIP3    H127735   3.790   7.319   4.556
 9264TIP3    H227736   3.747   7.453   4.610
 9265TIP3   OH227737   2.514   7.910   2.964
 9265TIP3    H127738   2.588   7.960   2.932
 9265TIP3    H227739   2.509   7.834   2.906
 9266TIP3   OH227740   7.210   0.622   4.110
 9266TIP3    H127741   7.181   0.685   4.176
 9266TIP3    H227742   7.297   0.654   4.084
 9267TIP3   OH227743   7.048   0.041   2.813
 9267TIP3    H127744   7.114   0.095   2.769
 9267TIP3    H227745   7.094   0.005   2.889
 9268TIP3   OH227746   4.351   7.924   3.006
 9268TIP3    H127747   4.290   7.886   3.069
 9268TIP3    H227748   4.418   7.967   3.059
 9269TIP3   OH227749   7.201   0.273   3.426
 9269TIP3    H127750   7.271   0.216   3.394
 9269TIP3    H227751   7.192   0.340   3.359
 9270TIP3   OH227752   4.269   7.856   2.631
 9270TIP3    H127753   4.194   7.865   2.572
 9270TIP3    H227754   4.258   7.927   2.694
 9271TIP3   OH227755   4.094   7.518   2.583
 9271TIP3    H127756   4.056   7.545   2.500
 9271TIP3    H227757   4.092   7.423   2.582
 9272TIP3   OH227758   4.163   7.782   3.150
 9272TIP3    H127759   4.181   7.688   3.142
 9272TIP3    H227760   4.145   7.795   3.243
 9273TIP3   OH227761   2.758   7.835   3.887
 9273TIP3    H127762   2.742   7.801   3.799
 9273TIP3    H227763   2.851   7.818   3.903
 9274TIP3   OH227764   7.263   0.201   4.020
 9274TIP3    H127765   7.320   0.126   4.004
 9274TIP3    H227766   7.292   0.268   3.958
 9275TIP3   OH227767   4.597   8.003   4.000
 9275TIP3    H127768   4.525   7.956   4.042
 9275TIP3    H227769   4.673   7.946   4.013
 9276TIP3   OH227770   4.068   7.248   2.559
 9276TIP3    H127771   4.137   7.217   2.617
 9276TIP3    H227772   3.990   7.200   2.585
 9277TIP3   OH227773   4.141   7.520   3.013
 9277TIP3    H127774   4.187   7.437   3.025
 9277TIP3    H227775   4.184   7.561   2.938
 9278TIP3   OH227776   4.297   7.692   3.544
 9278TIP3    H127777   4.376   7.712   3.494
 9278TIP3    H227778   4.312   7.730   3.630
 9279TIP3   OH227779   4.370   7.837   3.771
 9279TIP3    H127780   4.295   7.863   3.824
 9279TIP3    H227781   4.402   7.919   3.733
 9280TIP3   OH227782   2.986   7.543   4.552
 9280TIP3    H127783   3.081   7.541   4.565
 9280TIP3    H227784   2.955   7.460   4.588
 9281TIP3   OH227785   4.820   7.434   4.318
 9281TIP3    H127786   4.891   7.381   4.282
 9281TIP3    H227787   4.789   7.487   4.245
 9282TIP3   OH227788   4.255   7.275   3.068
 9282TIP3    H127789   4.300   7.261   3.152
 9282TIP3    H227790   4.193   7.203   3.063
 9283TIP3   OH227791   2.962   7.251   3.973
 9283TIP3    H127792   3.025   7.184   3.944
 9283TIP3    H227793   2.916   7.278   3.894
 9284TIP3   OH227794   2.718   7.523   3.948
 9284TIP3    H127795   2.718   7.451   3.886
 9284TIP3    H227796   2.793   7.577   3.923
 9285TIP3   OH227797   4.680   7.554   4.117
 9285TIP3    H127798   4.599   7.596   4.146
 9285TIP3    H227799   4.651   7.481   4.061
 9286TIP3   OH227800   4.298   7.195   2.707
 9286TIP3    H127801   4.344   7.133   2.650
 9286TIP3    H227802   4.356   7.271   2.713
 9287TIP3   OH227803   2.716   6.981   3.445
 9287TIP3    H127804   2.639   6.991   3.501
 9287TIP3    H227805   2.716   7.059   3.390
 9288TIP3   OH227806   2.964   7.098   4.286
 9288TIP3    H127807   2.904   7.093   4.361
 9288TIP3    H227808   2.913   7.144   4.218
 9289TIP3   OH227809   4.588   7.313   4.002
 9289TIP3    H127810   4.502   7.307   3.959
 9289TIP3    H227811   4.624   7.225   3.996
 9290TIP3   OH227812   3.797   7.235   3.637
 9290TIP3    H127813   3.757   7.165   3.687
 9290TIP3    H227814   3.865   7.192   3.585
 9291TIP3   OH227815   4.300   7.152   3.528
 9291TIP3    H127816   4.336   7.201   3.454
 9291TIP3    H227817   4.206   7.172   3.527
 9292TIP3   OH227818   4.412   7.232   3.291
 9292TIP3    H127819   4.481   7.171   3.265
 9292TIP3    H227820   4.451   7.319   3.277
 9293TIP3   OH227821   3.038   6.937   3.639
 9293TIP3    H127822   2.947   6.909   3.648
 9293TIP3    H227823   3.088   6.855   3.632
 9294TIP3   OH227824   2.838   6.815   3.263
 9294TIP3    H127825   2.871   6.874   3.195
 9294TIP3    H227826   2.799   6.873   3.328
 9295TIP3   OH227827   3.514   6.978   3.532
 9295TIP3    H127828   3.563   7.025   3.464
 9295TIP3    H227829   3.554   7.006   3.614
 9296TIP3   OH227830   4.012   7.118   3.506
 9296TIP3    H127831   4.029   7.080   3.419
 9296TIP3    H227832   4.017   7.043   3.566
 9297TIP3   OH227833   4.066   7.069   3.073
 9297TIP3    H127834   3.987   7.115   3.100
 9297TIP3    H227835   4.056   6.981   3.110
 9298TIP3   OH227836   2.963   6.971   3.050
 9298TIP3    H127837   3.011   6.911   2.992
 9298TIP3    H227838   3.031   7.027   3.088
 9299TIP3   OH227839   3.448   7.172   3.151
 9299TIP3    H127840   3.506   7.118   3.204
 9299TIP3    H227841   3.463   7.261   3.181
 9300TIP3   OH227842   3.264   7.222   4.520
 9300TIP3    H127843   3.229   7.156   4.579
 9300TIP3    H227844   3.356   7.230   4.544
 9301TIP3   OH227845   3.511   7.228   4.642
 9301TIP3    H127846   3.588   7.207   4.589
 9301TIP3    H227847   3.507   7.158   4.707
 9302TIP3   OH227848   4.330   7.317   4.425
 9302TIP3    H127849   4.347   7.287   4.515
 9302TIP3    H227850   4.415   7.311   4.382
 9303TIP3   OH227851   8.353   0.211   2.685
 9303TIP3    H127852   8.321   0.298   2.663
 9303TIP3    H227853   8.284   0.151   2.657
 9304TIP3   OH227854   8.350   0.202   3.092
 9304TIP3    H127855   8.401   0.191   3.172
 9304TIP3    H227856   8.317   0.115   3.072
 9305TIP3   OH227857   7.662   0.073   3.477
 9305TIP3    H127858   7.695   0.008   3.539
 9305TIP3    H227859   7.724   0.146   3.484
 9306TIP3   OH227860   0.125   0.469   2.758
 9306TIP3    H127861   0.128   0.391   2.813
 9306TIP3    H227862   0.097   0.539   2.818
 9307TIP3   OH227863   7.734   0.391   3.212
 9307TIP3    H127864   7.761   0.300   3.206
 9307TIP3    H227865   7.798   0.439   3.159
 9308TIP3   OH227866   4.503   7.710   2.911
 9308TIP3    H127867   4.464   7.792   2.942
 9308TIP3    H227868   4.430   7.662   2.872
 9309TIP3   OH227869   4.578   8.003   3.137
 9309TIP3    H127870   4.619   7.921   3.164
 9309TIP3    H227871   4.651   8.059   3.109
 9310TIP3   OH227872   8.193   0.433   3.106
 9310TIP3    H127873   8.235   0.351   3.077
 9310TIP3    H227874   8.266   0.486   3.138
 9311TIP3   OH227875   6.344   7.771   3.133
 9311TIP3    H127876   6.366   7.855   3.172
 9311TIP3    H227877   6.350   7.786   3.038
 9312TIP3   OH227878   5.727   7.948   3.142
 9312TIP3    H127879   5.809   7.900   3.154
 9312TIP3    H227880   5.717   7.956   3.047
 9313TIP3   OH227881   5.088   7.596   3.105
 9313TIP3    H127882   5.072   7.669   3.046
 9313TIP3    H227883   5.034   7.524   3.071
 9314TIP3   OH227884   5.792   7.696   2.734
 9314TIP3    H127885   5.855   7.698   2.807
 9314TIP3    H227886   5.839   7.735   2.661
 9315TIP3   OH227887   4.719   7.791   3.232
 9315TIP3    H127888   4.804   7.779   3.274
 9315TIP3    H227889   4.726   7.745   3.149
 9316TIP3   OH227890   5.158   8.004   3.025
 9316TIP3    H127891   5.251   7.983   3.037
 9316TIP3    H227892   5.120   7.921   2.997
 9317TIP3   OH227893   0.758  -0.025   3.299
 9317TIP3    H127894   0.675   0.021   3.288
 9317TIP3    H227895   0.795   0.011   3.380
 9318TIP3   OH227896   5.080   7.595   3.553
 9318TIP3    H127897   5.030   7.634   3.482
 9318TIP3    H227898   5.025   7.608   3.631
 9319TIP3   OH227899   8.256   0.434   2.552
 9319TIP3    H127900   8.230   0.410   2.463
 9319TIP3    H227901   8.340   0.479   2.541
 9320TIP3   OH227902   8.058   0.328   3.321
 9320TIP3    H127903   8.011   0.400   3.362
 9320TIP3    H227904   8.107   0.369   3.250
 9321TIP3   OH227905   5.963   7.733   2.944
 9321TIP3    H127906   5.940   7.720   3.036
 9321TIP3    H227907   5.980   7.826   2.936
 9322TIP3   OH227908   4.964   7.705   3.327
 9322TIP3    H127909   5.018   7.781   3.350
 9322TIP3    H227910   5.012   7.663   3.256
 9323TIP3   OH227911   7.903   0.529   3.434
 9323TIP3    H127912   7.866   0.562   3.352
 9323TIP3    H227913   7.829   0.491   3.480
 9324TIP3   OH227914   7.271   0.146   2.700
 9324TIP3    H127915   7.262   0.224   2.645
 9324TIP3    H227916   7.311   0.179   2.781
 9325TIP3   OH227917   6.143   7.637   3.286
 9325TIP3    H127918   6.055   7.663   3.257
 9325TIP3    H227919   6.202   7.680   3.224
 9326TIP3   OH227920   5.417   7.288   3.281
 9326TIP3    H127921   5.408   7.196   3.307
 9326TIP3    H227922   5.340   7.331   3.319
 9327TIP3   OH227923   0.011   0.521   2.509
 9327TIP3    H127924   0.049   0.464   2.441
 9327TIP3    H227925   0.062   0.501   2.587
 9328TIP3   OH227926   0.370   0.673   3.237
 9328TIP3    H127927   0.362   0.584   3.203
 9328TIP3    H227928   0.390   0.727   3.161
 9329TIP3   OH227929   8.181   0.056   2.529
 9329TIP3    H127930   8.101   0.102   2.508
 9329TIP3    H227931   8.231   0.054   2.447
 9330TIP3   OH227932   5.328   7.881   2.217
 9330TIP3    H127933   5.392   7.928   2.270
 9330TIP3    H227934   5.379   7.815   2.170
 9331TIP3   OH227935   0.569   0.294   3.107
 9331TIP3    H127936   0.484   0.338   3.111
 9331TIP3    H227937   0.591   0.293   3.014
 9332TIP3   OH227938   0.046   0.129   2.509
 9332TIP3    H127939  -0.009   0.158   2.581
 9332TIP3    H227940   0.127   0.098   2.550
 9333TIP3   OH227941   0.257   0.168   3.440
 9333TIP3    H127942   0.260   0.251   3.486
 9333TIP3    H227943   0.176   0.172   3.388
 9334TIP3   OH227944   7.796   0.122   2.879
 9334TIP3    H127945   7.761   0.057   2.819
 9334TIP3    H227946   7.872   0.079   2.919
 9335TIP3   OH227947   7.934   0.524   3.072
 9335TIP3    H127948   7.934   0.553   2.981
 9335TIP3    H227949   8.024   0.494   3.087
 9336TIP3   OH227950   7.894   0.124   3.244
 9336TIP3    H127951   7.936   0.081   3.170
 9336TIP3    H227952   7.956   0.190   3.273
 9337TIP3   OH227953   8.128   0.619   3.574
 9337TIP3    H127954   8.091   0.701   3.607
 9337TIP3    H227955   8.058   0.581   3.521
 9338TIP3   OH227956   8.374   0.011   2.330
 9338TIP3    H127957   8.435   0.060   2.384
 9338TIP3    H227958   8.407   0.018   2.241
 9339TIP3   OH227959   7.814   0.228   3.687
 9339TIP3    H127960   7.824   0.305   3.743
 9339TIP3    H227961   7.731   0.188   3.716
 9340TIP3   OH227962   6.052   7.251   2.375
 9340TIP3    H127963   5.977   7.271   2.430
 9340TIP3    H227964   6.064   7.328   2.320
 9341TIP3   OH227965   4.844   7.963   2.695
 9341TIP3    H127966   4.768   8.000   2.651
 9341TIP3    H227967   4.819   7.874   2.718
 9342TIP3   OH227968   7.464   0.305   3.605
 9342TIP3    H127969   7.371   0.286   3.600
 9342TIP3    H227970   7.502   0.228   3.647
 9343TIP3   OH227971   0.519   0.145   3.597
 9343TIP3    H127972   0.450   0.156   3.532
 9343TIP3    H227973   0.540   0.052   3.595
 9344TIP3   OH227974   7.661   0.487   3.556
 9344TIP3    H127975   7.625   0.548   3.620
 9344TIP3    H227976   7.607   0.409   3.564
 9345TIP3   OH227977   5.179   7.380   3.405
 9345TIP3    H127978   5.094   7.350   3.374
 9345TIP3    H227979   5.161   7.462   3.451
 9346TIP3   OH227980   5.724   7.508   3.601
 9346TIP3    H127981   5.794   7.485   3.662
 9346TIP3    H227982   5.644   7.490   3.649
 9347TIP3   OH227983   5.950   7.920   3.518
 9347TIP3    H127984   5.910   7.913   3.604
 9347TIP3    H227985   5.934   8.010   3.490
 9348TIP3   OH227986   8.465   0.006   2.076
 9348TIP3    H127987   8.419  -0.010   1.994
 9348TIP3    H227988   8.540   0.061   2.051
 9349TIP3   OH227989   5.328   7.429   2.374
 9349TIP3    H127990   5.295   7.435   2.463
 9349TIP3    H227991   5.293   7.346   2.341
 9350TIP3   OH227992   5.111   7.920   3.413
 9350TIP3    H127993   5.081   7.934   3.503
 9350TIP3    H227994   5.085   7.999   3.367
 9351TIP3   OH227995   5.002   7.793   2.936
 9351TIP3    H127996   4.912   7.769   2.961
 9351TIP3    H227997   5.011   7.759   2.847
 9352TIP3   OH227998   5.473   7.855   2.649
 9352TIP3    H127999   5.429   7.932   2.612
 9352TIP3    H228000   5.536   7.829   2.582
 9353TIP3   OH228001   0.019   0.123   3.716
 9353TIP3    H128002  -0.011   0.059   3.781
 9353TIP3    H228003   0.112   0.135   3.734
 9354TIP3   OH228004   5.605   7.858   2.892
 9354TIP3    H128005   5.552   7.872   2.814
 9354TIP3    H228006   5.679   7.806   2.862
 9355TIP3   OH228007   4.956   7.917   3.655
 9355TIP3    H128008   5.012   7.959   3.721
 9355TIP3    H228009   4.937   7.830   3.692
 9356TIP3   OH228010   4.995   7.407   2.349
 9356TIP3    H128011   4.987   7.410   2.444
 9356TIP3    H228012   4.917   7.453   2.317
 9357TIP3   OH228013   4.545   7.455   3.216
 9357TIP3    H128014   4.616   7.489   3.270
 9357TIP3    H228015   4.588   7.434   3.132
 9358TIP3   OH228016   4.454   7.424   2.722
 9358TIP3    H128017   4.499   7.457   2.644
 9358TIP3    H228018   4.390   7.492   2.743
 9359TIP3   OH228019   0.001   0.129   3.317
 9359TIP3    H128020   0.030   0.068   3.249
 9359TIP3    H228021  -0.030   0.074   3.389
 9360TIP3   OH228022   5.349   7.585   2.982
 9360TIP3    H128023   5.275   7.586   3.043
 9360TIP3    H228024   5.426   7.574   3.038
 9361TIP3   OH228025   4.763   7.668   2.992
 9361TIP3    H128026   4.675   7.670   2.954
 9361TIP3    H228027   4.793   7.578   2.977
 9362TIP3   OH228028   5.006   7.671   2.690
 9362TIP3    H128029   5.101   7.681   2.682
 9362TIP3    H228030   4.973   7.688   2.602
 9363TIP3   OH228031   5.861   7.684   3.202
 9363TIP3    H128032   5.817   7.711   3.283
 9363TIP3    H228033   5.798   7.627   3.158
 9364TIP3   OH228034   4.895   7.697   2.441
 9364TIP3    H128035   4.831   7.649   2.388
 9364TIP3    H228036   4.954   7.737   2.377
 9365TIP3   OH228037   7.814   0.443   3.869
 9365TIP3    H128038   7.889   0.459   3.926
 9365TIP3    H228039   7.739   0.443   3.929
 9366TIP3   OH228040   5.421   7.944   3.087
 9366TIP3    H128041   5.489   7.908   3.030
 9366TIP3    H228042   5.431   7.896   3.169
 9367TIP3   OH228043   4.903   7.422   2.981
 9367TIP3    H128044   4.874   7.347   3.032
 9367TIP3    H228045   4.934   7.384   2.898
 9368TIP3   OH228046   5.378   7.843   3.368
 9368TIP3    H128047   5.292   7.882   3.385
 9368TIP3    H228048   5.440   7.899   3.416
 9369TIP3   OH228049   7.950   0.200   2.470
 9369TIP3    H128050   7.880   0.141   2.443
 9369TIP3    H228051   7.915   0.244   2.547
 9370TIP3   OH228052   0.336   0.443   3.085
 9370TIP3    H128053   0.371   0.486   3.007
 9370TIP3    H228054   0.264   0.389   3.052
 9371TIP3   OH228055   5.584   7.526   2.374
 9371TIP3    H128056   5.490   7.507   2.372
 9371TIP3    H228057   5.590   7.620   2.386
 9372TIP3   OH228058   8.390   0.550   3.499
 9372TIP3    H128059   8.432   0.522   3.580
 9372TIP3    H228060   8.302   0.577   3.525
 9373TIP3   OH228061   5.648   7.787   2.440
 9373TIP3    H128062   5.742   7.791   2.456
 9373TIP3    H228063   5.629   7.867   2.392
 9374TIP3   OH228064   7.648   0.121   3.113
 9374TIP3    H128065   7.689   0.131   3.028
 9374TIP3    H228066   7.720   0.100   3.173
 9375TIP3   OH228067   8.101   0.372   2.320
 9375TIP3    H128068   8.058   0.454   2.342
 9375TIP3    H228069   8.052   0.306   2.370
 9376TIP3   OH228070   7.569   0.137   3.796
 9376TIP3    H128071   7.619   0.133   3.878
 9376TIP3    H228072   7.500   0.072   3.807
 9377TIP3   OH228073   8.290   0.275   3.762
 9377TIP3    H128074   8.241   0.251   3.683
 9377TIP3    H228075   8.377   0.236   3.749
 9378TIP3   OH228076   6.058   7.875   2.262
 9378TIP3    H128077   6.005   7.826   2.199
 9378TIP3    H228078   6.058   7.965   2.229
 9379TIP3   OH228079   0.642   0.683   3.353
 9379TIP3    H128080   0.555   0.723   3.352
 9379TIP3    H228081   0.663   0.671   3.260
 9380TIP3   OH228082   0.129   0.288   2.976
 9380TIP3    H128083   0.041   0.256   2.993
 9380TIP3    H228084   0.182   0.209   2.964
 9381TIP3   OH228085   4.502   7.834   2.481
 9381TIP3    H128086   4.558   7.910   2.499
 9381TIP3    H228087   4.427   7.847   2.538
 9382TIP3   OH228088   7.850   0.320   2.695
 9382TIP3    H128089   7.909   0.378   2.744
 9382TIP3    H228090   7.821   0.256   2.760
 9383TIP3   OH228091   8.421   0.526   3.225
 9383TIP3    H128092   8.409   0.534   3.320
 9383TIP3    H228093   8.503   0.478   3.215
 9384TIP3   OH228094   8.429   0.370   2.075
 9384TIP3    H128095   8.476   0.355   2.157
 9384TIP3    H228096   8.337   0.372   2.101
 9385TIP3   OH228097   4.909   7.661   3.762
 9385TIP3    H128098   4.814   7.669   3.770
 9385TIP3    H228099   4.937   7.619   3.843
 9386TIP3   OH228100   0.067   0.319   2.311
 9386TIP3    H128101   0.055   0.253   2.379
 9386TIP3    H228102   0.162   0.322   2.297
 9387TIP3   OH228103   7.731   0.323   2.175
 9387TIP3    H128104   7.721   0.236   2.137
 9387TIP3    H228105   7.819   0.351   2.148
 9388TIP3   OH228106   7.471   0.053   2.546
 9388TIP3    H128107   7.399   0.081   2.603
 9388TIP3    H228108   7.497   0.133   2.500
 9389TIP3   OH228109   5.749   7.741   3.452
 9389TIP3    H128110   5.829   7.783   3.483
 9389TIP3    H228111   5.741   7.662   3.505
 9390TIP3   OH228112   5.645   7.479   2.644
 9390TIP3    H128113   5.625   7.499   2.553
 9390TIP3    H228114   5.688   7.559   2.677
 9391TIP3   OH228115   5.281   7.679   2.732
 9391TIP3    H128116   5.347   7.743   2.703
 9391TIP3    H228117   5.306   7.659   2.822
 9392TIP3   OH228118   5.585   7.968   3.508
 9392TIP3    H128119   5.620   8.007   3.588
 9392TIP3    H228120   5.637   7.888   3.497
 9393TIP3   OH228121   5.458   7.376   2.819
 9393TIP3    H128122   5.436   7.452   2.873
 9393TIP3    H228123   5.528   7.407   2.762
 9394TIP3   OH228124   4.970   7.398   2.627
 9394TIP3    H128125   4.958   7.488   2.658
 9394TIP3    H228126   5.064   7.382   2.634
 9395TIP3   OH228127   6.219   7.892   3.513
 9395TIP3    H128128   6.124   7.882   3.519
 9395TIP3    H228129   6.236   7.894   3.419
 9396TIP3   OH228130   7.483   0.304   2.346
 9396TIP3    H128131   7.569   0.344   2.330
 9396TIP3    H228132   7.488   0.219   2.301
 9397TIP3   OH228133   4.520   7.559   2.495
 9397TIP3    H128134   4.533   7.654   2.499
 9397TIP3    H228135   4.471   7.545   2.414
 9398TIP3   OH228136   4.915   7.299   3.367
 9398TIP3    H128137   4.887   7.266   3.281
 9398TIP3    H228138   4.908   7.223   3.425
 9399TIP3   OH228139   7.595   0.391   4.043
 9399TIP3    H128140   7.641   0.307   4.041
 9399TIP3    H228141   7.526   0.382   3.977
 9400TIP3   OH228142   7.554   0.060   2.244
 9400TIP3    H128143   7.609   0.033   2.318
 9400TIP3    H228144   7.615   0.062   2.170
 9401TIP3   OH228145   8.199   0.533   3.826
 9401TIP3    H128146   8.177   0.558   3.737
 9401TIP3    H228147   8.242   0.448   3.818
 9402TIP3   OH228148   7.996   0.294   2.074
 9402TIP3    H128149   8.049   0.315   2.150
 9402TIP3    H228150   8.029   0.209   2.044
 9403TIP3   OH228151   0.175   0.576   3.413
 9403TIP3    H128152   0.232   0.628   3.357
 9403TIP3    H228153   0.092   0.624   3.414
 9404TIP3   OH228154   7.733   0.152   4.019
 9404TIP3    H128155   7.800   0.093   3.984
 9404TIP3    H228156   7.773   0.189   4.098
 9405TIP3   OH228157   4.925   8.020   2.426
 9405TIP3    H128158   4.912   7.984   2.514
 9405TIP3    H228159   4.972   7.952   2.379
 9406TIP3   OH228160   8.035   0.060   3.666
 9406TIP3    H128161   7.964   0.123   3.678
 9406TIP3    H228162   8.097   0.104   3.607
 9407TIP3   OH228163   5.057   7.836   2.268
 9407TIP3    H128164   5.028   7.834   2.177
 9407TIP3    H228165   5.152   7.846   2.263
 9408TIP3   OH228166   0.052   0.470   3.753
 9408TIP3    H128167   0.130   0.442   3.705
 9408TIP3    H228168   0.047   0.411   3.828
 9409TIP3   OH228169   0.172   0.142   1.951
 9409TIP3    H128170   0.152   0.092   1.872
 9409TIP3    H228171   0.157   0.233   1.926
 9410TIP3   OH228172   5.342   7.881   3.803
 9410TIP3    H128173   5.347   7.805   3.745
 9410TIP3    H228174   5.299   7.948   3.750
 9411TIP3   OH228175   5.338   7.680   3.598
 9411TIP3    H128176   5.365   7.719   3.515
 9411TIP3    H228177   5.247   7.654   3.584
 9412TIP3   OH228178   8.208   0.196   3.506
 9412TIP3    H128179   8.292   0.174   3.465
 9412TIP3    H228180   8.160   0.243   3.439
 9413TIP3   OH228181   0.281   0.142   3.821
 9413TIP3    H128182   0.321   0.055   3.831
 9413TIP3    H228183   0.352   0.198   3.792
 9414TIP3   OH228184   0.301   0.408   3.578
 9414TIP3    H128185   0.248   0.468   3.525
 9414TIP3    H228186   0.389   0.415   3.542
 9415TIP3   OH228187   5.082   7.981   3.932
 9415TIP3    H128188   5.071   7.902   3.984
 9415TIP3    H228189   5.174   7.981   3.906
 9416TIP3   OH228190   5.462   7.447   3.685
 9416TIP3    H128191   5.421   7.529   3.656
 9416TIP3    H228192   5.394   7.381   3.672
 9417TIP3   OH228193   5.603   7.944   3.887
 9417TIP3    H128194   5.621   7.932   3.980
 9417TIP3    H228195   5.510   7.920   3.877
 9418TIP3   OH228196   5.837   7.871   3.756
 9418TIP3    H128197   5.757   7.882   3.808
 9418TIP3    H228198   5.904   7.851   3.820
 9419TIP3   OH228199   6.062   7.845   3.918
 9419TIP3    H128200   6.078   7.750   3.921
 9419TIP3    H228201   6.053   7.871   4.009
 9420TIP3   OH228202   5.039   7.752   4.077
 9420TIP3    H128203   5.051   7.660   4.053
 9420TIP3    H228204   5.088   7.761   4.159
 9421TIP3   OH228205   5.542   7.423   3.944
 9421TIP3    H128206   5.611   7.357   3.937
 9421TIP3    H228207   5.509   7.433   3.855
 9422TIP3   OH228208   5.580   7.647   4.098
 9422TIP3    H128209   5.583   7.568   4.043
 9422TIP3    H228210   5.490   7.677   4.091
 9423TIP3   OH228211   7.180   0.221   2.381
 9423TIP3    H128212   7.274   0.239   2.378
 9423TIP3    H228213   7.171   0.132   2.346
 9424TIP3   OH228214   0.535   0.841   3.635
 9424TIP3    H128215   0.450   0.846   3.679
 9424TIP3    H228216   0.572   0.929   3.645
 9425TIP3   OH228217   0.339   0.313   2.297
 9425TIP3    H128218   0.405   0.372   2.260
 9425TIP3    H228219   0.383   0.274   2.373
 9426TIP3   OH228220   0.464   0.177   2.499
 9426TIP3    H128221   0.398   0.133   2.553
 9426TIP3    H228222   0.528   0.212   2.561
 9427TIP3   OH228223   0.489   0.574   2.896
 9427TIP3    H128224   0.553   0.507   2.871
 9427TIP3    H228225   0.479   0.628   2.817
 9428TIP3   OH228226   0.375   0.101   2.129
 9428TIP3    H128227   0.305   0.108   2.064
 9428TIP3    H228228   0.360   0.174   2.189
 9429TIP3   OH228229   5.915   7.762   2.060
 9429TIP3    H128230   5.852   7.798   1.998
 9429TIP3    H228231   5.909   7.667   2.050
 9430TIP3   OH228232   5.940   8.041   2.629
 9430TIP3    H128233   5.946   7.948   2.612
 9430TIP3    H228234   5.947   8.049   2.724
 9431TIP3   OH228235   7.407   0.101   3.384
 9431TIP3    H128236   7.400   0.051   3.303
 9431TIP3    H228237   7.498   0.090   3.412
 9432TIP3   OH228238   0.547   0.452   3.466
 9432TIP3    H128239   0.618   0.388   3.455
 9432TIP3    H228240   0.575   0.527   3.415
 9433TIP3   OH228241   0.741   0.258   3.475
 9433TIP3    H128242   0.665   0.219   3.518
 9433TIP3    H228243   0.815   0.203   3.501
 9434TIP3   OH228244   5.874   7.490   2.030
 9434TIP3    H128245   5.936   7.470   2.100
 9434TIP3    H228246   5.790   7.457   2.062
 9435TIP3   OH228247   5.932   7.780   2.499
 9435TIP3    H128248   5.978   7.697   2.515
 9435TIP3    H228249   5.976   7.819   2.424
 9436TIP3   OH228250   0.512   0.090   3.285
 9436TIP3    H128251   0.416   0.088   3.292
 9436TIP3    H228252   0.529   0.153   3.215
 9437TIP3   OH228253   4.773   7.797   4.026
 9437TIP3    H128254   4.867   7.801   4.044
 9437TIP3    H228255   4.744   7.717   4.070
 9438TIP3   OH228256   6.618   7.702   3.791
 9438TIP3    H128257   6.687   7.648   3.753
 9438TIP3    H228258   6.582   7.750   3.716
 9439TIP3   OH228259   6.053   7.535   2.551
 9439TIP3    H128260   6.096   7.523   2.636
 9439TIP3    H228261   5.989   7.464   2.547
 9440TIP3   OH228262   4.752   7.521   3.394
 9440TIP3    H128263   4.805   7.442   3.396
 9440TIP3    H228264   4.814   7.592   3.376
 9441TIP3   OH228265   4.536   7.785   3.444
 9441TIP3    H128266   4.589   7.773   3.365
 9441TIP3    H228267   4.588   7.843   3.499
 9442TIP3   OH228268   6.472   7.813   3.591
 9442TIP3    H128269   6.387   7.856   3.607
 9442TIP3    H228270   6.451   7.736   3.538
 9443TIP3   OH228271   6.093   7.456   2.195
 9443TIP3    H128272   6.140   7.393   2.141
 9443TIP3    H228273   6.153   7.530   2.203
 9444TIP3   OH228274   4.525   7.291   2.949
 9444TIP3    H128275   4.439   7.279   2.989
 9444TIP3    H228276   4.509   7.347   2.873
 9445TIP3   OH228277   4.749   7.346   3.769
 9445TIP3    H128278   4.700   7.345   3.852
 9445TIP3    H228279   4.692   7.395   3.709
 9446TIP3   OH228280   6.379   7.573   3.482
 9446TIP3    H128281   6.293   7.576   3.441
 9446TIP3    H228282   6.407   7.482   3.476
 9447TIP3   OH228283   5.565   7.484   3.117
 9447TIP3    H128284   5.536   7.413   3.175
 9447TIP3    H228285   5.647   7.452   3.079
 9448TIP3   OH228286   6.095   7.405   3.008
 9448TIP3    H128287   6.133   7.456   2.937
 9448TIP3    H228288   6.008   7.442   3.020
 9449TIP3   OH228289   6.211   7.485   2.773
 9449TIP3    H128290   6.280   7.424   2.748
 9449TIP3    H228291   6.248   7.572   2.757
 9450TIP3   OH228292   4.829   7.196   3.124
 9450TIP3    H128293   4.740   7.161   3.134
 9450TIP3    H228294   4.884   7.119   3.117
 9451TIP3   OH228295   4.637   7.097   2.771
 9451TIP3    H128296   4.669   7.148   2.697
 9451TIP3    H228297   4.607   7.163   2.834
 9452TIP3   OH228298   5.311   7.235   3.018
 9452TIP3    H128299   5.358   7.284   2.951
 9452TIP3    H228300   5.350   7.264   3.101
 9453TIP3   OH228301   5.803   7.390   3.011
 9453TIP3    H128302   5.816   7.361   2.921
 9453TIP3    H228303   5.810   7.310   3.063
 9454TIP3   OH228304   5.864   7.328   2.560
 9454TIP3    H128305   5.786   7.377   2.586
 9454TIP3    H228306   5.853   7.242   2.600
 9455TIP3   OH228307   4.758   7.231   2.541
 9455TIP3    H128308   4.804   7.170   2.484
 9455TIP3    H228309   4.827   7.287   2.576
 9456TIP3   OH228310   5.245   7.426   2.638
 9456TIP3    H128311   5.306   7.376   2.692
 9456TIP3    H228312   5.257   7.516   2.666
 9457TIP3   OH228313   5.055   7.480   3.999
 9457TIP3    H128314   5.024   7.418   4.065
 9457TIP3    H228315   5.149   7.487   4.015
 9458TIP3   OH228316   5.312   7.478   4.090
 9458TIP3    H128317   5.392   7.447   4.048
 9458TIP3    H228318   5.306   7.427   4.171
 9459TIP3   OH228319   6.130   7.576   3.916
 9459TIP3    H128320   6.147   7.543   4.004
 9459TIP3    H228321   6.215   7.569   3.872
 9460TIP3   OH228322   0.955   0.359   2.919
 9460TIP3    H128323   0.971   0.271   2.955
 9460TIP3    H228324   0.996   0.418   2.982
 9461TIP3   OH228325   6.289   7.989   2.384
 9461TIP3    H128326   6.245   8.063   2.427
 9461TIP3    H228327   6.217   7.935   2.351
 9462TIP3   OH228328   0.696   0.265   2.621
 9462TIP3    H128329   0.746   0.191   2.655
 9462TIP3    H228330   0.752   0.303   2.553
 9463TIP3   OH228331   6.841   7.877   2.576
 9463TIP3    H128332   6.829   7.948   2.513
 9463TIP3    H228333   6.789   7.805   2.542
 9464TIP3   OH228334   0.863   0.067   2.693
 9464TIP3    H128335   0.930   0.034   2.752
 9464TIP3    H228336   0.862   0.004   2.621
 9465TIP3   OH228337   6.844   7.838   3.050
 9465TIP3    H128338   6.795   7.875   2.976
 9465TIP3    H228339   6.791   7.860   3.127
 9466TIP3   OH228340   6.749   7.959   2.821
 9466TIP3    H128341   6.812   8.027   2.846
 9466TIP3    H228342   6.783   7.926   2.738
 9467TIP3   OH228343   0.526   0.465   2.166
 9467TIP3    H128344   0.513   0.455   2.071
 9467TIP3    H228345   0.547   0.557   2.178
 9468TIP3   OH228346   7.195   7.530   2.795
 9468TIP3    H128347   7.183   7.441   2.826
 9468TIP3    H228348   7.118   7.578   2.827
 9469TIP3   OH228349   1.045   0.467   3.154
 9469TIP3    H128350   1.087   0.489   3.238
 9469TIP3    H228351   0.955   0.445   3.178
 9470TIP3   OH228352   0.917   0.139   2.169
 9470TIP3    H128353   0.917   0.234   2.175
 9470TIP3    H228354   0.833   0.112   2.207
 9471TIP3   OH228355   0.699   0.610   3.100
 9471TIP3    H128356   0.644   0.585   3.026
 9471TIP3    H228357   0.744   0.528   3.124
 9472TIP3   OH228358   6.959   7.638   2.897
 9472TIP3    H128359   6.877   7.606   2.858
 9472TIP3    H228360   6.933   7.715   2.948
 9473TIP3   OH228361   7.485   7.698   3.094
 9473TIP3    H128362   7.518   7.777   3.137
 9473TIP3    H228363   7.392   7.695   3.118
 9474TIP3   OH228364   1.261   0.131   2.920
 9474TIP3    H128365   1.211   0.149   2.999
 9474TIP3    H228366   1.275   0.217   2.879
 9475TIP3   OH228367   1.087   0.044   2.386
 9475TIP3    H128368   1.006   0.002   2.418
 9475TIP3    H228369   1.065   0.074   2.298
 9476TIP3   OH228370   1.116   0.169   3.147
 9476TIP3    H128371   1.078   0.248   3.185
 9476TIP3    H228372   1.074   0.097   3.194
 9477TIP3   OH228373   6.755   7.571   1.862
 9477TIP3    H128374   6.743   7.627   1.938
 9477TIP3    H228375   6.752   7.631   1.787
 9478TIP3   OH228376   6.344   7.702   2.688
 9478TIP3    H128377   6.408   7.742   2.746
 9478TIP3    H228378   6.394   7.678   2.610
 9479TIP3   OH228379   6.254   7.682   2.215
 9479TIP3    H128380   6.298   7.717   2.137
 9479TIP3    H228381   6.190   7.750   2.237
 9480TIP3   OH228382   7.093   7.772   2.529
 9480TIP3    H128383   7.007   7.811   2.545
 9480TIP3    H228384   7.150   7.812   2.594
 9481TIP3   OH228385   6.538   7.915   2.475
 9481TIP3    H128386   6.450   7.921   2.439
 9481TIP3    H228387   6.565   7.825   2.458
 9482TIP3   OH228388   6.642   7.913   2.004
 9482TIP3    H128389   6.587   7.907   1.926
 9482TIP3    H228390   6.624   8.000   2.040
 9483TIP3   OH228391   6.686   7.676   2.458
 9483TIP3    H128392   6.667   7.595   2.506
 9483TIP3    H228393   6.710   7.647   2.370
 9484TIP3   OH228394   0.800   0.374   3.227
 9484TIP3    H128395   0.800   0.342   3.318
 9484TIP3    H228396   0.721   0.335   3.189
 9485TIP3   OH228397   0.610   0.091   1.989
 9485TIP3    H128398   0.628   0.184   1.974
 9485TIP3    H228399   0.530   0.091   2.041
 9486TIP3   OH228400   6.694   7.928   3.261
 9486TIP3    H128401   6.599   7.940   3.264
 9486TIP3    H228402   6.711   7.861   3.328
 9487TIP3   OH228403   6.705   7.676   2.124
 9487TIP3    H128404   6.688   7.766   2.096
 9487TIP3    H228405   6.800   7.673   2.138
 9488TIP3   OH228406   6.303   7.828   1.989
 9488TIP3    H128407   6.306   7.923   2.000
 9488TIP3    H228408   6.227   7.813   1.933
 9489TIP3   OH228409   6.702   7.553   2.846
 9489TIP3    H128410   6.676   7.520   2.760
 9489TIP3    H228411   6.694   7.477   2.904
 9490TIP3   OH228412   0.898   0.688   3.456
 9490TIP3    H128413   0.934   0.604   3.428
 9490TIP3    H228414   0.809   0.690   3.422
 9491TIP3   OH228415   1.055   0.422   3.427
 9491TIP3    H128416   1.136   0.375   3.444
 9491TIP3    H228417   1.020   0.443   3.514
 9492TIP3   OH228418   1.386   0.154   3.254
 9492TIP3    H128419   1.432   0.074   3.227
 9492TIP3    H228420   1.305   0.154   3.203
 9493TIP3   OH228421   7.093   7.943   3.074
 9493TIP3    H128422   7.089   8.008   3.004
 9493TIP3    H228423   7.007   7.902   3.075
 9494TIP3   OH228424   1.279   0.258   3.483
 9494TIP3    H128425   1.241   0.177   3.517
 9494TIP3    H228426   1.328   0.232   3.405
 9495TIP3   OH228427   7.221   7.708   3.166
 9495TIP3    H128428   7.179   7.788   3.135
 9495TIP3    H228429   7.153   7.641   3.155
 9496TIP3   OH228430   6.841   8.015   3.546
 9496TIP3    H128431   6.856   7.943   3.485
 9496TIP3    H228432   6.871   7.982   3.630
 9497TIP3   OH228433   7.323   7.686   3.420
 9497TIP3    H128434   7.392   7.621   3.411
 9497TIP3    H228435   7.285   7.692   3.332
 9498TIP3   OH228436   7.399   7.912   3.562
 9498TIP3    H128437   7.373   7.842   3.502
 9498TIP3    H228438   7.327   7.975   3.557
 9499TIP3   OH228439   0.493   0.449   1.893
 9499TIP3    H128440   0.478   0.517   1.827
 9499TIP3    H228441   0.477   0.367   1.848
 9500TIP3   OH228442   0.687   0.393   2.862
 9500TIP3    H128443   0.678   0.346   2.778
 9500TIP3    H228444   0.781   0.389   2.881
 9501TIP3   OH228445   0.907   0.049   3.531
 9501TIP3    H128446   1.002   0.043   3.531
 9501TIP3    H228447   0.878  -0.034   3.568
 9502TIP3   OH228448   6.540   7.777   2.870
 9502TIP3    H128449   6.593   7.698   2.873
 9502TIP3    H228450   6.602   7.848   2.857
 9503TIP3   OH228451   6.321   7.533   2.431
 9503TIP3    H128452   6.237   7.529   2.476
 9503TIP3    H228453   6.307   7.594   2.358
 9504TIP3   OH228454   6.539   7.613   3.252
 9504TIP3    H128455   6.490   7.604   3.334
 9504TIP3    H228456   6.480   7.660   3.194
 9505TIP3   OH228457   6.627   7.445   2.603
 9505TIP3    H128458   6.538   7.412   2.614
 9505TIP3    H228459   6.682   7.367   2.597
 9506TIP3   OH228460   6.425   7.337   2.259
 9506TIP3    H128461   6.456   7.387   2.183
 9506TIP3    H228462   6.396   7.403   2.321
 9507TIP3   OH228463   7.098   7.496   2.533
 9507TIP3    H128464   7.084   7.587   2.507
 9507TIP3    H228465   7.144   7.501   2.617
 9508TIP3   OH228466   6.530   7.480   2.041
 9508TIP3    H128467   6.585   7.433   1.978
 9508TIP3    H228468   6.587   7.546   2.079
 9509TIP3   OH228469   6.973   7.639   2.152
 9509TIP3    H128470   7.000   7.548   2.140
 9509TIP3    H228471   7.055   7.686   2.168
 9510TIP3   OH228472   6.854   7.729   3.474
 9510TIP3    H128473   6.815   7.674   3.542
 9510TIP3    H228474   6.946   7.736   3.498
 9511TIP3   OH228475   7.105   7.716   3.595
 9511TIP3    H128476   7.185   7.707   3.543
 9511TIP3    H228477   7.111   7.647   3.661
 9512TIP3   OH228478   5.099   4.885   0.626
 9512TIP3    H128479   5.077   4.834   0.704
 9512TIP3    H228480   5.091   4.976   0.654
 9513TIP3   OH228481   4.746   5.400   0.653
 9513TIP3    H128482   4.773   5.328   0.596
 9513TIP3    H228483   4.702   5.358   0.726
 9514TIP3   OH228484   4.771   4.811   0.245
 9514TIP3    H128485   4.763   4.826   0.340
 9514TIP3    H228486   4.794   4.897   0.209
 9515TIP3   OH228487   4.869   5.235   0.455
 9515TIP3    H128488   4.934   5.173   0.423
 9515TIP3    H228489   4.877   5.310   0.396
 9516TIP3   OH228490   5.004   4.980   0.365
 9516TIP3    H128491   5.031   4.928   0.290
 9516TIP3    H228492   5.086   5.006   0.408
 9517TIP3   OH228493   4.990   4.544   0.400
 9517TIP3    H128494   4.947   4.588   0.473
 9517TIP3    H228495   5.083   4.542   0.424
 9518TIP3   OH228496   4.638   5.099   0.453
 9518TIP3    H128497   4.711   5.162   0.445
 9518TIP3    H228498   4.592   5.106   0.369
 9519TIP3   OH228499   2.395   1.041   6.670
 9519TIP3    H128500   2.386   1.134   6.650
 9519TIP3    H228501   2.487   1.022   6.653
 9520TIP3   OH228502   4.564   5.437   0.084
 9520TIP3    H128503   4.495   5.422   0.019
 9520TIP3    H228504   4.527   5.504   0.142
 9521TIP3   OH228505   1.862   1.233   6.756
 9521TIP3    H128506   1.920   1.169   6.716
 9521TIP3    H228507   1.911   1.267   6.831
 9522TIP3   OH228508   4.800   5.318   0.053
 9522TIP3    H128509   4.714   5.355   0.074
 9522TIP3    H228510   4.854   5.338   0.129
 9523TIP3   OH228511   2.160   0.369   6.838
 9523TIP3    H128512   2.124   0.368   6.749
 9523TIP3    H228513   2.164   0.462   6.861
 9524TIP3   OH228514   1.838   0.760   6.895
 9524TIP3    H128515   1.802   0.844   6.925
 9524TIP3    H228516   1.823   0.700   6.968
 9525TIP3   OH228517   2.645   0.274   6.930
 9525TIP3    H128518   2.563   0.231   6.904
 9525TIP3    H228519   2.626   0.367   6.925
 9526TIP3   OH228520   2.277   1.075   6.916
 9526TIP3    H128521   2.321   1.027   6.986
 9526TIP3    H228522   2.322   1.047   6.836
 9527TIP3   OH228523   2.089   0.851   6.829
 9527TIP3    H128524   2.133   0.878   6.910
 9527TIP3    H228525   2.009   0.807   6.859
 9528TIP3   OH228526   2.385   1.309   6.622
 9528TIP3    H128527   2.431   1.379   6.577
 9528TIP3    H228528   2.313   1.353   6.667
 9529TIP3   OH228529   5.060   4.822   0.127
 9529TIP3    H128530   5.011   4.740   0.122
 9529TIP3    H228531   5.146   4.800   0.091
 9530TIP3   OH228532   4.578   5.024  -0.003
 9530TIP3    H128533   4.631   5.047   0.074
 9530TIP3    H228534   4.588   5.099  -0.061
 9531TIP3   OH228535   5.161   5.452   0.713
 9531TIP3    H128536   5.218   5.524   0.686
 9531TIP3    H228537   5.222   5.385   0.746
 9532TIP3   OH228538   1.581   0.963   6.717
 9532TIP3    H128539   1.606   0.981   6.807
 9532TIP3    H228540   1.658   0.920   6.679
 9533TIP3   OH228541   2.029   1.052   6.653
 9533TIP3    H128542   2.077   0.999   6.717
 9533TIP3    H228543   2.087   1.054   6.576
 9534TIP3   OH228544   2.396   0.572   6.664
 9534TIP3    H128545   2.357   0.519   6.595
 9534TIP3    H228546   2.347   0.654   6.662
 9535TIP3   OH228547   1.313   1.292   6.915
 9535TIP3    H128548   1.387   1.324   6.966
 9535TIP3    H228549   1.320   1.340   6.832
 9536TIP3   OH228550   5.461   5.558   0.659
 9536TIP3    H128551   5.458   5.647   0.623
 9536TIP3    H228552   5.526   5.513   0.605
 9537TIP3   OH228553   5.339   4.787   0.027
 9537TIP3    H128554   5.392   4.860  -0.004
 9537TIP3    H228555   5.375   4.766   0.113
 9538TIP3   OH228556   5.446   4.732   0.268
 9538TIP3    H128557   5.362   4.732   0.314
 9538TIP3    H228558   5.510   4.758   0.335
 9539TIP3   OH228559   5.414   4.971   0.698
 9539TIP3    H128560   5.484   4.916   0.734
 9539TIP3    H228561   5.460   5.038   0.648
 9540TIP3   OH228562   2.569   0.532   6.869
 9540TIP3    H128563   2.502   0.525   6.801
 9540TIP3    H228564   2.547   0.613   6.916
 9541TIP3   OH228565   2.398   0.206   6.831
 9541TIP3    H128566   2.330   0.271   6.846
 9541TIP3    H228567   2.363   0.150   6.761
 9542TIP3   OH228568   5.240   4.472   0.469
 9542TIP3    H128569   5.319   4.422   0.447
 9542TIP3    H228570   5.243   4.481   0.564
 9543TIP3   OH228571   5.105   5.513   0.173
 9543TIP3    H128572   5.146   5.439   0.130
 9543TIP3    H228573   5.178   5.567   0.204
 9544TIP3   OH228574   1.601   1.279   6.833
 9544TIP3    H128575   1.685   1.273   6.787
 9544TIP3    H228576   1.536   1.277   6.763
 9545TIP3   OH228577   2.376   1.334   6.924
 9545TIP3    H128578   2.336   1.248   6.939
 9545TIP3    H228579   2.313   1.380   6.868
 9546TIP3   OH228580   3.805   0.900   6.965
 9546TIP3    H128581   3.788   0.988   6.931
 9546TIP3    H228582   3.745   0.844   6.916
 9547TIP3   OH228583   6.683   4.911   0.307
 9547TIP3    H128584   6.627   4.857   0.364
 9547TIP3    H228585   6.659   4.884   0.218
 9548TIP3   OH228586   5.864   4.812   0.791
 9548TIP3    H128587   5.866   4.728   0.836
 9548TIP3    H228588   5.940   4.859   0.826
 9549TIP3   OH228589   6.933   5.225   0.050
 9549TIP3    H128590   6.926   5.158   0.118
 9549TIP3    H228591   6.953   5.306   0.097
 9550TIP3   OH228592   6.048   5.256   0.438
 9550TIP3    H128593   5.996   5.191   0.391
 9550TIP3    H228594   6.132   5.257   0.392
 9551TIP3   OH228595   5.647   4.267   0.215
 9551TIP3    H128596   5.606   4.273   0.301
 9551TIP3    H228597   5.574   4.275   0.153
 9552TIP3   OH228598   5.665   4.768   0.435
 9552TIP3    H128599   5.656   4.673   0.430
 9552TIP3    H228600   5.705   4.793   0.352
 9553TIP3   OH228601   6.581   5.667   0.070
 9553TIP3    H128602   6.612   5.578   0.052
 9553TIP3    H228603   6.551   5.664   0.161
 9554TIP3   OH228604   6.455   5.095   0.338
 9554TIP3    H128605   6.494   5.018   0.296
 9554TIP3    H228606   6.531   5.144   0.371
 9555TIP3   OH228607   6.933   4.552   0.424
 9555TIP3    H128608   6.958   4.460   0.415
 9555TIP3    H228609   6.882   4.571   0.345
 9556TIP3   OH228610   6.206   4.250   0.305
 9556TIP3    H128611   6.194   4.344   0.321
 9556TIP3    H228612   6.125   4.223   0.261
 9557TIP3   OH228613   6.922   4.384   0.112
 9557TIP3    H128614   7.017   4.396   0.108
 9557TIP3    H228615   6.897   4.369   0.021
 9558TIP3   OH228616   5.871   4.326   0.495
 9558TIP3    H128617   5.862   4.369   0.580
 9558TIP3    H228618   5.942   4.373   0.452
 9559TIP3   OH228619   6.321   4.646   0.155
 9559TIP3    H128620   6.396   4.617   0.207
 9559TIP3    H228621   6.260   4.573   0.158
 9560TIP3   OH228622   7.539   4.656   0.575
 9560TIP3    H128623   7.474   4.725   0.562
 9560TIP3    H228624   7.610   4.699   0.623
 9561TIP3   OH228625   3.737   1.119   6.798
 9561TIP3    H128626   3.698   1.093   6.714
 9561TIP3    H228627   3.686   1.195   6.826
 9562TIP3   OH228628   6.374   5.047   0.595
 9562TIP3    H128629   6.373   5.135   0.632
 9562TIP3    H228630   6.388   5.060   0.501
 9563TIP3   OH228631   6.051   4.374   0.749
 9563TIP3    H128632   6.102   4.454   0.745
 9563TIP3    H228633   6.093   4.315   0.686
 9564TIP3   OH228634   6.179   5.173   0.786
 9564TIP3    H128635   6.163   5.248   0.730
 9564TIP3    H228636   6.177   5.208   0.875
 9565TIP3   OH228637   2.700   0.966   6.899
 9565TIP3    H128638   2.675   0.993   6.810
 9565TIP3    H228639   2.733   1.046   6.940
 9566TIP3   OH228640   6.975   5.460   0.196
 9566TIP3    H128641   6.891   5.453   0.242
 9566TIP3    H228642   6.973   5.547   0.156
 9567TIP3   OH228643   3.848   1.471   6.815
 9567TIP3    H128644   3.906   1.398   6.792
 9567TIP3    H228645   3.900   1.549   6.797
 9568TIP3   OH228646   3.986   1.243   6.742
 9568TIP3    H128647   3.909   1.190   6.756
 9568TIP3    H228648   4.039   1.232   6.821
 9569TIP3   OH228649   7.201   5.365   0.544
 9569TIP3    H128650   7.182   5.290   0.488
 9569TIP3    H228651   7.175   5.441   0.492
 9570TIP3   OH228652   3.663   0.754   6.778
 9570TIP3    H128653   3.578   0.792   6.755
 9570TIP3    H228654   3.711   0.752   6.695
 9571TIP3   OH228655   3.625   0.558   6.471
 9571TIP3    H128656   3.689   0.608   6.522
 9571TIP3    H228657   3.670   0.476   6.449
 9572TIP3   OH228658   7.361   5.015   0.358
 9572TIP3    H128659   7.281   5.067   0.365
 9572TIP3    H228660   7.402   5.045   0.277
 9573TIP3   OH228661   3.994   0.848   6.756
 9573TIP3    H128662   3.942   0.874   6.832
 9573TIP3    H228663   4.080   0.827   6.791
 9574TIP3   OH228664   7.084   4.950   0.708
 9574TIP3    H128665   7.065   4.991   0.793
 9574TIP3    H228666   7.008   4.971   0.654
 9575TIP3   OH228667   6.121   4.827   0.112
 9575TIP3    H128668   6.058   4.768   0.070
 9575TIP3    H228669   6.198   4.772   0.129
 9576TIP3   OH228670   6.259   5.269   0.267
 9576TIP3    H128671   6.208   5.233   0.194
 9576TIP3    H228672   6.327   5.204   0.282
 9577TIP3   OH228673   6.186   4.868   0.669
 9577TIP3    H128674   6.168   4.833   0.582
 9577TIP3    H228675   6.250   4.938   0.654
 9578TIP3   OH228676   6.727   5.435   0.306
 9578TIP3    H128677   6.664   5.486   0.358
 9578TIP3    H228678   6.709   5.344   0.329
 9579TIP3   OH228679   6.495   5.324   0.946
 9579TIP3    H128680   6.489   5.302   1.039
 9579TIP3    H228681   6.407   5.351   0.922
 9580TIP3   OH228682   3.850   0.698   6.574
 9580TIP3    H128683   3.902   0.764   6.618
 9580TIP3    H228684   3.879   0.702   6.482
 9581TIP3   OH228685   3.599   1.360   6.833
 9581TIP3    H128686   3.682   1.407   6.836
 9581TIP3    H228687   3.539   1.420   6.791
 9582TIP3   OH228688   5.961   5.572   0.915
 9582TIP3    H128689   6.044   5.601   0.877
 9582TIP3    H228690   5.905   5.650   0.911
 9583TIP3   OH228691   3.090   0.668   6.924
 9583TIP3    H128692   3.016   0.707   6.877
 9583TIP3    H228693   3.051   0.598   6.976
 9584TIP3   OH228694   4.179   1.299   6.189
 9584TIP3    H128695   4.173   1.393   6.171
 9584TIP3    H228696   4.270   1.276   6.166
 9585TIP3   OH228697   5.521   5.177   0.548
 9585TIP3    H128698   5.600   5.125   0.561
 9585TIP3    H228699   5.553   5.263   0.522
 9586TIP3   OH228700   7.451   5.744   0.540
 9586TIP3    H128701   7.448   5.649   0.536
 9586TIP3    H228702   7.364   5.769   0.573
 9587TIP3   OH228703   6.525   5.523   0.744
 9587TIP3    H128704   6.515   5.616   0.762
 9587TIP3    H228705   6.522   5.481   0.830
 9588TIP3   OH228706   3.486   1.589   6.662
 9588TIP3    H128707   3.442   1.574   6.578
 9588TIP3    H228708   3.453   1.674   6.691
 9589TIP3   OH228709   5.739   5.458   0.089
 9589TIP3    H128710   5.790   5.455   0.170
 9589TIP3    H228711   5.698   5.372   0.083
 9590TIP3   OH228712   3.686   1.527   6.286
 9590TIP3    H128713   3.737   1.454   6.251
 9590TIP3    H228714   3.721   1.541   6.374
 9591TIP3   OH228715   3.740   1.571   6.556
 9591TIP3    H128716   3.655   1.571   6.600
 9591TIP3    H228717   3.802   1.542   6.623
 9592TIP3   OH228718   7.339   4.843   0.880
 9592TIP3    H128719   7.283   4.881   0.812
 9592TIP3    H228720   7.321   4.750   0.876
 9593TIP3   OH228721   7.150   4.642   0.996
 9593TIP3    H128722   7.080   4.700   1.028
 9593TIP3    H228723   7.145   4.649   0.900
 9594TIP3   OH228724   3.924   0.672   6.310
 9594TIP3    H128725   3.875   0.682   6.228
 9594TIP3    H228726   4.004   0.723   6.296
 9595TIP3   OH228727   6.205   4.595   0.712
 9595TIP3    H128728   6.300   4.598   0.708
 9595TIP3    H228729   6.177   4.686   0.701
 9596TIP3   OH228730   6.099   4.475   0.157
 9596TIP3    H128731   6.031   4.416   0.190
 9596TIP3    H228732   6.136   4.430   0.082
 9597TIP3   OH228733   3.789   0.554   6.914
 9597TIP3    H128734   3.732   0.621   6.876
 9597TIP3    H228735   3.849   0.530   6.843
 9598TIP3   OH228736   6.781   4.599   0.195
 9598TIP3    H128737   6.721   4.621   0.124
 9598TIP3    H228738   6.821   4.516   0.168
 9599TIP3   OH228739   5.790   4.132   0.016
 9599TIP3    H128740   5.772   4.164  -0.072
 9599TIP3    H228741   5.724   4.173   0.071
 9600TIP3   OH228742   6.800   4.868   0.685
 9600TIP3    H128743   6.820   4.931   0.616
 9600TIP3    H228744   6.717   4.898   0.721
 9601TIP3   OH228745   5.937   4.261   0.215
 9601TIP3    H128746   5.849   4.268   0.252
 9601TIP3    H228747   5.924   4.217   0.131
 9602TIP3   OH228748   3.356   0.296   6.912
 9602TIP3    H128749   3.451   0.299   6.898
 9602TIP3    H228750   3.318   0.303   6.824
 9603TIP3   OH228751   3.229   0.339   6.670
 9603TIP3    H128752   3.149   0.318   6.622
 9603TIP3    H228753   3.275   0.402   6.614
 9604TIP3   OH228754   7.135   6.071   0.668
 9604TIP3    H128755   7.135   6.090   0.574
 9604TIP3    H228756   7.210   6.120   0.702
 9605TIP3   OH228757   6.532   4.578   0.325
 9605TIP3    H128758   6.612   4.562   0.275
 9605TIP3    H228759   6.562   4.630   0.400
 9606TIP3   OH228760   6.478   4.603   0.726
 9606TIP3    H128761   6.457   4.536   0.790
 9606TIP3    H228762   6.561   4.640   0.756
 9607TIP3   OH228763   3.429   0.874   6.700
 9607TIP3    H128764   3.352   0.820   6.681
 9607TIP3    H228765   3.399   0.934   6.768
 9608TIP3   OH228766   7.132   5.175   0.354
 9608TIP3    H128767   7.181   5.231   0.293
 9608TIP3    H228768   7.066   5.133   0.300
 9609TIP3   OH228769   3.834   0.316   6.556
 9609TIP3    H128770   3.794   0.252   6.615
 9609TIP3    H228771   3.891   0.368   6.613
 9610TIP3   OH228772   6.693   5.172   0.839
 9610TIP3    H128773   6.661   5.082   0.832
 9610TIP3    H228774   6.624   5.219   0.886
 9611TIP3   OH228775   3.979   0.490   6.718
 9611TIP3    H128776   4.074   0.498   6.726
 9611TIP3    H228777   3.953   0.565   6.665
 9612TIP3   OH228778   6.097   4.994   0.331
 9612TIP3    H128779   6.117   4.944   0.252
 9612TIP3    H228780   6.072   4.928   0.396
 9613TIP3   OH228781   3.586   1.052   6.565
 9613TIP3    H128782   3.537   1.134   6.565
 9613TIP3    H228783   3.529   0.989   6.611
 9614TIP3   OH228784   6.945   5.513   0.537
 9614TIP3    H128785   6.858   5.474   0.548
 9614TIP3    H228786   6.971   5.539   0.625
 9615TIP3   OH228787   4.386   0.554   6.513
 9615TIP3    H128788   4.340   0.498   6.451
 9615TIP3    H228789   4.381   0.642   6.474
 9616TIP3   OH228790   7.446   5.477   0.587
 9616TIP3    H128791   7.355   5.450   0.599
 9616TIP3    H228792   7.475   5.430   0.509
 9617TIP3   OH228793   4.099   1.376   6.460
 9617TIP3    H128794   4.070   1.312   6.525
 9617TIP3    H228795   4.116   1.324   6.381
 9618TIP3   OH228796   6.931   5.020   0.244
 9618TIP3    H128797   6.841   4.996   0.266
 9618TIP3    H228798   6.972   4.937   0.219
 9619TIP3   OH228799   6.044   5.250   0.084
 9619TIP3    H128800   6.033   5.330   0.033
 9619TIP3    H228801   5.962   5.240   0.132
 9620TIP3   OH228802   2.792   0.524   6.708
 9620TIP3    H128803   2.836   0.605   6.732
 9620TIP3    H228804   2.715   0.521   6.764
 9621TIP3   OH228805   3.315   1.034   6.884
 9621TIP3    H128806   3.292   1.115   6.930
 9621TIP3    H228807   3.310   0.966   6.951
 9622TIP3   OH228808   6.520   5.521   0.465
 9622TIP3    H128809   6.469   5.588   0.419
 9622TIP3    H228810   6.518   5.548   0.557
 9623TIP3   OH228811   3.141   1.473   6.886
 9623TIP3    H128812   3.053   1.482   6.924
 9623TIP3    H228813   3.177   1.562   6.888
 9624TIP3   OH228814   6.676   5.204   0.447
 9624TIP3    H128815   6.688   5.265   0.520
 9624TIP3    H228816   6.740   5.135   0.464
 9625TIP3   OH228817   3.860   1.110   6.342
 9625TIP3    H128818   3.914   1.077   6.414
 9625TIP3    H228819   3.772   1.076   6.360
 9626TIP3   OH228820   6.970   5.800   0.530
 9626TIP3    H128821   6.917   5.722   0.513
 9626TIP3    H228822   6.956   5.856   0.454
 9627TIP3   OH228823   4.177   1.573   6.148
 9627TIP3    H128824   4.197   1.633   6.076
 9627TIP3    H228825   4.107   1.616   6.196
 9628TIP3   OH228826   4.031   0.999   6.523
 9628TIP3    H128827   4.018   0.966   6.611
 9628TIP3    H228828   4.125   1.019   6.518
 9629TIP3   OH228829   5.670   5.429   0.868
 9629TIP3    H128830   5.752   5.383   0.885
 9629TIP3    H228831   5.690   5.488   0.795
 9630TIP3   OH228832   3.220   1.077   6.359
 9630TIP3    H128833   3.234   0.986   6.333
 9630TIP3    H228834   3.212   1.074   6.455
 9631TIP3   OH228835   3.170   1.090   6.636
 9631TIP3    H128836   3.225   1.068   6.712
 9631TIP3    H228837   3.167   1.185   6.636
 9632TIP3   OH228838   2.875   0.778   6.798
 9632TIP3    H128839   2.808   0.823   6.850
 9632TIP3    H228840   2.902   0.842   6.733
 9633TIP3   OH228841   3.430   1.274   6.561
 9633TIP3    H128842   3.346   1.297   6.601
 9633TIP3    H228843   3.455   1.352   6.511
 9634TIP3   OH228844   6.466   4.330  -0.007
 9634TIP3    H128845   6.515   4.412  -0.008
 9634TIP3    H228846   6.476   4.297   0.082
 9635TIP3   OH228847   6.664   4.694   0.932
 9635TIP3    H128848   6.653   4.694   1.027
 9635TIP3    H228849   6.758   4.681   0.918
 9636TIP3   OH228850   3.178   1.361   6.639
 9636TIP3    H128851   3.158   1.431   6.576
 9636TIP3    H228852   3.164   1.402   6.724
 9637TIP3   OH228853   7.016   4.758   0.196
 9637TIP3    H128854   6.932   4.716   0.215
 9637TIP3    H228855   7.081   4.702   0.236
 9638TIP3   OH228856   2.923   0.969   6.604
 9638TIP3    H128857   2.993   1.032   6.623
 9638TIP3    H228858   2.963   0.907   6.543
 9639TIP3   OH228859   2.837   0.245   6.733
 9639TIP3    H128860   2.848   0.339   6.717
 9639TIP3    H228861   2.763   0.239   6.793
 9640TIP3   OH228862   6.988   5.722   0.112
 9640TIP3    H128863   6.939   5.774   0.048
 9640TIP3    H228864   7.080   5.741   0.093
 9641TIP3   OH228865   5.593   5.223   0.058
 9641TIP3    H128866   5.533   5.222   0.132
 9641TIP3    H228867   5.547   5.271  -0.010
 9642TIP3   OH228868   3.371   1.279   6.242
 9642TIP3    H128869   3.327   1.208   6.290
 9642TIP3    H228870   3.446   1.236   6.201
 9643TIP3   OH228871   6.873   5.685   1.046
 9643TIP3    H128872   6.859   5.606   0.994
 9643TIP3    H228873   6.962   5.712   1.024
 9644TIP3   OH228874   3.814   1.316   6.166
 9644TIP3    H128875   3.848   1.252   6.228
 9644TIP3    H228876   3.873   1.311   6.091
 9645TIP3   OH228877   3.047   0.771   6.467
 9645TIP3    H128878   3.098   0.746   6.544
 9645TIP3    H228879   3.112   0.786   6.398
 9646TIP3   OH228880   3.592   0.991   6.297
 9646TIP3    H128881   3.578   1.004   6.391
 9646TIP3    H228882   3.579   0.898   6.283
 9647TIP3   OH228883   6.991   5.251   0.685
 9647TIP3    H128884   7.047   5.319   0.648
 9647TIP3    H228885   6.907   5.294   0.700
 9648TIP3   OH228886   3.213   0.701   6.675
 9648TIP3    H128887   3.187   0.673   6.762
 9648TIP3    H228888   3.260   0.626   6.639
 9649TIP3   OH228889   3.349   0.523   6.506
 9649TIP3    H128890   3.321   0.530   6.415
 9649TIP3    H228891   3.443   0.537   6.503
 9650TIP3   OH228892   4.144   0.805   6.205
 9650TIP3    H128893   4.127   0.772   6.117
 9650TIP3    H228894   4.123   0.898   6.201
 9651TIP3   OH228895   6.572   4.925   0.813
 9651TIP3    H128896   6.582   4.844   0.864
 9651TIP3    H228897   6.492   4.965   0.845
 9652TIP3   OH228898   7.110   5.090   0.940
 9652TIP3    H128899   7.058   5.170   0.928
 9652TIP3    H228900   7.200   5.119   0.931
 9653TIP3   OH228901   3.170   1.562   6.450
 9653TIP3    H128902   3.263   1.548   6.429
 9653TIP3    H228903   3.136   1.612   6.376
 9654TIP3   OH228904   2.653   0.966   6.619
 9654TIP3    H128905   2.748   0.976   6.613
 9654TIP3    H228906   2.636   0.877   6.589
 9655TIP3   OH228907   5.368   5.564   0.040
 9655TIP3    H128908   5.317   5.494   0.000
 9655TIP3    H228909   5.397   5.529   0.124
 9656TIP3   OH228910   5.425   5.466   0.278
 9656TIP3    H128911   5.438   5.371   0.281
 9656TIP3    H228912   5.469   5.498   0.357
 9657TIP3   OH228913   7.251   5.791   0.087
 9657TIP3    H128914   7.255   5.832   0.173
 9657TIP3    H228915   7.314   5.841   0.034
 9658TIP3   OH228916   7.249   5.846   0.354
 9658TIP3    H128917   7.207   5.760   0.365
 9658TIP3    H228918   7.336   5.834   0.392
 9659TIP3   OH228919   7.332   5.522   0.898
 9659TIP3    H128920   7.317   5.566   0.982
 9659TIP3    H228921   7.389   5.581   0.849
 9660TIP3   OH228922   4.309   1.031   6.521
 9660TIP3    H128923   4.365   1.102   6.490
 9660TIP3    H228924   4.347   1.004   6.604
 9661TIP3   OH228925   4.419   0.918   6.742
 9661TIP3    H128926   4.355   0.876   6.800
 9661TIP3    H228927   4.491   0.943   6.800
 9662TIP3   OH228928   7.323   5.305   0.211
 9662TIP3    H128929   7.376   5.243   0.161
 9662TIP3    H228930   7.328   5.387   0.161
 9663TIP3   OH228931   7.149   5.587   0.377
 9663TIP3    H128932   7.070   5.581   0.431
 9663TIP3    H228933   7.126   5.543   0.295
 9664TIP3   OH228934   4.350   0.795   6.386
 9664TIP3    H128935   4.279   0.797   6.321
 9664TIP3    H228936   4.337   0.876   6.436
 9665TIP3   OH228937   4.219   0.466   6.306
 9665TIP3    H128938   4.207   0.552   6.264
 9665TIP3    H228939   4.167   0.406   6.253
 9666TIP3   OH228940   4.230   0.759   6.867
 9666TIP3    H128941   4.245   0.667   6.845
 9666TIP3    H228942   4.221   0.759   6.962
 9667TIP3   OH228943   5.707   4.989   0.579
 9667TIP3    H128944   5.680   4.901   0.551
 9667TIP3    H228945   5.745   4.977   0.666
 9668TIP3   OH228946   7.524   5.222   0.707
 9668TIP3    H128947   7.441   5.183   0.737
 9668TIP3    H228948   7.498   5.281   0.636
 9669TIP3   OH228949   7.587   4.952   0.871
 9669TIP3    H128950   7.502   4.911   0.888
 9669TIP3    H228951   7.642   4.882   0.839
 9670TIP3   OH228952   4.260   0.499   6.756
 9670TIP3    H128953   4.326   0.439   6.792
 9670TIP3    H228954   4.296   0.524   6.671
 9671TIP3   OH228955   7.228   4.589   0.267
 9671TIP3    H128956   7.303   4.637   0.232
 9671TIP3    H228957   7.264   4.534   0.337
 9672TIP3   OH228958   7.292   4.775   0.489
 9672TIP3    H128959   7.273   4.758   0.397
 9672TIP3    H228960   7.336   4.860   0.490
 9673TIP3   OH228961   3.980   1.684   6.716
 9673TIP3    H128962   4.039   1.679   6.641
 9673TIP3    H228963   4.013   1.757   6.768
 9674TIP3   OH228964   6.046   5.404   0.670
 9674TIP3    H128965   6.084   5.493   0.672
 9674TIP3    H228966   6.058   5.375   0.580
 9675TIP3   OH228967   6.528   5.783   0.799
 9675TIP3    H128968   6.570   5.791   0.885
 9675TIP3    H228969   6.579   5.841   0.742
 9676TIP3   OH228970   6.703   5.920   0.636
 9676TIP3    H128971   6.746   5.885   0.557
 9676TIP3    H228972   6.773   5.966   0.682
 9677TIP3   OH228973   5.649   5.820   0.756
 9677TIP3    H128974   5.686   5.835   0.669
 9677TIP3    H228975   5.725   5.805   0.812
 9678TIP3   OH228976   5.982   5.705   0.521
 9678TIP3    H128977   5.981   5.770   0.591
 9678TIP3    H228978   5.983   5.757   0.440
 9679TIP3   OH228979   6.464   5.744   0.313
 9679TIP3    H128980   6.385   5.759   0.261
 9679TIP3    H228981   6.466   5.817   0.375
 9680TIP3   OH228982   6.721   5.739   0.425
 9680TIP3    H128983   6.636   5.719   0.385
 9680TIP3    H228984   6.767   5.792   0.360
 9681TIP3   OH228985   6.895   5.912   0.295
 9681TIP3    H128986   6.897   6.000   0.258
 9681TIP3    H228987   6.925   5.855   0.224
 9682TIP3   OH228988   5.737   5.637   0.378
 9682TIP3    H128989   5.758   5.653   0.470
 9682TIP3    H228990   5.812   5.589   0.344
 9683TIP3   OH228991   5.921   5.455   0.296
 9683TIP3    H128992   5.944   5.383   0.355
 9683TIP3    H228993   6.005   5.491   0.267
 9684TIP3   OH228994   6.183   5.531   0.245
 9684TIP3    H128995   6.218   5.445   0.221
 9684TIP3    H228996   6.209   5.543   0.336
 9685TIP3   OH228997   2.634   1.340   6.786
 9685TIP3    H128998   2.542   1.316   6.793
 9685TIP3    H228999   2.633   1.430   6.752
 9686TIP3   OH229000   3.432   1.500   6.391
 9686TIP3    H129001   3.515   1.529   6.353
 9686TIP3    H229002   3.402   1.430   6.333
 9687TIP3   OH229003   4.136   1.645   6.488
 9687TIP3    H129004   4.128   1.550   6.481
 9687TIP3    H229005   4.092   1.678   6.410
 9688TIP3   OH229006   2.723   1.322   6.448
 9688TIP3    H129007   2.724   1.340   6.542
 9688TIP3    H229008   2.810   1.287   6.429
 9689TIP3   OH229009   7.211   5.802   0.645
 9689TIP3    H129010   7.131   5.804   0.594
 9689TIP3    H229011   7.209   5.883   0.696
 9690TIP3   OH229012   5.616   1.165   6.435
 9690TIP3    H129013   5.594   1.256   6.413
 9690TIP3    H229014   5.543   1.113   6.401
 9691TIP3   OH229015   5.622   1.173   6.835
 9691TIP3    H129016   5.669   1.152   6.915
 9691TIP3    H229017   5.572   1.093   6.815
 9692TIP3   OH229018   7.753   5.095   0.228
 9692TIP3    H129019   7.733   5.069   0.318
 9692TIP3    H229020   7.820   5.163   0.237
 9693TIP3   OH229021   5.892   1.469   6.513
 9693TIP3    H129022   5.877   1.407   6.585
 9693TIP3    H229023   5.914   1.551   6.556
 9694TIP3   OH229024   4.930   1.461   6.882
 9694TIP3    H129025   4.918   1.367   6.893
 9694TIP3    H229026   5.024   1.472   6.866
 9695TIP3   OH229027   4.573   0.697   6.675
 9695TIP3    H129028   4.522   0.777   6.691
 9695TIP3    H229029   4.515   0.643   6.621
 9696TIP3   OH229030   4.674   0.953   6.849
 9696TIP3    H129031   4.715   0.874   6.884
 9696TIP3    H229032   4.730   0.978   6.775
 9697TIP3   OH229033   5.549   1.897   6.523
 9697TIP3    H129034   5.577   1.832   6.459
 9697TIP3    H229035   5.550   1.850   6.607
 9698TIP3   OH229036   5.427   1.380   6.860
 9698TIP3    H129037   5.475   1.305   6.824
 9698TIP3    H229038   5.496   1.440   6.889
 9699TIP3   OH229039   5.872   0.877   6.903
 9699TIP3    H129040   5.962   0.854   6.881
 9699TIP3    H229041   5.824   0.873   6.820
 9700TIP3   OH229042   5.168   0.528   6.887
 9700TIP3    H129043   5.144   0.585   6.814
 9700TIP3    H229044   5.162   0.440   6.851
 9701TIP3   OH229045   5.797   0.663   6.529
 9701TIP3    H129046   5.884   0.624   6.529
 9701TIP3    H229047   5.781   0.687   6.437
 9702TIP3   OH229048   7.641   4.744   0.015
 9702TIP3    H129049   7.725   4.741   0.061
 9702TIP3    H229050   7.650   4.682  -0.057
 9703TIP3   OH229051   5.218   0.921   6.823
 9703TIP3    H129052   5.312   0.914   6.804
 9703TIP3    H229053   5.180   0.843   6.783
 9704TIP3   OH229054   0.765   4.898   0.179
 9704TIP3    H129055   0.717   4.948   0.113
 9704TIP3    H229056   0.846   4.947   0.193
 9705TIP3   OH229057   5.516   1.378   6.291
 9705TIP3    H129058   5.478   1.353   6.207
 9705TIP3    H229059   5.469   1.458   6.316
 9706TIP3   OH229060   8.110   5.312   0.142
 9706TIP3    H129061   8.049   5.381   0.167
 9706TIP3    H229062   8.152   5.346   0.063
 9707TIP3   OH229063   7.896   4.727   0.112
 9707TIP3    H129064   7.956   4.799   0.092
 9707TIP3    H229065   7.936   4.650   0.071
 9708TIP3   OH229066   7.942   5.517   0.221
 9708TIP3    H129067   7.936   5.607   0.189
 9708TIP3    H229068   7.857   5.501   0.263
 9709TIP3   OH229069   4.488   1.216   6.413
 9709TIP3    H129070   4.457   1.237   6.325
 9709TIP3    H229071   4.512   1.301   6.451
 9710TIP3   OH229072   5.929   1.713   6.652
 9710TIP3    H129073   5.842   1.705   6.691
 9710TIP3    H229074   5.927   1.797   6.605
 9711TIP3   OH229075   5.638   1.741   6.311
 9711TIP3    H129076   5.692   1.662   6.298
 9711TIP3    H229077   5.695   1.813   6.282
 9712TIP3   OH229078   5.794   1.524   6.260
 9712TIP3    H129079   5.750   1.444   6.231
 9712TIP3    H229080   5.834   1.499   6.344
 9713TIP3   OH229081   0.494   5.617   0.057
 9713TIP3    H129082   0.481   5.542  -0.001
 9713TIP3    H229083   0.479   5.693   0.001
 9714TIP3   OH229084   5.440   1.026   6.268
 9714TIP3    H129085   5.358   1.071   6.246
 9714TIP3    H229086   5.487   1.019   6.186
 9715TIP3   OH229087   5.409   0.836   5.965
 9715TIP3    H129088   5.477   0.891   6.004
 9715TIP3    H229089   5.441   0.746   5.978
 9716TIP3   OH229090   6.341   1.249   6.844
 9716TIP3    H129091   6.263   1.304   6.846
 9716TIP3    H229092   6.389   1.280   6.766
 9717TIP3   OH229093   5.797   1.112   6.237
 9717TIP3    H129094   5.736   1.132   6.308
 9717TIP3    H229095   5.883   1.112   6.280
 9718TIP3   OH229096   0.367   5.139   0.219
 9718TIP3    H129097   0.375   5.215   0.277
 9718TIP3    H229098   0.283   5.150   0.176
 9719TIP3   OH229099   5.031   1.065   6.657
 9719TIP3    H129100   4.999   1.012   6.584
 9719TIP3    H229101   5.100   1.013   6.696
 9720TIP3   OH229102   5.184   1.505   6.775
 9720TIP3    H129103   5.163   1.485   6.683
 9720TIP3    H229104   5.269   1.462   6.789
 9721TIP3   OH229105   8.085   5.038   0.134
 9721TIP3    H129106   8.064   5.005   0.046
 9721TIP3    H229107   8.073   5.133   0.127
 9722TIP3   OH229108   5.692   1.705   6.786
 9722TIP3    H129109   5.678   1.787   6.833
 9722TIP3    H229110   5.674   1.636   6.850
 9723TIP3   OH229111   8.149   5.602   0.391
 9723TIP3    H129112   8.094   5.669   0.432
 9723TIP3    H229113   8.088   5.550   0.338
 9724TIP3   OH229114   5.639   0.954   6.073
 9724TIP3    H129115   5.698   1.015   6.119
 9724TIP3    H229116   5.671   0.956   5.982
 9725TIP3   OH229117   5.389   1.624   6.320
 9725TIP3    H129118   5.473   1.671   6.324
 9725TIP3    H229119   5.331   1.683   6.272
 9726TIP3   OH229120   7.965   5.792   0.458
 9726TIP3    H129121   7.943   5.801   0.366
 9726TIP3    H229122   7.881   5.782   0.502
 9727TIP3   OH229123   4.910   0.924   6.442
 9727TIP3    H129124   4.831   0.965   6.409
 9727TIP3    H229125   4.886   0.833   6.457
 9728TIP3   OH229126   5.975   1.559   5.670
 9728TIP3    H129127   5.968   1.652   5.652
 9728TIP3    H229128   6.066   1.537   5.651
 9729TIP3   OH229129   7.538   5.306   0.402
 9729TIP3    H129130   7.470   5.286   0.338
 9729TIP3    H229131   7.579   5.221   0.420
 9730TIP3   OH229132   7.371   5.541   0.078
 9730TIP3    H129133   7.460   5.569   0.103
 9730TIP3    H229134   7.318   5.620   0.089
 9731TIP3   OH229135   0.727   5.974   0.122
 9731TIP3    H129136   0.732   5.880   0.136
 9731TIP3    H229137   0.647   6.001   0.168
 9732TIP3   OH229138   8.333   5.752   0.250
 9732TIP3    H129139   8.325   5.843   0.281
 9732TIP3    H229140   8.266   5.705   0.299
 9733TIP3   OH229141   5.283   1.849   6.147
 9733TIP3    H129142   5.238   1.831   6.065
 9733TIP3    H229143   5.246   1.932   6.177
 9734TIP3   OH229144   4.715   1.705   6.521
 9734TIP3    H129145   4.761   1.697   6.605
 9734TIP3    H229146   4.667   1.624   6.512
 9735TIP3   OH229147   5.483   1.785   5.772
 9735TIP3    H129148   5.533   1.712   5.736
 9735TIP3    H229149   5.518   1.798   5.860
 9736TIP3   OH229150   5.536   1.826   6.042
 9736TIP3    H129151   5.451   1.828   6.085
 9736TIP3    H229152   5.597   1.794   6.109
 9737TIP3   OH229153   0.598   5.025   0.360
 9737TIP3    H129154   0.531   5.058   0.300
 9737TIP3    H229155   0.648   4.962   0.308
 9738TIP3   OH229156   7.701   5.530   0.373
 9738TIP3    H129157   7.770   5.516   0.438
 9738TIP3    H229158   7.648   5.451   0.377
 9739TIP3   OH229159   0.322   4.896   0.352
 9739TIP3    H129160   0.394   4.894   0.415
 9739TIP3    H229161   0.338   4.974   0.299
 9740TIP3   OH229162   5.713   0.944   5.809
 9740TIP3    H129163   5.662   0.955   5.729
 9740TIP3    H229164   5.797   0.987   5.790
 9741TIP3   OH229165   5.078   0.715   6.704
 9741TIP3    H129166   4.987   0.685   6.712
 9741TIP3    H229167   5.098   0.704   6.612
 9742TIP3   OH229168   5.563   0.856   6.441
 9742TIP3    H129169   5.509   0.914   6.388
 9742TIP3    H229170   5.634   0.830   6.383
 9743TIP3   OH229171   0.111   5.097   0.526
 9743TIP3    H129172   0.089   5.030   0.591
 9743TIP3    H229173   0.205   5.113   0.539
 9744TIP3   OH229174   5.731   0.890   6.665
 9744TIP3    H129175   5.675   0.937   6.602
 9744TIP3    H229176   5.748   0.806   6.623
 9745TIP3   OH229177   4.670   0.435   6.533
 9745TIP3    H129178   4.693   0.465   6.445
 9745TIP3    H229179   4.575   0.448   6.539
 9746TIP3   OH229180   0.096   5.080   0.116
 9746TIP3    H129181   0.140   5.016   0.060
 9746TIP3    H229182   0.075   5.032   0.196
 9747TIP3   OH229183   4.825   0.603   6.709
 9747TIP3    H129184   4.739   0.644   6.699
 9747TIP3    H229185   4.818   0.520   6.662
 9748TIP3   OH229186   5.125   0.671   6.444
 9748TIP3    H129187   5.220   0.668   6.431
 9748TIP3    H229188   5.088   0.648   6.359
 9749TIP3   OH229189   5.044   0.592   6.197
 9749TIP3    H129190   4.957   0.585   6.160
 9749TIP3    H229191   5.090   0.652   6.139
 9750TIP3   OH229192   0.441   6.319   0.216
 9750TIP3    H129193   0.437   6.338   0.122
 9750TIP3    H229194   0.520   6.364   0.246
 9751TIP3   OH229195   7.903   5.463   0.550
 9751TIP3    H129196   7.985   5.485   0.594
 9751TIP3    H229197   7.843   5.442   0.622
 9752TIP3   OH229198   5.501   0.912   6.834
 9752TIP3    H129199   5.575   0.882   6.781
 9752TIP3    H229200   5.521   0.879   6.922
 9753TIP3   OH229201   8.327   4.849   0.193
 9753TIP3    H129202   8.316   4.754   0.186
 9753TIP3    H229203   8.413   4.860   0.236
 9754TIP3   OH229204   5.198   1.157   6.213
 9754TIP3    H129205   5.126   1.098   6.192
 9754TIP3    H229206   5.178   1.189   6.301
 9755TIP3   OH229207   6.114   1.406   6.819
 9755TIP3    H129208   6.149   1.455   6.745
 9755TIP3    H229209   6.029   1.374   6.788
 9756TIP3   OH229210   5.553   0.605   6.009
 9756TIP3    H129211   5.528   0.549   6.082
 9756TIP3    H229212   5.647   0.619   6.020
 9757TIP3   OH229213   8.461   5.474   0.295
 9757TIP3    H129214   8.523   5.471   0.368
 9757TIP3    H229215   8.423   5.562   0.299
 9758TIP3   OH229216   5.763   0.772   6.270
 9758TIP3    H129217   5.855   0.799   6.270
 9758TIP3    H229218   5.727   0.808   6.189
 9759TIP3   OH229219   4.944   1.187   6.893
 9759TIP3    H129220   4.972   1.145   6.812
 9759TIP3    H229221   4.942   1.116   6.957
 9760TIP3   OH229222   5.367   1.306   6.061
 9760TIP3    H129223   5.325   1.392   6.055
 9760TIP3    H229224   5.306   1.253   6.111
 9761TIP3   OH229225   7.682   5.079   0.493
 9761TIP3    H129226   7.731   5.102   0.572
 9761TIP3    H229227   7.611   5.024   0.525
 9762TIP3   OH229228   8.383   5.249   0.552
 9762TIP3    H129229   8.334   5.220   0.474
 9762TIP3    H229230   8.470   5.212   0.539
 9763TIP3   OH229231   0.102   5.773   0.176
 9763TIP3    H129232   0.007   5.762   0.183
 9763TIP3    H229233   0.128   5.816   0.257
 9764TIP3   OH229234   6.134   0.852   6.018
 9764TIP3    H129235   6.069   0.814   5.959
 9764TIP3    H229236   6.152   0.939   5.982
 9765TIP3   OH229237   0.741   5.693   0.146
 9765TIP3    H129238   0.646   5.680   0.140
 9765TIP3    H229239   0.774   5.665   0.061
 9766TIP3   OH229240   5.899   1.632   5.935
 9766TIP3    H129241   5.871   1.564   5.996
 9766TIP3    H229242   5.916   1.586   5.853
 9767TIP3   OH229243   5.870   1.289   6.732
 9767TIP3    H129244   5.779   1.266   6.752
 9767TIP3    H229245   5.910   1.207   6.702
 9768TIP3   OH229246   5.037   1.498   6.531
 9768TIP3    H129247   5.035   1.573   6.471
 9768TIP3    H229248   4.948   1.496   6.568
 9769TIP3   OH229249   4.586   0.791   6.242
 9769TIP3    H129250   4.628   0.875   6.262
 9769TIP3    H229251   4.505   0.791   6.293
 9770TIP3   OH229252   5.119   1.246   6.455
 9770TIP3    H129253   5.100   1.337   6.477
 9770TIP3    H229254   5.089   1.196   6.531
 9771TIP3   OH229255   8.155   5.831   0.040
 9771TIP3    H129256   8.190   5.905  -0.009
 9771TIP3    H229257   8.229   5.799   0.091
 9772TIP3   OH229258   4.952   1.723   6.380
 9772TIP3    H129259   4.865   1.729   6.418
 9772TIP3    H229260   4.988   1.811   6.385
 9773TIP3   OH229261  -0.001   5.493   0.021
 9773TIP3    H129262  -0.011   5.484   0.116
 9773TIP3    H229263   0.086   5.457   0.003
 9774TIP3   OH229264   5.660   1.369   5.824
 9774TIP3    H129265   5.703   1.348   5.907
 9774TIP3    H229266   5.574   1.327   5.831
 9775TIP3   OH229267   0.253   5.993   0.057
 9775TIP3    H129268   0.180   5.932   0.069
 9775TIP3    H229269   0.225   6.048  -0.016
 9776TIP3   OH229270   5.974   1.832   5.633
 9776TIP3    H129271   5.995   1.893   5.563
 9776TIP3    H229272   5.904   1.874   5.682
 9777TIP3   OH229273   5.818   1.302   6.038
 9777TIP3    H129274   5.807   1.237   6.108
 9777TIP3    H229275   5.913   1.310   6.028
 9778TIP3   OH229276   7.571   5.728   0.201
 9778TIP3    H129277   7.622   5.670   0.257
 9778TIP3    H229278   7.589   5.816   0.236
 9779TIP3   OH229279   5.014   1.340   5.842
 9779TIP3    H129280   5.024   1.249   5.815
 9779TIP3    H229281   4.998   1.336   5.936
 9780TIP3   OH229282   4.956   1.346   6.113
 9780TIP3    H129283   5.029   1.319   6.169
 9780TIP3    H229284   4.955   1.442   6.120
 9781TIP3   OH229285   4.685   1.039   6.325
 9781TIP3    H129286   4.620   1.089   6.375
 9781TIP3    H229287   4.708   1.096   6.252
 9782TIP3   OH229288   5.226   1.536   6.049
 9782TIP3    H129289   5.141   1.559   6.087
 9782TIP3    H229290   5.249   1.611   5.995
 9783TIP3   OH229291   5.396   0.642   6.432
 9783TIP3    H129292   5.455   0.713   6.458
 9783TIP3    H229293   5.412   0.572   6.495
 9784TIP3   OH229294   0.050   4.913   0.332
 9784TIP3    H129295   0.053   4.978   0.403
 9784TIP3    H229296   0.138   4.876   0.331
 9785TIP3   OH229297   4.975   1.618   6.128
 9785TIP3    H129298   4.954   1.689   6.067
 9785TIP3    H229299   4.965   1.657   6.215
 9786TIP3   OH229300   5.969   1.041   6.656
 9786TIP3    H129301   5.888   0.990   6.657
 9786TIP3    H229302   6.033   0.984   6.699
 9787TIP3   OH229303   4.710   1.217   6.110
 9787TIP3    H129304   4.780   1.281   6.119
 9787TIP3    H229305   4.742   1.154   6.045
 9788TIP3   OH229306   4.688   0.534   6.280
 9788TIP3    H129307   4.667   0.627   6.270
 9788TIP3    H229308   4.647   0.491   6.205
 9789TIP3   OH229309   5.950   1.977   6.566
 9789TIP3    H129310   5.909   2.029   6.497
 9789TIP3    H229311   6.044   1.990   6.553
 9790TIP3   OH229312   4.540   1.481   6.500
 9790TIP3    H129313   4.501   1.520   6.578
 9790TIP3    H229314   4.496   1.525   6.427
 9791TIP3   OH229315   7.575   6.016   0.574
 9791TIP3    H129316   7.627   6.001   0.653
 9791TIP3    H229317   7.568   5.930   0.533
 9792TIP3   OH229318   8.081   5.919   0.672
 9792TIP3    H129319   8.169   5.882   0.675
 9792TIP3    H229320   8.040   5.878   0.596
 9793TIP3   OH229321   5.169   1.537   5.729
 9793TIP3    H129322   5.122   1.468   5.775
 9793TIP3    H229323   5.243   1.492   5.688
 9794TIP3   OH229324   0.162   5.885   0.418
 9794TIP3    H129325   0.173   5.814   0.481
 9794TIP3    H229326   0.238   5.942   0.433
 9795TIP3   OH229327   5.611   1.575   5.651
 9795TIP3    H129328   5.645   1.510   5.713
 9795TIP3    H229329   5.669   1.569   5.576
 9796TIP3   OH229330   7.688   5.433   0.717
 9796TIP3    H129331   7.672   5.341   0.738
 9796TIP3    H229332   7.605   5.464   0.680
 9797TIP3   OH229333   4.833   1.028   5.958
 9797TIP3    H129334   4.883   1.001   6.035
 9797TIP3    H229335   4.899   1.047   5.892
 9798TIP3   OH229336   8.347   5.528   0.568
 9798TIP3    H129337   8.282   5.542   0.499
 9798TIP3    H229338   8.376   5.438   0.556
 9799TIP3   OH229339   5.407   1.256   5.794
 9799TIP3    H129340   5.383   1.266   5.886
 9799TIP3    H229341   5.385   1.165   5.774
 9800TIP3   OH229342   0.264   5.546   0.194
 9800TIP3    H129343   0.345   5.576   0.153
 9800TIP3    H229344   0.204   5.620   0.185
 9801TIP3   OH229345   7.843   5.136   0.735
 9801TIP3    H129346   7.875   5.057   0.779
 9801TIP3    H229347   7.904   5.205   0.763
 9802TIP3   OH229348   5.000   0.968   6.174
 9802TIP3    H129349   4.985   0.943   6.265
 9802TIP3    H229350   5.049   0.894   6.137
 9803TIP3   OH229351   5.144   0.783   6.027
 9803TIP3    H129352   5.104   0.788   5.940
 9803TIP3    H229353   5.236   0.805   6.012
 9804TIP3   OH229354   0.154   5.425   0.558
 9804TIP3    H129355   0.237   5.403   0.516
 9804TIP3    H229356   0.151   5.371   0.637
 9805TIP3   OH229357   5.940   1.056   5.689
 9805TIP3    H129358   5.922   1.024   5.601
 9805TIP3    H229359   5.920   1.150   5.685
 9806TIP3   OH229360   8.203   4.934   0.457
 9806TIP3    H129361   8.131   4.919   0.517
 9806TIP3    H229362   8.282   4.927   0.511
 9807TIP3   OH229363   8.304   5.168   0.278
 9807TIP3    H129364   8.390   5.205   0.257
 9807TIP3    H229365   8.242   5.231   0.243
 9808TIP3   OH229366   0.378   5.124   0.611
 9808TIP3    H129367   0.380   5.058   0.681
 9808TIP3    H229368   0.469   5.150   0.600
 9809TIP3   OH229369   0.394   5.377   0.364
 9809TIP3    H129370   0.339   5.435   0.312
 9809TIP3    H229371   0.483   5.396   0.334
 9810TIP3   OH229372   8.148   4.908   0.740
 9810TIP3    H129373   8.068   4.897   0.790
 9810TIP3    H229374   8.214   4.932   0.805
 9811TIP3   OH229375   0.021   4.891   0.681
 9811TIP3    H129376   0.034   4.908   0.774
 9811TIP3    H229377   0.028   4.796   0.673
 9812TIP3   OH229378   4.970   1.825   5.943
 9812TIP3    H129379   5.061   1.808   5.918
 9812TIP3    H229380   4.932   1.871   5.869
 9813TIP3   OH229381   4.436   1.212   6.125
 9813TIP3    H129382   4.531   1.224   6.121
 9813TIP3    H229383   4.421   1.127   6.085
 9814TIP3   OH229384   4.345   1.794   6.582
 9814TIP3    H129385   4.279   1.743   6.536
 9814TIP3    H229386   4.389   1.732   6.639
 9815TIP3   OH229387   4.491   1.622   6.744
 9815TIP3    H129388   4.480   1.558   6.814
 9815TIP3    H229389   4.543   1.692   6.784
 9816TIP3   OH229390   6.222   2.029   6.561
 9816TIP3    H129391   6.238   2.059   6.650
 9816TIP3    H229392   6.273   2.088   6.506
 9817TIP3   OH229393   6.234   2.067   6.840
 9817TIP3    H129394   6.188   1.984   6.836
 9817TIP3    H229395   6.305   2.052   6.903
 9818TIP3   OH229396   0.616   5.773   0.464
 9818TIP3    H129397   0.543   5.778   0.526
 9818TIP3    H229398   0.658   5.859   0.470
 9819TIP3   OH229399   6.095   1.306   6.016
 9819TIP3    H129400   6.153   1.375   5.983
 9819TIP3    H229401   6.139   1.274   6.095
 9820TIP3   OH229402   6.222   1.194   6.231
 9820TIP3    H129403   6.158   1.177   6.299
 9820TIP3    H229404   6.294   1.238   6.276
 9821TIP3   OH229405   6.288   1.540   6.653
 9821TIP3    H129406   6.344   1.475   6.611
 9821TIP3    H229407   6.292   1.615   6.594
 9822TIP3   OH229408   6.094   1.828   6.845
 9822TIP3    H129409   6.026   1.871   6.897
 9822TIP3    H229410   6.047   1.786   6.773
 9823TIP3   OH229411   6.146   1.081   5.872
 9823TIP3    H129412   6.079   1.077   5.804
 9823TIP3    H229413   6.126   1.161   5.920
 9824TIP3   OH229414   5.980   0.781   5.797
 9824TIP3    H129415   5.983   0.865   5.751
 9824TIP3    H229416   5.981   0.715   5.728
 9825TIP3   OH229417   6.026   1.091   6.392
 9825TIP3    H129418   6.029   0.998   6.366
 9825TIP3    H229419   6.012   1.088   6.487
 9826TIP3   OH229420   7.494   5.108   0.136
 9826TIP3    H129421   7.491   5.063   0.052
 9826TIP3    H229422   7.587   5.108   0.160
 9827TIP3   OH229423   0.648   5.430   0.271
 9827TIP3    H129424   0.706   5.355   0.256
 9827TIP3    H229425   0.674   5.493   0.204
 9828TIP3   OH229426   0.795   5.204   0.264
 9828TIP3    H129427   0.731   5.156   0.316
 9828TIP3    H229428   0.879   5.161   0.284
 9829TIP3   OH229429   6.030   0.837   6.280
 9829TIP3    H129430   6.101   0.821   6.343
 9829TIP3    H229431   6.075   0.840   6.195
 9830TIP3   OH229432   6.143   0.868   6.794
 9830TIP3    H129433   6.214   0.869   6.729
 9830TIP3    H229434   6.179   0.916   6.869
 9831TIP3   OH229435   0.569   5.050   0.047
 9831TIP3    H129436   0.497   5.091   0.095
 9831TIP3    H229437   0.611   5.123   0.002
 9832TIP3   OH229438   7.746   4.769   0.738
 9832TIP3    H129439   7.820   4.815   0.778
 9832TIP3    H229440   7.768   4.676   0.747
 9833TIP3   OH229441   7.442   4.746   0.210
 9833TIP3    H129442   7.509   4.740   0.141
 9833TIP3    H229443   7.477   4.810   0.271
 9834TIP3   OH229444   5.777   1.943   6.202
 9834TIP3    H129445   5.836   1.935   6.127
 9834TIP3    H229446   5.816   2.012   6.255
 9835TIP3   OH229447   7.731   5.760   0.588
 9835TIP3    H129448   7.652   5.718   0.555
 9835TIP3    H229449   7.738   5.730   0.679
 9836TIP3   OH229450   7.927   5.793   0.184
 9836TIP3    H129451   7.874   5.867   0.153
 9836TIP3    H229452   8.011   5.803   0.138
 9837TIP3   OH229453   8.323   6.020   0.327
 9837TIP3    H129454   8.359   6.017   0.416
 9837TIP3    H229455   8.386   6.073   0.278
 9838TIP3   OH229456   0.014   6.178   0.206
 9838TIP3    H129457   0.079   6.128   0.157
 9838TIP3    H229458   0.066   6.237   0.260
 9839TIP3   OH229459   7.579   6.021   0.238
 9839TIP3    H129460   7.492   6.042   0.206
 9839TIP3    H229461   7.601   6.093   0.296
 9840TIP3   OH229462   7.811   6.022   0.087
 9840TIP3    H129463   7.728   6.025   0.134
 9840TIP3    H229464   7.789   6.050  -0.002
 9841TIP3   OH229465   5.395   2.036   6.819
 9841TIP3    H129466   5.322   2.048   6.757
 9841TIP3    H229467   5.406   2.122   6.859
 9842TIP3   OH229468   5.655   1.965   6.870
 9842TIP3    H129469   5.565   1.989   6.849
 9842TIP3    H229470   5.708   2.031   6.825
 9843TIP3   OH229471   5.855   2.134   6.770
 9843TIP3    H129472   5.859   2.223   6.734
 9843TIP3    H229473   5.886   2.078   6.699
 9844TIP3   OH229474   4.663   1.808   6.887
 9844TIP3    H129475   4.686   1.786   6.977
 9844TIP3    H229476   4.736   1.774   6.834
 9845TIP3   OH229477   4.867   1.690   6.752
 9845TIP3    H129478   4.879   1.609   6.801
 9845TIP3    H229479   4.952   1.733   6.755
 9846TIP3   OH229480   5.132   1.779   6.779
 9846TIP3    H129481   5.153   1.687   6.763
 9846TIP3    H229482   5.188   1.804   6.853
 9847TIP3   OH229483   4.421   1.603   6.285
 9847TIP3    H129484   4.337   1.571   6.252
 9847TIP3    H229485   4.428   1.692   6.251
 9848TIP3   OH229486   5.229   1.758   5.877
 9848TIP3    H129487   5.312   1.787   5.839
 9848TIP3    H229488   5.199   1.688   5.818
 9849TIP3   OH229489   5.933   1.900   5.975
 9849TIP3    H129490   5.926   1.805   5.966
 9849TIP3    H229491   5.889   1.935   5.897
 9850TIP3   OH229492   4.531   1.597   5.930
 9850TIP3    H129493   4.533   1.617   6.024
 9850TIP3    H229494   4.613   1.552   5.913
 9851TIP3   OH229495   0.477   6.045   0.218
 9851TIP3    H129496   0.402   6.015   0.168
 9851TIP3    H229497   0.465   6.140   0.226
 9852TIP3   OH229498   7.417   1.419   5.928
 9852TIP3    H129499   7.396   1.509   5.905
 9852TIP3    H229500   7.348   1.367   5.889
 9853TIP3   OH229501   7.420   1.436   6.285
 9853TIP3    H129502   7.435   1.445   6.379
 9853TIP3    H229503   7.370   1.355   6.275
 9854TIP3   OH229504   6.723   1.273   6.673
 9854TIP3    H129505   6.753   1.223   6.749
 9854TIP3    H229506   6.804   1.304   6.631
 9855TIP3   OH229507   7.685   1.730   5.997
 9855TIP3    H129508   7.648   1.684   6.071
 9855TIP3    H229509   7.717   1.813   6.033
 9856TIP3   OH229510   6.714   1.712   6.365
 9856TIP3    H129511   6.697   1.618   6.372
 9856TIP3    H229512   6.809   1.718   6.352
 9857TIP3   OH229513   6.340   0.945   6.209
 9857TIP3    H129514   6.303   1.032   6.219
 9857TIP3    H229515   6.301   0.912   6.128
 9858TIP3   OH229516   6.459   1.286   6.339
 9858TIP3    H129517   6.517   1.213   6.356
 9858TIP3    H229518   6.517   1.360   6.321
 9859TIP3   OH229519   7.347   2.153   6.011
 9859TIP3    H129520   7.374   2.090   5.945
 9859TIP3    H229521   7.350   2.105   6.093
 9860TIP3   OH229522   7.225   1.648   6.324
 9860TIP3    H129523   7.263   1.575   6.275
 9860TIP3    H229524   7.301   1.696   6.359
 9861TIP3   OH229525   7.593   1.165   6.403
 9861TIP3    H129526   7.577   1.071   6.410
 9861TIP3    H229527   7.567   1.188   6.314
 9862TIP3   OH229528   7.059   0.705   6.298
 9862TIP3    H129529   7.025   0.759   6.368
 9862TIP3    H229530   6.984   0.690   6.240
 9863TIP3   OH229531   7.563   0.864   6.022
 9863TIP3    H129532   7.656   0.877   6.004
 9863TIP3    H229533   7.519   0.888   5.940
 9864TIP3   OH229534   6.639   1.103   6.424
 9864TIP3    H129535   6.680   1.098   6.510
 9864TIP3    H229536   6.701   1.060   6.364
 9865TIP3   OH229537   7.036   1.236   6.258
 9865TIP3    H129538   7.130   1.223   6.265
 9865TIP3    H229539   7.005   1.158   6.212
 9866TIP3   OH229540   7.312   1.629   5.780
 9866TIP3    H129541   7.277   1.606   5.694
 9866TIP3    H229542   7.268   1.711   5.803
 9867TIP3   OH229543   7.073   1.563   6.546
 9867TIP3    H129544   7.018   1.633   6.582
 9867TIP3    H229545   7.119   1.604   6.472
 9868TIP3   OH229546   6.778   0.960   6.618
 9868TIP3    H129547   6.862   0.974   6.661
 9868TIP3    H229548   6.800   0.920   6.534
 9869TIP3   OH229549   6.913   1.766   6.653
 9869TIP3    H129550   6.898   1.855   6.621
 9869TIP3    H229551   6.832   1.743   6.699
 9870TIP3   OH229552   6.278   1.482   5.903
 9870TIP3    H129553   6.250   1.501   5.814
 9870TIP3    H229554   6.302   1.568   5.939
 9871TIP3   OH229555   7.729   1.972   6.137
 9871TIP3    H129556   7.641   1.963   6.173
 9871TIP3    H229557   7.728   2.056   6.092
 9872TIP3   OH229558   7.435   2.000   5.796
 9872TIP3    H129559   7.488   1.922   5.782
 9872TIP3    H229560   7.492   2.072   5.768
 9873TIP3   OH229561   7.589   1.784   5.741
 9873TIP3    H129562   7.558   1.702   5.702
 9873TIP3    H229563   7.631   1.757   5.823
 9874TIP3   OH229564   7.948   1.860   6.501
 9874TIP3    H129565   7.947   1.787   6.439
 9874TIP3    H229566   7.948   1.938   6.447
 9875TIP3   OH229567   7.246   1.277   5.761
 9875TIP3    H129568   7.163   1.319   5.739
 9875TIP3    H229569   7.292   1.268   5.677
 9876TIP3   OH229570   7.211   1.088   5.447
 9876TIP3    H129571   7.278   1.144   5.486
 9876TIP3    H229572   7.241   0.999   5.463
 9877TIP3   OH229573   8.131   1.483   6.308
 9877TIP3    H129574   8.061   1.549   6.310
 9877TIP3    H229575   8.184   1.506   6.232
 9878TIP3   OH229576   7.596   1.362   5.724
 9878TIP3    H129577   7.538   1.385   5.796
 9878TIP3    H229578   7.683   1.362   5.763
 9879TIP3   OH229579   7.871   1.397   6.455
 9879TIP3    H129580   7.948   1.453   6.460
 9879TIP3    H229581   7.810   1.445   6.399
 9880TIP3   OH229582   6.820   1.348   6.120
 9880TIP3    H129583   6.784   1.282   6.061
 9880TIP3    H229584   6.898   1.307   6.157
 9881TIP3   OH229585   6.972   1.759   6.262
 9881TIP3    H129586   6.950   1.744   6.170
 9881TIP3    H229587   7.060   1.722   6.272
 9882TIP3   OH229588   6.945   1.323   6.505
 9882TIP3    H129589   6.977   1.296   6.419
 9882TIP3    H229590   6.989   1.406   6.521
 9883TIP3   OH229591   7.488   1.953   6.261
 9883TIP3    H129592   7.472   2.034   6.310
 9883TIP3    H229593   7.475   1.884   6.326
 9884TIP3   OH229594   7.104   1.866   6.827
 9884TIP3    H129595   7.040   1.923   6.869
 9884TIP3    H229596   7.052   1.812   6.767
 9885TIP3   OH229597   7.433   1.219   5.552
 9885TIP3    H129598   7.493   1.275   5.600
 9885TIP3    H229599   7.466   1.219   5.462
 9886TIP3   OH229600   6.867   1.448   6.909
 9886TIP3    H129601   6.859   1.533   6.950
 9886TIP3    H229602   6.778   1.412   6.909
 9887TIP3   OH229603   7.188   1.879   5.806
 9887TIP3    H129604   7.271   1.927   5.810
 9887TIP3    H229605   7.129   1.937   5.759
 9888TIP3   OH229606   6.895   2.027   6.908
 9888TIP3    H129607   6.873   2.036   6.815
 9888TIP3    H229608   6.812   2.011   6.952
 9889TIP3   OH229609   6.683   1.172   5.936
 9889TIP3    H129610   6.624   1.235   5.895
 9889TIP3    H229611   6.627   1.100   5.963
 9890TIP3   OH229612   7.771   1.815   5.159
 9890TIP3    H129613   7.763   1.908   5.138
 9890TIP3    H229614   7.861   1.793   5.135
 9891TIP3   OH229615   6.488   1.581   6.849
 9891TIP3    H129616   6.420   1.559   6.785
 9891TIP3    H229617   6.524   1.497   6.876
 9892TIP3   OH229618   6.336   1.776   6.506
 9892TIP3    H129619   6.427   1.800   6.524
 9892TIP3    H229620   6.286   1.853   6.534
 9893TIP3   OH229621   8.178   2.268   6.525
 9893TIP3    H129622   8.198   2.175   6.516
 9893TIP3    H229623   8.095   2.270   6.573
 9894TIP3   OH229624   7.289   2.004   6.676
 9894TIP3    H129625   7.289   2.096   6.702
 9894TIP3    H229626   7.221   1.963   6.729
 9895TIP3   OH229627   7.079   2.105   5.635
 9895TIP3    H129628   7.035   2.087   5.552
 9895TIP3    H229629   7.042   2.189   5.663
 9896TIP3   OH229630   6.512   1.964   6.009
 9896TIP3    H129631   6.556   1.956   6.094
 9896TIP3    H229632   6.462   1.882   6.001
 9897TIP3   OH229633   7.279   2.040   5.259
 9897TIP3    H129634   7.329   1.967   5.224
 9897TIP3    H229635   7.315   2.053   5.347
 9898TIP3   OH229636   7.332   2.082   5.529
 9898TIP3    H129637   7.247   2.085   5.572
 9898TIP3    H229638   7.392   2.049   5.596
 9899TIP3   OH229639   6.682   1.773   6.811
 9899TIP3    H129640   6.732   1.762   6.892
 9899TIP3    H229641   6.611   1.709   6.817
 9900TIP3   OH229642   7.513   1.201   5.290
 9900TIP3    H129643   7.464   1.208   5.208
 9900TIP3    H229644   7.597   1.242   5.270
 9901TIP3   OH229645   7.031   1.124   6.681
 9901TIP3    H129646   6.968   1.133   6.752
 9901TIP3    H229647   7.006   1.190   6.617
 9902TIP3   OH229648   6.897   1.047   6.116
 9902TIP3    H129649   6.803   1.046   6.098
 9902TIP3    H229650   6.937   1.018   6.034
 9903TIP3   OH229651   7.373   1.095   5.919
 9903TIP3    H129652   7.313   1.157   5.879
 9903TIP3    H229653   7.427   1.063   5.846
 9904TIP3   OH229654   7.526   1.211   6.114
 9904TIP3    H129655   7.500   1.302   6.097
 9904TIP3    H229656   7.464   1.158   6.064
 9905TIP3   OH229657   6.844   1.112   6.879
 9905TIP3    H129658   6.852   1.144   6.969
 9905TIP3    H229659   6.837   1.017   6.888
 9906TIP3   OH229660   6.455   0.866   5.958
 9906TIP3    H129661   6.459   0.824   5.873
 9906TIP3    H229662   6.449   0.794   6.021
 9907TIP3   OH229663   7.489   1.382   6.546
 9907TIP3    H129664   7.522   1.302   6.506
 9907TIP3    H229665   7.559   1.410   6.605
 9908TIP3   OH229666   6.629   0.950   6.166
 9908TIP3    H129667   6.535   0.964   6.161
 9908TIP3    H229668   6.639   0.863   6.206
 9909TIP3   OH229669   6.990   0.957   5.881
 9909TIP3    H129670   7.078   0.924   5.865
 9909TIP3    H229671   6.936   0.915   5.813
 9910TIP3   OH229672   6.871   0.845   5.660
 9910TIP3    H129673   6.783   0.826   5.627
 9910TIP3    H229674   6.905   0.912   5.600
 9911TIP3   OH229675   7.896   2.571   6.633
 9911TIP3    H129676   7.898   2.601   6.542
 9911TIP3    H229677   7.966   2.622   6.676
 9912TIP3   OH229678   1.160   5.698   0.103
 9912TIP3    H129679   1.241   5.721   0.149
 9912TIP3    H229680   1.094   5.691   0.172
 9913TIP3   OH229681   7.303   1.186   6.314
 9913TIP3    H129682   7.350   1.115   6.272
 9913TIP3    H229683   7.309   1.168   6.407
 9914TIP3   OH229684   7.293   1.102   6.572
 9914TIP3    H129685   7.220   1.129   6.627
 9914TIP3    H229686   7.370   1.108   6.630
 9915TIP3   OH229687   7.005   1.401   5.697
 9915TIP3    H129688   6.930   1.345   5.678
 9915TIP3    H229689   6.982   1.444   5.780
 9916TIP3   OH229690   7.921   1.662   6.309
 9916TIP3    H129691   7.955   1.715   6.236
 9916TIP3    H229692   7.836   1.631   6.278
 9917TIP3   OH229693   7.338   0.849   5.495
 9917TIP3    H129694   7.315   0.776   5.553
 9917TIP3    H229695   7.431   0.863   5.511
 9918TIP3   OH229696   7.389   1.735   6.695
 9918TIP3    H129697   7.440   1.721   6.774
 9918TIP3    H229698   7.358   1.825   6.702
 9919TIP3   OH229699   7.545   1.003   5.731
 9919TIP3    H129700   7.625   1.038   5.769
 9919TIP3    H229701   7.534   1.052   5.650
 9920TIP3   OH229702   6.703   1.433   6.355
 9920TIP3    H129703   6.740   1.411   6.270
 9920TIP3    H229704   6.757   1.386   6.418
 9921TIP3   OH229705   7.166   1.561   5.545
 9921TIP3    H129706   7.121   1.645   5.542
 9921TIP3    H229707   7.108   1.505   5.596
 9922TIP3   OH229708   0.932   5.372   0.043
 9922TIP3    H129709   0.981   5.377   0.125
 9922TIP3    H229710   0.869   5.301   0.057
 9923TIP3   OH229711   1.644   5.499   0.085
 9923TIP3    H129712   1.572   5.451   0.043
 9923TIP3    H229713   1.689   5.433   0.138
 9924TIP3   OH229714   7.557   2.007   6.581
 9924TIP3    H129715   7.463   1.992   6.584
 9924TIP3    H229716   7.575   2.060   6.659
 9925TIP3   OH229717   7.960   1.091   5.473
 9925TIP3    H129718   7.891   1.056   5.417
 9925TIP3    H229719   7.969   1.183   5.445
 9926TIP3   OH229720   7.690   1.891   5.422
 9926TIP3    H129721   7.667   1.822   5.484
 9926TIP3    H229722   7.711   1.844   5.341
 9927TIP3   OH229723   7.692   1.513   6.251
 9927TIP3    H129724   7.597   1.499   6.254
 9927TIP3    H229725   7.723   1.448   6.188
 9928TIP3   OH229726   6.831   1.762   6.017
 9928TIP3    H129727   6.827   1.837   5.958
 9928TIP3    H229728   6.742   1.753   6.051
 9929TIP3   OH229729   6.384   1.077   5.733
 9929TIP3    H129730   6.434   1.157   5.748
 9929TIP3    H229731   6.308   1.084   5.792
 9930TIP3   OH229732   6.915   1.518   5.923
 9930TIP3    H129733   6.900   1.608   5.950
 9930TIP3    H229734   6.883   1.465   5.995
 9931TIP3   OH229735   7.109   2.081   6.470
 9931TIP3    H129736   7.145   2.154   6.420
 9931TIP3    H229737   7.183   2.048   6.520
 9932TIP3   OH229738   6.746   1.982   5.866
 9932TIP3    H129739   6.659   1.988   5.905
 9932TIP3    H229740   6.782   2.071   5.871
 9933TIP3   OH229741   7.471   1.729   6.435
 9933TIP3    H129742   7.441   1.724   6.525
 9933TIP3    H229743   7.564   1.705   6.440
 9934TIP3   OH229744   7.454   1.625   5.315
 9934TIP3    H129745   7.498   1.605   5.398
 9934TIP3    H229746   7.369   1.583   5.323
 9935TIP3   OH229747   7.704   2.240   6.473
 9935TIP3    H129748   7.630   2.179   6.476
 9935TIP3    H229749   7.684   2.298   6.399
 9936TIP3   OH229750   7.765   2.088   5.116
 9936TIP3    H129751   7.773   2.142   5.037
 9936TIP3    H229752   7.699   2.131   5.169
 9937TIP3   OH229753   7.616   1.560   5.530
 9937TIP3    H129754   7.607   1.491   5.595
 9937TIP3    H229755   7.710   1.566   5.513
 9938TIP3   OH229756   6.541   1.972   6.632
 9938TIP3    H129757   6.593   1.912   6.686
 9938TIP3    H229758   6.555   2.057   6.672
 9939TIP3   OH229759   6.810   1.598   5.329
 9939TIP3    H129760   6.820   1.506   5.303
 9939TIP3    H229761   6.797   1.594   5.424
 9940TIP3   OH229762   6.754   1.606   5.600
 9940TIP3    H129763   6.820   1.579   5.664
 9940TIP3    H229764   6.753   1.701   5.606
 9941TIP3   OH229765   6.489   1.324   5.814
 9941TIP3    H129766   6.421   1.370   5.864
 9941TIP3    H229767   6.507   1.381   5.739
 9942TIP3   OH229768   7.022   1.790   5.537
 9942TIP3    H129769   6.938   1.815   5.574
 9942TIP3    H229770   7.047   1.865   5.482
 9943TIP3   OH229771   7.247   0.853   5.888
 9943TIP3    H129772   7.281   0.936   5.922
 9943TIP3    H229773   7.239   0.796   5.964
 9944TIP3   OH229774   7.501   1.129   6.747
 9944TIP3    H129775   7.482   1.199   6.810
 9944TIP3    H229776   7.538   1.058   6.799
 9945TIP3   OH229777   6.772   1.877   5.614
 9945TIP3    H129778   6.752   1.948   5.553
 9945TIP3    H229779   6.761   1.916   5.701
 9946TIP3   OH229780   7.796   1.279   6.124
 9946TIP3    H129781   7.712   1.241   6.148
 9946TIP3    H229782   7.858   1.243   6.186
 9947TIP3   OH229783   6.505   1.485   5.587
 9947TIP3    H129784   6.577   1.547   5.594
 9947TIP3    H229785   6.537   1.418   5.527
 9948TIP3   OH229786   6.269   0.842   5.651
 9948TIP3    H129787   6.314   0.918   5.688
 9948TIP3    H229788   6.272   0.777   5.721
 9949TIP3   OH229789   7.745   2.235   6.049
 9949TIP3    H129790   7.702   2.287   5.982
 9949TIP3    H229791   7.838   2.246   6.033
 9950TIP3   OH229792   6.334   1.744   5.989
 9950TIP3    H129793   6.294   1.782   6.067
 9950TIP3    H229794   6.290   1.788   5.916
 9951TIP3   OH229795   0.868   6.283   0.111
 9951TIP3    H129796   0.949   6.289   0.161
 9951TIP3    H229797   0.853   6.189   0.100
 9952TIP3   OH229798   1.325   6.192   0.172
 9952TIP3    H129799   1.416   6.212   0.150
 9952TIP3    H229800   1.294   6.138   0.100
 9953TIP3   OH229801   6.965   1.794   5.216
 9953TIP3    H129802   6.918   1.725   5.262
 9953TIP3    H229803   7.040   1.750   5.174
 9954TIP3   OH229804   7.582   2.148   6.816
 9954TIP3    H129805   7.587   2.086   6.889
 9954TIP3    H229806   7.658   2.205   6.826
 9955TIP3   OH229807   7.406   1.830   5.138
 9955TIP3    H129808   7.441   1.766   5.200
 9955TIP3    H229809   7.464   1.824   5.062
 9956TIP3   OH229810   0.968   5.682   0.304
 9956TIP3    H129811   0.976   5.596   0.345
 9956TIP3    H229812   0.883   5.680   0.261
 9957TIP3   OH229813   6.628   1.286   5.446
 9957TIP3    H129814   6.677   1.260   5.525
 9957TIP3    H229815   6.696   1.304   5.381
 9958TIP3   OH229816   1.603   5.772   0.082
 9958TIP3    H129817   1.554   5.795   0.003
 9958TIP3    H229818   1.619   5.678   0.073
 9959TIP3   OH229819   7.200   1.507   5.278
 9959TIP3    H129820   7.177   1.517   5.371
 9959TIP3    H229821   7.179   1.415   5.259
 9960TIP3   OH229822   7.715   1.777   6.626
 9960TIP3    H129823   7.803   1.801   6.598
 9960TIP3    H229824   7.663   1.855   6.609
 9961TIP3   OH229825   1.093   5.379   0.262
 9961TIP3    H129826   1.170   5.326   0.244
 9961TIP3    H229827   1.105   5.408   0.353
 9962TIP3   OH229828   6.797   1.218   5.663
 9962TIP3    H129829   6.779   1.184   5.750
 9962TIP3    H229830   6.846   1.149   5.620
 9963TIP3   OH229831   7.112   1.327   6.912
 9963TIP3    H129832   7.027   1.371   6.905
 9963TIP3    H229833   7.154   1.344   6.828
 9964TIP3   OH229834   6.940   1.051   5.492
 9964TIP3    H129835   6.907   1.058   5.403
 9964TIP3    H229836   7.034   1.072   5.485
 9965TIP3   OH229837   7.736   1.317   5.170
 9965TIP3    H129838   7.716   1.285   5.082
 9965TIP3    H229839   7.716   1.410   5.166
 9966TIP3   OH229840   7.199   1.054   6.894
 9966TIP3    H129841   7.146   1.048   6.815
 9966TIP3    H229842   7.197   1.147   6.917
 9967TIP3   OH229843   7.242   1.388   6.681
 9967TIP3    H129844   7.326   1.390   6.636
 9967TIP3    H229845   7.190   1.456   6.639
 9968TIP3   OH229846   1.310   5.204   0.186
 9968TIP3    H129847   1.347   5.116   0.184
 9968TIP3    H229848   1.365   5.253   0.124
 9969TIP3   OH229849   6.767   2.083   5.430
 9969TIP3    H129850   6.857   2.066   5.405
 9969TIP3    H229851   6.730   2.129   5.355
 9970TIP3   OH229852   6.233   1.477   5.618
 9970TIP3    H129853   6.327   1.491   5.609
 9970TIP3    H229854   6.217   1.393   5.576
 9971TIP3   OH229855   6.140   2.051   6.071
 9971TIP3    H129856   6.075   1.998   6.025
 9971TIP3    H229857   6.183   1.990   6.130
 9972TIP3   OH229858   6.282   1.882   6.238
 9972TIP3    H129859   6.274   1.814   6.306
 9972TIP3    H229860   6.334   1.951   6.280
 9973TIP3   OH229861   8.013   2.283   6.028
 9973TIP3    H129862   8.033   2.319   6.114
 9973TIP3    H229863   8.070   2.331   5.968
 9974TIP3   OH229864   8.013   2.331   6.306
 9974TIP3    H129865   7.973   2.244   6.306
 9974TIP3    H229866   8.087   2.323   6.366
 9975TIP3   OH229867   7.892   1.563   5.492
 9975TIP3    H129868   7.950   1.628   5.453
 9975TIP3    H229869   7.935   1.538   5.574
 9976TIP3   OH229870   8.024   1.486   5.714
 9976TIP3    H129871   7.958   1.450   5.773
 9976TIP3    H229872   8.105   1.485   5.765
 9977TIP3   OH229873   8.072   1.797   6.128
 9977TIP3    H129874   8.127   1.730   6.086
 9977TIP3    H229875   8.077   1.872   6.069
 9978TIP3   OH229876   7.894   2.080   6.336
 9978TIP3    H129877   7.822   2.118   6.385
 9978TIP3    H229878   7.852   2.035   6.262
 9979TIP3   OH229879   7.945   1.335   5.350
 9979TIP3    H129880   7.875   1.330   5.285
 9979TIP3    H229881   7.925   1.414   5.400
 9980TIP3   OH229882   7.782   1.026   5.275
 9980TIP3    H129883   7.780   1.098   5.212
 9980TIP3    H229884   7.803   0.948   5.223
 9981TIP3   OH229885   7.836   1.350   5.858
 9981TIP3    H129886   7.877   1.269   5.827
 9981TIP3    H229887   7.832   1.339   5.953
 9982TIP3   OH229888   6.464   1.328   6.612
 9982TIP3    H129889   6.456   1.309   6.519
 9982TIP3    H229890   6.556   1.316   6.632
 9983TIP3   OH229891   7.951   1.124   5.746
 9983TIP3    H129892   7.925   1.040   5.784
 9983TIP3    H229893   7.950   1.109   5.652
 9984TIP3   OH229894   7.983   1.191   6.303
 9984TIP3    H129895   8.072   1.221   6.286
 9984TIP3    H229896   7.950   1.249   6.371
 9985TIP3   OH229897   0.990   5.027   0.340
 9985TIP3    H129898   1.022   5.083   0.411
 9985TIP3    H229899   1.032   4.942   0.356
 9986TIP3   OH229900   6.409   0.964   6.724
 9986TIP3    H129901   6.459   0.965   6.642
 9986TIP3    H229902   6.412   1.055   6.755
 9987TIP3   OH229903   7.575   2.203   5.690
 9987TIP3    H129904   7.632   2.193   5.614
 9987TIP3    H229905   7.616   2.273   5.741
 9988TIP3   OH229906   1.002   6.007   0.126
 9988TIP3    H129907   0.909   5.985   0.116
 9988TIP3    H229908   1.021   5.989   0.217
 9989TIP3   OH229909   6.886   2.044   6.625
 9989TIP3    H129910   6.832   2.116   6.593
 9989TIP3    H229911   6.968   2.052   6.578
 9990TIP3   OH229912   7.279   2.273   6.749
 9990TIP3    H129913   7.313   2.279   6.838
 9990TIP3    H229914   7.343   2.322   6.696
 9991TIP3   OH229915   7.471   2.425   6.619
 9991TIP3    H129916   7.537   2.373   6.573
 9991TIP3    H229917   7.522   2.490   6.668
 9992TIP3   OH229918   6.544   2.279   6.669
 9992TIP3    H129919   6.453   2.295   6.643
 9992TIP3    H229920   6.563   2.348   6.732
 9993TIP3   OH229921   6.774   2.272   6.517
 9993TIP3    H129922   6.690   2.276   6.564
 9993TIP3    H229923   6.752   2.297   6.428
 9994TIP3   OH229924   7.186   2.290   6.306
 9994TIP3    H129925   7.115   2.302   6.244
 9994TIP3    H229926   7.198   2.377   6.346
 9995TIP3   OH229927   7.447   2.214   6.344
 9995TIP3    H129928   7.356   2.238   6.329
 9995TIP3    H229929   7.498   2.282   6.300
 9996TIP3   OH229930   7.646   2.392   6.251
 9996TIP3    H129931   7.649   2.481   6.216
 9996TIP3    H229932   7.679   2.338   6.180
 9997TIP3   OH229933   6.455   2.061   6.382
 9997TIP3    H129934   6.479   2.037   6.471
 9997TIP3    H229935   6.527   2.029   6.328
 9998TIP3   OH229936   6.658   1.948   6.242
 9998TIP3    H129937   6.670   1.865   6.289
 9998TIP3    H229938   6.744   1.990   6.246
 9999TIP3   OH229939   6.924   2.035   6.266
 9999TIP3    H129940   6.944   1.942   6.252
 9999TIP3    H229941   6.977   2.059   6.342
10000TIP3   OH229942   6.218   1.861   5.770
10000TIP3    H129943   6.134   1.829   5.737
10000TIP3    H229944   6.224   1.951   5.737
10001TIP3   OH229945   7.025   2.015   5.364
10001TIP3    H129946   7.108   2.043   5.327
10001TIP3    H229947   6.995   1.945   5.306
10002TIP3   OH229948   7.726   2.158   5.462
10002TIP3    H129949   7.720   2.063   5.453
10002TIP3    H229950   7.683   2.193   5.383
10003TIP3   OH229951   6.329   1.854   5.418
10003TIP3    H129952   6.331   1.870   5.513
10003TIP3    H229953   6.411   1.808   5.400
10004TIP3   OH229954   7.923   2.301   6.624
10004TIP3    H129955   7.850   2.271   6.569
10004TIP3    H229956   7.915   2.397   6.624
10005TIP3   OH229957  -0.004   1.970   5.908
10005TIP3    H129958   0.021   1.894   5.856
10005TIP3    H229959   0.071   1.985   5.966
10006TIP3   OH229960   8.215   1.219   5.740
10006TIP3    H129961   8.123   1.192   5.747
10006TIP3    H229962   8.238   1.204   5.649
10007TIP3   OH229963   8.282   1.465   5.835
10007TIP3    H129964   8.268   1.372   5.815
10007TIP3    H229965   8.336   1.497   5.763
10008TIP3   OH229966   8.082   1.730   5.377
10008TIP3    H129967   8.049   1.756   5.292
10008TIP3    H229968   8.104   1.812   5.421
10009TIP3   OH229969   8.277   1.818   6.322
10009TIP3    H129970   8.204   1.825   6.261
10009TIP3    H229971   8.254   1.744   6.378
10010TIP3   OH229972   8.127   2.027   5.981
10010TIP3    H129973   8.220   2.046   5.993
10010TIP3    H229974   8.083   2.108   6.010
10011TIP3   OH229975   8.302   2.228   5.514
10011TIP3    H129976   8.369   2.213   5.582
10011TIP3    H229977   8.271   2.140   5.492
10012TIP3   OH229978   8.265   1.161   5.476
10012TIP3    H129979   8.253   1.211   5.395
10012TIP3    H229980   8.208   1.085   5.465
10013TIP3   OH229981   8.197   1.304   5.252
10013TIP3    H129982   8.243   1.388   5.242
10013TIP3    H229983   8.111   1.329   5.288
10014TIP3   OH229984   8.316   2.244   6.101
10014TIP3    H129985   8.394   2.199   6.132
10014TIP3    H229986   8.322   2.332   6.139
10015TIP3   OH229987   8.279   1.567   5.256
10015TIP3    H129988   8.220   1.610   5.318
10015TIP3    H229989   8.298   1.634   5.191
10016TIP3   OH229990   8.306   1.786   5.083
10016TIP3    H129991   8.340   1.862   5.129
10016TIP3    H229992   8.349   1.788   4.998
10017TIP3   OH229993   8.060   1.112   5.115
10017TIP3    H129994   8.104   1.178   5.168
10017TIP3    H229995   8.080   1.029   5.158
10018TIP3   OH229996   8.128   1.989   5.474
10018TIP3    H129997   8.094   2.030   5.553
10018TIP3    H229998   8.084   2.034   5.402
10019TIP3   OH229999   8.311   2.517   6.545
10019TIP3    H130000   8.374   2.491   6.612
10019TIP3    H230001   8.264   2.436   6.523
10020TIP3   OH230002   8.030   1.732   5.092
10020TIP3    H130003   8.124   1.746   5.088
10020TIP3    H230004   8.017   1.642   5.062
10021TIP3   OH230005   7.936   2.309   5.552
10021TIP3    H130006   7.869   2.257   5.508
10021TIP3    H230007   7.981   2.246   5.609
10022TIP3   OH230008   8.069   2.128   5.715
10022TIP3    H130009   8.060   2.066   5.787
10022TIP3    H230010   8.128   2.195   5.749
10023TIP3   OH230011   8.254   1.589   6.078
10023TIP3    H130012   8.259   1.542   5.995
10023TIP3    H230013   8.341   1.626   6.090
10024TIP3   OH230014   8.316   2.513   6.174
10024TIP3    H130015   8.232   2.541   6.139
10024TIP3    H230016   8.340   2.581   6.237
10025TIP3   OH230017   0.045   2.471   6.019
10025TIP3    H130018  -0.029   2.488   6.077
10025TIP3    H230019   0.027   2.526   5.942
10026TIP3   OH230020   8.241   2.311   5.845
10026TIP3    H130021   8.266   2.293   5.936
10026TIP3    H230022   8.317   2.283   5.794
10027TIP3   OH230023   8.463   2.189   5.742
10027TIP3    H130024   8.464   2.107   5.791
10027TIP3    H230025   8.544   2.233   5.767
10028TIP3   OH230026   8.010   2.106   5.255
10028TIP3    H130027   7.925   2.081   5.219
10028TIP3    H230028   8.021   2.197   5.228
10029TIP3   OH230029   8.085   2.123   4.939
10029TIP3    H130030   8.057   2.184   5.007
10029TIP3    H230031   8.149   2.066   4.982
10030TIP3   OH230032   4.486   6.446   0.152
10030TIP3    H130033   4.469   6.539   0.137
10030TIP3    H230034   4.424   6.401   0.094
10031TIP3   OH230035   4.562   6.445   0.501
10031TIP3    H130036   4.627   6.386   0.540
10031TIP3    H230037   4.497   6.386   0.461
10032TIP3   OH230038   4.792   6.762   0.151
10032TIP3    H130039   4.787   6.694   0.218
10032TIP3    H230040   4.821   6.840   0.197
10033TIP3   OH230041   3.780   6.852   0.650
10033TIP3    H130042   3.706   6.823   0.703
10033TIP3    H230043   3.824   6.771   0.623
10034TIP3   OH230044   3.513   6.328   0.595
10034TIP3    H130045   3.500   6.233   0.586
10034TIP3    H230046   3.607   6.340   0.585
10035TIP3   OH230047   4.420   7.235   0.208
10035TIP3    H130048   4.471   7.176   0.152
10035TIP3    H230049   4.361   7.177   0.256
10036TIP3   OH230050   4.418   6.698   0.451
10036TIP3    H130051   4.466   6.623   0.487
10036TIP3    H230052   4.418   6.762   0.521
10037TIP3   OH230053   5.305   6.010   0.446
10037TIP3    H130054   5.346   6.006   0.532
10037TIP3    H230055   5.374   6.042   0.388
10038TIP3   OH230056   4.717   6.213   0.549
10038TIP3    H130057   4.729   6.139   0.609
10038TIP3    H230058   4.688   6.173   0.467
10039TIP3   OH230059   4.119   5.835   0.574
10039TIP3    H130060   4.053   5.893   0.612
10039TIP3    H230061   4.081   5.807   0.490
10040TIP3   OH230062   4.769   5.992   0.153
10040TIP3    H130063   4.837   5.994   0.220
10040TIP3    H230064   4.817   6.000   0.070
10041TIP3   OH230065   4.077   6.254   0.454
10041TIP3    H130066   4.123   6.272   0.372
10041TIP3    H230067   4.034   6.170   0.440
10042TIP3   OH230068   5.356   6.183   0.883
10042TIP3    H130069   5.305   6.229   0.816
10042TIP3    H230070   5.440   6.229   0.883
10043TIP3   OH230071   4.377   6.670   0.026
10043TIP3    H130072   4.351   6.654  -0.064
10043TIP3    H230073   4.344   6.758   0.046
10044TIP3   OH230074   4.988   5.995   0.315
10044TIP3    H130075   4.984   5.958   0.403
10044TIP3    H230076   5.062   6.055   0.317
10045TIP3   OH230077   3.406   6.539   0.080
10045TIP3    H130078   3.318   6.545   0.041
10045TIP3    H230079   3.441   6.627   0.073
10046TIP3   OH230080   4.831   7.006   0.277
10046TIP3    H130081   4.748   7.010   0.325
10046TIP3    H230082   4.845   7.095   0.245
10047TIP3   OH230083   4.949   5.843   0.815
10047TIP3    H130084   4.969   5.840   0.721
10047TIP3    H230085   5.021   5.893   0.853
10048TIP3   OH230086   4.529   7.062   0.023
10048TIP3    H130087   4.572   6.980  -0.001
10048TIP3    H230088   4.591   7.130  -0.004
10049TIP3   OH230089   1.820   2.831   6.870
10049TIP3    H130090   1.810   2.750   6.820
10049TIP3    H230091   1.872   2.806   6.947
10050TIP3   OH230092   5.085   6.927   0.635
10050TIP3    H130093   5.076   6.832   0.629
10050TIP3    H230094   5.000   6.962   0.610
10051TIP3   OH230095   1.496   2.316   6.901
10051TIP3    H130096   1.412   2.358   6.880
10051TIP3    H230097   1.546   2.320   6.819
10052TIP3   OH230098   1.468   2.106   6.628
10052TIP3    H130099   1.534   2.162   6.668
10052TIP3    H230100   1.518   2.041   6.579
10053TIP3   OH230101   5.211   6.533   0.485
10053TIP3    H130102   5.126   6.578   0.492
10053TIP3    H230103   5.262   6.589   0.425
10054TIP3   OH230104   1.847   2.397   6.887
10054TIP3    H130105   1.801   2.419   6.969
10054TIP3    H230106   1.933   2.369   6.915
10055TIP3   OH230107   4.880   6.486   0.939
10055TIP3    H130108   4.938   6.544   0.987
10055TIP3    H230109   4.877   6.523   0.851
10056TIP3   OH230110   3.893   6.425   0.351
10056TIP3    H130111   3.903   6.455   0.261
10056TIP3    H230112   3.976   6.383   0.373
10057TIP3   OH230113   4.014   6.686   0.620
10057TIP3    H130114   4.046   6.627   0.552
10057TIP3    H230115   4.068   6.764   0.612
10058TIP3   OH230116   3.989   6.294   0.775
10058TIP3    H130117   4.022   6.211   0.739
10058TIP3    H230118   4.030   6.299   0.862
10059TIP3   OH230119   4.607   7.053   0.432
10059TIP3    H130120   4.576   7.143   0.445
10059TIP3    H230121   4.668   7.038   0.505
10060TIP3   OH230122   1.685   2.268   6.706
10060TIP3    H130123   1.744   2.325   6.755
10060TIP3    H230124   1.718   2.271   6.616
10061TIP3   OH230125   4.277   6.934   0.033
10061TIP3    H130126   4.358   6.982   0.048
10061TIP3    H230127   4.224   6.993  -0.021
10062TIP3   OH230128   2.211   1.475   6.756
10062TIP3    H130129   2.137   1.500   6.810
10062TIP3    H230130   2.232   1.553   6.704
10063TIP3   OH230131   3.781   6.210   0.137
10063TIP3    H130132   3.731   6.285   0.104
10063TIP3    H230133   3.775   6.218   0.232
10064TIP3   OH230134   2.025   2.857   6.336
10064TIP3    H130135   2.019   2.951   6.316
10064TIP3    H230136   2.115   2.834   6.313
10065TIP3   OH230137   5.220   7.259   0.653
10065TIP3    H130138   5.274   7.184   0.680
10065TIP3    H230139   5.139   7.219   0.621
10066TIP3   OH230140   4.342   7.125   0.917
10066TIP3    H130141   4.343   7.205   0.970
10066TIP3    H230142   4.257   7.084   0.936
10067TIP3   OH230143   1.325   3.147   6.812
10067TIP3    H130144   1.283   3.126   6.728
10067TIP3    H230145   1.290   3.233   6.835
10068TIP3   OH230146   3.533   7.025   0.218
10068TIP3    H130147   3.597   7.006   0.287
10068TIP3    H230148   3.479   6.946   0.213
10069TIP3   OH230149   1.530   3.084   6.439
10069TIP3    H130150   1.581   3.012   6.403
10069TIP3    H230151   1.566   3.096   6.527
10070TIP3   OH230152   1.580   3.129   6.710
10070TIP3    H130153   1.492   3.132   6.748
10070TIP3    H230154   1.634   3.088   6.777
10071TIP3   OH230155   1.775   2.232   6.453
10071TIP3    H130156   1.726   2.237   6.371
10071TIP3    H230157   1.856   2.279   6.436
10072TIP3   OH230158   1.496   1.646   6.737
10072TIP3    H130159   1.470   1.638   6.829
10072TIP3    H230160   1.455   1.571   6.694
10073TIP3   OH230161   3.940   6.041   0.366
10073TIP3    H130162   3.926   5.950   0.392
10073TIP3    H230163   3.952   6.037   0.271
10074TIP3   OH230164   4.451   6.109   0.075
10074TIP3    H130165   4.403   6.183   0.039
10074TIP3    H230166   4.516   6.088   0.008
10075TIP3   OH230167   4.630   6.183   0.293
10075TIP3    H130168   4.567   6.226   0.235
10075TIP3    H230169   4.661   6.107   0.243
10076TIP3   OH230170   1.152   1.620   6.732
10076TIP3    H130171   1.134   1.602   6.824
10076TIP3    H230172   1.073   1.665   6.701
10077TIP3   OH230173   4.656   6.376   0.784
10077TIP3    H130174   4.743   6.342   0.764
10077TIP3    H230175   4.657   6.391   0.879
10078TIP3   OH230176   4.370   5.749   0.486
10078TIP3    H130177   4.291   5.766   0.536
10078TIP3    H230178   4.431   5.817   0.515
10079TIP3   OH230179   3.851   5.798   0.450
10079TIP3    H130180   3.771   5.850   0.442
10079TIP3    H230181   3.843   5.730   0.383
10080TIP3   OH230182   3.963   5.880   0.099
10080TIP3    H130183   4.030   5.949   0.097
10080TIP3    H230184   3.899   5.907   0.033
10081TIP3   OH230185   4.729   5.989   0.724
10081TIP3    H130186   4.800   5.969   0.785
10081TIP3    H230187   4.697   5.904   0.694
10082TIP3   OH230188   0.992   1.948   6.822
10082TIP3    H130189   0.961   1.882   6.760
10082TIP3    H230190   1.062   1.994   6.775
10083TIP3   OH230191   5.043   7.571   0.920
10083TIP3    H130192   4.979   7.583   0.849
10083TIP3    H230193   5.083   7.658   0.931
10084TIP3   OH230194   4.367   6.239   0.459
10084TIP3    H130195   4.346   6.215   0.369
10084TIP3    H230196   4.284   6.234   0.506
10085TIP3   OH230197   3.916   5.484   0.506
10085TIP3    H130198   3.822   5.469   0.491
10085TIP3    H230199   3.958   5.456   0.425
10086TIP3   OH230200   1.255   2.440   6.855
10086TIP3    H130201   1.176   2.390   6.838
10086TIP3    H230202   1.236   2.489   6.935
10087TIP3   OH230203   4.995   6.706   0.465
10087TIP3    H130204   5.031   6.770   0.403
10087TIP3    H230205   4.924   6.663   0.417
10088TIP3   OH230206   1.735   1.775   6.762
10088TIP3    H130207   1.642   1.752   6.755
10088TIP3    H230208   1.735   1.870   6.770
10089TIP3   OH230209   1.799   2.037   6.815
10089TIP3    H130210   1.894   2.035   6.820
10089TIP3    H230211   1.779   2.116   6.764
10090TIP3   OH230212   3.787   6.374   0.608
10090TIP3    H130213   3.821   6.396   0.522
10090TIP3    H230214   3.864   6.353   0.660
10091TIP3   OH230215   1.416   2.612   6.717
10091TIP3    H130216   1.370   2.696   6.716
10091TIP3    H230217   1.355   2.552   6.761
10092TIP3   OH230218   4.586   7.093   0.775
10092TIP3    H130219   4.531   7.129   0.845
10092TIP3    H230220   4.667   7.068   0.818
10093TIP3   OH230221   2.213   2.119   6.648
10093TIP3    H130222   2.154   2.076   6.586
10093TIP3    H230223   2.216   2.210   6.619
10094TIP3   OH230224   5.329   7.018   0.724
10094TIP3    H130225   5.236   6.997   0.736
10094TIP3    H230226   5.356   6.965   0.648
10095TIP3   OH230227   1.944   2.934   6.598
10095TIP3    H130228   1.912   2.869   6.661
10095TIP3    H230229   1.963   2.884   6.519
10096TIP3   OH230230   4.768   6.563   0.348
10096TIP3    H130231   4.688   6.526   0.386
10096TIP3    H230232   4.820   6.487   0.324
10097TIP3   OH230233   3.956   6.793   0.050
10097TIP3    H130234   3.989   6.882   0.046
10097TIP3    H230235   3.879   6.799   0.107
10098TIP3   OH230236   0.558   2.135   6.878
10098TIP3    H130237   0.628   2.200   6.884
10098TIP3    H230238   0.477   2.187   6.877
10099TIP3   OH230239   4.065   6.573   0.156
10099TIP3    H130240   4.035   6.655   0.117
10099TIP3    H230241   4.101   6.599   0.242
10100TIP3   OH230242   4.300   7.148   0.576
10100TIP3    H130243   4.294   7.240   0.549
10100TIP3    H230244   4.226   7.135   0.634
10101TIP3   OH230245   3.766   7.050   0.071
10101TIP3    H130246   3.681   7.070   0.111
10101TIP3    H230247   3.808   7.135   0.062
10102TIP3   OH230248   4.612   6.771   0.799
10102TIP3    H130249   4.545   6.703   0.789
10102TIP3    H230250   4.688   6.738   0.753
10103TIP3   OH230251   1.710   2.668   6.489
10103TIP3    H130252   1.752   2.647   6.573
10103TIP3    H230253   1.625   2.625   6.493
10104TIP3   OH230254   4.747   7.313   0.703
10104TIP3    H130255   4.686   7.239   0.697
10104TIP3    H230256   4.753   7.347   0.613
10105TIP3   OH230257   2.019   3.130   6.293
10105TIP3    H130258   2.034   3.188   6.218
10105TIP3    H230259   1.948   3.173   6.342
10106TIP3   OH230260   1.870   2.606   6.708
10106TIP3    H130261   1.859   2.535   6.771
10106TIP3    H230262   1.964   2.607   6.690
10107TIP3   OH230263   1.064   2.632   6.506
10107TIP3    H130264   1.073   2.540   6.480
10107TIP3    H230265   1.049   2.629   6.600
10108TIP3   OH230266   0.992   2.664   6.770
10108TIP3    H130267   1.042   2.653   6.851
10108TIP3    H230268   0.984   2.759   6.760
10109TIP3   OH230269   0.734   2.329   6.935
10109TIP3    H130270   0.679   2.396   6.975
10109TIP3    H230271   0.797   2.378   6.882
10110TIP3   OH230272   4.652   5.742   0.080
10110TIP3    H130273   4.622   5.760  -0.009
10110TIP3    H230274   4.676   5.828   0.114
10111TIP3   OH230275   1.265   2.838   6.715
10111TIP3    H130276   1.178   2.854   6.751
10111TIP3    H230277   1.281   2.913   6.657
10112TIP3   OH230278   4.277   5.879   0.059
10112TIP3    H130279   4.299   5.962   0.017
10112TIP3    H230280   4.291   5.894   0.152
10113TIP3   OH230281   4.458   5.630   0.245
10113TIP3    H130282   4.449   5.669   0.332
10113TIP3    H230283   4.524   5.685   0.201
10114TIP3   OH230284   1.000   2.937   6.765
10114TIP3    H130285   0.993   3.009   6.703
10114TIP3    H230286   0.972   2.974   6.849
10115TIP3   OH230287   3.983   5.609   0.069
10115TIP3    H130288   3.977   5.705   0.065
10115TIP3    H230289   4.076   5.590   0.063
10116TIP3   OH230290   4.875   6.313   0.291
10116TIP3    H130291   4.795   6.266   0.315
10116TIP3    H230292   4.944   6.269   0.340
10117TIP3   OH230293   0.751   2.537   6.732
10117TIP3    H130294   0.823   2.597   6.750
10117TIP3    H230295   0.790   2.468   6.679
10118TIP3   OH230296   0.691   1.790   6.796
10118TIP3    H130297   0.726   1.850   6.862
10118TIP3    H230298   0.673   1.709   6.845
10119TIP3   OH230299   4.845   7.282   0.244
10119TIP3    H130300   4.787   7.338   0.192
10119TIP3    H230301   4.933   7.312   0.224
10120TIP3   OH230302   3.374   6.802   0.219
10120TIP3    H130303   3.298   6.785   0.275
10120TIP3    H230304   3.337   6.816   0.132
10121TIP3   OH230305   1.211   2.838   6.398
10121TIP3    H130306   1.165   2.766   6.441
10121TIP3    H230307   1.287   2.796   6.356
10122TIP3   OH230308   1.657   2.876   6.316
10122TIP3    H130309   1.694   2.811   6.376
10122TIP3    H230310   1.712   2.870   6.238
10123TIP3   OH230311   0.883   2.327   6.617
10123TIP3    H130312   0.933   2.299   6.694
10123TIP3    H230313   0.949   2.341   6.549
10124TIP3   OH230314   1.461   2.547   6.455
10124TIP3    H130315   1.433   2.561   6.545
10124TIP3    H230316   1.439   2.455   6.437
10125TIP3   OH230317   4.866   6.783   0.948
10125TIP3    H130318   4.944   6.764   0.895
10125TIP3    H230319   4.794   6.743   0.899
10126TIP3   OH230320   1.051   2.260   6.826
10126TIP3    H130321   1.026   2.221   6.910
10126TIP3    H230322   1.105   2.193   6.784
10127TIP3   OH230323   1.194   2.076   6.682
10127TIP3    H130324   1.167   2.081   6.590
10127TIP3    H230325   1.290   2.081   6.679
10128TIP3   OH230326   1.990   2.371   6.351
10128TIP3    H130327   1.977   2.331   6.265
10128TIP3    H230328   1.966   2.463   6.339
10129TIP3   OH230329   1.023   3.150   6.599
10129TIP3    H130330   1.113   3.127   6.576
10129TIP3    H230331   0.987   3.190   6.520
10130TIP3   OH230332   0.479   2.520   6.698
10130TIP3    H130333   0.572   2.535   6.718
10130TIP3    H230334   0.472   2.425   6.691
10131TIP3   OH230335   3.167   7.098   0.125
10131TIP3    H130336   3.089   7.043   0.135
10131TIP3    H230337   3.211   7.093   0.210
10132TIP3   OH230338   3.234   7.007   0.655
10132TIP3    H130339   3.321   6.975   0.630
10132TIP3    H230340   3.205   7.057   0.579
10133TIP3   OH230341   5.089   7.390   0.216
10133TIP3    H130342   5.114   7.420   0.303
10133TIP3    H230343   5.166   7.406   0.162
10134TIP3   OH230344   5.102   7.442   0.486
10134TIP3    H130345   5.042   7.368   0.497
10134TIP3    H230346   5.181   7.416   0.534
10135TIP3   OH230347   2.148   2.591   6.678
10135TIP3    H130348   2.205   2.660   6.644
10135TIP3    H230349   2.199   2.549   6.747
10136TIP3   OH230350   2.297   2.440   6.855
10136TIP3    H130351   2.231   2.399   6.911
10136TIP3    H230352   2.358   2.482   6.916
10137TIP3   OH230353   5.153   6.858   0.305
10137TIP3    H130354   5.225   6.800   0.280
10137TIP3    H230355   5.170   6.939   0.258
10138TIP3   OH230356   4.975   7.200   0.511
10138TIP3    H130357   4.914   7.141   0.556
10138TIP3    H230358   4.975   7.170   0.420
10139TIP3   OH230359   2.198   2.363   6.528
10139TIP3    H130360   2.127   2.361   6.464
10139TIP3    H230361   2.181   2.441   6.580
10140TIP3   OH230362   2.049   2.004   6.464
10140TIP3    H130363   1.995   2.038   6.392
10140TIP3    H230364   2.048   1.909   6.453
10141TIP3   OH230365   4.923   6.295   0.027
10141TIP3    H130366   4.934   6.202   0.011
10141TIP3    H230367   4.912   6.302   0.122
10142TIP3   OH230368   5.159   6.825   0.920
10142TIP3    H130369   5.237   6.809   0.973
10142TIP3    H230370   5.149   6.920   0.921
10143TIP3   OH230371   5.347   6.447   1.022
10143TIP3    H130372   5.269   6.391   1.028
10143TIP3    H230373   5.417   6.395   1.063
10144TIP3   OH230374   2.024   1.731   6.434
10144TIP3    H130375   2.084   1.707   6.505
10144TIP3    H230376   1.938   1.700   6.464
10145TIP3   OH230377   2.093   2.013   6.872
10145TIP3    H130378   2.141   1.933   6.893
10145TIP3    H230379   2.138   2.050   6.796
10146TIP3   OH230380   5.099   6.228   0.427
10146TIP3    H130381   5.189   6.245   0.400
10146TIP3    H230382   5.107   6.161   0.495
10147TIP3   OH230383   5.199   6.326   0.695
10147TIP3    H130384   5.125   6.266   0.687
10147TIP3    H230385   5.204   6.370   0.610
10148TIP3   OH230386   5.047   5.774  -0.007
10148TIP3    H130387   5.069   5.751   0.084
10148TIP3    H230388   4.980   5.710  -0.032
10149TIP3   OH230389   2.250   1.689   6.592
10149TIP3    H130390   2.297   1.632   6.531
10149TIP3    H230391   2.303   1.769   6.595
10150TIP3   OH230392   1.842   3.262   6.865
10150TIP3    H130393   1.886   3.236   6.784
10150TIP3    H230394   1.885   3.344   6.891
10151TIP3   OH230395   3.874   6.984   0.866
10151TIP3    H130396   3.834   7.070   0.855
10151TIP3    H230397   3.852   6.937   0.785
10152TIP3   OH230398   4.635   7.531   0.837
10152TIP3    H130399   4.692   7.461   0.804
10152TIP3    H230400   4.677   7.560   0.918
10153TIP3   OH230401   3.807   7.217   0.736
10153TIP3    H130402   3.821   7.304   0.775
10153TIP3    H230403   3.750   7.234   0.661
10154TIP3   OH230404   4.275   7.405   0.456
10154TIP3    H130405   4.271   7.457   0.376
10154TIP3    H230406   4.284   7.470   0.526
10155TIP3   OH230407   4.538   7.310   0.489
10155TIP3    H130408   4.459   7.332   0.441
10155TIP3    H230409   4.604   7.371   0.456
10156TIP3   OH230410   4.752   7.467   0.434
10156TIP3    H130411   4.760   7.546   0.380
10156TIP3    H230412   4.794   7.398   0.381
10157TIP3   OH230413   3.508   7.193   0.726
10157TIP3    H130414   3.424   7.189   0.770
10157TIP3    H230415   3.507   7.121   0.663
10158TIP3   OH230416   3.736   6.944   0.396
10158TIP3    H130417   3.732   6.917   0.487
10158TIP3    H230418   3.824   6.918   0.367
10159TIP3   OH230419   4.033   7.096   0.397
10159TIP3    H130420   4.020   7.032   0.328
10159TIP3    H230421   4.077   7.047   0.467
10160TIP3   OH230422   4.656   5.720   0.664
10160TIP3    H130423   4.625   5.631   0.682
10160TIP3    H230424   4.672   5.721   0.570
10161TIP3   OH230425   5.149   5.634   0.438
10161TIP3    H130426   5.204   5.678   0.373
10161TIP3    H230427   5.153   5.691   0.515
10162TIP3   OH230428   5.265   5.748   0.223
10162TIP3    H130429   5.314   5.708   0.151
10162TIP3    H230430   5.269   5.842   0.205
10163TIP3   OH230431   4.210   5.535   0.402
10163TIP3    H130432   4.281   5.597   0.416
10163TIP3    H230433   4.179   5.513   0.490
10164TIP3   OH230434   4.722   5.626   0.417
10164TIP3    H130435   4.770   5.690   0.364
10164TIP3    H230436   4.787   5.587   0.475
10165TIP3   OH230437   2.009   1.575   6.905
10165TIP3    H130438   1.944   1.631   6.949
10165TIP3    H230439   1.991   1.487   6.939
10166TIP3   OH230440   0.460   2.841   6.904
10166TIP3    H130441   0.437   2.797   6.822
10166TIP3    H230442   0.464   2.934   6.882
10167TIP3   OH230443   4.255   5.614   0.064
10167TIP3    H130444   4.321   5.595   0.131
10167TIP3    H230445   4.256   5.709   0.056
10168TIP3   OH230446   1.275   3.060   6.542
10168TIP3    H130447   1.359   3.086   6.504
10168TIP3    H230448   1.243   2.991   6.484
10169TIP3   OH230449   1.974   3.200   6.633
10169TIP3    H130450   1.970   3.105   6.625
10169TIP3    H230451   1.931   3.233   6.554
10170TIP3   OH230452   0.585   2.904   6.611
10170TIP3    H130453   0.593   2.956   6.691
10170TIP3    H230454   0.669   2.859   6.602
10171TIP3   OH230455   4.985   7.310   0.831
10171TIP3    H130456   4.905   7.291   0.782
10171TIP3    H230457   5.000   7.403   0.817
10172TIP3   OH230458   3.468   2.721   6.564
10172TIP3    H130459   3.439   2.810   6.542
10172TIP3    H230460   3.395   2.665   6.541
10173TIP3   OH230461   6.288   6.728   0.029
10173TIP3    H130462   6.333   6.714   0.112
10173TIP3    H230463   6.248   6.644   0.008
10174TIP3   OH230464   5.609   6.571   0.319
10174TIP3    H130465   5.632   6.521   0.398
10174TIP3    H230466   5.693   6.601   0.285
10175TIP3   OH230467   3.734   3.031   6.669
10175TIP3    H130468   3.725   2.966   6.739
10175TIP3    H230469   3.755   3.112   6.714
10176TIP3   OH230470   5.574   7.011   0.088
10176TIP3    H130471   5.561   6.916   0.081
10176TIP3    H230472   5.669   7.022   0.090
10177TIP3   OH230473   2.447   2.210   6.789
10177TIP3    H130474   2.411   2.296   6.810
10177TIP3    H230475   2.373   2.163   6.750
10178TIP3   OH230476   5.349   6.549   0.053
10178TIP3    H130477   5.397   6.472   0.082
10178TIP3    H230478   5.416   6.612   0.028
10179TIP3   OH230479   3.389   3.475   6.637
10179TIP3    H130480   3.430   3.413   6.576
10179TIP3    H230481   3.390   3.429   6.721
10180TIP3   OH230482   6.113   6.954   0.038
10180TIP3    H130483   6.157   6.874   0.011
10180TIP3    H230484   6.183   7.012   0.067
10181TIP3   OH230485   7.149   6.282   0.060
10181TIP3    H130486   7.160   6.366   0.105
10181TIP3    H230487   7.174   6.300  -0.031
10182TIP3   OH230488   6.499   6.440   0.103
10182TIP3    H130489   6.536   6.355   0.128
10182TIP3    H230490   6.466   6.427   0.015
10183TIP3   OH230491   5.870   6.074   0.042
10183TIP3    H130492   5.855   6.151  -0.014
10183TIP3    H230493   5.814   6.006   0.006
10184TIP3   OH230494   3.732   2.189   6.626
10184TIP3    H130495   3.797   2.184   6.695
10184TIP3    H230496   3.780   2.225   6.551
10185TIP3   OH230497   5.486   6.334   0.147
10185TIP3    H130498   5.574   6.332   0.186
10185TIP3    H230499   5.489   6.269   0.077
10186TIP3   OH230500   3.088   2.502   6.909
10186TIP3    H130501   3.182   2.487   6.915
10186TIP3    H230502   3.051   2.417   6.887
10187TIP3   OH230503   7.185   6.494   0.244
10187TIP3    H130504   7.105   6.544   0.228
10187TIP3    H230505   7.228   6.539   0.316
10188TIP3   OH230506   5.865   6.135   0.451
10188TIP3    H130507   5.816   6.194   0.394
10188TIP3    H230508   5.848   6.167   0.540
10189TIP3   OH230509   3.366   2.943   6.432
10189TIP3    H130510   3.327   2.917   6.348
10189TIP3    H230511   3.320   3.024   6.456
10190TIP3   OH230512   5.986   6.865   0.264
10190TIP3    H130513   5.922   6.930   0.293
10190TIP3    H230514   6.030   6.907   0.191
10191TIP3   OH230515   3.902   2.213   6.838
10191TIP3    H130516   3.852   2.190   6.916
10191TIP3    H230517   3.955   2.288   6.864
10192TIP3   OH230518   5.735   6.237   0.224
10192TIP3    H130519   5.797   6.309   0.240
10192TIP3    H230520   5.783   6.177   0.168
10193TIP3   OH230521   5.793   7.062   0.315
10193TIP3    H130522   5.768   7.151   0.292
10193TIP3    H230523   5.716   7.026   0.360
10194TIP3   OH230524   2.328   2.771   6.563
10194TIP3    H130525   2.298   2.790   6.474
10194TIP3    H230526   2.351   2.857   6.599
10195TIP3   OH230527   3.768   3.286   6.796
10195TIP3    H130528   3.682   3.279   6.837
10195TIP3    H230529   3.766   3.370   6.750
10196TIP3   OH230530   6.944   6.172   0.215
10196TIP3    H130531   6.864   6.223   0.203
10196TIP3    H230532   7.003   6.205   0.148
10197TIP3   OH230533   6.218   5.794   0.180
10197TIP3    H130534   6.201   5.700   0.188
10197TIP3    H230535   6.190   5.831   0.264
10198TIP3   OH230536   3.509   3.326   6.432
10198TIP3    H130537   3.549   3.239   6.430
10198TIP3    H230538   3.581   3.387   6.415
10199TIP3   OH230539   3.613   3.077   6.426
10199TIP3    H130540   3.540   3.015   6.426
10199TIP3    H230541   3.664   3.054   6.504
10200TIP3   OH230542   6.857   7.172   0.221
10200TIP3    H130543   6.823   7.092   0.180
10200TIP3    H230544   6.827   7.243   0.165
10201TIP3   OH230545   3.293   2.560   6.416
10201TIP3    H130546   3.211   2.606   6.398
10201TIP3    H230547   3.342   2.565   6.334
10202TIP3   OH230548   3.261   2.372   6.110
10202TIP3    H130549   3.326   2.420   6.162
10202TIP3    H230550   3.312   2.305   6.064
10203TIP3   OH230551   7.022   6.827   0.064
10203TIP3    H130552   6.940   6.876   0.073
10203TIP3    H230553   7.052   6.848  -0.025
10204TIP3   OH230554   3.655   2.649   6.379
10204TIP3    H130555   3.600   2.678   6.451
10204TIP3    H230556   3.739   2.627   6.420
10205TIP3   OH230557   2.881   2.633   6.779
10205TIP3    H130558   2.846   2.572   6.714
10205TIP3    H230559   2.957   2.588   6.816
10206TIP3   OH230560   3.014   3.055   6.925
10206TIP3    H130561   2.994   3.040   6.832
10206TIP3    H230562   3.102   3.019   6.936
10207TIP3   OH230563   5.831   6.653   0.188
10207TIP3    H130564   5.871   6.622   0.107
10207TIP3    H230565   5.885   6.728   0.214
10208TIP3   OH230566   6.366   7.285  -0.008
10208TIP3    H130567   6.360   7.362   0.049
10208TIP3    H230568   6.357   7.210   0.050
10209TIP3   OH230569   5.977   7.189   0.474
10209TIP3    H130570   5.914   7.239   0.527
10209TIP3    H230571   5.923   7.130   0.421
10210TIP3   OH230572   3.485   2.512   6.209
10210TIP3    H130573   3.545   2.570   6.256
10210TIP3    H230574   3.514   2.518   6.118
10211TIP3   OH230575   5.755   6.769   0.490
10211TIP3    H130576   5.736   6.863   0.498
10211TIP3    H230577   5.669   6.727   0.487
10212TIP3   OH230578   3.254   3.196   6.464
10212TIP3    H130579   3.334   3.249   6.462
10212TIP3    H230580   3.187   3.252   6.424
10213TIP3   OH230581   5.771   7.335   0.579
10213TIP3    H130582   5.757   7.343   0.485
10213TIP3    H230583   5.693   7.291   0.611
10214TIP3   OH230584   3.995   1.740   6.269
10214TIP3    H130585   3.919   1.762   6.323
10214TIP3    H230586   4.007   1.817   6.213
10215TIP3   OH230587   2.755   2.474   6.581
10215TIP3    H130588   2.678   2.524   6.552
10215TIP3    H230589   2.720   2.387   6.603
10216TIP3   OH230590   3.811   3.124   5.815
10216TIP3    H130591   3.804   3.219   5.805
10216TIP3    H230592   3.902   3.104   5.793
10217TIP3   OH230593   5.350   6.854   0.511
10217TIP3    H130594   5.262   6.871   0.477
10217TIP3    H230595   5.376   6.771   0.470
10218TIP3   OH230596   5.273   7.076   0.186
10218TIP3    H130597   5.360   7.051   0.155
10218TIP3    H230598   5.289   7.150   0.244
10219TIP3   OH230599   7.078   7.539   0.268
10219TIP3    H130600   7.083   7.444   0.277
10219TIP3    H230601   6.996   7.564   0.311
10220TIP3   OH230602   6.189   7.324   0.377
10220TIP3    H130603   6.176   7.412   0.412
10220TIP3    H230604   6.116   7.273   0.413
10221TIP3   OH230605   3.117   3.407   6.304
10221TIP3    H130606   3.078   3.392   6.218
10221TIP3    H230607   3.086   3.494   6.330
10222TIP3   OH230608   2.553   3.264   6.669
10222TIP3    H130609   2.602   3.253   6.750
10222TIP3    H230610   2.505   3.181   6.659
10223TIP3   OH230611   3.321   3.335   5.920
10223TIP3    H130612   3.374   3.264   5.884
10223TIP3    H230613   3.352   3.344   6.010
10224TIP3   OH230614   3.360   3.339   6.190
10224TIP3    H130615   3.280   3.365   6.236
10224TIP3    H230616   3.425   3.328   6.259
10225TIP3   OH230617   6.979   6.674   0.527
10225TIP3    H130618   6.896   6.693   0.485
10225TIP3    H230619   6.988   6.579   0.519
10226TIP3   OH230620   5.580   6.990   0.464
10226TIP3    H130621   5.559   7.076   0.500
10226TIP3    H230622   5.500   6.939   0.476
10227TIP3   OH230623   5.939   5.883   0.318
10227TIP3    H130624   5.888   5.904   0.239
10227TIP3    H230625   5.972   5.967   0.349
10228TIP3   OH230626   6.467   5.937   0.504
10228TIP3    H130627   6.551   5.930   0.550
10228TIP3    H230628   6.440   6.028   0.517
10229TIP3   OH230629   6.733   6.414   0.405
10229TIP3    H130630   6.677   6.416   0.482
10229TIP3    H230631   6.731   6.503   0.371
10230TIP3   OH230632   3.562   2.482   5.942
10230TIP3    H130633   3.520   2.489   5.856
10230TIP3    H230634   3.643   2.531   5.934
10231TIP3   OH230635   3.269   1.916   6.263
10231TIP3    H130636   3.235   1.923   6.353
10231TIP3    H230637   3.235   1.833   6.231
10232TIP3   OH230638   5.917   6.421   0.311
10232TIP3    H130639   5.872   6.421   0.395
10232TIP3    H230640   5.901   6.509   0.276
10233TIP3   OH230641   2.945   2.276   6.830
10233TIP3    H130642   2.855   2.255   6.856
10233TIP3    H230643   2.951   2.245   6.739
10234TIP3   OH230644   3.422   2.359   6.553
10234TIP3    H130645   3.375   2.431   6.513
10234TIP3    H230646   3.481   2.328   6.485
10235TIP3   OH230647   6.455   6.695   0.600
10235TIP3    H130648   6.494   6.645   0.672
10235TIP3    H230649   6.524   6.699   0.533
10236TIP3   OH230650   3.584   2.376   6.782
10236TIP3    H130651   3.522   2.397   6.713
10236TIP3    H230652   3.633   2.301   6.749
10237TIP3   OH230653   5.721   6.392   0.504
10237TIP3    H130654   5.761   6.415   0.588
10237TIP3    H230655   5.643   6.341   0.528
10238TIP3   OH230656   2.935   1.891   6.243
10238TIP3    H130657   2.928   1.900   6.338
10238TIP3    H230658   2.859   1.939   6.209
10239TIP3   OH230659   5.309   5.994   0.124
10239TIP3    H130660   5.386   6.033   0.165
10239TIP3    H230661   5.340   5.966   0.037
10240TIP3   OH230662   2.397   1.922   6.591
10240TIP3    H130663   2.442   1.956   6.514
10240TIP3    H230664   2.336   1.991   6.615
10241TIP3   OH230665   6.422   6.654   0.260
10241TIP3    H130666   6.454   6.577   0.213
10241TIP3    H230667   6.500   6.691   0.302
10242TIP3   OH230668   3.301   2.071   6.868
10242TIP3    H130669   3.226   2.067   6.928
10242TIP3    H230670   3.377   2.069   6.926
10243TIP3   OH230671   2.701   2.153   6.880
10243TIP3    H130672   2.615   2.158   6.838
10243TIP3    H230673   2.735   2.067   6.855
10244TIP3   OH230674   2.954   2.160   6.581
10244TIP3    H130675   3.048   2.175   6.572
10244TIP3    H230676   2.918   2.180   6.494
10245TIP3   OH230677   6.578   6.172   0.118
10245TIP3    H130678   6.581   6.166   0.213
10245TIP3    H230679   6.503   6.117   0.093
10246TIP3   OH230680   2.840   2.181   6.333
10246TIP3    H130681   2.776   2.135   6.279
10246TIP3    H230682   2.894   2.230   6.270
10247TIP3   OH230683   6.783   7.883   0.360
10247TIP3    H130684   6.780   7.895   0.265
10247TIP3    H230685   6.862   7.931   0.387
10248TIP3   OH230686   5.818   6.986   0.675
10248TIP3    H130687   5.877   6.984   0.750
10248TIP3    H230688   5.740   7.032   0.707
10249TIP3   OH230689   6.191   6.457   0.010
10249TIP3    H130690   6.263   6.417  -0.040
10249TIP3    H230691   6.196   6.416   0.096
10250TIP3   OH230692   2.850   1.918   6.827
10250TIP3    H130693   2.820   1.834   6.864
10250TIP3    H230694   2.877   1.896   6.738
10251TIP3   OH230695   6.179   6.350   0.266
10251TIP3    H130696   6.089   6.379   0.281
10251TIP3    H230697   6.231   6.394   0.332
10252TIP3   OH230698   3.058   2.698   6.360
10252TIP3    H130699   2.982   2.646   6.336
10252TIP3    H230700   3.033   2.741   6.442
10253TIP3   OH230701   6.786   6.967   0.038
10253TIP3    H130702   6.820   7.022  -0.033
10253TIP3    H230703   6.705   6.930   0.003
10254TIP3   OH230704   3.524   2.019   6.266
10254TIP3    H130705   3.430   1.999   6.263
10254TIP3    H230706   3.528   2.113   6.279
10255TIP3   OH230707   6.321   7.068   0.416
10255TIP3    H130708   6.362   7.046   0.500
10255TIP3    H230709   6.291   7.158   0.428
10256TIP3   OH230710   3.585   2.282   6.336
10256TIP3    H130711   3.680   2.287   6.349
10256TIP3    H230712   3.563   2.361   6.287
10257TIP3   OH230713   5.572   6.731   0.055
10257TIP3    H130714   5.618   6.710  -0.026
10257TIP3    H230715   5.631   6.700   0.125
10258TIP3   OH230716   3.214   2.861   6.205
10258TIP3    H130717   3.167   2.944   6.204
10258TIP3    H230718   3.158   2.803   6.258
10259TIP3   OH230719   5.535   6.634   0.596
10259TIP3    H130720   5.570   6.690   0.666
10259TIP3    H230721   5.466   6.584   0.638
10260TIP3   OH230722   6.202   6.817   0.621
10260TIP3    H130723   6.143   6.742   0.619
10260TIP3    H230724   6.288   6.781   0.603
10261TIP3   OH230725   6.446   7.368   0.288
10261TIP3    H130726   6.356   7.340   0.301
10261TIP3    H230727   6.474   7.400   0.374
10262TIP3   OH230728   4.000   2.370   6.157
10262TIP3    H130729   3.944   2.324   6.095
10262TIP3    H230730   4.006   2.460   6.124
10263TIP3   OH230731   7.102   7.263   0.294
10263TIP3    H130732   7.011   7.234   0.300
10263TIP3    H230733   7.133   7.227   0.211
10264TIP3   OH230734   3.732   3.176   6.087
10264TIP3    H130735   3.700   3.103   6.141
10264TIP3    H230736   3.747   3.136   6.001
10265TIP3   OH230737   3.718   2.828   6.868
10265TIP3    H130738   3.627   2.807   6.888
10265TIP3    H230739   3.755   2.746   6.834
10266TIP3   OH230740   2.878   3.059   6.676
10266TIP3    H130741   2.877   3.135   6.619
10266TIP3    H230742   2.787   3.050   6.705
10267TIP3   OH230743   2.438   2.348   6.393
10267TIP3    H130744   2.482   2.431   6.414
10267TIP3    H230745   2.357   2.351   6.444
10268TIP3   OH230746   2.962   2.814   6.583
10268TIP3    H130747   2.946   2.903   6.613
10268TIP3    H230748   2.937   2.759   6.658
10269TIP3   OH230749   5.995   7.394   0.182
10269TIP3    H130750   6.029   7.468   0.132
10269TIP3    H230751   6.070   7.360   0.230
10270TIP3   OH230752   2.790   3.281   6.528
10270TIP3    H130753   2.702   3.288   6.564
10270TIP3    H230754   2.826   3.370   6.532
10271TIP3   OH230755   6.350   7.052   0.147
10271TIP3    H130756   6.339   7.055   0.242
10271TIP3    H230757   6.429   6.999   0.134
10272TIP3   OH230758   3.504   2.924   5.979
10272TIP3    H130759   3.555   2.896   6.055
10272TIP3    H230760   3.417   2.886   5.993
10273TIP3   OH230761   6.609   7.565   0.192
10273TIP3    H130762   6.540   7.501   0.212
10273TIP3    H230763   6.573   7.616   0.119
10274TIP3   OH230764   3.804   3.405   5.805
10274TIP3    H130765   3.845   3.476   5.756
10274TIP3    H230766   3.740   3.448   5.862
10275TIP3   OH230767   5.749   6.133   0.700
10275TIP3    H130768   5.667   6.179   0.679
10275TIP3    H230769   5.746   6.122   0.795
10276TIP3   OH230770   3.679   2.837   6.171
10276TIP3    H130771   3.664   2.785   6.250
10276TIP3    H230772   3.774   2.845   6.166
10277TIP3   OH230773   5.382   7.287   0.331
10277TIP3    H130774   5.426   7.243   0.404
10277TIP3    H230775   5.399   7.380   0.345
10278TIP3   OH230776   2.858   2.889   5.990
10278TIP3    H130777   2.869   2.797   5.965
10278TIP3    H230778   2.841   2.886   6.084
10279TIP3   OH230779   2.798   2.904   6.262
10279TIP3    H130780   2.866   2.880   6.324
10279TIP3    H230781   2.795   3.000   6.265
10280TIP3   OH230782   2.530   2.598   6.475
10280TIP3    H130783   2.465   2.646   6.526
10280TIP3    H230784   2.551   2.657   6.401
10281TIP3   OH230785   6.578   6.190   0.386
10281TIP3    H130786   6.639   6.264   0.392
10281TIP3    H230787   6.521   6.199   0.462
10282TIP3   OH230788   3.588   1.969   6.534
10282TIP3    H130789   3.567   1.991   6.443
10282TIP3    H230790   3.629   2.049   6.568
10283TIP3   OH230791   3.068   3.089   6.206
10283TIP3    H130792   2.982   3.117   6.237
10283TIP3    H230793   3.103   3.164   6.159
10284TIP3   OH230794   3.232   2.171   6.620
10284TIP3    H130795   3.295   2.239   6.596
10284TIP3    H230796   3.254   2.148   6.710
10285TIP3   OH230797   6.305   6.437   0.501
10285TIP3    H130798   6.270   6.523   0.525
10285TIP3    H230799   6.400   6.448   0.501
10286TIP3   OH230800   3.399   1.863   6.705
10286TIP3    H130801   3.377   1.938   6.760
10286TIP3    H230802   3.470   1.894   6.649
10287TIP3   OH230803   2.815   3.176   6.275
10287TIP3    H130804   2.796   3.247   6.214
10287TIP3    H230805   2.805   3.216   6.362
10288TIP3   OH230806   2.911   1.889   6.526
10288TIP3    H130807   2.901   1.982   6.547
10288TIP3    H230808   3.005   1.873   6.529
10289TIP3   OH230809   7.001   6.401   0.459
10289TIP3    H130810   6.906   6.389   0.448
10289TIP3    H230811   7.035   6.401   0.369
10290TIP3   OH230812   3.812   2.564   6.784
10290TIP3    H130813   3.734   2.510   6.797
10290TIP3    H230814   3.878   2.526   6.842
10291TIP3   OH230815   2.553   2.772   6.256
10291TIP3    H130816   2.623   2.836   6.265
10291TIP3    H230817   2.585   2.710   6.191
10292TIP3   OH230818   2.460   2.071   6.371
10292TIP3    H130819   2.477   2.163   6.390
10292TIP3    H230820   2.400   2.073   6.296
10293TIP3   OH230821   3.782   3.553   6.698
10293TIP3    H130822   3.746   3.594   6.619
10293TIP3    H230823   3.877   3.560   6.687
10294TIP3   OH230824   5.671   5.841   0.208
10294TIP3    H130825   5.650   5.796   0.127
10294TIP3    H230826   5.690   5.771   0.270
10295TIP3   OH230827   2.379   3.039   6.646
10295TIP3    H130828   2.339   3.077   6.724
10295TIP3    H230829   2.336   3.082   6.573
10296TIP3   OH230830   5.485   7.492   0.633
10296TIP3    H130831   5.566   7.516   0.678
10296TIP3    H230832   5.417   7.497   0.700
10297TIP3   OH230833   5.908   7.544   0.690
10297TIP3    H130834   5.918   7.486   0.766
10297TIP3    H230835   5.867   7.490   0.623
10298TIP3   OH230836   3.009   3.095   5.884
10298TIP3    H130837   2.964   3.022   5.927
10298TIP3    H230838   3.085   3.055   5.841
10299TIP3   OH230839   6.505   7.483   0.532
10299TIP3    H130840   6.499   7.399   0.576
10299TIP3    H230841   6.590   7.518   0.559
10300TIP3   OH230842   3.454   3.127   5.799
10300TIP3    H130843   3.489   3.065   5.864
10300TIP3    H230844   3.515   3.122   5.726
10301TIP3   OH230845   5.427   6.984   1.011
10301TIP3    H130846   5.457   6.906   0.965
10301TIP3    H230847   5.379   7.033   0.945
10302TIP3   OH230848   2.675   2.580   6.104
10302TIP3    H130849   2.726   2.558   6.182
10302TIP3    H230850   2.740   2.596   6.037
10303TIP3   OH230851   6.132   7.077   0.659
10303TIP3    H130852   6.078   7.110   0.587
10303TIP3    H230853   6.158   6.989   0.631
10304TIP3   OH230854   3.242   2.805   5.938
10304TIP3    H130855   3.221   2.817   6.031
10304TIP3    H230856   3.220   2.713   5.921
10305TIP3   OH230857   5.611   6.581   0.946
10305TIP3    H130858   5.670   6.624   0.884
10305TIP3    H230859   5.622   6.630   1.027
10306TIP3   OH230860   2.847   2.523   6.316
10306TIP3    H130861   2.828   2.494   6.406
10306TIP3    H230862   2.897   2.451   6.278
10307TIP3   OH230863   5.969   6.615   0.546
10307TIP3    H130864   5.899   6.676   0.522
10307TIP3    H230865   6.036   6.627   0.478
10308TIP3   OH230866   2.990   2.337   6.165
10308TIP3    H130867   2.960   2.343   6.074
10308TIP3    H230868   3.085   2.347   6.160
10309TIP3   OH230869   6.472   6.983   0.647
10309TIP3    H130870   6.481   6.903   0.596
10309TIP3    H230871   6.509   6.961   0.733
10310TIP3   OH230872   3.780   2.623   5.848
10310TIP3    H130873   3.769   2.586   5.760
10310TIP3    H230874   3.759   2.716   5.837
10311TIP3   OH230875   6.045   6.356   0.598
10311TIP3    H130876   6.132   6.366   0.560
10311TIP3    H230877   6.008   6.445   0.598
10312TIP3   OH230878   6.138   6.126   0.429
10312TIP3    H130879   6.167   6.188   0.363
10312TIP3    H230880   6.046   6.150   0.445
10313TIP3   OH230881   6.159   6.662   0.358
10313TIP3    H130882   6.249   6.669   0.327
10313TIP3    H230883   6.117   6.743   0.327
10314TIP3   OH230884   6.802   6.717   0.769
10314TIP3    H130885   6.895   6.727   0.790
10314TIP3    H230886   6.800   6.718   0.673
10315TIP3   OH230887   5.979   6.533   0.930
10315TIP3    H130888   5.968   6.459   0.989
10315TIP3    H230889   5.905   6.527   0.870
10316TIP3   OH230890   6.194   6.018   0.683
10316TIP3    H130891   6.154   6.035   0.597
10316TIP3    H230892   6.177   5.925   0.699
10317TIP3   OH230893   6.375   6.379   0.818
10317TIP3    H130894   6.431   6.420   0.883
10317TIP3    H230895   6.315   6.449   0.791
10318TIP3   OH230896   6.561   6.405   0.612
10318TIP3    H130897   6.488   6.398   0.674
10318TIP3    H230898   6.637   6.375   0.660
10319TIP3   OH230899   7.001   6.265   0.870
10319TIP3    H130900   6.939   6.235   0.804
10319TIP3    H230901   6.948   6.318   0.930
10320TIP3   OH230902   5.858   6.308   1.045
10320TIP3    H130903   5.856   6.213   1.039
10320TIP3    H230904   5.870   6.327   1.138
10321TIP3   OH230905   6.286   5.963   0.933
10321TIP3    H130906   6.279   5.871   0.906
10321TIP3    H230907   6.235   6.011   0.867
10322TIP3   OH230908   6.391   6.165   1.071
10322TIP3    H130909   6.363   6.103   1.003
10322TIP3    H230910   6.324   6.233   1.070
10323TIP3   OH230911   2.808   3.383   6.093
10323TIP3    H130912   2.900   3.367   6.070
10323TIP3    H230913   2.773   3.429   6.017
10324TIP3   OH230914   2.279   2.767   6.274
10324TIP3    H130915   2.374   2.779   6.269
10324TIP3    H230916   2.264   2.681   6.234
10325TIP3   OH230917   2.180   3.352   6.726
10325TIP3    H130918   2.116   3.299   6.679
10325TIP3    H230919   2.225   3.290   6.783
10326TIP3   OH230920   2.325   3.183   6.888
10326TIP3    H130921   2.323   3.119   6.960
10326TIP3    H230922   2.377   3.255   6.922
10327TIP3   OH230923   4.058   3.586   6.707
10327TIP3    H130924   4.078   3.611   6.797
10327TIP3    H230925   4.116   3.641   6.654
10328TIP3   OH230926   6.917   7.620   0.045
10328TIP3    H130927   6.868   7.538   0.043
10328TIP3    H230928   6.988   7.603   0.108
10329TIP3   OH230929   6.982   7.322   0.608
10329TIP3    H130930   6.905   7.335   0.664
10329TIP3    H230931   7.027   7.407   0.608
10330TIP3   OH230932   3.959   2.834   6.172
10330TIP3    H130933   4.013   2.907   6.143
10330TIP3    H230934   4.005   2.797   6.247
10331TIP3   OH230935   4.089   2.691   6.373
10331TIP3    H130936   4.021   2.658   6.433
10331TIP3    H230937   4.154   2.731   6.431
10332TIP3   OH230938   4.132   3.099   6.812
10332TIP3    H130939   4.182   3.032   6.767
10332TIP3    H230940   4.133   3.174   6.753
10333TIP3   OH230941   6.772   7.383   0.057
10333TIP3    H130942   6.705   7.429   0.107
10333TIP3    H230943   6.725   7.342  -0.015
10334TIP3   OH230944   3.995   2.608   6.019
10334TIP3    H130945   3.921   2.608   5.958
10334TIP3    H230946   3.981   2.687   6.072
10335TIP3   OH230947   3.848   2.256   5.960
10335TIP3    H130948   3.800   2.296   5.887
10335TIP3    H230949   3.841   2.162   5.945
10336TIP3   OH230950   3.883   2.558   6.515
10336TIP3    H130951   3.888   2.463   6.503
10336TIP3    H230952   3.863   2.569   6.608
10337TIP3   OH230953   5.358   6.665   0.299
10337TIP3    H130954   5.338   6.634   0.211
10337TIP3    H230955   5.450   6.642   0.312
10338TIP3   OH230956   7.194   6.815   0.441
10338TIP3    H130957   7.110   6.779   0.466
10338TIP3    H230958   7.257   6.746   0.460
10339TIP3   OH230959   3.811   1.983   5.926
10339TIP3    H130960   3.873   1.961   5.996
10339TIP3    H230961   3.727   1.949   5.958
10340TIP3   OH230962   3.873   2.277   6.396
10340TIP3    H130963   3.920   2.195   6.408
10340TIP3    H230964   3.916   2.318   6.321
10341TIP3   OH230965   6.862   6.452  -0.010
10341TIP3    H130966   6.944   6.470  -0.056
10341TIP3    H230967   6.870   6.499   0.072
10342TIP3   OH230968   6.931   6.615   0.210
10342TIP3    H130969   6.859   6.649   0.264
10342TIP3    H230970   6.962   6.690   0.161
10343TIP3   OH230971   5.593   6.302   0.901
10343TIP3    H130972   5.608   6.374   0.962
10343TIP3    H230973   5.630   6.225   0.944
10344TIP3   OH230974   7.395   6.157   0.724
10344TIP3    H130975   7.460   6.110   0.672
10344TIP3    H230976   7.364   6.227   0.667
10345TIP3   OH230977   3.993   2.028   6.445
10345TIP3    H130978   4.038   2.015   6.528
10345TIP3    H230979   3.930   1.957   6.440
10346TIP3   OH230980   5.529   6.057   0.288
10346TIP3    H130981   5.581   5.980   0.266
10346TIP3    H230982   5.588   6.131   0.277
10347TIP3   OH230983   5.355   6.319   0.390
10347TIP3    H130984   5.396   6.328   0.304
10347TIP3    H230985   5.320   6.406   0.409
10348TIP3   OH230986   7.260   6.324   0.554
10348TIP3    H130987   7.191   6.373   0.598
10348TIP3    H230988   7.215   6.274   0.486
10349TIP3   OH230989   4.036   1.941   6.086
10349TIP3    H130990   4.085   1.881   6.030
10349TIP3    H230991   4.090   2.020   6.090
10350TIP3   OH230992   2.478   1.816   6.828
10350TIP3    H130993   2.393   1.791   6.864
10350TIP3    H230994   2.459   1.858   6.745
10351TIP3   OH230995   5.432   5.992   0.697
10351TIP3    H130996   5.403   6.024   0.782
10351TIP3    H230997   5.506   5.934   0.717
10352TIP3   OH230998   5.618   7.369   0.869
10352TIP3    H130999   5.591   7.278   0.857
10352TIP3    H231000   5.563   7.402   0.940
10353TIP3   OH231001   5.758   7.341   0.309
10353TIP3    H131002   5.711   7.420   0.281
10353TIP3    H231003   5.847   7.352   0.274
10354TIP3   OH231004   6.157   7.585   0.460
10354TIP3    H131005   6.190   7.585   0.549
10354TIP3    H231006   6.221   7.636   0.410
10355TIP3   OH231007   6.351   7.735   0.339
10355TIP3    H131008   6.408   7.675   0.290
10355TIP3    H231009   6.412   7.788   0.391
10356TIP3   OH231010   7.147   6.103   0.396
10356TIP3    H131011   7.068   6.123   0.345
10356TIP3    H231012   7.163   6.010   0.380
10357TIP3   OH231013   5.421   7.552   0.367
10357TIP3    H131014   5.352   7.614   0.347
10357TIP3    H231015   5.432   7.558   0.462
10358TIP3   OH231016   5.655   7.580   0.228
10358TIP3    H131017   5.572   7.580   0.277
10358TIP3    H231018   5.630   7.607   0.139
10359TIP3   OH231019   6.067   7.605   0.017
10359TIP3    H131020   5.991   7.612  -0.040
10359TIP3    H231021   6.076   7.691   0.058
10360TIP3   OH231022   6.334   7.556   0.072
10360TIP3    H131023   6.243   7.569   0.046
10360TIP3    H231024   6.383   7.621   0.022
10361TIP3   OH231025   3.707   3.714   6.909
10361TIP3    H131026   3.700   3.802   6.871
10361TIP3    H231027   3.731   3.658   6.835
10362TIP3   OH231028   5.332   7.376   0.075
10362TIP3    H131029   5.351   7.349   0.165
10362TIP3    H231030   5.406   7.343   0.024
10363TIP3   OH231031   2.707   3.243   6.896
10363TIP3    H131032   2.717   3.160   6.944
10363TIP3    H231033   2.793   3.284   6.902
10364TIP3   OH231034   5.804   7.336  -0.011
10364TIP3    H131035   5.824   7.243  -0.024
10364TIP3    H231036   5.862   7.364   0.059
10365TIP3   OH231037   6.368   5.997   0.053
10365TIP3    H131038   6.325   5.925   0.099
10365TIP3    H231039   6.437   5.956   0.001
10366TIP3   OH231040   4.028   1.896   6.895
10366TIP3    H131041   4.069   1.947   6.825
10366TIP3    H231042   3.938   1.928   6.899
10367TIP3   OH231043   4.152   1.975   6.664
10367TIP3    H131044   4.221   1.914   6.638
10367TIP3    H231045   4.190   2.061   6.653
10368TIP3   OH231046   5.610   5.684  -0.005
10368TIP3    H131047   5.518   5.656  -0.006
10368TIP3    H231048   5.658   5.605   0.020
10369TIP3   OH231049   2.580   1.586   6.664
10369TIP3    H131050   2.613   1.635   6.589
10369TIP3    H231051   2.557   1.654   6.728
10370TIP3   OH231052   3.235   1.729   6.891
10370TIP3    H131053   3.284   1.771   6.820
10370TIP3    H231054   3.277   1.762   6.971
10371TIP3   OH231055   3.744   1.878   6.854
10371TIP3    H131056   3.764   1.846   6.766
10371TIP3    H231057   3.749   1.800   6.910
10372TIP3   OH231058   3.807   1.818   6.454
10372TIP3    H131059   3.727   1.866   6.477
10372TIP3    H231060   3.794   1.731   6.492
10373TIP3   OH231061   2.260   3.164   6.433
10373TIP3    H131062   2.178   3.132   6.396
10373TIP3    H231063   2.268   3.254   6.401
10374TIP3   OH231064   2.701   1.718   6.433
10374TIP3    H131065   2.749   1.659   6.374
10374TIP3    H231066   2.768   1.775   6.469
10375TIP3   OH231067   3.186   1.917   6.528
10375TIP3    H131068   3.249   1.868   6.581
10375TIP3    H231069   3.198   2.009   6.554
10376TIP3   OH231070   3.069   3.317   6.033
10376TIP3    H131071   3.153   3.344   5.995
10376TIP3    H231072   3.039   3.245   5.977
10377TIP3   OH231073   3.809   3.437   6.121
10377TIP3    H131074   3.780   3.346   6.116
10377TIP3    H231075   3.742   3.486   6.074
10378TIP3   OH231076   5.844   5.815   0.958
10378TIP3    H131077   5.846   5.810   1.054
10378TIP3    H231078   5.914   5.876   0.935
10379TIP3   OH231079   2.371   3.153   6.083
10379TIP3    H131080   2.376   3.173   6.176
10379TIP3    H231081   2.453   3.109   6.063
10380TIP3   OH231082   6.908   6.000   0.793
10380TIP3    H131083   6.940   6.025   0.880
10380TIP3    H231084   6.982   6.019   0.735
10381TIP3   OH231085   6.828   7.612   0.356
10381TIP3    H131086   6.755   7.580   0.302
10381TIP3    H231087   6.813   7.706   0.364
10382TIP3   OH231088   5.267   2.981   6.052
10382TIP3    H131089   5.237   3.068   6.026
10382TIP3    H231090   5.196   2.923   6.028
10383TIP3   OH231091   5.264   2.973   6.476
10383TIP3    H131092   5.316   2.956   6.555
10383TIP3    H231093   5.219   2.890   6.459
10384TIP3   OH231094   4.554   2.842   6.826
10384TIP3    H131095   4.589   2.783   6.893
10384TIP3    H231096   4.630   2.893   6.796
10385TIP3   OH231097   5.530   3.283   6.150
10385TIP3    H131098   5.519   3.216   6.218
10385TIP3    H231099   5.552   3.363   6.198
10386TIP3   OH231100   4.558   3.260   6.508
10386TIP3    H131101   4.539   3.167   6.519
10386TIP3    H231102   4.653   3.264   6.499
10387TIP3   OH231103   4.237   2.464   6.295
10387TIP3    H131104   4.201   2.548   6.321
10387TIP3    H231105   4.165   2.417   6.254
10388TIP3   OH231106   4.321   2.779   6.507
10388TIP3    H131107   4.370   2.703   6.538
10388TIP3    H231108   4.388   2.844   6.488
10389TIP3   OH231109   5.187   3.718   6.160
10389TIP3    H131110   5.214   3.652   6.097
10389TIP3    H231111   5.180   3.672   6.243
10390TIP3   OH231112   5.073   3.196   6.479
10390TIP3    H131113   5.118   3.116   6.452
10390TIP3    H231114   5.143   3.252   6.511
10391TIP3   OH231115   6.102   2.514   6.500
10391TIP3    H131116   6.119   2.596   6.545
10391TIP3    H231117   6.121   2.533   6.408
10392TIP3   OH231118   5.476   2.684   6.518
10392TIP3    H131119   5.510   2.598   6.545
10392TIP3    H231120   5.441   2.668   6.430
10393TIP3   OH231121   4.833   2.341   6.476
10393TIP3    H131122   4.812   2.415   6.419
10393TIP3    H231123   4.777   2.271   6.446
10394TIP3   OH231124   5.529   2.443   6.112
10394TIP3    H131125   5.593   2.436   6.184
10394TIP3    H231126   5.579   2.479   6.039
10395TIP3   OH231127   4.454   2.558   6.611
10395TIP3    H131128   4.538   2.544   6.654
10395TIP3    H231129   4.459   2.507   6.531
10396TIP3   OH231130   4.883   2.757   6.411
10396TIP3    H131131   4.977   2.740   6.420
10396TIP3    H231132   4.847   2.674   6.379
10397TIP3   OH231133   6.157   2.728   6.669
10397TIP3    H131134   6.075   2.776   6.656
10397TIP3    H231135   6.198   2.770   6.745
10398TIP3   OH231136   4.810   2.347   6.931
10398TIP3    H131137   4.761   2.384   6.857
10398TIP3    H231138   4.755   2.364   7.007
10399TIP3   OH231139   5.166   3.199   5.913
10399TIP3    H131140   5.125   3.170   5.832
10399TIP3    H231141   5.112   3.273   5.942
10400TIP3   OH231142   4.910   3.123   6.692
10400TIP3    H131143   4.855   3.194   6.726
10400TIP3    H231144   4.958   3.163   6.619
10401TIP3   OH231145   5.689   2.460   6.334
10401TIP3    H131146   5.644   2.440   6.416
10401TIP3    H231147   5.743   2.536   6.353
10402TIP3   OH231148   4.705   2.454   6.697
10402TIP3    H131149   4.758   2.530   6.720
10402TIP3    H231150   4.752   2.413   6.625
10403TIP3   OH231151   4.753   3.325   6.798
10403TIP3    H131152   4.738   3.414   6.767
10403TIP3    H231153   4.676   3.304   6.851
10404TIP3   OH231154   4.125   3.028   6.053
10404TIP3    H131155   4.087   3.049   5.968
10404TIP3    H231156   4.147   3.113   6.092
10405TIP3   OH231157   5.567   3.531   6.288
10405TIP3    H131158   5.480   3.523   6.328
10405TIP3    H231159   5.565   3.616   6.244
10406TIP3   OH231160   5.905   2.389   6.661
10406TIP3    H131161   5.820   2.420   6.631
10406TIP3    H231162   5.968   2.423   6.597
10407TIP3   OH231163   5.155   2.041   6.659
10407TIP3    H131164   5.147   1.949   6.684
10407TIP3    H231165   5.079   2.083   6.698
10408TIP3   OH231166   5.274   3.562   5.946
10408TIP3    H131167   5.325   3.482   5.937
10408TIP3    H231168   5.333   3.632   5.916
10409TIP3   OH231169   5.413   3.332   5.905
10409TIP3    H131170   5.339   3.270   5.903
10409TIP3    H231171   5.462   3.308   5.983
10410TIP3   OH231172   5.797   3.422   6.631
10410TIP3    H131173   5.783   3.345   6.575
10410TIP3    H231174   5.784   3.496   6.573
10411TIP3   OH231175   5.092   2.820   5.906
10411TIP3    H131176   5.010   2.864   5.889
10411TIP3    H231177   5.138   2.820   5.822
10412TIP3   OH231178   5.058   2.628   5.596
10412TIP3    H131179   5.124   2.676   5.646
10412TIP3    H231180   5.108   2.561   5.550
10413TIP3   OH231181   5.958   3.040   6.471
10413TIP3    H131182   5.883   3.098   6.479
10413TIP3    H231183   6.013   3.079   6.403
10414TIP3   OH231184   5.452   2.908   5.864
10414TIP3    H131185   5.397   2.938   5.937
10414TIP3    H231186   5.535   2.885   5.904
10415TIP3   OH231187   5.679   2.935   6.814
10415TIP3    H131188   5.680   3.021   6.857
10415TIP3    H231189   5.597   2.934   6.765
10416TIP3   OH231190   4.678   2.891   6.272
10416TIP3    H131191   4.641   2.831   6.208
10416TIP3    H231192   4.753   2.843   6.309
10417TIP3   OH231193   4.819   3.313   6.410
10417TIP3    H131194   4.793   3.298   6.319
10417TIP3    H231195   4.906   3.274   6.416
10418TIP3   OH231196   4.786   2.885   6.639
10418TIP3    H131197   4.824   2.850   6.558
10418TIP3    H231198   4.834   2.966   6.654
10419TIP3   OH231199   5.331   3.523   6.424
10419TIP3    H131200   5.318   3.603   6.474
10419TIP3    H231201   5.316   3.452   6.486
10420TIP3   OH231202   7.783   7.428   0.029
10420TIP3    H131203   7.722   7.485   0.075
10420TIP3    H231204   7.727   7.376  -0.030
10421TIP3   OH231205   5.281   2.769   5.697
10421TIP3    H131206   5.341   2.827   5.745
10421TIP3    H231207   5.311   2.774   5.606
10422TIP3   OH231208   7.530   6.968   0.159
10422TIP3    H131209   7.540   7.058   0.190
10422TIP3    H231210   7.436   6.952   0.161
10423TIP3   OH231211   5.028   3.435   5.958
10423TIP3    H131212   5.108   3.489   5.961
10423TIP3    H231213   4.965   3.489   5.911
10424TIP3   OH231214   7.574   7.588   0.112
10424TIP3    H131215   7.548   7.597   0.020
10424TIP3    H231216   7.493   7.572   0.159
10425TIP3   OH231217   5.791   1.998   5.756
10425TIP3    H131218   5.715   2.019   5.810
10425TIP3    H231219   5.802   2.074   5.700
10426TIP3   OH231220   4.550   2.735   6.070
10426TIP3    H131221   4.474   2.785   6.040
10426TIP3    H231222   4.514   2.648   6.091
10427TIP3   OH231223   5.617   3.373   5.312
10427TIP3    H131224   5.610   3.466   5.291
10427TIP3    H231225   5.706   3.349   5.286
10428TIP3   OH231226   7.174   7.143   0.060
10428TIP3    H131227   7.097   7.128   0.005
10428TIP3    H231228   7.200   7.056   0.089
10429TIP3   OH231229   4.174   3.334   6.662
10429TIP3    H131230   4.262   3.364   6.687
10429TIP3    H231231   4.116   3.407   6.684
10430TIP3   OH231232   6.026   3.774   6.701
10430TIP3    H131233   6.032   3.679   6.715
10430TIP3    H231234   5.948   3.800   6.750
10431TIP3   OH231235   5.138   3.565   6.830
10431TIP3    H131236   5.129   3.656   6.859
10431TIP3    H231237   5.070   3.518   6.879
10432TIP3   OH231238   4.918   3.668   5.782
10432TIP3    H131239   4.867   3.647   5.703
10432TIP3    H231240   4.878   3.749   5.814
10433TIP3   OH231241   4.360   3.512   6.161
10433TIP3    H131242   4.397   3.506   6.250
10433TIP3    H231243   4.301   3.437   6.155
10434TIP3   OH231244   5.123   3.594   5.413
10434TIP3    H131245   5.174   3.521   5.379
10434TIP3    H231246   5.155   3.607   5.502
10435TIP3   OH231247   5.171   3.640   5.682
10435TIP3    H131248   5.083   3.645   5.721
10435TIP3    H231249   5.225   3.602   5.751
10436TIP3   OH231250   0.246   6.903   0.049
10436TIP3    H131251   0.167   6.912  -0.005
10436TIP3    H231252   0.267   6.810   0.044
10437TIP3   OH231253   7.371   7.331   0.029
10437TIP3    H131254   7.422   7.317   0.108
10437TIP3    H231255   7.299   7.267   0.034
10438TIP3   OH231256   4.918   2.133   6.786
10438TIP3    H131257   4.835   2.101   6.751
10438TIP3    H231258   4.895   2.214   6.832
10439TIP3   OH231259   8.296   6.257   0.043
10439TIP3    H131260   8.364   6.233   0.106
10439TIP3    H231261   8.214   6.241   0.089
10440TIP3   OH231262   5.681   2.667   6.896
10440TIP3    H131263   5.641   2.664   6.983
10440TIP3    H231264   5.667   2.757   6.867
10441TIP3   OH231265   5.361   2.747   5.434
10441TIP3    H131266   5.315   2.752   5.351
10441TIP3    H231267   5.442   2.795   5.420
10442TIP3   OH231268   5.069   2.169   5.753
10442TIP3    H131269   5.033   2.177   5.841
10442TIP3    H231270   5.033   2.088   5.719
10443TIP3   OH231271   4.854   2.666   6.794
10443TIP3    H131272   4.805   2.674   6.876
10443TIP3    H231273   4.831   2.745   6.745
10444TIP3   OH231274   4.738   2.540   6.314
10444TIP3    H131275   4.648   2.519   6.340
10444TIP3    H231276   4.745   2.506   6.224
10445TIP3   OH231277   5.216   2.615   6.042
10445TIP3    H131278   5.169   2.688   6.002
10445TIP3    H231279   5.275   2.583   5.973
10446TIP3   OH231280   8.233   6.889   0.175
10446TIP3    H131281   8.208   6.821   0.238
10446TIP3    H231282   8.326   6.906   0.194
10447TIP3   OH231283   5.385   2.630   6.265
10447TIP3    H131284   5.316   2.652   6.203
10447TIP3    H231285   5.431   2.557   6.225
10448TIP3   OH231286   7.521   6.684   0.072
10448TIP3    H131287   7.525   6.754   0.137
10448TIP3    H231288   7.503   6.605   0.123
10449TIP3   OH231289   4.735   2.151   5.729
10449TIP3    H131290   4.726   2.156   5.824
10449TIP3    H231291   4.657   2.195   5.695
10450TIP3   OH231292   4.286   2.197   6.595
10450TIP3    H131293   4.355   2.235   6.650
10450TIP3    H231294   4.324   2.192   6.508
10451TIP3   OH231295   4.189   2.175   6.096
10451TIP3    H131296   4.233   2.211   6.019
10451TIP3    H231297   4.126   2.242   6.122
10452TIP3   OH231298   5.427   2.885   6.692
10452TIP3    H131299   5.451   2.818   6.628
10452TIP3    H231300   5.382   2.837   6.761
10453TIP3   OH231301   5.099   2.329   6.363
10453TIP3    H131302   5.021   2.331   6.419
10453TIP3    H231303   5.172   2.323   6.425
10454TIP3   OH231304   4.497   2.419   6.378
10454TIP3    H131305   4.410   2.423   6.340
10454TIP3    H231306   4.527   2.329   6.360
10455TIP3   OH231307   4.750   2.416   6.069
10455TIP3    H131308   4.844   2.428   6.058
10455TIP3    H231309   4.713   2.435   5.982
10456TIP3   OH231310   5.544   2.419   6.570
10456TIP3    H131311   5.527   2.436   6.662
10456TIP3    H231312   5.475   2.360   6.542
10457TIP3   OH231313   4.637   2.439   5.820
10457TIP3    H131314   4.573   2.391   5.767
10457TIP3    H231315   4.690   2.487   5.757
10458TIP3   OH231316   5.747   4.125   6.798
10458TIP3    H131317   5.746   4.137   6.703
10458TIP3    H231318   5.827   4.168   6.827
10459TIP3   OH231319   7.529   7.241   0.257
10459TIP3    H131320   7.610   7.257   0.306
10459TIP3    H231321   7.460   7.245   0.324
10460TIP3   OH231322   5.152   2.701   6.473
10460TIP3    H131323   5.221   2.652   6.428
10460TIP3    H231324   5.148   2.662   6.560
10461TIP3   OH231325   4.640   2.170   6.358
10461TIP3    H131326   4.612   2.094   6.409
10461TIP3    H231327   4.661   2.136   6.272
10462TIP3   OH231328   5.121   2.608   6.739
10462TIP3    H131329   5.034   2.642   6.761
10462TIP3    H231330   5.181   2.661   6.791
10463TIP3   OH231331   4.856   2.956   5.852
10463TIP3    H131332   4.781   2.902   5.828
10463TIP3    H231333   4.829   2.999   5.934
10464TIP3   OH231334   5.744   3.215   6.455
10464TIP3    H131335   5.782   3.264   6.382
10464TIP3    H231336   5.665   3.176   6.419
10465TIP3   OH231337   5.322   2.274   5.755
10465TIP3    H131338   5.228   2.253   5.752
10465TIP3    H231339   5.324   2.369   5.768
10466TIP3   OH231340   5.264   3.298   6.868
10466TIP3    H131341   5.313   3.288   6.950
10466TIP3    H231342   5.221   3.383   6.876
10467TIP3   OH231343   5.380   2.539   5.825
10467TIP3    H131344   5.475   2.544   5.836
10467TIP3    H231345   5.358   2.617   5.774
10468TIP3   OH231346   4.547   2.964   6.505
10468TIP3    H131347   4.586   2.951   6.419
10468TIP3    H231348   4.614   2.933   6.566
10469TIP3   OH231349   5.006   3.120   5.694
10469TIP3    H131350   4.960   3.203   5.692
10469TIP3    H231351   4.951   3.062   5.747
10470TIP3   OH231352   7.258   6.906   0.190
10470TIP3    H131353   7.247   6.891   0.284
10470TIP3    H231354   7.182   6.864   0.150
10471TIP3   OH231355   8.001   7.046   0.219
10471TIP3    H131356   7.931   6.987   0.191
10471TIP3    H231357   8.081   7.003   0.187
10472TIP3   OH231358   5.408   3.587   6.753
10472TIP3    H131359   5.314   3.571   6.759
10472TIP3    H231360   5.432   3.623   6.838
10473TIP3   OH231361   5.796   2.627   5.643
10473TIP3    H131362   5.741   2.581   5.580
10473TIP3    H231363   5.801   2.716   5.609
10474TIP3   OH231364   6.043   3.496   6.722
10474TIP3    H131365   5.950   3.478   6.711
10474TIP3    H231366   6.083   3.468   6.640
10475TIP3   OH231367   5.542   3.446   5.580
10475TIP3    H131368   5.510   3.380   5.641
10475TIP3    H231369   5.556   3.398   5.498
10476TIP3   OH231370   5.516   3.080   6.351
10476TIP3    H131371   5.427   3.058   6.376
10476TIP3    H231372   5.552   2.999   6.314
10477TIP3   OH231373   4.668   3.314   6.170
10477TIP3    H131374   4.664   3.389   6.111
10477TIP3    H231375   4.579   3.307   6.206
10478TIP3   OH231376   4.234   2.602   5.881
10478TIP3    H131377   4.275   2.686   5.902
10478TIP3    H231378   4.153   2.602   5.931
10479TIP3   OH231379   4.757   3.072   6.075
10479TIP3    H131380   4.736   3.161   6.104
10479TIP3    H231381   4.730   3.016   6.149
10480TIP3   OH231382   4.954   3.639   6.623
10480TIP3    H131383   4.991   3.712   6.572
10480TIP3    H231384   5.028   3.605   6.673
10481TIP3   OH231385   4.591   3.535   6.015
10481TIP3    H131386   4.504   3.538   6.056
10481TIP3    H231387   4.624   3.624   6.021
10482TIP3   OH231388   5.306   3.301   6.595
10482TIP3    H131389   5.292   3.296   6.690
10482TIP3    H231390   5.385   3.249   6.580
10483TIP3   OH231391   5.300   3.178   5.462
10483TIP3    H131392   5.350   3.149   5.538
10483TIP3    H231393   5.215   3.134   5.471
10484TIP3   OH231394   5.561   3.798   6.638
10484TIP3    H131395   5.492   3.734   6.655
10484TIP3    H231396   5.526   3.851   6.566
10485TIP3   OH231397   5.610   3.647   5.268
10485TIP3    H131398   5.624   3.707   5.194
10485TIP3    H231399   5.540   3.687   5.319
10486TIP3   OH231400   7.471   6.431   0.198
10486TIP3    H131401   7.376   6.437   0.208
10486TIP3    H231402   7.500   6.382   0.275
10487TIP3   OH231403   5.476   3.089   5.652
10487TIP3    H131404   5.460   3.037   5.731
10487TIP3    H231405   5.571   3.098   5.649
10488TIP3   OH231406   4.383   3.519   6.786
10488TIP3    H131407   4.436   3.458   6.837
10488TIP3    H231408   4.396   3.603   6.829
10489TIP3   OH231409   4.655   3.144   5.477
10489TIP3    H131410   4.663   3.052   5.451
10489TIP3    H231411   4.637   3.140   5.571
10490TIP3   OH231412   4.591   3.161   5.747
10490TIP3    H131413   4.649   3.135   5.819
10490TIP3    H231414   4.589   3.256   5.752
10491TIP3   OH231415   4.324   2.855   5.960
10491TIP3    H131416   4.259   2.902   6.012
10491TIP3    H231417   4.342   2.913   5.886
10492TIP3   OH231418   5.490   2.478   6.831
10492TIP3    H131419   5.567   2.525   6.863
10492TIP3    H231420   5.483   2.402   6.889
10493TIP3   OH231421   5.381   2.225   6.024
10493TIP3    H131422   5.360   2.244   5.933
10493TIP3    H231423   5.424   2.305   6.056
10494TIP3   OH231424   4.865   3.351   5.690
10494TIP3    H131425   4.779   3.372   5.725
10494TIP3    H231426   4.885   3.424   5.631
10495TIP3   OH231427   5.030   2.424   6.111
10495TIP3    H131428   5.092   2.493   6.086
10495TIP3    H231429   5.052   2.404   6.202
10496TIP3   OH231430   5.328   2.721   6.890
10496TIP3    H131431   5.352   2.766   6.971
10496TIP3    H231432   5.378   2.639   6.893
10497TIP3   OH231433   5.194   2.120   6.200
10497TIP3    H131434   5.170   2.197   6.251
10497TIP3    H231435   5.263   2.151   6.142
10498TIP3   OH231436   4.613   3.433   5.762
10498TIP3    H131437   4.592   3.505   5.703
10498TIP3    H231438   4.601   3.470   5.850
10499TIP3   OH231439   4.706   2.144   6.008
10499TIP3    H131440   4.694   2.235   6.036
10499TIP3    H231441   4.800   2.129   6.015
10500TIP3   OH231442   5.951   2.633   6.890
10500TIP3    H131443   5.855   2.626   6.893
10500TIP3    H231444   5.973   2.622   6.798
10501TIP3   OH231445   5.609   2.821   6.265
10501TIP3    H131446   5.532   2.766   6.276
10501TIP3    H231447   5.675   2.781   6.321
10502TIP3   OH231448   4.344   3.029   5.742
10502TIP3    H131449   4.413   3.095   5.750
10502TIP3    H231450   4.377   2.967   5.678
10503TIP3   OH231451   4.255   2.324   5.875
10503TIP3    H131452   4.271   2.417   5.887
10503TIP3    H231453   4.196   2.319   5.800
10504TIP3   OH231454   5.589   3.800   6.211
10504TIP3    H131455   5.546   3.849   6.141
10504TIP3    H231456   5.683   3.816   6.197
10505TIP3   OH231457   4.659   2.047   6.738
10505TIP3    H131458   4.628   2.015   6.653
10505TIP3    H231459   4.650   1.971   6.796
10506TIP3   OH231460   4.173   3.297   6.136
10506TIP3    H131461   4.127   3.335   6.210
10506TIP3    H231462   4.134   3.338   6.059
10507TIP3   OH231463   7.210   7.837   0.265
10507TIP3    H131464   7.293   7.837   0.312
10507TIP3    H231465   7.188   7.744   0.255
10508TIP3   OH231466   7.680   7.751   0.307
10508TIP3    H131467   7.771   7.722   0.315
10508TIP3    H231468   7.645   7.698   0.235
10509TIP3   OH231469   4.808   3.344   5.367
10509TIP3    H131470   4.760   3.275   5.412
10509TIP3    H231471   4.883   3.300   5.326
10510TIP3   OH231472   8.299   7.692   0.062
10510TIP3    H131473   8.312   7.622   0.126
10510TIP3    H231474   8.373   7.751   0.076
10511TIP3   OH231475   5.251   3.386   5.292
10511TIP3    H131476   5.282   3.320   5.354
10511TIP3    H231477   5.310   3.376   5.216
10512TIP3   OH231478   7.324   7.255   0.454
10512TIP3    H131479   7.350   7.163   0.460
10512TIP3    H231480   7.241   7.253   0.407
10513TIP3   OH231481   4.474   2.840   5.592
10513TIP3    H131482   4.525   2.818   5.670
10513TIP3    H231483   4.539   2.854   5.524
10514TIP3   OH231484   7.938   7.323   0.232
10514TIP3    H131485   7.891   7.344   0.151
10514TIP3    H231486   7.971   7.234   0.218
10515TIP3   OH231487   5.045   3.061   5.429
10515TIP3    H131488   5.021   3.074   5.521
10515TIP3    H231489   5.025   2.969   5.411
10516TIP3   OH231490   5.579   3.361   6.789
10516TIP3    H131491   5.656   3.388   6.739
10516TIP3    H231492   5.514   3.429   6.772
10517TIP3   OH231493   7.450   7.014   0.461
10517TIP3    H131494   7.489   6.931   0.434
10517TIP3    H231495   7.485   7.030   0.548
10518TIP3   OH231496   4.646   2.781   5.805
10518TIP3    H131497   4.624   2.751   5.893
10518TIP3    H231498   4.693   2.707   5.766
10519TIP3   OH231499   7.795   6.871   0.120
10519TIP3    H131500   7.707   6.908   0.127
10519TIP3    H231501   7.827   6.900   0.035
10520TIP3   OH231502   4.786   2.595   5.650
10520TIP3    H131503   4.756   2.600   5.560
10520TIP3    H231504   4.881   2.604   5.645
10521TIP3   OH231505   8.292   7.244   0.203
10521TIP3    H131506   8.360   7.206   0.148
10521TIP3    H231507   8.289   7.187   0.280
10522TIP3   OH231508   5.579   2.884   5.329
10522TIP3    H131509   5.567   2.844   5.243
10522TIP3    H231510   5.556   2.976   5.316
10523TIP3   OH231511   7.900   6.638   0.223
10523TIP3    H131512   7.901   6.568   0.157
10523TIP3    H231513   7.864   6.714   0.177
10524TIP3   OH231514   5.071   2.430   6.961
10524TIP3    H131515   5.097   2.471   6.878
10524TIP3    H231516   4.980   2.406   6.949
10525TIP3   OH231517   5.079   2.960   6.834
10525TIP3    H131518   5.166   2.996   6.823
10525TIP3    H231519   5.022   3.019   6.785
10526TIP3   OH231520   0.003   6.923   0.269
10526TIP3    H131521   0.045   6.838   0.275
10526TIP3    H231522   0.075   6.984   0.248
10527TIP3   OH231523   5.708   3.182   6.948
10527TIP3    H131524   5.654   3.245   6.900
10527TIP3    H231525   5.797   3.199   6.918
10528TIP3   OH231526   7.793   6.722   0.470
10528TIP3    H131527   7.706   6.686   0.487
10528TIP3    H231528   7.812   6.695   0.380
10529TIP3   OH231529   8.028   6.204   0.114
10529TIP3    H131530   7.987   6.285   0.082
10529TIP3    H231531   7.960   6.138   0.103
10530TIP3   OH231532   8.154   6.675   0.329
10530TIP3    H131533   8.142   6.664   0.423
10530TIP3    H231534   8.069   6.656   0.290
10531TIP3   OH231535   8.399   6.632   0.196
10531TIP3    H131536   8.320   6.633   0.251
10531TIP3    H231537   8.470   6.609   0.256
10532TIP3   OH231538   0.134   6.598   0.346
10532TIP3    H131539   0.148   6.504   0.354
10532TIP3    H231540   0.130   6.629   0.436
10533TIP3   OH231541   7.601   6.507   0.513
10533TIP3    H131542   7.608   6.419   0.476
10533TIP3    H231543   7.657   6.504   0.591
10534TIP3   OH231544   8.108   6.194   0.373
10534TIP3    H131545   8.172   6.124   0.371
10534TIP3    H231546   8.076   6.200   0.283
10535TIP3   OH231547   8.192   6.396   0.541
10535TIP3    H131548   8.166   6.330   0.477
10535TIP3    H231549   8.121   6.460   0.539
10536TIP3   OH231550   4.611   3.643   5.582
10536TIP3    H131551   4.699   3.624   5.552
10536TIP3    H231552   4.568   3.686   5.508
10537TIP3   OH231553   4.068   3.029   5.756
10537TIP3    H131554   4.163   3.040   5.755
10537TIP3    H231555   4.054   2.941   5.720
10538TIP3   OH231556   4.010   3.601   6.204
10538TIP3    H131557   3.933   3.557   6.169
10538TIP3    H231558   4.039   3.545   6.276
10539TIP3   OH231559   4.131   3.437   6.393
10539TIP3    H131560   4.124   3.369   6.459
10539TIP3    H231561   4.177   3.509   6.437
10540TIP3   OH231562   5.854   3.873   6.195
10540TIP3    H131563   5.883   3.884   6.285
10540TIP3    H231564   5.927   3.902   6.141
10541TIP3   OH231565   5.887   3.874   6.477
10541TIP3    H131566   5.835   3.794   6.469
10541TIP3    H231567   5.952   3.854   6.544
10542TIP3   OH231568   0.261   7.583   0.116
10542TIP3    H131569   0.191   7.595   0.180
10542TIP3    H231570   0.308   7.666   0.117
10543TIP3   OH231571   5.757   3.092   5.658
10543TIP3    H131572   5.814   3.163   5.630
10543TIP3    H231573   5.801   3.054   5.734
10544TIP3   OH231574   5.887   2.951   5.861
10544TIP3    H131575   5.819   2.915   5.919
10544TIP3    H231576   5.951   2.989   5.921
10545TIP3   OH231577   5.922   3.352   6.291
10545TIP3    H131578   5.978   3.282   6.259
10545TIP3    H231579   5.928   3.421   6.225
10546TIP3   OH231580   5.735   3.643   6.480
10546TIP3    H131581   5.667   3.685   6.533
10546TIP3    H231582   5.686   3.601   6.409
10547TIP3   OH231583   5.790   2.866   5.505
10547TIP3    H131584   5.717   2.866   5.443
10547TIP3    H231585   5.775   2.944   5.559
10548TIP3   OH231586   5.647   2.515   5.443
10548TIP3    H131587   5.597   2.553   5.370
10548TIP3    H231588   5.637   2.420   5.431
10549TIP3   OH231589   5.680   2.814   5.997
10549TIP3    H131590   5.684   2.719   5.984
10549TIP3    H231591   5.660   2.824   6.090
10550TIP3   OH231592   4.293   2.877   6.760
10550TIP3    H131593   4.286   2.848   6.669
10550TIP3    H231594   4.386   2.874   6.779
10551TIP3   OH231595   5.968   3.230   6.859
10551TIP3    H131596   6.027   3.157   6.840
10551TIP3    H231597   5.995   3.299   6.798
10552TIP3   OH231598   6.124   3.000   6.845
10552TIP3    H131599   6.051   2.965   6.898
10552TIP3    H231600   6.199   2.947   6.870
10553TIP3   OH231601   5.605   2.243   5.413
10553TIP3    H131602   5.669   2.219   5.480
10553TIP3    H231603   5.522   2.207   5.445
10554TIP3   OH231604   5.671   2.535   5.883
10554TIP3    H131605   5.717   2.451   5.895
10554TIP3    H231606   5.713   2.574   5.806
10555TIP3   OH231607   5.820   2.694   6.407
10555TIP3    H131608   5.902   2.712   6.361
10555TIP3    H231609   5.833   2.732   6.494
10556TIP3   OH231610   5.896   2.836   6.640
10556TIP3    H131611   5.825   2.871   6.694
10556TIP3    H231612   5.922   2.909   6.585
10557TIP3   OH231613   7.340   6.578   0.464
10557TIP3    H131614   7.434   6.580   0.479
10557TIP3    H231615   7.310   6.498   0.508
10558TIP3   OH231616   0.696   6.452   0.237
10558TIP3    H131617   0.758   6.395   0.192
10558TIP3    H231618   0.654   6.503   0.167
10559TIP3   OH231619   5.788   2.285   5.933
10559TIP3    H131620   5.833   2.270   6.016
10559TIP3    H231621   5.725   2.213   5.928
10560TIP3   OH231622   4.496   2.272   6.760
10560TIP3    H131623   4.550   2.193   6.764
10560TIP3    H231624   4.558   2.343   6.742
10561TIP3   OH231625   4.274   2.536   6.831
10561TIP3    H131626   4.326   2.530   6.751
10561TIP3    H231627   4.283   2.627   6.859
10562TIP3   OH231628   0.543   6.568   0.045
10562TIP3    H131629   0.463   6.611   0.076
10562TIP3    H231630   0.512   6.499  -0.014
10563TIP3   OH231631   5.831   2.198   5.572
10563TIP3    H131632   5.880   2.138   5.516
10563TIP3    H231633   5.886   2.276   5.577
10564TIP3   OH231634   4.260   2.032   6.318
10564TIP3    H131635   4.175   2.026   6.363
10564TIP3    H231636   4.243   2.091   6.244
10565TIP3   OH231637   5.425   3.757   5.839
10565TIP3    H131638   5.483   3.746   5.764
10565TIP3    H231639   5.470   3.821   5.894
10566TIP3   OH231640   7.327   6.105   0.179
10566TIP3    H131641   7.278   6.109   0.262
10566TIP3    H231642   7.275   6.158   0.119
10567TIP3   OH231643   7.353   7.557   0.278
10567TIP3    H131644   7.260   7.540   0.266
10567TIP3    H231645   7.370   7.536   0.370
10568TIP3   OH231646   4.725   3.601   6.770
10568TIP3    H131647   4.673   3.675   6.739
10568TIP3    H231648   4.810   3.611   6.726
10569TIP3   OH231649   5.124   3.832   6.908
10569TIP3    H131650   5.161   3.825   6.996
10569TIP3    H231651   5.187   3.886   6.860
10570TIP3   OH231652   5.316   3.986   6.783
10570TIP3    H131653   5.379   3.931   6.736
10570TIP3    H231654   5.371   4.044   6.836
10571TIP3   OH231655   6.118   2.324   6.864
10571TIP3    H131656   6.035   2.328   6.816
10571TIP3    H231657   6.145   2.232   6.857
10572TIP3   OH231658   4.386   3.846   6.818
10572TIP3    H131659   4.295   3.862   6.795
10572TIP3    H231660   4.407   3.911   6.885
10573TIP3   OH231661   4.616   3.833   6.668
10573TIP3    H131662   4.534   3.838   6.715
10573TIP3    H231663   4.593   3.856   6.578
10574TIP3   OH231664   5.032   3.849   6.458
10574TIP3    H131665   4.958   3.858   6.399
10574TIP3    H231666   5.041   3.935   6.499
10575TIP3   OH231667   5.298   3.788   6.506
10575TIP3    H131668   5.205   3.805   6.488
10575TIP3    H231669   5.345   3.857   6.458
10576TIP3   OH231670   5.506   3.967   6.414
10576TIP3    H131671   5.498   4.051   6.370
10576TIP3    H231672   5.534   3.907   6.345
10577TIP3   OH231673   4.297   3.621   6.539
10577TIP3    H131674   4.322   3.593   6.628
10577TIP3    H231675   4.368   3.588   6.483
10578TIP3   OH231676   4.500   3.504   6.400
10578TIP3    H131677   4.512   3.420   6.443
10578TIP3    H231678   4.587   3.545   6.403
10579TIP3   OH231679   4.769   3.590   6.418
10579TIP3    H131680   4.788   3.497   6.402
10579TIP3    H231681   4.823   3.613   6.494
10580TIP3   OH231682   5.327   2.241   6.504
10580TIP3    H131683   5.288   2.170   6.555
10580TIP3    H231684   5.395   2.199   6.452
10581TIP3   OH231685   5.831   2.148   6.388
10581TIP3    H131686   5.869   2.199   6.316
10581TIP3    H231687   5.741   2.180   6.394
10582TIP3   OH231688   5.947   2.231   6.154
10582TIP3    H131689   6.016   2.171   6.127
10582TIP3    H231690   5.985   2.318   6.142
10583TIP3   OH231691   4.570   1.941   6.499
10583TIP3    H131692   4.480   1.909   6.509
10583TIP3    H231693   4.623   1.862   6.491
10584TIP3   OH231694   4.391   1.843   6.153
10584TIP3    H131695   4.416   1.894   6.076
10584TIP3    H231696   4.351   1.907   6.213
10585TIP3   OH231697   5.050   1.977   6.399
10585TIP3    H131698   5.096   2.025   6.330
10585TIP3    H231699   5.089   2.009   6.480
10586TIP3   OH231700   5.539   2.124   6.372
10586TIP3    H131701   5.556   2.090   6.284
10586TIP3    H231702   5.546   2.047   6.429
10587TIP3   OH231703   5.601   2.075   5.941
10587TIP3    H131704   5.522   2.122   5.965
10587TIP3    H231705   5.590   1.988   5.979
10588TIP3   OH231706   4.069   3.406   5.905
10588TIP3    H131707   3.977   3.380   5.901
10588TIP3    H231708   4.070   3.497   5.875
10589TIP3   OH231709   4.496   1.976   5.917
10589TIP3    H131710   4.542   1.917   5.858
10589TIP3    H231711   4.564   2.033   5.953
10590TIP3   OH231712   4.982   2.172   6.017
10590TIP3    H131713   5.042   2.121   6.071
10590TIP3    H231714   4.995   2.262   6.043
10591TIP3   OH231715   4.865   3.569   5.510
10591TIP3    H131716   4.949   3.596   5.474
10591TIP3    H231717   4.836   3.498   5.453
10592TIP3   OH231718   5.577   3.715   5.610
10592TIP3    H131719   5.570   3.620   5.604
10592TIP3    H231720   5.528   3.748   5.534
10593TIP3   OH231721   7.627   6.240   0.422
10593TIP3    H131722   7.600   6.169   0.479
10593TIP3    H231723   7.720   6.253   0.440
10594TIP3   OH231724   7.884   6.267   0.519
10594TIP3    H131725   7.959   6.246   0.464
10594TIP3    H231726   7.895   6.213   0.597
10595TIP3   OH231727   4.165   3.407   5.572
10595TIP3    H131728   4.160   3.415   5.667
10595TIP3    H231729   4.248   3.362   5.556
10596TIP3   OH231730   0.199   6.327   0.356
10596TIP3    H131731   0.217   6.299   0.445
10596TIP3    H231732   0.284   6.321   0.312
10597TIP3   OH231733   5.781   3.850   6.802
10597TIP3    H131734   5.707   3.820   6.750
10597TIP3    H231735   5.768   3.944   6.811
10598TIP3   OH231736   7.060   3.238   5.538
10598TIP3    H131737   7.026   3.324   5.514
10598TIP3    H231738   6.990   3.177   5.517
10599TIP3   OH231739   7.060   3.231   5.963
10599TIP3    H131740   7.113   3.214   6.041
10599TIP3    H231741   7.015   3.148   5.945
10600TIP3   OH231742   6.356   3.102   6.318
10600TIP3    H131743   6.389   3.049   6.390
10600TIP3    H231744   6.434   3.142   6.280
10601TIP3   OH231745   7.328   3.540   5.639
10601TIP3    H131746   7.317   3.472   5.706
10601TIP3    H231747   7.350   3.619   5.688
10602TIP3   OH231748   6.330   3.514   6.016
10602TIP3    H131749   6.318   3.420   6.008
10602TIP3    H231750   6.420   3.525   6.046
10603TIP3   OH231751   6.034   2.723   5.781
10603TIP3    H131752   5.997   2.807   5.806
10603TIP3    H231753   5.960   2.675   5.741
10604TIP3   OH231754   6.116   3.039   6.002
10604TIP3    H131755   6.164   2.961   6.031
10604TIP3    H231756   6.185   3.102   5.980
10605TIP3   OH231757   6.983   3.968   5.650
10605TIP3    H131758   7.009   3.902   5.586
10605TIP3    H231759   6.986   3.922   5.734
10606TIP3   OH231760   6.870   3.454   5.973
10606TIP3    H131761   6.915   3.375   5.943
10606TIP3    H231762   6.939   3.511   6.006
10607TIP3   OH231763   7.883   2.772   5.989
10607TIP3    H131764   7.898   2.860   6.024
10607TIP3    H231765   7.918   2.774   5.900
10608TIP3   OH231766   7.273   2.938   6.003
10608TIP3    H131767   7.308   2.853   6.031
10608TIP3    H231768   7.237   2.922   5.916
10609TIP3   OH231769   6.630   2.598   5.963
10609TIP3    H131770   6.609   2.672   5.906
10609TIP3    H231771   6.573   2.528   5.933
10610TIP3   OH231772   7.327   2.699   5.599
10610TIP3    H131773   7.391   2.694   5.670
10610TIP3    H231774   7.376   2.733   5.525
10611TIP3   OH231775   6.249   2.815   6.099
10611TIP3    H131776   6.332   2.799   6.143
10611TIP3    H231777   6.254   2.764   6.019
10612TIP3   OH231778   6.677   3.015   5.898
10612TIP3    H131779   6.771   2.998   5.908
10612TIP3    H231780   6.641   2.932   5.867
10613TIP3   OH231781   7.940   2.990   6.159
10613TIP3    H131782   7.857   3.036   6.144
10613TIP3    H231783   7.977   3.031   6.237
10614TIP3   OH231784   6.608   2.604   6.416
10614TIP3    H131785   6.558   2.640   6.343
10614TIP3    H231786   6.554   2.621   6.493
10615TIP3   OH231787   6.927   3.442   5.409
10615TIP3    H131788   6.904   3.431   5.317
10615TIP3    H231789   6.887   3.526   5.434
10616TIP3   OH231790   6.714   3.372   6.188
10616TIP3    H131791   6.655   3.441   6.219
10616TIP3    H231792   6.763   3.413   6.116
10617TIP3   OH231793   7.486   2.722   5.820
10617TIP3    H131794   7.444   2.701   5.904
10617TIP3    H231795   7.542   2.797   5.840
10618TIP3   OH231796   6.498   2.708   6.184
10618TIP3    H131797   6.551   2.785   6.205
10618TIP3    H231798   6.546   2.666   6.112
10619TIP3   OH231799   6.536   3.570   6.264
10619TIP3    H131800   6.523   3.664   6.253
10619TIP3    H231801   6.479   3.546   6.337
10620TIP3   OH231802   5.926   3.284   5.539
10620TIP3    H131803   5.888   3.304   5.453
10620TIP3    H231804   5.949   3.370   5.575
10621TIP3   OH231805   7.363   3.787   5.779
10621TIP3    H131806   7.276   3.779   5.818
10621TIP3    H231807   7.360   3.871   5.733
10622TIP3   OH231808   7.693   2.651   6.152
10622TIP3    H131809   7.607   2.680   6.121
10622TIP3    H231810   7.754   2.685   6.087
10623TIP3   OH231811   6.950   2.295   6.146
10623TIP3    H131812   6.941   2.203   6.171
10623TIP3    H231813   6.874   2.338   6.185
10624TIP3   OH231814   7.068   3.816   5.431
10624TIP3    H131815   7.119   3.736   5.423
10624TIP3    H231816   7.127   3.886   5.403
10625TIP3   OH231817   7.222   3.597   5.390
10625TIP3    H131818   7.219   3.516   5.338
10625TIP3    H231819   7.261   3.570   5.473
10626TIP3   OH231820   7.596   3.676   6.123
10626TIP3    H131821   7.578   3.601   6.066
10626TIP3    H231822   7.583   3.752   6.068
10627TIP3   OH231823   6.886   3.073   5.392
10627TIP3    H131824   6.808   3.124   5.370
10627TIP3    H231825   6.937   3.070   5.311
10628TIP3   OH231826   6.853   2.897   5.070
10628TIP3    H131827   6.919   2.942   5.124
10628TIP3    H231828   6.902   2.828   5.025
10629TIP3   OH231829   7.771   3.332   5.993
10629TIP3    H131830   7.689   3.380   5.990
10629TIP3    H231831   7.808   3.343   5.905
10630TIP3   OH231832   7.246   3.164   5.353
10630TIP3    H131833   7.192   3.192   5.427
10630TIP3    H231834   7.329   3.138   5.393
10631TIP3   OH231835   7.474   3.193   6.298
10631TIP3    H131836   7.472   3.278   6.343
10631TIP3    H231837   7.392   3.191   6.249
10632TIP3   OH231838   6.477   3.151   5.754
10632TIP3    H131839   6.441   3.089   5.691
10632TIP3    H231840   6.551   3.104   5.794
10633TIP3   OH231841   6.619   3.581   5.895
10633TIP3    H131842   6.594   3.553   5.807
10633TIP3    H231843   6.702   3.537   5.911
10634TIP3   OH231844   6.576   3.145   6.123
10634TIP3    H131845   6.616   3.111   6.043
10634TIP3    H231846   6.627   3.223   6.144
10635TIP3   OH231847   7.126   3.778   5.913
10635TIP3    H131848   7.113   3.858   5.964
10635TIP3    H231849   7.112   3.708   5.976
10636TIP3   OH231850   6.733   3.688   6.450
10636TIP3    H131851   6.670   3.741   6.499
10636TIP3    H231852   6.682   3.613   6.419
10637TIP3   OH231853   7.075   3.028   5.187
10637TIP3    H131854   7.136   3.083   5.236
10637TIP3    H231855   7.106   3.032   5.097
10638TIP3   OH231856   6.818   3.699   5.435
10638TIP3    H131857   6.903   3.742   5.444
10638TIP3    H231858   6.763   3.764   5.392
10639TIP3   OH231859   6.525   3.852   6.535
10639TIP3    H131860   6.503   3.852   6.442
10639TIP3    H231861   6.443   3.832   6.579
10640TIP3   OH231862   7.588   2.256   5.243
10640TIP3    H131863   7.511   2.278   5.296
10640TIP3    H231864   7.600   2.332   5.186
10641TIP3   OH231865   6.351   2.991   5.554
10641TIP3    H131866   6.272   3.037   5.526
10641TIP3    H231867   6.321   2.902   5.574
10642TIP3   OH231868   7.406   3.679   4.805
10642TIP3    H131869   7.338   3.686   4.739
10642TIP3    H231870   7.477   3.632   4.762
10643TIP3   OH231871   6.134   3.391   6.487
10643TIP3    H131872   6.065   3.367   6.425
10643TIP3    H231873   6.158   3.309   6.529
10644TIP3   OH231874   6.000   3.569   6.121
10644TIP3    H131875   6.094   3.557   6.105
10644TIP3    H231876   5.996   3.642   6.183
10645TIP3   OH231877   7.829   4.039   6.188
10645TIP3    H131878   7.835   3.944   6.198
10645TIP3    H231879   7.749   4.064   6.235
10646TIP3   OH231880   6.925   3.827   6.313
10646TIP3    H131881   6.921   3.917   6.344
10646TIP3    H231882   6.858   3.781   6.363
10647TIP3   OH231883   6.704   3.924   5.272
10647TIP3    H131884   6.638   3.905   5.205
10647TIP3    H231885   6.680   4.011   5.305
10648TIP3   OH231886   6.152   3.774   5.650
10648TIP3    H131887   6.195   3.764   5.735
10648TIP3    H231888   6.101   3.694   5.640
10649TIP3   OH231889   6.956   3.817   4.914
10649TIP3    H131890   7.037   3.768   4.902
10649TIP3    H231891   6.960   3.847   5.005
10650TIP3   OH231892   6.960   3.898   5.174
10650TIP3    H131893   6.872   3.904   5.212
10650TIP3    H231894   7.014   3.864   5.245
10651TIP3   OH231895   7.710   3.153   6.472
10651TIP3    H131896   7.631   3.165   6.419
10651TIP3    H231897   7.732   3.061   6.462
10652TIP3   OH231898   6.378   3.530   6.481
10652TIP3    H131899   6.441   3.484   6.536
10652TIP3    H231900   6.297   3.480   6.489
10653TIP3   OH231901   6.714   2.387   6.274
10653TIP3    H131902   6.631   2.354   6.241
10653TIP3    H231903   6.691   2.469   6.319
10654TIP3   OH231904   7.249   2.507   6.467
10654TIP3    H131905   7.319   2.482   6.527
10654TIP3    H231906   7.169   2.492   6.517
10655TIP3   OH231907   7.479   2.928   6.385
10655TIP3    H131908   7.433   2.923   6.469
10655TIP3    H231909   7.463   3.017   6.354
10656TIP3   OH231910   7.159   3.018   4.929
10656TIP3    H131911   7.116   3.010   4.844
10656TIP3    H231912   7.238   3.069   4.910
10657TIP3   OH231913   6.863   2.429   5.239
10657TIP3    H131914   6.827   2.435   5.328
10657TIP3    H231915   6.827   2.347   5.205
10658TIP3   OH231916   6.647   2.922   6.270
10658TIP3    H131917   6.601   2.930   6.353
10658TIP3    H231918   6.625   3.002   6.222
10659TIP3   OH231919   6.533   2.797   5.801
10659TIP3    H131920   6.444   2.775   5.828
10659TIP3    H231921   6.541   2.763   5.712
10660TIP3   OH231922   7.012   2.870   5.528
10660TIP3    H131923   6.964   2.942   5.488
10660TIP3    H231924   7.071   2.839   5.459
10661TIP3   OH231925   7.200   3.139   6.595
10661TIP3    H131926   7.170   3.076   6.661
10661TIP3    H231927   7.292   3.154   6.617
10662TIP3   OH231928   7.181   2.885   5.751
10662TIP3    H131929   7.112   2.906   5.689
10662TIP3    H231930   7.229   2.812   5.711
10663TIP3   OH231931   6.492   2.932   6.497
10663TIP3    H131932   6.555   2.985   6.545
10663TIP3    H231933   6.475   2.857   6.555
10664TIP3   OH231934   6.530   2.408   5.215
10664TIP3    H131935   6.522   2.413   5.310
10664TIP3    H231936   6.453   2.452   5.182
10665TIP3   OH231937   6.079   2.453   6.082
10665TIP3    H131938   6.149   2.490   6.136
10665TIP3    H231939   6.120   2.442   5.996
10666TIP3   OH231940   5.985   2.430   5.584
10666TIP3    H131941   6.030   2.466   5.508
10666TIP3    H231942   5.923   2.499   5.610
10667TIP3   OH231943   7.224   3.141   6.176
10667TIP3    H131944   7.248   3.074   6.112
10667TIP3    H231945   7.180   3.092   6.246
10668TIP3   OH231946   6.896   2.586   5.851
10668TIP3    H131947   6.818   2.587   5.907
10668TIP3    H231948   6.969   2.580   5.912
10669TIP3   OH231949   6.293   2.676   5.865
10669TIP3    H131950   6.206   2.680   5.827
10669TIP3    H231951   6.322   2.586   5.848
10670TIP3   OH231952   6.545   2.674   5.555
10670TIP3    H131953   6.640   2.685   5.546
10670TIP3    H231954   6.510   2.692   5.468
10671TIP3   OH231955   7.346   2.676   6.059
10671TIP3    H131956   7.327   2.694   6.151
10671TIP3    H231957   7.278   2.616   6.031
10672TIP3   OH231958   6.434   2.699   5.306
10672TIP3    H131959   6.370   2.650   5.253
10672TIP3    H231960   6.487   2.745   5.242
10673TIP3   OH231961   7.543   4.381   6.282
10673TIP3    H131962   7.540   4.394   6.187
10673TIP3    H231963   7.623   4.426   6.310
10674TIP3   OH231964   6.947   2.959   5.959
10674TIP3    H131965   7.016   2.911   5.913
10674TIP3    H231966   6.943   2.918   6.046
10675TIP3   OH231967   6.436   2.427   5.847
10675TIP3    H131968   6.408   2.351   5.899
10675TIP3    H231969   6.459   2.391   5.762
10676TIP3   OH231970   6.916   2.863   6.225
10676TIP3    H131971   6.828   2.897   6.245
10676TIP3    H231972   6.975   2.916   6.277
10677TIP3   OH231973   6.661   3.223   5.320
10677TIP3    H131974   6.587   3.166   5.300
10677TIP3    H231975   6.638   3.264   5.403
10678TIP3   OH231976   7.541   3.475   5.944
10678TIP3    H131977   7.576   3.523   5.869
10678TIP3    H231978   7.462   3.432   5.909
10679TIP3   OH231979   7.117   2.530   5.245
10679TIP3    H131980   7.023   2.510   5.240
10679TIP3    H231981   7.121   2.625   5.255
10680TIP3   OH231982   7.044   3.574   6.360
10680TIP3    H131983   7.038   3.560   6.455
10680TIP3    H231984   7.001   3.658   6.345
10681TIP3   OH231985   7.176   2.795   5.312
10681TIP3    H131986   7.271   2.799   5.322
10681TIP3    H231987   7.155   2.872   5.259
10682TIP3   OH231988   6.339   3.225   5.985
10682TIP3    H131989   6.380   3.210   5.900
10682TIP3    H231990   6.405   3.195   6.048
10683TIP3   OH231991   6.813   3.380   5.148
10683TIP3    H131992   6.763   3.461   5.155
10683TIP3    H231993   6.766   3.318   5.203
10684TIP3   OH231994   6.208   3.195   6.664
10684TIP3    H131995   6.283   3.224   6.716
10684TIP3    H231996   6.180   3.113   6.705
10685TIP3   OH231997   6.964   3.304   6.660
10685TIP3    H131998   6.878   3.288   6.622
10685TIP3    H231999   7.024   3.251   6.609
10686TIP3   OH232000   7.203   3.845   6.239
10686TIP3    H132001   7.109   3.829   6.244
10686TIP3    H232002   7.226   3.876   6.327
10687TIP3   OH232003   7.585   2.887   5.125
10687TIP3    H132004   7.528   2.840   5.064
10687TIP3    H232005   7.589   2.976   5.091
10688TIP3   OH232006   7.841   3.763   6.210
10688TIP3    H132007   7.747   3.745   6.210
10688TIP3    H232008   7.872   3.729   6.126
10689TIP3   OH232009   7.296   3.718   5.052
10689TIP3    H132010   7.294   3.635   5.100
10689TIP3    H232011   7.339   3.696   4.969
10690TIP3   OH232012   7.315   3.336   5.840
10690TIP3    H132013   7.225   3.315   5.865
10690TIP3    H232014   7.349   3.255   5.802
10691TIP3   OH232015   6.468   3.569   5.648
10691TIP3    H132016   6.463   3.647   5.593
10691TIP3    H232017   6.380   3.561   5.686
10692TIP3   OH232018   6.029   2.856   5.368
10692TIP3    H132019   6.071   2.938   5.390
10692TIP3    H232020   5.947   2.856   5.418
10693TIP3   OH232021   6.553   3.326   5.547
10693TIP3    H132022   6.537   3.415   5.579
10693TIP3    H232023   6.531   3.270   5.621
10694TIP3   OH232024   6.741   3.898   6.111
10694TIP3    H132025   6.782   3.969   6.061
10694TIP3    H232026   6.813   3.863   6.164
10695TIP3   OH232027   6.383   3.798   5.501
10695TIP3    H132028   6.297   3.801   5.544
10695TIP3    H232029   6.416   3.888   5.508
10696TIP3   OH232030   7.103   3.559   6.091
10696TIP3    H132031   7.086   3.558   6.185
10696TIP3    H232032   7.182   3.507   6.080
10697TIP3   OH232033   7.060   3.419   4.997
10697TIP3    H132034   7.130   3.408   5.061
10697TIP3    H232035   6.979   3.405   5.047
10698TIP3   OH232036   7.357   4.052   6.124
10698TIP3    H132037   7.290   3.987   6.145
10698TIP3    H232038   7.320   4.103   6.052
10699TIP3   OH232039   6.440   2.677   6.627
10699TIP3    H132040   6.345   2.686   6.630
10699TIP3    H232041   6.462   2.625   6.705
10700TIP3   OH232042   7.262   3.379   5.181
10700TIP3    H132043   7.248   3.305   5.240
10700TIP3    H232044   7.356   3.376   5.160
10701TIP3   OH232045   6.163   3.786   6.270
10701TIP3    H132046   6.217   3.719   6.312
10701TIP3    H232047   6.182   3.866   6.320
10702TIP3   OH232048   6.419   3.404   4.963
10702TIP3    H132049   6.440   3.314   4.936
10702TIP3    H232050   6.416   3.400   5.058
10703TIP3   OH232051   6.389   3.418   5.238
10703TIP3    H132052   6.452   3.387   5.303
10703TIP3    H232053   6.392   3.514   5.245
10704TIP3   OH232054   6.122   3.108   5.447
10704TIP3    H132055   6.057   3.155   5.499
10704TIP3    H232056   6.141   3.166   5.374
10705TIP3   OH232057   7.286   2.737   6.319
10705TIP3    H132058   7.363   2.782   6.354
10705TIP3    H232059   7.274   2.661   6.376
10706TIP3   OH232060   7.177   2.481   5.512
10706TIP3    H132061   7.156   2.500   5.420
10706TIP3    H232062   7.221   2.561   5.543
10707TIP3   OH232063   6.660   3.602   5.162
10707TIP3    H132064   6.580   3.624   5.208
10707TIP3    H232065   6.678   3.678   5.106
10708TIP3   OH232066   6.825   2.681   5.599
10708TIP3    H132067   6.887   2.749   5.573
10708TIP3    H232068   6.848   2.660   5.690
10709TIP3   OH232069   7.125   2.976   6.373
10709TIP3    H132070   7.150   3.021   6.454
10709TIP3    H232071   7.174   2.895   6.374
10710TIP3   OH232072   6.990   2.377   5.687
10710TIP3    H132073   6.966   2.454   5.739
10710TIP3    H232074   7.060   2.408   5.629
10711TIP3   OH232075   6.415   3.691   5.251
10711TIP3    H132076   6.400   3.764   5.191
10711TIP3    H232077   6.402   3.729   5.338
10712TIP3   OH232078   6.503   2.401   5.494
10712TIP3    H132079   6.491   2.491   5.523
10712TIP3    H232080   6.597   2.386   5.501
10713TIP3   OH232081   7.746   2.888   6.382
10713TIP3    H132082   7.651   2.885   6.386
10713TIP3    H232083   7.768   2.866   6.291
10714TIP3   OH232084   7.404   3.077   5.752
10714TIP3    H132085   7.328   3.021   5.764
10714TIP3    H232086   7.472   3.039   5.807
10715TIP3   OH232087   6.145   3.285   5.230
10715TIP3    H132088   6.217   3.347   5.241
10715TIP3    H232089   6.177   3.221   5.167
10716TIP3   OH232090   6.051   2.578   5.362
10716TIP3    H132091   6.065   2.672   5.372
10716TIP3    H232092   5.986   2.571   5.292
10717TIP3   OH232093   7.382   4.054   5.693
10717TIP3    H132094   7.342   4.104   5.622
10717TIP3    H232095   7.476   4.068   5.682
10718TIP3   OH232096   6.455   2.299   6.230
10718TIP3    H132097   6.424   2.268   6.145
10718TIP3    H232098   6.444   2.224   6.288
10719TIP3   OH232099   5.972   3.558   5.617
10719TIP3    H132100   5.922   3.590   5.692
10719TIP3    H232101   5.931   3.599   5.541
10720TIP3   OH232102   6.186   4.092   6.695
10720TIP3    H132103   6.267   4.103   6.745
10720TIP3    H232104   6.179   3.997   6.681
10721TIP3   OH232105   6.646   4.005   6.729
10721TIP3    H132106   6.733   3.967   6.740
10721TIP3    H232107   6.607   3.954   6.658
10722TIP3   OH232108   6.604   3.567   4.838
10722TIP3    H132109   6.526   3.535   4.883
10722TIP3    H232110   6.668   3.496   4.848
10723TIP3   OH232111   7.263   3.939   6.489
10723TIP3    H132112   7.276   3.870   6.554
10723TIP3    H232113   7.337   3.998   6.503
10724TIP3   OH232114   6.267   3.519   6.885
10724TIP3    H132115   6.315   3.438   6.868
10724TIP3    H232116   6.184   3.509   6.838
10725TIP3   OH232117   6.271   3.096   5.079
10725TIP3    H132118   6.323   3.072   5.156
10725TIP3    H232119   6.335   3.109   5.009
10726TIP3   OH232120   6.931   3.581   6.627
10726TIP3    H132121   6.846   3.583   6.584
10726TIP3    H232122   6.943   3.490   6.653
10727TIP3   OH232123   6.761   3.340   4.876
10727TIP3    H132124   6.779   3.349   4.970
10727TIP3    H232125   6.765   3.246   4.859
10728TIP3   OH232126   7.372   3.612   6.274
10728TIP3    H132127   7.448   3.644   6.226
10728TIP3    H232128   7.306   3.679   6.262
10729TIP3   OH232129   6.409   3.280   6.839
10729TIP3    H132130   6.481   3.303   6.780
10729TIP3    H232131   6.448   3.280   6.926
10730TIP3   OH232132   6.449   3.043   5.289
10730TIP3    H132133   6.427   3.015   5.379
10730TIP3    H232134   6.495   2.968   5.251
10731TIP3   OH232135   6.717   3.094   6.539
10731TIP3    H132136   6.676   3.173   6.575
10731TIP3    H232137   6.770   3.125   6.466
10732TIP3   OH232138   6.584   2.854   5.135
10732TIP3    H132139   6.553   2.856   5.044
10732TIP3    H232140   6.679   2.864   5.128
10733TIP3   OH232141   7.278   3.497   6.660
10733TIP3    H132142   7.307   3.451   6.581
10733TIP3    H232143   7.261   3.428   6.724
10734TIP3   OH232144   7.363   3.169   4.813
10734TIP3    H132145   7.355   3.128   4.727
10734TIP3    H232146   7.322   3.255   4.802
10735TIP3   OH232147   6.860   2.888   6.650
10735TIP3    H132148   6.865   2.816   6.586
10735TIP3    H232149   6.814   2.958   6.603
10736TIP3   OH232150   6.868   2.688   6.449
10736TIP3    H132151   6.894   2.727   6.366
10736TIP3    H232152   6.777   2.662   6.435
10737TIP3   OH232153   6.873   3.209   6.347
10737TIP3    H132154   6.961   3.239   6.323
10737TIP3    H232155   6.815   3.270   6.301
10738TIP3   OH232156   7.472   3.166   6.697
10738TIP3    H132157   7.519   3.083   6.702
10738TIP3    H232158   7.539   3.230   6.671
10739TIP3   OH232159   7.499   3.434   6.437
10739TIP3    H132160   7.443   3.496   6.390
10739TIP3    H232161   7.587   3.453   6.407
10740TIP3   OH232162   6.747   2.965   6.897
10740TIP3    H132163   6.675   2.902   6.912
10740TIP3    H232164   6.773   2.950   6.806
10741TIP3   OH232165   6.985   2.457   6.553
10741TIP3    H132166   6.946   2.537   6.518
10741TIP3    H232167   6.919   2.389   6.538
10742TIP3   OH232168   7.113   2.932   6.755
10742TIP3    H132169   7.101   2.921   6.849
10742TIP3    H232170   7.027   2.913   6.717
10743TIP3   OH232171   7.349   2.875   6.616
10743TIP3    H132172   7.272   2.881   6.672
10743TIP3    H232173   7.422   2.861   6.676
10744TIP3   OH232174   7.592   2.862   6.757
10744TIP3    H132175   7.604   2.767   6.761
10744TIP3    H232176   7.587   2.890   6.848
10745TIP3   OH232177   0.905   6.760   0.021
10745TIP3    H132178   0.911   6.672  -0.016
10745TIP3    H232179   0.945   6.753   0.108
10746TIP3   OH232180   7.051   2.425   6.817
10746TIP3    H132181   7.122   2.363   6.804
10746TIP3    H232182   7.017   2.442   6.729
10747TIP3   OH232183   7.151   2.651   6.944
10747TIP3    H132184   7.116   2.578   6.892
10747TIP3    H232185   7.078   2.713   6.949
10748TIP3   OH232186   6.435   3.900   5.066
10748TIP3    H132187   6.515   3.870   5.024
10748TIP3    H232188   6.388   3.947   4.997
10749TIP3   OH232189   5.871   3.285   5.241
10749TIP3    H132190   5.966   3.294   5.242
10749TIP3    H232191   5.855   3.197   5.206
10750TIP3   OH232192   5.776   3.874   5.708
10750TIP3    H132193   5.712   3.820   5.662
10750TIP3    H232194   5.819   3.814   5.769
10751TIP3   OH232195   5.915   3.706   5.878
10751TIP3    H132196   5.905   3.635   5.941
10751TIP3    H232197   5.968   3.771   5.923
10752TIP3   OH232198   7.647   4.120   5.684
10752TIP3    H132199   7.676   4.135   5.773
10752TIP3    H232200   7.716   4.157   5.629
10753TIP3   OH232201   7.677   4.133   5.965
10753TIP3    H132202   7.629   4.050   5.959
10753TIP3    H232203   7.747   4.115   6.029
10754TIP3   OH232204   7.724   3.829   6.533
10754TIP3    H132205   7.650   3.836   6.594
10754TIP3    H232206   7.765   3.915   6.536
10755TIP3   OH232207   7.534   3.346   5.150
10755TIP3    H132208   7.590   3.414   5.113
10755TIP3    H232209   7.586   3.309   5.222
10756TIP3   OH232210   7.674   3.207   5.344
10756TIP3    H132211   7.608   3.170   5.403
10756TIP3    H232212   7.741   3.243   5.402
10757TIP3   OH232213   7.713   3.612   5.773
10757TIP3    H132214   7.762   3.537   5.739
10757TIP3    H232215   7.724   3.680   5.707
10758TIP3   OH232216   7.532   3.896   5.971
10758TIP3    H132217   7.464   3.940   6.023
10758TIP3    H232218   7.485   3.854   5.900
10759TIP3   OH232219   7.573   3.127   4.988
10759TIP3    H132220   7.502   3.133   4.923
10759TIP3    H232221   7.559   3.201   5.046
10760TIP3   OH232222   7.430   2.780   4.930
10760TIP3    H132223   7.388   2.810   4.850
10760TIP3    H232224   7.423   2.684   4.926
10761TIP3   OH232225   7.473   3.067   5.483
10761TIP3    H132226   7.480   2.973   5.470
10761TIP3    H232227   7.455   3.078   5.577
10762TIP3   OH232228   6.095   3.143   6.255
10762TIP3    H132229   6.091   3.108   6.166
10762TIP3    H232230   6.187   3.137   6.279
10763TIP3   OH232231   7.752   3.487   6.340
10763TIP3    H132232   7.816   3.418   6.323
10763TIP3    H232233   7.759   3.545   6.264
10764TIP3   OH232234   7.916   3.270   6.333
10764TIP3    H132235   7.846   3.232   6.385
10764TIP3    H232236   7.994   3.219   6.355
10765TIP3   OH232237   7.393   2.511   4.915
10765TIP3    H132238   7.462   2.478   4.973
10765TIP3    H232239   7.314   2.464   4.943
10766TIP3   OH232240   7.467   2.790   5.368
10766TIP3    H132241   7.513   2.708   5.381
10766TIP3    H232242   7.507   2.829   5.290
10767TIP3   OH232243   7.619   2.958   5.892
10767TIP3    H132244   7.700   2.978   5.846
10767TIP3    H232245   7.631   2.998   5.979
10768TIP3   OH232246   7.687   3.105   6.123
10768TIP3    H132247   7.615   3.136   6.177
10768TIP3    H232248   7.719   3.184   6.080
10769TIP3   OH232249   6.308   2.803   6.897
10769TIP3    H132250   6.402   2.803   6.915
10769TIP3    H232251   6.276   2.723   6.938
10770TIP3   OH232252   8.149   2.710   6.667
10770TIP3    H132253   8.210   2.646   6.628
10770TIP3    H232254   8.112   2.756   6.593
10771TIP3   OH232255   7.583   2.542   5.421
10771TIP3    H132256   7.630   2.527   5.503
10771TIP3    H232257   7.521   2.469   5.416
10772TIP3   OH232258   6.290   2.524   6.247
10772TIP3    H132259   6.346   2.446   6.253
10772TIP3    H232260   6.352   2.595   6.230
10773TIP3   OH232261   6.065   2.782   6.317
10773TIP3    H132262   6.122   2.786   6.240
10773TIP3    H232263   6.069   2.870   6.354
10774TIP3   OH232264   8.000   2.810   6.464
10774TIP3    H132265   7.917   2.853   6.482
10774TIP3    H232266   7.977   2.738   6.405
10775TIP3   OH232267   7.629   2.455   5.057
10775TIP3    H132268   7.677   2.396   5.001
10775TIP3    H232269   7.683   2.534   5.062
10776TIP3   OH232270   6.056   2.292   5.809
10776TIP3    H132271   5.971   2.283   5.852
10776TIP3    H232272   6.039   2.349   5.734
10777TIP3   OH232273   7.207   4.021   5.322
10777TIP3    H132274   7.266   4.011   5.248
10777TIP3    H232275   7.250   4.085   5.379
10778TIP3   OH232276   6.281   2.345   6.630
10778TIP3    H132277   6.233   2.347   6.713
10778TIP3    H232278   6.227   2.397   6.570
10779TIP3   OH232279   6.298   3.812   6.692
10779TIP3    H132280   6.205   3.789   6.694
10779TIP3    H232281   6.338   3.752   6.756
10780TIP3   OH232282   6.509   3.850   6.254
10780TIP3    H132283   6.464   3.928   6.222
10780TIP3    H232284   6.596   3.856   6.215
10781TIP3   OH232285   6.920   4.091   6.398
10781TIP3    H132286   6.958   4.079   6.485
10781TIP3    H232287   6.985   4.143   6.351
10782TIP3   OH232288   7.113   4.240   6.268
10782TIP3    H132289   7.174   4.183   6.221
10782TIP3    H232290   7.169   4.297   6.321
10783TIP3   OH232291   7.903   2.583   6.341
10783TIP3    H132292   7.820   2.591   6.294
10783TIP3    H232293   7.928   2.491   6.330
10784TIP3   OH232294   6.180   4.111   6.299
10784TIP3    H132295   6.088   4.130   6.282
10784TIP3    H232296   6.205   4.171   6.369
10785TIP3   OH232297   6.413   4.089   6.154
10785TIP3    H132298   6.330   4.097   6.201
10785TIP3    H232299   6.390   4.110   6.063
10786TIP3   OH232300   6.828   4.106   5.945
10786TIP3    H132301   6.754   4.117   5.885
10786TIP3    H232302   6.838   4.191   5.987
10787TIP3   OH232303   7.093   4.043   5.993
10787TIP3    H132304   7.001   4.061   5.974
10787TIP3    H232305   7.141   4.111   5.946
10788TIP3   OH232306   7.295   4.217   5.897
10788TIP3    H132307   7.293   4.304   5.856
10788TIP3    H232308   7.325   4.158   5.828
10789TIP3   OH232309   6.095   3.878   6.020
10789TIP3    H132310   6.119   3.853   6.110
10789TIP3    H232311   6.165   3.843   5.966
10790TIP3   OH232312   6.297   3.754   5.884
10790TIP3    H132313   6.307   3.670   5.929
10790TIP3    H232314   6.384   3.794   5.888
10791TIP3   OH232315   6.561   3.850   5.905
10791TIP3    H132316   6.584   3.758   5.889
10791TIP3    H232317   6.613   3.874   5.983
10792TIP3   OH232318   7.125   2.499   5.992
10792TIP3    H132319   7.085   2.427   6.041
10792TIP3    H232320   7.192   2.457   5.938
10793TIP3   OH232321   7.627   2.410   5.876
10793TIP3    H132322   7.666   2.460   5.804
10793TIP3    H232323   7.536   2.440   5.878
10794TIP3   OH232324   7.745   2.488   5.640
10794TIP3    H132325   7.814   2.428   5.614
10794TIP3    H232326   7.781   2.575   5.623
10795TIP3   OH232327   6.365   2.198   5.989
10795TIP3    H132328   6.275   2.165   5.998
10795TIP3    H232329   6.418   2.119   5.980
10796TIP3   OH232330   6.184   2.102   5.641
10796TIP3    H132331   6.210   2.153   5.564
10796TIP3    H232332   6.146   2.167   5.700
10797TIP3   OH232333   6.845   2.236   5.885
10797TIP3    H132334   6.892   2.283   5.817
10797TIP3    H232335   6.884   2.266   5.967
10798TIP3   OH232336   7.336   2.380   5.859
10798TIP3    H132337   7.354   2.347   5.772
10798TIP3    H232338   7.343   2.304   5.917
10799TIP3   OH232339   7.397   2.331   5.428
10799TIP3    H132340   7.318   2.378   5.452
10799TIP3    H232341   7.386   2.244   5.466
10800TIP3   OH232342   5.859   3.677   5.395
10800TIP3    H132343   5.774   3.644   5.366
10800TIP3    H232344   5.861   3.768   5.364
10801TIP3   OH232345   6.292   2.233   5.405
10801TIP3    H132346   6.338   2.173   5.346
10801TIP3    H232347   6.361   2.290   5.440
10802TIP3   OH232348   6.778   2.429   5.503
10802TIP3    H132349   6.838   2.377   5.557
10802TIP3    H232350   6.792   2.519   5.531
10803TIP3   OH232351   6.674   3.803   4.969
10803TIP3    H132352   6.766   3.819   4.948
10803TIP3    H232353   6.648   3.732   4.910
10804TIP3   OH232354   7.365   3.977   5.095
10804TIP3    H132355   7.347   3.883   5.091
10804TIP3    H232356   7.343   4.010   5.008
10805TIP3   OH232357   6.585   2.483   6.871
10805TIP3    H132358   6.550   2.415   6.929
10805TIP3    H232359   6.677   2.491   6.895
10806TIP3   OH232360   1.167   6.496   0.052
10806TIP3    H132361   1.244   6.469   0.002
10806TIP3    H232362   1.158   6.428   0.119
10807TIP3   OH232363   5.967   3.667   5.058
10807TIP3    H132364   5.967   3.665   5.154
10807TIP3    H232365   6.048   3.623   5.033
10808TIP3   OH232366   7.649   2.591   6.760
10808TIP3    H132367   7.659   2.566   6.852
10808TIP3    H232368   7.736   2.584   6.723
10809TIP3   OH232369   7.580   4.107   6.285
10809TIP3    H132370   7.505   4.077   6.234
10809TIP3    H232371   7.566   4.202   6.293
10810TIP3   OH232372   8.110   3.332   5.827
10810TIP3    H132373   8.150   3.299   5.907
10810TIP3    H232374   8.184   3.359   5.772
10811TIP3   OH232375   8.102   3.790   5.517
10811TIP3    H132376   8.091   3.695   5.521
10811TIP3    H232377   8.195   3.802   5.499
10812TIP3   OH232378   7.816   2.978   5.259
10812TIP3    H132379   7.782   3.063   5.288
10812TIP3    H232380   7.740   2.935   5.220
10813TIP3   OH232381   7.900   3.289   5.483
10813TIP3    H132382   7.949   3.210   5.506
10813TIP3    H232383   7.966   3.356   5.469
10814TIP3   OH232384   0.342   4.275   5.158
10814TIP3    H132385   0.408   4.217   5.196
10814TIP3    H232386   0.278   4.216   5.119
10815TIP3   OH232387   0.244   3.575   5.409
10815TIP3    H132388   0.239   3.598   5.316
10815TIP3    H232389   0.315   3.630   5.444
10816TIP3   OH232390   8.352   2.820   5.522
10816TIP3    H132391   8.372   2.858   5.437
10816TIP3    H232392   8.378   2.728   5.514
10817TIP3   OH232393   8.024   3.057   5.568
10817TIP3    H132394   8.104   3.042   5.620
10817TIP3    H232395   8.033   3.000   5.492
10818TIP3   OH232396   8.383   3.330   5.334
10818TIP3    H132397   8.472   3.319   5.367
10818TIP3    H232398   8.348   3.240   5.330
10819TIP3   OH232399   8.378   2.848   5.926
10819TIP3    H132400   8.335   2.894   5.853
10819TIP3    H232401   8.315   2.852   5.998
10820TIP3   OH232402   8.470   3.630   5.680
10820TIP3    H132403   8.406   3.691   5.716
10820TIP3    H232404   8.453   3.632   5.585
10821TIP3   OH232405   8.240   2.961   5.720
10821TIP3    H132406   8.292   3.041   5.721
10821TIP3    H232407   8.278   2.909   5.649
10822TIP3   OH232408   8.307   3.826   5.776
10822TIP3    H132409   8.297   3.915   5.742
10822TIP3    H232410   8.228   3.813   5.829
10823TIP3   OH232411   7.685   3.531   5.013
10823TIP3    H132412   7.642   3.554   4.930
10823TIP3    H232413   7.714   3.615   5.049
10824TIP3   OH232414   8.165   3.451   5.247
10824TIP3    H132415   8.133   3.391   5.180
10824TIP3    H232416   8.240   3.406   5.286
10825TIP3   OH232417   8.343   3.875   5.385
10825TIP3    H132418   8.314   3.838   5.301
10825TIP3    H232419   8.435   3.851   5.391
10826TIP3   OH232420   8.315   3.385   5.650
10826TIP3    H132421   8.345   3.315   5.592
10826TIP3    H232422   8.387   3.448   5.652
10827TIP3   OH232423   8.503   3.904   5.955
10827TIP3    H132424   8.447   3.971   5.995
10827TIP3    H232425   8.446   3.862   5.889
10828TIP3   OH232426   8.290   3.510   6.061
10828TIP3    H132427   8.286   3.599   6.097
10828TIP3    H232428   8.199   3.480   6.064
10829TIP3   OH232429   8.466   3.941   5.000
10829TIP3    H132430   8.542   3.982   5.041
10829TIP3    H232431   8.463   3.978   4.912
10830TIP3   OH232432   8.320   4.094   6.024
10830TIP3    H132433   8.292   4.100   5.933
10830TIP3    H232434   8.238   4.082   6.073
10831TIP3   OH232435   8.112   3.260   5.056
10831TIP3    H132436   8.034   3.297   5.015
10831TIP3    H232437   8.086   3.172   5.084
10832TIP3   OH232438   7.912   3.651   5.972
10832TIP3    H132439   7.845   3.627   5.908
10832TIP3    H232440   7.948   3.567   6.000
10833TIP3   OH232441   7.799   3.829   5.606
10833TIP3    H132442   7.894   3.823   5.595
10833TIP3    H232443   7.786   3.903   5.666
10834TIP3   OH232444   0.172   4.061   5.777
10834TIP3    H132445   0.124   4.057   5.860
10834TIP3    H232446   0.165   3.972   5.741
10835TIP3   OH232447   8.484   4.227   4.879
10835TIP3    H132448   8.479   4.162   4.809
10835TIP3    H232449   8.431   4.300   4.847
10836TIP3   OH232450   7.916   4.026   5.154
10836TIP3    H132451   7.989   4.027   5.216
10836TIP3    H232452   7.840   4.002   5.207
10837TIP3   OH232453   0.354   4.174   4.806
10837TIP3    H132454   0.316   4.232   4.741
10837TIP3    H232455   0.427   4.131   4.761
10838TIP3   OH232456   8.094   3.852   5.949
10838TIP3    H132457   8.147   3.838   6.028
10838TIP3    H232458   8.028   3.784   5.952
10839TIP3   OH232459   8.451   2.614   5.807
10839TIP3    H132460   8.372   2.594   5.758
10839TIP3    H232461   8.436   2.702   5.842
10840TIP3   OH232462   8.403   3.171   5.837
10840TIP3    H132463   8.344   3.194   5.909
10840TIP3    H232464   8.383   3.234   5.768
10841TIP3   OH232465   8.248   3.091   5.313
10841TIP3    H132466   8.185   3.019   5.316
10841TIP3    H232467   8.292   3.080   5.229
10842TIP3   OH232468   8.226   3.197   6.044
10842TIP3    H132469   8.264   3.234   6.124
10842TIP3    H232470   8.204   3.107   6.068
10843TIP3   OH232471   8.307   2.629   4.677
10843TIP3    H132472   8.306   2.611   4.771
10843TIP3    H232473   8.252   2.706   4.667
10844TIP3   OH232474   7.867   2.715   5.561
10844TIP3    H132475   7.922   2.748   5.631
10844TIP3    H232476   7.918   2.729   5.481
10845TIP3   OH232477   7.782   2.691   5.076
10845TIP3    H132478   7.838   2.731   5.009
10845TIP3    H232479   7.716   2.758   5.095
10846TIP3   OH232480   8.060   2.892   5.347
10846TIP3    H132481   7.976   2.907   5.305
10846TIP3    H232482   8.091   2.810   5.309
10847TIP3   OH232483   8.380   2.887   4.978
10847TIP3    H132484   8.452   2.919   4.923
10847TIP3    H232485   8.306   2.944   4.956
10848TIP3   OH232486   8.134   2.986   4.904
10848TIP3    H132487   8.052   2.942   4.926
10848TIP3    H232488   8.157   2.953   4.817
10849TIP3   OH232489   8.247   3.767   6.176
10849TIP3    H132490   8.325   3.788   6.227
10849TIP3    H232491   8.178   3.757   6.241
10850TIP3   OH232492   8.191   2.661   5.256
10850TIP3    H132493   8.179   2.595   5.324
10850TIP3    H232494   8.203   2.612   5.176
10851TIP3   OH232495   0.168   3.121   5.845
10851TIP3    H132496   0.076   3.147   5.852
10851TIP3    H232497   0.183   3.113   5.751
10852TIP3   OH232498   8.497   3.400   4.933
10852TIP3    H132499   8.439   3.428   4.862
10852TIP3    H232500   8.468   3.451   5.009
10853TIP3   OH232501   0.403   3.771   5.771
10853TIP3    H132502   0.447   3.699   5.816
10853TIP3    H232503   0.362   3.822   5.840
10854TIP3   OH232504   8.099   3.506   5.508
10854TIP3    H132505   8.124   3.502   5.416
10854TIP3    H232506   8.173   3.469   5.555
10855TIP3   OH232507   0.097   3.548   4.644
10855TIP3    H132508   0.007   3.555   4.675
10855TIP3    H232509   0.130   3.467   4.685
10856TIP3   OH232510   8.021   3.443   6.119
10856TIP3    H132511   8.049   3.436   6.211
10856TIP3    H232512   7.961   3.369   6.107
10857TIP3   OH232513   0.221   3.508   6.147
10857TIP3    H132514   0.147   3.456   6.115
10857TIP3    H232515   0.293   3.445   6.156
10858TIP3   OH232516   8.260   3.814   5.128
10858TIP3    H132517   8.318   3.877   5.085
10858TIP3    H232518   8.174   3.829   5.087
10859TIP3   OH232519   7.808   3.109   4.846
10859TIP3    H132520   7.849   3.194   4.864
10859TIP3    H232521   7.726   3.111   4.894
10860TIP3   OH232522   8.385   3.568   5.128
10860TIP3    H132523   8.356   3.658   5.113
10860TIP3    H232524   8.311   3.526   5.170
10861TIP3   OH232525   0.006   4.172   5.595
10861TIP3    H132526   0.040   4.255   5.562
10861TIP3    H232527   0.077   4.134   5.646
10862TIP3   OH232528   8.137   4.052   4.974
10862TIP3    H132529   8.056   4.050   5.023
10862TIP3    H232530   8.166   4.143   4.977
10863TIP3   OH232531   8.208   2.908   6.138
10863TIP3    H132532   8.114   2.927   6.137
10863TIP3    H232533   8.217   2.836   6.200
10864TIP3   OH232534   7.956   4.048   5.768
10864TIP3    H132535   8.005   3.985   5.820
10864TIP3    H232536   7.972   4.132   5.811
10865TIP3   OH232537   8.165   3.649   4.469
10865TIP3    H132538   8.117   3.571   4.498
10865TIP3    H232539   8.225   3.669   4.541
10866TIP3   OH232540   8.109   3.717   4.775
10866TIP3    H132541   8.194   3.684   4.747
10866TIP3    H232542   8.114   3.812   4.760
10867TIP3   OH232543   7.891   3.364   4.931
10867TIP3    H132544   7.822   3.404   4.983
10867TIP3    H232545   7.906   3.426   4.859
10868TIP3   OH232546   8.371   3.762   4.610
10868TIP3    H132547   8.344   3.852   4.630
10868TIP3    H232548   8.455   3.773   4.564
10869TIP3   OH232549   8.186   3.970   4.716
10869TIP3    H132550   8.159   4.044   4.661
10869TIP3    H232551   8.177   4.003   4.805
10870TIP3   OH232552   8.292   2.626   4.964
10870TIP3    H132553   8.302   2.721   4.965
10870TIP3    H232554   8.379   2.593   4.988
10871TIP3   OH232555   7.888   3.563   4.737
10871TIP3    H132556   7.952   3.631   4.758
10871TIP3    H232557   7.931   3.510   4.669
10872TIP3   OH232558   7.890   2.848   4.875
10872TIP3    H132559   7.856   2.937   4.864
10872TIP3    H232560   7.869   2.804   4.793
10873TIP3   OH232561   8.201   2.551   5.706
10873TIP3    H132562   8.190   2.526   5.614
10873TIP3    H232563   8.205   2.467   5.753
10874TIP3   OH232564   7.761   3.778   5.106
10874TIP3    H132565   7.734   3.813   5.191
10874TIP3    H232566   7.827   3.840   5.075
10875TIP3   OH232567   7.970   4.350   6.185
10875TIP3    H132568   8.049   4.357   6.238
10875TIP3    H232569   7.960   4.256   6.169
10876TIP3   OH232570   8.415   4.277   6.206
10876TIP3    H132571   8.501   4.243   6.231
10876TIP3    H232572   8.386   4.218   6.136
10877TIP3   OH232573   8.343   3.964   4.398
10877TIP3    H132574   8.251   3.938   4.405
10877TIP3    H232575   8.390   3.882   4.381
10878TIP3   OH232576   8.059   3.740   6.377
10878TIP3    H132577   8.081   3.647   6.382
10878TIP3    H232578   7.975   3.742   6.333
10879TIP3   OH232579   8.023   3.387   4.584
10879TIP3    H132580   8.062   3.337   4.656
10879TIP3    H232581   8.065   3.352   4.505
10880TIP3   OH232582   0.080   3.742   6.165
10880TIP3    H132583   0.051   3.777   6.081
10880TIP3    H232584   0.123   3.660   6.144
10881TIP3   OH232585   0.095   3.433   4.382
10881TIP3    H132586   0.123   3.491   4.453
10881TIP3    H232587   0.013   3.394   4.414
10882TIP3   OH232588   8.170   3.481   6.367
10882TIP3    H132589   8.226   3.412   6.332
10882TIP3    H232590   8.210   3.505   6.450
10883TIP3   OH232591   8.170   3.262   4.778
10883TIP3    H132592   8.154   3.223   4.864
10883TIP3    H232593   8.226   3.198   4.733
10884TIP3   OH232594   8.518   3.356   6.056
10884TIP3    H132595   8.434   3.403   6.065
10884TIP3    H232596   8.540   3.364   5.963
10885TIP3   OH232597   8.340   3.108   4.628
10885TIP3    H132598   8.358   3.178   4.565
10885TIP3    H232599   8.399   3.037   4.603
10886TIP3   OH232600   0.154   3.183   6.239
10886TIP3    H132601   0.102   3.107   6.215
10886TIP3    H232602   0.111   3.257   6.196
10887TIP3   OH232603   0.157   2.872   5.961
10887TIP3    H132604   0.166   2.953   5.911
10887TIP3    H232605   0.069   2.842   5.942
10888TIP3   OH232606   0.112   3.434   5.812
10888TIP3    H132607   0.200   3.469   5.821
10888TIP3    H232608   0.064   3.501   5.763
10889TIP3   OH232609   8.329   3.259   6.301
10889TIP3    H132610   8.360   3.172   6.325
10889TIP3    H232611   8.406   3.315   6.309
10890TIP3   OH232612   8.346   3.003   6.427
10890TIP3    H132613   8.358   2.915   6.393
10890TIP3    H232614   8.394   3.004   6.510
10891TIP3   OH232615   8.151   4.194   4.564
10891TIP3    H132616   8.246   4.206   4.567
10891TIP3    H232617   8.127   4.217   4.474
10892TIP3   OH232618   7.621   3.534   4.707
10892TIP3    H132619   7.714   3.550   4.724
10892TIP3    H232620   7.617   3.442   4.682
10893TIP3   OH232621   7.572   4.121   5.199
10893TIP3    H132622   7.506   4.068   5.155
10893TIP3    H232623   7.616   4.060   5.258
10894TIP3   OH232624   7.733   3.959   5.358
10894TIP3    H132625   7.724   3.885   5.418
10894TIP3    H232626   7.769   4.029   5.412
10895TIP3   OH232627   7.863   3.386   5.738
10895TIP3    H132628   7.860   3.354   5.647
10895TIP3    H232629   7.955   3.378   5.763
10896TIP3   OH232630   8.083   3.063   6.389
10896TIP3    H132631   8.179   3.064   6.397
10896TIP3    H232632   8.057   2.981   6.432
10897TIP3   OH232633   8.045   2.770   5.764
10897TIP3    H132634   8.100   2.693   5.749
10897TIP3    H232635   8.105   2.844   5.755
10898TIP3   OH232636   7.862   3.051   5.799
10898TIP3    H132637   7.905   3.040   5.714
10898TIP3    H232638   7.899   3.133   5.833
10899TIP3   OH232639   7.851   2.527   5.284
10899TIP3    H132640   7.771   2.529   5.337
10899TIP3    H232641   7.836   2.593   5.216
10900TIP3   OH232642   8.074   2.622   6.122
10900TIP3    H132643   8.019   2.612   6.200
10900TIP3    H232644   8.017   2.667   6.059
10901TIP3   OH232645   8.101   4.076   6.194
10901TIP3    H132646   8.009   4.051   6.185
10901TIP3    H232647   8.122   4.060   6.286
10902TIP3   OH232648   8.290   4.100   5.746
10902TIP3    H132649   8.231   4.167   5.710
10902TIP3    H232650   8.372   4.114   5.698
10903TIP3   OH232651   0.172   4.325   5.939
10903TIP3    H132652   0.219   4.244   5.960
10903TIP3    H232653   0.200   4.347   5.850
10904TIP3   OH232654   0.525   4.561   5.762
10904TIP3    H132655   0.530   4.551   5.667
10904TIP3    H232656   0.592   4.626   5.783
10905TIP3   OH232657   7.961   4.349   5.803
10905TIP3    H132658   7.871   4.374   5.781
10905TIP3    H232659   7.991   4.416   5.865
10906TIP3   OH232660   8.168   4.316   5.631
10906TIP3    H132661   8.087   4.327   5.680
10906TIP3    H232662   8.149   4.349   5.544
10907TIP3   OH232663   0.069   4.413   5.481
10907TIP3    H132664   0.052   4.424   5.388
10907TIP3    H232665   0.012   4.477   5.524
10908TIP3   OH232666   0.325   4.246   5.468
10908TIP3    H132667   0.281   4.318   5.422
10908TIP3    H232668   0.383   4.208   5.402
10909TIP3   OH232669   7.881   4.142   5.519
10909TIP3    H132670   7.907   4.115   5.607
10909TIP3    H232671   7.952   4.110   5.463
10910TIP3   OH232672   8.075   4.026   5.373
10910TIP3    H132673   8.088   3.942   5.417
10910TIP3    H232674   8.159   4.070   5.379
10911TIP3   OH232675   8.321   4.143   5.394
10911TIP3    H132676   8.341   4.051   5.376
10911TIP3    H232677   8.380   4.167   5.465
10912TIP3   OH232678   8.158   2.452   5.446
10912TIP3    H132679   8.068   2.423   5.460
10912TIP3    H232680   8.211   2.374   5.459
10913TIP3   OH232681   7.991   2.347   5.121
10913TIP3    H132682   8.005   2.403   5.044
10913TIP3    H232683   7.947   2.403   5.184
10914TIP3   OH232684   8.061   2.491   4.892
10914TIP3    H132685   8.099   2.426   4.833
10914TIP3    H232686   8.136   2.544   4.919
10915TIP3   OH232687   8.424   4.189   4.543
10915TIP3    H132688   8.509   4.229   4.527
10915TIP3    H232689   8.411   4.129   4.469
10916TIP3   OH232690   8.369   2.723   6.356
10916TIP3    H132691   8.349   2.661   6.427
10916TIP3    H232692   8.464   2.727   6.354
10917TIP3   OH232693   1.317   4.268   6.729
10917TIP3    H132694   1.285   4.356   6.710
10917TIP3    H232695   1.247   4.210   6.698
10918TIP3   OH232696   6.975   0.292   0.168
10918TIP3    H132697   7.025   0.261   0.243
10918TIP3    H232698   6.934   0.212   0.133
10919TIP3   OH232699   6.289   0.191   0.503
10919TIP3    H132700   6.252   0.103   0.504
10919TIP3    H232701   6.375   0.181   0.462
10920TIP3   OH232702   1.578   4.587   6.810
10920TIP3    H132703   1.567   4.519   6.877
10920TIP3    H232704   1.597   4.667   6.860
10921TIP3   OH232705   6.260   0.562   0.186
10921TIP3    H132706   6.234   0.472   0.205
10921TIP3    H232707   6.355   0.562   0.194
10922TIP3   OH232708   6.026   0.092   0.204
10922TIP3    H132709   6.070   0.023   0.254
10922TIP3    H232710   6.083   0.168   0.213
10923TIP3   OH232711   1.219   5.010   6.830
10923TIP3    H132712   1.248   4.942   6.769
10923TIP3    H232713   1.222   4.968   6.916
10924TIP3   OH232714   6.787   0.500   0.207
10924TIP3    H132715   6.829   0.422   0.171
10924TIP3    H232716   6.859   0.555   0.238
10925TIP3   OH232717   4.986   7.840   0.196
10925TIP3    H132718   5.004   7.923   0.241
10925TIP3    H232719   5.020   7.852   0.108
10926TIP3   OH232720   4.353   7.980   0.232
10926TIP3    H132721   4.399   7.900   0.256
10926TIP3    H232722   4.322   7.964   0.143
10927TIP3   OH232723   3.740   7.662   0.163
10927TIP3    H132724   3.712   7.742   0.119
10927TIP3    H232725   3.681   7.595   0.130
10928TIP3   OH232726   1.579   3.745   6.767
10928TIP3    H132727   1.647   3.739   6.834
10928TIP3    H232728   1.625   3.780   6.690
10929TIP3   OH232729   3.351   7.905   0.311
10929TIP3    H132730   3.429   7.869   0.353
10929TIP3    H232731   3.339   7.851   0.233
10930TIP3   OH232732   6.601   0.050   0.141
10930TIP3    H132733   6.695   0.043   0.123
10930TIP3    H232734   6.563  -0.027   0.099
10931TIP3   OH232735   7.884   0.033   0.383
10931TIP3    H132736   7.792   0.028   0.410
10931TIP3    H232737   7.926   0.086   0.451
10932TIP3   OH232738   3.687   7.700   0.649
10932TIP3    H132739   3.632   7.739   0.580
10932TIP3    H232740   3.625   7.664   0.712
10933TIP3   OH232741   1.189   4.478   6.611
10933TIP3    H132742   1.167   4.469   6.518
10933TIP3    H232743   1.146   4.559   6.638
10934TIP3   OH232744   6.636   0.423   0.427
10934TIP3    H132745   6.575   0.489   0.459
10934TIP3    H232746   6.680   0.465   0.353
10935TIP3   OH232747   4.584   7.778   0.035
10935TIP3    H132748   4.543   7.752   0.118
10935TIP3    H232749   4.636   7.855   0.057
10936TIP3   OH232750   3.592   7.801   0.392
10936TIP3    H132751   3.659   7.867   0.408
10936TIP3    H232752   3.632   7.740   0.330
10937TIP3   OH232753   6.455   0.601   0.550
10937TIP3    H132754   6.413   0.680   0.516
10937TIP3    H232755   6.396   0.570   0.619
10938TIP3   OH232756   7.276   0.833   0.010
10938TIP3    H132757   7.189   0.823   0.049
10938TIP3    H232758   7.272   0.916  -0.037
10939TIP3   OH232759   4.768   7.727   0.326
10939TIP3    H132760   4.680   7.728   0.288
10939TIP3    H232761   4.824   7.763   0.258
10940TIP3   OH232762   4.069   7.335   0.239
10940TIP3    H132763   4.071   7.254   0.290
10940TIP3    H232764   4.011   7.393   0.289
10941TIP3   OH232765   1.320   4.857   6.618
10941TIP3    H132766   1.368   4.775   6.606
10941TIP3    H232767   1.380   4.925   6.587
10942TIP3   OH232768   1.475   4.643   6.560
10942TIP3    H132769   1.483   4.568   6.501
10942TIP3    H232770   1.513   4.614   6.643
10943TIP3   OH232771   7.524   0.706   0.354
10943TIP3    H132772   7.501   0.633   0.297
10943TIP3    H232773   7.510   0.784   0.301
10944TIP3   OH232774   1.141   4.122   6.568
10944TIP3    H132775   1.051   4.152   6.554
10944TIP3    H232776   1.180   4.124   6.480
10945TIP3   OH232777   1.128   3.911   6.266
10945TIP3    H132778   1.193   3.965   6.311
10945TIP3    H232779   1.179   3.852   6.211
10946TIP3   OH232780   7.701   0.384   0.220
10946TIP3    H132781   7.614   0.425   0.215
10946TIP3    H232782   7.736   0.392   0.131
10947TIP3   OH232783   1.496   4.218   6.528
10947TIP3    H132784   1.441   4.238   6.604
10947TIP3    H232785   1.579   4.188   6.566
10948TIP3   OH232786   7.380   0.266   0.509
10948TIP3    H132787   7.364   0.346   0.559
10948TIP3    H232788   7.306   0.260   0.448
10949TIP3   OH232789   6.386   0.177   0.025
10949TIP3    H132790   6.358   0.117  -0.043
10949TIP3    H232791   6.464   0.136   0.063
10950TIP3   OH232792   6.536   0.600   0.136
10950TIP3    H132793   6.520   0.583   0.043
10950TIP3    H232794   6.624   0.567   0.152
10951TIP3   OH232795   6.527   0.176   0.375
10951TIP3    H132796   6.557   0.140   0.291
10951TIP3    H232797   6.570   0.261   0.381
10952TIP3   OH232798   7.040   0.820   0.148
10952TIP3    H132799   7.039   0.895   0.208
10952TIP3    H232800   7.033   0.744   0.205
10953TIP3   OH232801   6.665   0.714   0.686
10953TIP3    H132802   6.608   0.775   0.734
10953TIP3    H232803   6.606   0.660   0.636
10954TIP3   OH232804   1.334   4.072   6.360
10954TIP3    H132805   1.391   4.130   6.411
10954TIP3    H232806   1.360   4.087   6.269
10955TIP3   OH232807   6.376   0.263   0.761
10955TIP3    H132808   6.369   0.351   0.799
10955TIP3    H232809   6.330   0.269   0.677
10956TIP3   OH232810   1.071   4.729   6.626
10956TIP3    H132811   1.150   4.783   6.619
10956TIP3    H232812   1.031   4.734   6.539
10957TIP3   OH232813   6.465   0.881   0.772
10957TIP3    H132814   6.446   0.898   0.680
10957TIP3    H232815   6.379   0.869   0.813
10958TIP3   OH232816   1.835   3.296   6.416
10958TIP3    H132817   1.760   3.318   6.471
10958TIP3    H232818   1.847   3.372   6.359
10959TIP3   OH232819   0.632   4.044   6.735
10959TIP3    H132820   0.583   4.119   6.701
10959TIP3    H232821   0.569   3.972   6.736
10960TIP3   OH232822   1.657   4.671   5.968
10960TIP3    H132823   1.650   4.764   5.946
10960TIP3    H232824   1.748   4.649   5.948
10961TIP3   OH232825   7.752   1.080   0.419
10961TIP3    H132826   7.761   0.985   0.429
10961TIP3    H232827   7.671   1.102   0.465
10962TIP3   OH232828   6.854   0.838   0.535
10962TIP3    H132829   6.855   0.928   0.567
10962TIP3    H232830   6.787   0.794   0.588
10963TIP3   OH232831   0.905   5.093   6.415
10963TIP3    H132832   0.887   5.017   6.359
10963TIP3    H232833   0.846   5.161   6.381
10964TIP3   OH232834   1.178   4.982   6.385
10964TIP3    H132835   1.184   4.995   6.290
10964TIP3    H232836   1.232   4.905   6.402
10965TIP3   OH232837   7.600   0.271   0.696
10965TIP3    H132838   7.532   0.258   0.630
10965TIP3    H232839   7.631   0.183   0.716
10966TIP3   OH232840   3.750   7.453   0.549
10966TIP3    H132841   3.824   7.465   0.489
10966TIP3    H232842   3.732   7.540   0.583
10967TIP3   OH232843   4.292   7.551   0.681
10967TIP3    H132844   4.352   7.489   0.721
10967TIP3    H232845   4.276   7.616   0.749
10968TIP3   OH232846   7.385  -0.003   0.584
10968TIP3    H132847   7.337  -0.002   0.667
10968TIP3    H232848   7.380   0.087   0.553
10969TIP3   OH232849   1.408   4.104   6.102
10969TIP3    H132850   1.342   4.130   6.037
10969TIP3    H232851   1.492   4.118   6.058
10970TIP3   OH232852   1.119   3.472   6.411
10970TIP3    H132853   1.072   3.483   6.494
10970TIP3    H232854   1.086   3.390   6.375
10971TIP3   OH232855   6.565  -0.027   0.554
10971TIP3    H132856   6.502  -0.018   0.626
10971TIP3    H232857   6.557   0.054   0.504
10972TIP3   OH232858   3.622   7.863   0.022
10972TIP3    H132859   3.534   7.840   0.052
10972TIP3    H232860   3.625   7.831  -0.068
10973TIP3   OH232861   1.271   3.920   6.695
10973TIP3    H132862   1.222   3.993   6.656
10973TIP3    H232863   1.326   3.887   6.625
10974TIP3   OH232864   7.130   0.237   0.837
10974TIP3    H132865   7.094   0.176   0.901
10974TIP3    H232866   7.225   0.235   0.852
10975TIP3   OH232867   1.437   3.931   6.916
10975TIP3    H132868   1.371   3.954   6.851
10975TIP3    H232869   1.484   3.858   6.877
10976TIP3   OH232870   6.357  -0.016   0.744
10976TIP3    H132871   6.359   0.079   0.759
10976TIP3    H232872   6.340  -0.054   0.831
10977TIP3   OH232873   0.801   3.453   6.404
10977TIP3    H132874   0.782   3.452   6.498
10977TIP3    H232875   0.726   3.497   6.365
10978TIP3   OH232876   3.168   7.619   0.201
10978TIP3    H132877   3.211   7.618   0.287
10978TIP3    H232878   3.173   7.528   0.171
10979TIP3   OH232879   0.271   3.502   6.809
10979TIP3    H132880   0.347   3.538   6.763
10979TIP3    H232881   0.214   3.577   6.825
10980TIP3   OH232882   7.149   0.199   0.367
10980TIP3    H132883   7.169   0.120   0.316
10980TIP3    H232884   7.108   0.165   0.447
10981TIP3   OH232885   4.004   7.642   0.059
10981TIP3    H132886   3.921   7.647   0.106
10981TIP3    H232887   4.070   7.648   0.129
10982TIP3   OH232888   3.394   7.726   0.092
10982TIP3    H132889   3.305   7.695   0.107
10982TIP3    H232890   3.443   7.648   0.066
10983TIP3   OH232891   0.794   3.727   6.716
10983TIP3    H132892   0.888   3.742   6.702
10983TIP3    H232893   0.753   3.751   6.634
10984TIP3   OH232894   4.460   7.721   0.275
10984TIP3    H132895   4.439   7.742   0.366
10984TIP3    H232896   4.391   7.661   0.248
10985TIP3   OH232897   0.669   3.772   6.470
10985TIP3    H132898   0.623   3.704   6.420
10985TIP3    H232899   0.736   3.804   6.410
10986TIP3   OH232900   7.470   1.409   0.513
10986TIP3    H132901   7.466   1.419   0.418
10986TIP3    H232902   7.544   1.463   0.540
10987TIP3   OH232903   6.370   0.522   0.869
10987TIP3    H132904   6.447   0.555   0.915
10987TIP3    H232905   6.298   0.533   0.930
10988TIP3   OH232906   6.877   0.028   0.129
10988TIP3    H132907   6.949  -0.024   0.093
10988TIP3    H232908   6.885   0.019   0.224
10989TIP3   OH232909   3.557   7.499   0.033
10989TIP3    H132910   3.519   7.421   0.074
10989TIP3    H232911   3.568   7.476  -0.059
10990TIP3   OH232912   4.037   8.042   0.405
10990TIP3    H132913   3.987   7.960   0.415
10990TIP3    H232914   4.103   8.038   0.473
10991TIP3   OH232915   0.896   4.326   6.518
10991TIP3    H132916   0.869   4.234   6.511
10991TIP3    H232917   0.889   4.345   6.612
10992TIP3   OH232918   7.458   0.509   0.176
10992TIP3    H132919   7.493   0.558   0.101
10992TIP3    H232920   7.379   0.467   0.142
10993TIP3   OH232921   1.371   3.574   6.415
10993TIP3    H132922   1.278   3.552   6.410
10993TIP3    H232923   1.373   3.669   6.421
10994TIP3   OH232924   6.991   0.590   0.586
10994TIP3    H132925   7.028   0.579   0.673
10994TIP3    H232926   6.945   0.674   0.589
10995TIP3   OH232927   1.431   3.840   6.481
10995TIP3    H132928   1.526   3.844   6.488
10995TIP3    H232929   1.408   3.916   6.427
10996TIP3   OH232930   6.230   0.287   0.229
10996TIP3    H132931   6.287   0.248   0.162
10996TIP3    H232932   6.265   0.256   0.312
10997TIP3   OH232933   1.064   4.457   6.352
10997TIP3    H132934   1.027   4.545   6.353
10997TIP3    H232935   1.006   4.406   6.408
10998TIP3   OH232936   6.889   0.367   0.854
10998TIP3    H132937   6.837   0.321   0.788
10998TIP3    H232938   6.979   0.336   0.838
10999TIP3   OH232939   7.121   0.876   0.452
10999TIP3    H132940   7.029   0.852   0.460
10999TIP3    H232941   7.141   0.921   0.534
11000TIP3   OH232942   1.846   3.933   6.308
11000TIP3    H132943   1.790   3.888   6.245
11000TIP3    H232944   1.850   4.024   6.277
11001TIP3   OH232945   7.767   0.809   0.443
11001TIP3    H132946   7.674   0.784   0.446
11001TIP3    H232947   7.799   0.772   0.361
11002TIP3   OH232948   1.584   4.741   6.232
11002TIP3    H132949   1.555   4.667   6.285
11002TIP3    H232950   1.602   4.703   6.145
11003TIP3   OH232951   7.232   0.378   0.069
11003TIP3    H132952   7.140   0.360   0.087
11003TIP3    H232953   7.266   0.295   0.033
11004TIP3   OH232954   0.712   4.600   6.838
11004TIP3    H132955   0.692   4.660   6.767
11004TIP3    H232956   0.646   4.617   6.905
11005TIP3   OH232957   0.248   3.926   6.497
11005TIP3    H132958   0.241   4.009   6.545
11005TIP3    H232959   0.181   3.870   6.536
11006TIP3   OH232960   0.823   4.360   6.775
11006TIP3    H132961   0.787   4.446   6.796
11006TIP3    H232962   0.790   4.303   6.844
11007TIP3   OH232963   6.659   0.931   0.349
11007TIP3    H132964   6.699   0.997   0.294
11007TIP3    H232965   6.732   0.889   0.394
11008TIP3   OH232966   0.582   4.816   6.696
11008TIP3    H132967   0.538   4.808   6.781
11008TIP3    H232968   0.640   4.891   6.706
11009TIP3   OH232969   7.028   0.593   0.313
11009TIP3    H132970   7.018   0.586   0.408
11009TIP3    H232971   7.091   0.524   0.290
11010TIP3   OH232972   1.358   4.479   6.135
11010TIP3    H132973   1.398   4.464   6.221
11010TIP3    H232974   1.270   4.443   6.143
11011TIP3   OH232975   7.286   1.089   0.352
11011TIP3    H132976   7.213   1.029   0.367
11011TIP3    H232977   7.253   1.149   0.285
11012TIP3   OH232978   1.644   4.949   5.935
11012TIP3    H132979   1.646   5.005   5.857
11012TIP3    H232980   1.575   4.987   5.989
11013TIP3   OH232981   1.520   4.440   6.364
11013TIP3    H132982   1.501   4.363   6.418
11013TIP3    H232983   1.613   4.431   6.341
11014TIP3   OH232984   0.728   4.465   6.131
11014TIP3    H132985   0.743   4.376   6.101
11014TIP3    H232986   0.702   4.455   6.223
11015TIP3   OH232987   0.685   4.464   6.405
11015TIP3    H132988   0.766   4.436   6.446
11015TIP3    H232989   0.680   4.558   6.421
11016TIP3   OH232990   0.285   4.161   6.634
11016TIP3    H132991   0.262   4.200   6.718
11016TIP3    H232992   0.372   4.196   6.614
11017TIP3   OH232993   4.374   7.801   0.522
11017TIP3    H132994   4.430   7.877   0.537
11017TIP3    H232995   4.421   7.729   0.564
11018TIP3   OH232996   1.435   3.527   6.678
11018TIP3    H132997   1.413   3.546   6.587
11018TIP3    H232998   1.476   3.607   6.710
11019TIP3   OH232999   0.944   4.707   6.378
11019TIP3    H133000   0.851   4.712   6.402
11019TIP3    H233001   0.953   4.769   6.305
11020TIP3   OH233002   1.078   3.736   6.759
11020TIP3    H133003   1.138   3.805   6.731
11020TIP3    H233004   1.109   3.710   6.846
11021TIP3   OH233005   7.062   0.095   0.606
11021TIP3    H133006   7.038   0.176   0.652
11021TIP3    H233007   7.128   0.054   0.663
11022TIP3   OH233008   1.238   3.421   6.833
11022TIP3    H133009   1.222   3.494   6.894
11022TIP3    H233010   1.311   3.451   6.779
11023TIP3   OH233011   0.676   4.742   6.437
11023TIP3    H133012   0.653   4.809   6.373
11023TIP3    H233013   0.636   4.772   6.518
11024TIP3   OH233014   0.750   3.446   6.684
11024TIP3    H133015   0.724   3.538   6.694
11024TIP3    H233016   0.846   3.448   6.685
11025TIP3   OH233017   4.814   7.936   0.508
11025TIP3    H133018   4.726   7.971   0.523
11025TIP3    H233019   4.801   7.862   0.448
11026TIP3   OH233020   7.322   0.118  -0.014
11026TIP3    H133021   7.247   0.059  -0.007
11026TIP3    H233022   7.390   0.077   0.039
11027TIP3   OH233023   0.360   4.454   6.473
11027TIP3    H133024   0.406   4.514   6.415
11027TIP3    H233025   0.299   4.408   6.416
11028TIP3   OH233026   0.475   3.600   6.655
11028TIP3    H133027   0.481   3.694   6.668
11028TIP3    H233028   0.426   3.590   6.573
11029TIP3   OH233029   1.624   5.113   6.864
11029TIP3    H133030   1.580   5.171   6.802
11029TIP3    H233031   1.717   5.130   6.851
11030TIP3   OH233032   3.557   7.483   0.352
11030TIP3    H133033   3.555   7.421   0.278
11030TIP3    H233034   3.623   7.447   0.411
11031TIP3   OH233035   6.486   1.104   0.944
11031TIP3    H133036   6.550   1.094   1.015
11031TIP3    H233037   6.504   1.030   0.886
11032TIP3   OH233038   0.897   4.665   6.044
11032TIP3    H133039   0.844   4.597   6.085
11032TIP3    H233040   0.968   4.616   6.001
11033TIP3   OH233041   7.172   0.996   0.690
11033TIP3    H133042   7.170   0.917   0.745
11033TIP3    H233043   7.254   1.039   0.714
11034TIP3   OH233044   1.290   4.669   5.942
11034TIP3    H133045   1.332   4.618   6.011
11034TIP3    H233046   1.357   4.677   5.874
11035TIP3   OH233047   0.521   4.215   6.213
11035TIP3    H133048   0.534   4.156   6.287
11035TIP3    H233049   0.604   4.214   6.166
11036TIP3   OH233050   6.812   0.624   0.899
11036TIP3    H133051   6.772   0.643   0.814
11036TIP3    H233052   6.847   0.535   0.889
11037TIP3   OH233053   1.090   4.369   6.091
11037TIP3    H133054   1.067   4.386   6.183
11037TIP3    H233055   1.080   4.274   6.081
11038TIP3   OH233056   7.297   0.660   0.507
11038TIP3    H133057   7.373   0.687   0.456
11038TIP3    H233058   7.228   0.722   0.482
11039TIP3   OH233059   0.829   4.068   6.531
11039TIP3    H133060   0.771   4.037   6.601
11039TIP3    H233061   0.821   4.001   6.463
11040TIP3   OH233062   6.640   0.188   0.788
11040TIP3    H133063   6.550   0.221   0.780
11040TIP3    H233064   6.681   0.210   0.705
11041TIP3   OH233065   0.856   3.890   6.313
11041TIP3    H133066   0.828   3.908   6.223
11041TIP3    H233067   0.951   3.889   6.309
11042TIP3   OH233068   7.176   0.530   0.863
11042TIP3    H133069   7.246   0.496   0.808
11042TIP3    H233070   7.171   0.469   0.936
11043TIP3   OH233071   1.644   4.162   5.964
11043TIP3    H133072   1.672   4.125   5.881
11043TIP3    H233073   1.615   4.251   5.943
11044TIP3   OH233074   6.769   0.009   0.940
11044TIP3    H133075   6.744  -0.064   0.883
11044TIP3    H233076   6.722   0.084   0.905
11045TIP3   OH233077   3.898   7.796   0.791
11045TIP3    H133078   3.966   7.816   0.727
11045TIP3    H233079   3.821   7.776   0.738
11046TIP3   OH233080   6.801   0.259   0.577
11046TIP3    H133081   6.824   0.195   0.509
11046TIP3    H233082   6.757   0.330   0.530
11047TIP3   OH233083   7.396   0.227   0.923
11047TIP3    H133084   7.455   0.164   0.965
11047TIP3    H233085   7.455   0.288   0.877
11048TIP3   OH233086   7.400   0.491   0.689
11048TIP3    H133087   7.354   0.555   0.634
11048TIP3    H233088   7.491   0.495   0.659
11049TIP3   OH233089   3.988   7.597   0.608
11049TIP3    H133090   3.952   7.604   0.696
11049TIP3    H233091   3.990   7.503   0.590
11050TIP3   OH233092   7.032   0.036   0.995
11050TIP3    H133093   7.038   0.046   1.090
11050TIP3    H233094   6.938   0.032   0.977
11051TIP3   OH233095   4.375   7.974   0.795
11051TIP3    H133096   4.308   7.995   0.860
11051TIP3    H233097   4.439   7.920   0.843
11052TIP3   OH233098   4.742   7.877   1.135
11052TIP3    H133099   4.775   7.790   1.114
11052TIP3    H233100   4.691   7.865   1.215
11053TIP3   OH233101   4.227   7.343   1.040
11053TIP3    H133102   4.161   7.324   1.107
11053TIP3    H233103   4.176   7.356   0.960
11054TIP3   OH233104   0.670   4.950   6.247
11054TIP3    H133105   0.757   4.928   6.214
11054TIP3    H233106   0.625   4.990   6.172
11055TIP3   OH233107   1.887   5.188   6.853
11055TIP3    H133108   1.924   5.186   6.941
11055TIP3    H233109   1.963   5.200   6.796
11056TIP3   OH233110   7.605   1.157   0.191
11056TIP3    H133111   7.556   1.076   0.185
11056TIP3    H233112   7.673   1.140   0.257
11057TIP3   OH233113   7.638   0.878   0.783
11057TIP3    H133114   7.569   0.884   0.849
11057TIP3    H233115   7.682   0.963   0.786
11058TIP3   OH233116   1.792   4.398   6.323
11058TIP3    H133117   1.852   4.466   6.291
11058TIP3    H233118   1.839   4.356   6.394
11059TIP3   OH233119   1.923   4.253   6.520
11059TIP3    H133120   1.856   4.213   6.576
11059TIP3    H233121   1.988   4.287   6.582
11060TIP3   OH233122   1.971   4.655   6.954
11060TIP3    H133123   2.025   4.584   6.918
11060TIP3    H233124   1.980   4.726   6.890
11061TIP3   OH233125   7.453   0.926   0.204
11061TIP3    H133126   7.388   0.974   0.255
11061TIP3    H233127   7.404   0.888   0.131
11062TIP3   OH233128   1.830   4.171   6.169
11062TIP3    H133129   1.763   4.162   6.103
11062TIP3    H233130   1.807   4.250   6.218
11063TIP3   OH233131   1.698   3.830   6.109
11063TIP3    H133132   1.647   3.864   6.035
11063TIP3    H233133   1.683   3.735   6.106
11064TIP3   OH233134   1.722   4.113   6.656
11064TIP3    H133135   1.727   4.018   6.642
11064TIP3    H233136   1.704   4.123   6.749
11065TIP3   OH233137   7.653   0.539   0.569
11065TIP3    H133138   7.721   0.474   0.549
11065TIP3    H233139   7.638   0.584   0.486
11066TIP3   OH233140   7.840   0.331   0.567
11066TIP3    H133141   7.765   0.299   0.617
11066TIP3    H233142   7.912   0.272   0.592
11067TIP3   OH233143   1.644   3.565   6.095
11067TIP3    H133144   1.713   3.528   6.150
11067TIP3    H233145   1.566   3.514   6.116
11068TIP3   OH233146   1.720   3.836   6.542
11068TIP3    H133147   1.766   3.753   6.555
11068TIP3    H233148   1.762   3.876   6.466
11069TIP3   OH233149   7.538  -0.005   0.123
11069TIP3    H133150   7.620   0.013   0.077
11069TIP3    H233151   7.546   0.043   0.205
11070TIP3   OH233152   7.582   0.163   0.336
11070TIP3    H133153   7.517   0.208   0.390
11070TIP3    H233154   7.637   0.233   0.301
11071TIP3   OH233155   5.227   7.769   0.913
11071TIP3    H133156   5.310   7.730   0.884
11071TIP3    H233157   5.237   7.863   0.897
11072TIP3   OH233158   1.835   3.587   6.599
11072TIP3    H133159   1.879   3.571   6.682
11072TIP3    H233160   1.773   3.514   6.591
11073TIP3   OH233161   3.310   7.570   0.432
11073TIP3    H133162   3.396   7.543   0.400
11073TIP3    H233163   3.328   7.636   0.498
11074TIP3   OH233164   5.063   7.880   0.666
11074TIP3    H133165   5.000   7.952   0.660
11074TIP3    H233166   5.038   7.819   0.597
11075TIP3   OH233167   1.878   3.499   6.237
11075TIP3    H133168   1.924   3.439   6.178
11075TIP3    H233169   1.934   3.577   6.239
11076TIP3   OH233170   3.198   7.371   0.081
11076TIP3    H133171   3.146   7.291   0.092
11076TIP3    H233172   3.161   7.413   0.004
11077TIP3   OH233173   1.463   5.070   6.514
11077TIP3    H133174   1.499   5.041   6.430
11077TIP3    H233175   1.531   5.126   6.551
11078TIP3   OH233176   6.427   0.902   0.501
11078TIP3    H133177   6.376   0.970   0.458
11078TIP3    H233178   6.512   0.903   0.456
11079TIP3   OH233179   6.857   1.096   0.618
11079TIP3    H133180   6.885   1.098   0.709
11079TIP3    H233181   6.917   1.155   0.573
11080TIP3   OH233182   7.029   1.271   0.496
11080TIP3    H133183   7.082   1.216   0.439
11080TIP3    H233184   7.093   1.318   0.550
11081TIP3   OH233185   4.995   7.687   0.485
11081TIP3    H133186   4.931   7.694   0.414
11081TIP3    H233187   5.035   7.601   0.474
11082TIP3   OH233188   6.328   1.102   0.329
11082TIP3    H133189   6.251   1.157   0.313
11082TIP3    H233190   6.329   1.041   0.255
11083TIP3   OH233191   6.759   1.123   0.177
11083TIP3    H133192   6.713   1.142   0.096
11083TIP3    H233193   6.762   1.208   0.223
11084TIP3   OH233194   7.024   1.089   0.240
11084TIP3    H133195   6.931   1.095   0.218
11084TIP3    H233196   7.066   1.156   0.186
11085TIP3   OH233197   7.225   1.267   0.137
11085TIP3    H133198   7.217   1.352   0.095
11085TIP3    H233199   7.248   1.207   0.065
11086TIP3   OH233200   6.220   0.792   0.040
11086TIP3    H133201   6.199   0.719   0.098
11086TIP3    H233202   6.296   0.833   0.080
11087TIP3   OH233203   6.453   0.865   0.173
11087TIP3    H133204   6.478   0.774   0.156
11087TIP3    H233205   6.522   0.898   0.231
11088TIP3   OH233206   4.246   7.544   0.209
11088TIP3    H133207   4.183   7.472   0.206
11088TIP3    H233208   4.309   7.522   0.140
11089TIP3   OH233209   4.707   7.491   0.128
11089TIP3    H133210   4.752   7.528   0.052
11089TIP3    H233211   4.614   7.496   0.106
11090TIP3   OH233212   1.991   3.526   6.823
11090TIP3    H133213   2.060   3.468   6.792
11090TIP3    H233214   2.027   3.614   6.811
11091TIP3   OH233215   3.446   7.287   0.167
11091TIP3    H133216   3.357   7.302   0.133
11091TIP3    H233217   3.459   7.193   0.157
11092TIP3   OH233218   0.484   3.100   6.803
11092TIP3    H133219   0.493   3.161   6.729
11092TIP3    H233220   0.427   3.146   6.865
11093TIP3   OH233221   3.878   7.295   0.049
11093TIP3    H133222   3.913   7.338  -0.030
11093TIP3    H233223   3.945   7.310   0.116
11094TIP3   OH233224   4.443   7.451   0.046
11094TIP3    H133225   4.460   7.416  -0.041
11094TIP3    H233226   4.437   7.373   0.102
11095TIP3   OH233227   1.652   3.373   6.606
11095TIP3    H133228   1.571   3.422   6.624
11095TIP3    H233229   1.637   3.286   6.643
11096TIP3   OH233230   0.559   3.263   6.583
11096TIP3    H133231   0.617   3.209   6.528
11096TIP3    H233232   0.618   3.328   6.622
11097TIP3   OH233233   1.020   3.485   6.670
11097TIP3    H133234   1.091   3.436   6.712
11097TIP3    H233235   1.036   3.576   6.695
11098TIP3   OH233236   0.932   4.903   6.179
11098TIP3    H133237   0.995   4.966   6.144
11098TIP3    H233238   0.930   4.833   6.114
11099TIP3   OH233239   1.596   5.009   6.281
11099TIP3    H133240   1.597   4.914   6.267
11099TIP3    H233241   1.549   5.044   6.205
11100TIP3   OH233242   4.790   7.610   1.054
11100TIP3    H133243   4.775   7.574   1.141
11100TIP3    H233244   4.882   7.592   1.035
11101TIP3   OH233245   7.503   1.135   0.516
11101TIP3    H133246   7.429   1.108   0.463
11101TIP3    H233247   7.492   1.230   0.527
11102TIP3   OH233248   3.107   4.541   6.202
11102TIP3    H133249   3.072   4.627   6.178
11102TIP3    H233250   3.038   4.479   6.177
11103TIP3   OH233251   3.102   4.534   6.631
11103TIP3    H133252   3.158   4.514   6.705
11103TIP3    H233253   3.060   4.451   6.609
11104TIP3   OH233254   8.066   0.390   0.030
11104TIP3    H133255   8.102   0.337   0.102
11104TIP3    H233256   8.143   0.411  -0.024
11105TIP3   OH233257   3.370   4.843   6.302
11105TIP3    H133258   3.360   4.774   6.367
11105TIP3    H233259   3.392   4.921   6.353
11106TIP3   OH233260   2.383   4.823   6.669
11106TIP3    H133261   2.372   4.728   6.667
11106TIP3    H233262   2.478   4.836   6.659
11107TIP3   OH233263   2.077   4.025   6.446
11107TIP3    H133264   2.038   4.110   6.469
11107TIP3    H233265   2.006   3.977   6.404
11108TIP3   OH233266   2.152   4.331   6.663
11108TIP3    H133267   2.201   4.253   6.690
11108TIP3    H233268   2.218   4.390   6.628
11109TIP3   OH233269   3.035   5.264   6.318
11109TIP3    H133270   3.056   5.202   6.248
11109TIP3    H233271   3.047   5.214   6.399
11110TIP3   OH233272   2.905   4.753   6.635
11110TIP3    H133273   2.950   4.674   6.606
11110TIP3    H233274   2.976   4.812   6.662
11111TIP3   OH233275   3.941   4.072   6.646
11111TIP3    H133276   3.957   4.159   6.683
11111TIP3    H233277   3.982   4.075   6.559
11112TIP3   OH233278   3.335   4.240   6.675
11112TIP3    H133279   3.390   4.165   6.696
11112TIP3    H233280   3.291   4.215   6.594
11113TIP3   OH233281   2.662   3.901   6.632
11113TIP3    H133282   2.646   3.973   6.572
11113TIP3    H233283   2.611   3.828   6.597
11114TIP3   OH233284   3.343   4.012   6.283
11114TIP3    H133285   3.409   3.989   6.349
11114TIP3    H233286   3.393   4.023   6.202
11115TIP3   OH233287   2.295   4.113   6.753
11115TIP3    H133288   2.378   4.096   6.797
11115TIP3    H233289   2.299   4.061   6.673
11116TIP3   OH233290   2.718   4.314   6.575
11116TIP3    H133291   2.813   4.299   6.579
11116TIP3    H233292   2.682   4.232   6.540
11117TIP3   OH233293   4.002   4.296   6.812
11117TIP3    H133294   3.912   4.328   6.806
11117TIP3    H233295   4.033   4.329   6.896
11118TIP3   OH233296   5.493   7.908   0.130
11118TIP3    H133297   5.438   7.943   0.059
11118TIP3    H233298   5.442   7.924   0.209
11119TIP3   OH233299   2.980   4.751   6.077
11119TIP3    H133300   2.949   4.730   5.989
11119TIP3    H233301   2.935   4.832   6.099
11120TIP3   OH233302   2.754   4.675   6.853
11120TIP3    H133303   2.699   4.747   6.883
11120TIP3    H233304   2.802   4.711   6.778
11121TIP3   OH233305   3.550   4.016   6.465
11121TIP3    H133306   3.608   3.968   6.406
11121TIP3    H233307   3.601   4.091   6.494
11122TIP3   OH233308   2.538   4.014   6.849
11122TIP3    H133309   2.595   4.087   6.872
11122TIP3    H233310   2.583   3.970   6.778
11123TIP3   OH233311   8.260   0.874   0.010
11123TIP3    H133312   8.246   0.963  -0.022
11123TIP3    H233313   8.182   0.855   0.061
11124TIP3   OH233314   1.967   4.583   6.202
11124TIP3    H133315   1.933   4.598   6.114
11124TIP3    H233316   1.990   4.671   6.234
11125TIP3   OH233317   3.406   5.090   6.445
11125TIP3    H133318   3.317   5.084   6.479
11125TIP3    H233319   3.408   5.173   6.397
11126TIP3   OH233320   3.729   3.978   6.816
11126TIP3    H133321   3.640   3.996   6.787
11126TIP3    H233322   3.784   4.004   6.742
11127TIP3   OH233323   2.993   3.587   6.808
11127TIP3    H133324   2.984   3.495   6.835
11127TIP3    H233325   2.916   3.630   6.845
11128TIP3   OH233326   3.113   5.117   6.094
11128TIP3    H133327   3.165   5.037   6.084
11128TIP3    H233328   3.171   5.188   6.066
11129TIP3   OH233329   3.268   4.899   6.051
11129TIP3    H133330   3.246   4.816   6.010
11129TIP3    H233331   3.309   4.875   6.134
11130TIP3   OH233332   3.644   4.974   6.786
11130TIP3    H133333   3.625   4.900   6.728
11130TIP3    H233334   3.630   5.051   6.732
11131TIP3   OH233335   2.933   4.379   6.054
11131TIP3    H133336   2.852   4.425   6.032
11131TIP3    H233337   2.981   4.375   5.972
11132TIP3   OH233338   2.896   4.192   5.748
11132TIP3    H133339   2.964   4.236   5.800
11132TIP3    H233340   2.943   4.122   5.702
11133TIP3   OH233341   3.823   4.639   6.654
11133TIP3    H133342   3.738   4.683   6.651
11133TIP3    H233343   3.859   4.649   6.566
11134TIP3   OH233344   3.293   4.469   6.014
11134TIP3    H133345   3.239   4.495   6.088
11134TIP3    H233346   3.374   4.436   6.053
11135TIP3   OH233347   0.687   0.490   0.020
11135TIP3    H133348   0.682   0.573   0.068
11135TIP3    H233349   0.605   0.487  -0.030
11136TIP3   OH233350   2.519   4.447   6.423
11136TIP3    H133351   2.483   4.386   6.358
11136TIP3    H233352   2.592   4.399   6.462
11137TIP3   OH233353   2.648   4.872   6.567
11137TIP3    H133354   2.624   4.857   6.476
11137TIP3    H233355   2.734   4.833   6.577
11138TIP3   OH233356   2.615   4.444   6.796
11138TIP3    H133357   2.654   4.407   6.717
11138TIP3    H233358   2.667   4.523   6.814
11139TIP3   OH233359   3.161   5.087   6.567
11139TIP3    H133360   3.155   5.164   6.624
11139TIP3    H233361   3.151   5.013   6.627
11140TIP3   OH233362   8.458   0.974   0.177
11140TIP3    H133363   8.397   1.032   0.222
11140TIP3    H233364   8.404   0.921   0.119
11141TIP3   OH233365   3.121   4.328   5.850
11141TIP3    H133366   3.184   4.383   5.898
11141TIP3    H233367   3.148   4.334   5.759
11142TIP3   OH233368   8.210   0.537   0.329
11142TIP3    H133369   8.206   0.632   0.342
11142TIP3    H233370   8.119   0.510   0.317
11143TIP3   OH233371   2.861   5.004   6.105
11143TIP3    H133372   2.947   5.046   6.110
11143TIP3    H233373   2.808   5.065   6.055
11144TIP3   OH233374   8.248   1.134   0.258
11144TIP3    H133375   8.223   1.142   0.166
11144TIP3    H233376   8.165   1.120   0.304
11145TIP3   OH233377   3.645   3.594   5.960
11145TIP3    H133378   3.618   3.648   6.035
11145TIP3    H233379   3.636   3.653   5.885
11146TIP3   OH233380   2.395   4.290   6.222
11146TIP3    H133381   2.316   4.335   6.192
11146TIP3    H233382   2.368   4.198   6.232
11147TIP3   OH233383   3.455   4.929   5.458
11147TIP3    H133384   3.451   5.023   5.439
11147TIP3    H233385   3.545   4.904   5.438
11148TIP3   OH233386   7.840   0.692   0.208
11148TIP3    H133387   7.771   0.670   0.146
11148TIP3    H233388   7.875   0.607   0.236
11149TIP3   OH233389   2.070   4.868   6.788
11149TIP3    H133390   2.154   4.844   6.751
11149TIP3    H233391   2.090   4.938   6.851
11150TIP3   OH233392   3.873   5.339   6.853
11150TIP3    H133393   3.879   5.244   6.865
11150TIP3    H233394   3.794   5.364   6.900
11151TIP3   OH233395   0.147   1.119   0.039
11151TIP3    H133396   0.138   1.209   0.068
11151TIP3    H233397   0.081   1.071   0.088
11152TIP3   OH233398   2.758   5.221   5.933
11152TIP3    H133399   2.713   5.202   5.851
11152TIP3    H233400   2.721   5.305   5.961
11153TIP3   OH233401   2.191   5.079   6.313
11153TIP3    H133402   2.235   5.070   6.397
11153TIP3    H233403   2.142   4.998   6.302
11154TIP3   OH233404   2.960   5.152   5.560
11154TIP3    H133405   3.012   5.079   5.526
11154TIP3    H233406   2.995   5.167   5.648
11155TIP3   OH233407   3.012   5.197   5.829
11155TIP3    H133408   2.926   5.200   5.871
11155TIP3    H233409   3.070   5.159   5.895
11156TIP3   OH233410   0.927   0.443   0.180
11156TIP3    H133411   0.848   0.451   0.127
11156TIP3    H233412   0.947   0.349   0.179
11157TIP3   OH233413   8.039   0.879   0.178
11157TIP3    H133414   8.089   0.868   0.258
11157TIP3    H233415   7.969   0.814   0.185
11158TIP3   OH233416   2.757   3.685   6.926
11158TIP3    H133417   2.673   3.657   6.891
11158TIP3    H233418   2.738   3.766   6.973
11159TIP3   OH233419   6.135   7.820   0.183
11159TIP3    H133420   6.206   7.790   0.241
11159TIP3    H233421   6.055   7.795   0.229
11160TIP3   OH233422   0.689   0.224   0.107
11160TIP3    H133423   0.652   0.225   0.195
11160TIP3    H233424   0.674   0.312   0.073
11161TIP3   OH233425   3.194   4.331   5.586
11161TIP3    H133426   3.155   4.324   5.499
11161TIP3    H233427   3.280   4.371   5.571
11162TIP3   OH233428   2.917   3.721   5.910
11162TIP3    H133429   2.885   3.730   5.999
11162TIP3    H233430   2.876   3.641   5.878
11163TIP3   OH233431   8.364   0.214  -0.002
11163TIP3    H133432   8.319   0.222   0.082
11163TIP3    H233433   8.341   0.294  -0.049
11164TIP3   OH233434   2.575   4.102   6.467
11164TIP3    H133435   2.486   4.075   6.490
11164TIP3    H233436   2.586   4.069   6.377
11165TIP3   OH233437   3.054   4.176   6.196
11165TIP3    H133438   3.009   4.246   6.149
11165TIP3    H233439   3.115   4.139   6.132
11166TIP3   OH233440   0.419   0.456   0.313
11166TIP3    H133441   0.391   0.384   0.370
11166TIP3    H233442   0.511   0.469   0.335
11167TIP3   OH233443   3.209   4.198   6.431
11167TIP3    H133444   3.145   4.222   6.364
11167TIP3    H233445   3.257   4.124   6.392
11168TIP3   OH233446   8.193   0.228   0.216
11168TIP3    H133447   8.253   0.278   0.272
11168TIP3    H233448   8.180   0.146   0.263
11169TIP3   OH233449   2.572   3.711   5.880
11169TIP3    H133450   2.566   3.714   5.975
11169TIP3    H233451   2.493   3.755   5.849
11170TIP3   OH233452   2.120   3.750   6.748
11170TIP3    H133453   2.192   3.791   6.797
11170TIP3    H233454   2.156   3.735   6.661
11171TIP3   OH233455   2.031   3.732   6.249
11171TIP3    H133456   2.075   3.765   6.171
11171TIP3    H233457   1.969   3.801   6.273
11172TIP3   OH233458   3.268   4.442   6.840
11172TIP3    H133459   3.297   4.375   6.779
11172TIP3    H233460   3.223   4.394   6.909
11173TIP3   OH233461   2.925   3.901   6.517
11173TIP3    H133462   2.851   3.896   6.576
11173TIP3    H233463   3.001   3.881   6.572
11174TIP3   OH233464   2.337   3.972   6.523
11174TIP3    H133465   2.249   3.976   6.485
11174TIP3    H233466   2.367   3.883   6.505
11175TIP3   OH233467   2.586   3.978   6.221
11175TIP3    H133468   2.681   3.987   6.213
11175TIP3    H233469   2.553   3.995   6.133
11176TIP3   OH233470   3.451   3.996   6.757
11176TIP3    H133471   3.380   3.993   6.821
11176TIP3    H233472   3.422   3.938   6.687
11177TIP3   OH233473   2.474   4.004   5.973
11177TIP3    H133474   2.412   3.953   5.921
11177TIP3    H233475   2.529   4.048   5.907
11178TIP3   OH233476   3.587   5.682   6.945
11178TIP3    H133477   3.584   5.695   6.850
11178TIP3    H233478   3.666   5.728   6.973
11179TIP3   OH233479   8.188   0.801   0.415
11179TIP3    H133480   8.270   0.816   0.461
11179TIP3    H233481   8.121   0.803   0.483
11180TIP3   OH233482   2.993   4.265   6.620
11180TIP3    H133483   3.059   4.222   6.566
11180TIP3    H233484   2.993   4.215   6.702
11181TIP3   OH233485   2.481   3.726   6.504
11181TIP3    H133486   2.452   3.649   6.553
11181TIP3    H233487   2.511   3.691   6.421
11182TIP3   OH233488   2.962   4.159   6.883
11182TIP3    H133489   2.873   4.188   6.906
11182TIP3    H233490   3.019   4.212   6.938
11183TIP3   OH233491   2.695   4.518   5.994
11183TIP3    H133492   2.622   4.461   5.973
11183TIP3    H233493   2.671   4.557   6.079
11184TIP3   OH233494   3.587   4.774   6.605
11184TIP3    H133495   3.623   4.822   6.530
11184TIP3    H233496   3.509   4.731   6.571
11185TIP3   OH233497   3.127   3.876   5.827
11185TIP3    H133498   3.055   3.827   5.866
11185TIP3    H233499   3.156   3.935   5.896
11186TIP3   OH233500   0.274   0.851   0.071
11186TIP3    H133501   0.328   0.839   0.148
11186TIP3    H233502   0.236   0.939   0.081
11187TIP3   OH233503   3.224   4.093   5.985
11187TIP3    H133504   3.319   4.091   5.999
11187TIP3    H233505   3.209   4.169   5.930
11188TIP3   OH233506   2.390   4.542   6.648
11188TIP3    H133507   2.428   4.519   6.563
11188TIP3    H233508   2.453   4.508   6.712
11189TIP3   OH233509   2.849   4.678   5.836
11189TIP3    H133510   2.801   4.760   5.836
11189TIP3    H233511   2.796   4.619   5.890
11190TIP3   OH233512   7.938   0.468   0.343
11190TIP3    H133513   7.940   0.441   0.435
11190TIP3    H233514   7.867   0.416   0.305
11191TIP3   OH233515   0.188   0.603   0.352
11191TIP3    H133516   0.134   0.573   0.280
11191TIP3    H233517   0.274   0.565   0.335
11192TIP3   OH233518   3.251   5.147   6.901
11192TIP3    H133519   3.156   5.132   6.905
11192TIP3    H233520   3.273   5.183   6.987
11193TIP3   OH233521   3.638   4.177   5.802
11193TIP3    H133522   3.580   4.132   5.740
11193TIP3    H233523   3.643   4.266   5.769
11194TIP3   OH233524   3.889   5.062   6.875
11194TIP3    H133525   3.796   5.043   6.871
11194TIP3    H233526   3.924   5.029   6.792
11195TIP3   OH233527   3.373   5.001   5.722
11195TIP3    H133528   3.352   4.930   5.783
11195TIP3    H233529   3.395   4.956   5.640
11196TIP3   OH233530   3.359   4.636   6.502
11196TIP3    H133531   3.268   4.614   6.525
11196TIP3    H233532   3.395   4.555   6.466
11197TIP3   OH233533   2.513   4.873   6.319
11197TIP3    H133534   2.514   4.950   6.263
11197TIP3    H233535   2.420   4.851   6.329
11198TIP3   OH233536   2.075   4.157   6.043
11198TIP3    H133537   2.117   4.240   6.064
11198TIP3    H233538   1.992   4.159   6.091
11199TIP3   OH233539   2.598   4.626   6.222
11199TIP3    H133540   2.586   4.716   6.255
11199TIP3    H233541   2.574   4.571   6.296
11200TIP3   OH233542   2.794   5.195   6.772
11200TIP3    H133543   2.831   5.268   6.722
11200TIP3    H233544   2.868   5.161   6.822
11201TIP3   OH233545   2.426   5.097   6.168
11201TIP3    H133546   2.340   5.103   6.208
11201TIP3    H233547   2.461   5.186   6.172
11202TIP3   OH233548   3.144   4.862   6.736
11202TIP3    H133549   3.133   4.857   6.831
11202TIP3    H233550   3.213   4.800   6.716
11203TIP3   OH233551   3.143   4.735   5.622
11203TIP3    H133552   3.193   4.717   5.701
11203TIP3    H233553   3.058   4.693   5.637
11204TIP3   OH233554   3.406   5.357   6.785
11204TIP3    H133555   3.336   5.294   6.803
11204TIP3    H233556   3.372   5.411   6.714
11205TIP3   OH233557   3.456   5.204   5.423
11205TIP3    H133558   3.488   5.271   5.363
11205TIP3    H233559   3.382   5.245   5.468
11206TIP3   OH233560   5.337   7.999   0.342
11206TIP3    H133561   5.244   7.982   0.356
11206TIP3    H233562   5.382   7.942   0.405
11207TIP3   OH233563   3.314   4.677   5.832
11207TIP3    H133564   3.299   4.606   5.894
11207TIP3    H233565   3.409   4.676   5.817
11208TIP3   OH233566   7.878   1.068   0.002
11208TIP3    H133567   7.934   1.006   0.049
11208TIP3    H233568   7.895   1.152   0.044
11209TIP3   OH233569   2.489   4.701   5.626
11209TIP3    H133570   2.501   4.609   5.600
11209TIP3    H233571   2.475   4.696   5.721
11210TIP3   OH233572   2.434   4.719   5.899
11210TIP3    H133573   2.502   4.690   5.960
11210TIP3    H233574   2.434   4.814   5.906
11211TIP3   OH233575   2.168   4.410   6.114
11211TIP3    H133576   2.102   4.458   6.164
11211TIP3    H233577   2.187   4.466   6.039
11212TIP3   OH233578   0.474   0.050   0.060
11212TIP3    H133579   0.563   0.084   0.073
11212TIP3    H233580   0.474  -0.034   0.105
11213TIP3   OH233581   3.199   3.798   6.182
11213TIP3    H133582   3.266   3.766   6.122
11213TIP3    H233583   3.236   3.878   6.219
11214TIP3   OH233584   2.702   4.905   5.836
11214TIP3    H133585   2.619   4.929   5.876
11214TIP3    H233586   2.726   4.980   5.782
11215TIP3   OH233587   2.862   3.989   6.264
11215TIP3    H133588   2.928   4.054   6.237
11215TIP3    H233589   2.885   3.967   6.354
11216TIP3   OH233590   0.323   0.279   0.098
11216TIP3    H133591   0.356   0.321   0.178
11216TIP3    H233592   0.372   0.197   0.092
11217TIP3   OH233593   3.027   3.679   6.356
11217TIP3    H133594   3.011   3.754   6.414
11217TIP3    H233595   3.090   3.713   6.292
11218TIP3   OH233596   2.454   4.992   5.916
11218TIP3    H133597   2.433   5.064   5.856
11218TIP3    H233598   2.443   5.030   6.003
11219TIP3   OH233599   2.547   3.704   6.159
11219TIP3    H133600   2.536   3.794   6.188
11219TIP3    H233601   2.642   3.689   6.165
11220TIP3   OH233602   0.953   0.162   0.088
11220TIP3    H133603   0.859   0.175   0.101
11220TIP3    H233604   0.959   0.103   0.013
11221TIP3   OH233605   3.448   4.377   6.417
11221TIP3    H133606   3.371   4.323   6.433
11221TIP3    H233607   3.517   4.336   6.469
11222TIP3   OH233608   2.190   4.585   5.895
11222TIP3    H133609   2.262   4.647   5.903
11222TIP3    H233610   2.220   4.521   5.830
11223TIP3   OH233611   2.087   3.879   6.025
11223TIP3    H133612   2.103   3.973   6.035
11223TIP3    H233613   2.012   3.873   5.966
11224TIP3   OH233614   3.429   5.356   6.358
11224TIP3    H133615   3.385   5.406   6.289
11224TIP3    H233616   3.522   5.375   6.346
11225TIP3   OH233617   2.493   3.612   6.880
11225TIP3    H133618   2.464   3.580   6.794
11225TIP3    H233619   2.487   3.536   6.937
11226TIP3   OH233620   2.017   4.858   6.278
11226TIP3    H133621   1.965   4.888   6.354
11226TIP3    H233622   1.973   4.898   6.203
11227TIP3   OH233623   7.887   1.393   0.419
11227TIP3    H133624   7.971   1.397   0.464
11227TIP3    H233625   7.873   1.300   0.403
11228TIP3   OH233626   8.355   1.294   0.454
11228TIP3    H133627   8.445   1.265   0.465
11228TIP3    H233628   8.322   1.242   0.381
11229TIP3   OH233629   2.644   4.903   5.518
11229TIP3    H133630   2.597   4.832   5.563
11229TIP3    H233631   2.720   4.860   5.479
11230TIP3   OH233632   0.469   1.238   0.212
11230TIP3    H133633   0.482   1.166   0.274
11230TIP3    H233634   0.544   1.296   0.226
11231TIP3   OH233635   3.091   4.940   5.445
11231TIP3    H133636   3.124   4.877   5.509
11231TIP3    H233637   3.152   4.934   5.371
11232TIP3   OH233638   7.988   0.784   0.608
11232TIP3    H133639   8.006   0.691   0.617
11232TIP3    H233640   7.903   0.788   0.563
11233TIP3   OH233641   2.315   4.398   5.740
11233TIP3    H133642   2.365   4.372   5.818
11233TIP3    H233643   2.381   4.410   5.672
11234TIP3   OH233644   0.109   0.871   0.384
11234TIP3    H133645   0.067   0.892   0.301
11234TIP3    H233646   0.149   0.786   0.371
11235TIP3   OH233647   2.874   4.619   5.571
11235TIP3    H133648   2.856   4.631   5.664
11235TIP3    H233649   2.859   4.526   5.555
11236TIP3   OH233650   3.422   4.923   6.944
11236TIP3    H133651   3.499   4.947   6.893
11236TIP3    H233652   3.357   4.990   6.923
11237TIP3   OH233653   8.110   0.530   0.604
11237TIP3    H133654   8.178   0.520   0.538
11237TIP3    H233655   8.156   0.556   0.684
11238TIP3   OH233656   2.487   4.339   5.954
11238TIP3    H133657   2.468   4.309   6.042
11238TIP3    H233658   2.535   4.267   5.913
11239TIP3   OH233659   8.427   0.386   0.256
11239TIP3    H133660   8.361   0.450   0.282
11239TIP3    H233661   8.481   0.432   0.193
11240TIP3   OH233662   2.626   4.155   5.799
11240TIP3    H133663   2.598   4.157   5.707
11240TIP3    H233664   2.721   4.163   5.795
11241TIP3   OH233665   0.472   0.786   0.353
11241TIP3    H133666   0.540   0.749   0.297
11241TIP3    H233667   0.471   0.730   0.431
11242TIP3   OH233668   3.423   4.447   5.482
11242TIP3    H133669   3.412   4.404   5.398
11242TIP3    H233670   3.397   4.538   5.466
11243TIP3   OH233671   0.073   0.183   0.364
11243TIP3    H133672   0.077   0.106   0.307
11243TIP3    H233673   0.025   0.248   0.313
11244TIP3   OH233674   5.749   7.995   0.169
11244TIP3    H133675   5.777   8.030   0.085
11244TIP3    H233676   5.659   7.966   0.154
11245TIP3   OH233677   0.087   0.532   0.090
11245TIP3    H133678   0.172   0.527   0.048
11245TIP3    H233679   0.033   0.583   0.029
11246TIP3   OH233680   0.680   0.472   0.420
11246TIP3    H133681   0.688   0.377   0.410
11246TIP3    H233682   0.768   0.505   0.400
11247TIP3   OH233683   0.706   0.734   0.168
11247TIP3    H133684   0.655   0.797   0.117
11247TIP3    H233685   0.796   0.745   0.137
11248TIP3   OH233686   8.462   0.298   0.599
11248TIP3    H133687   8.391   0.237   0.615
11248TIP3    H233688   8.491   0.280   0.510
11249TIP3   OH233689   5.870   7.757   0.247
11249TIP3    H133690   5.828   7.839   0.220
11249TIP3    H233691   5.801   7.691   0.240
11250TIP3   OH233692   0.328   0.241   0.451
11250TIP3    H133693   0.314   0.229   0.545
11250TIP3    H233694   0.244   0.217   0.412
11251TIP3   OH233695   0.591   0.209   0.357
11251TIP3    H133696   0.507   0.194   0.401
11251TIP3    H233697   0.655   0.162   0.412
11252TIP3   OH233698   0.817   0.136   0.498
11252TIP3    H133699   0.828   0.041   0.503
11252TIP3    H233700   0.813   0.164   0.590
11253TIP3   OH233701   8.297   0.084   0.644
11253TIP3    H133702   8.310   0.008   0.586
11253TIP3    H233703   8.347   0.062   0.723
11254TIP3   OH233704   5.949   7.770   0.504
11254TIP3    H133705   6.002   7.691   0.513
11254TIP3    H233706   5.917   7.767   0.414
11255TIP3   OH233707   6.051   7.995   0.615
11255TIP3    H133708   6.028   7.916   0.567
11255TIP3    H233709   5.973   8.049   0.613
11256TIP3   OH233710   2.452   5.204   5.734
11256TIP3    H133711   2.540   5.181   5.706
11256TIP3    H233712   2.414   5.248   5.658
11257TIP3   OH233713   1.916   4.584   5.916
11257TIP3    H133714   2.011   4.595   5.911
11257TIP3    H233715   1.900   4.499   5.874
11258TIP3   OH233716   1.812   5.160   6.367
11258TIP3    H133717   1.748   5.104   6.323
11258TIP3    H233718   1.858   5.101   6.427
11259TIP3   OH233719   1.955   5.001   6.544
11259TIP3    H133720   1.949   4.930   6.608
11259TIP3    H233721   2.008   5.069   6.588
11260TIP3   OH233722   3.689   5.438   6.342
11260TIP3    H133723   3.727   5.447   6.430
11260TIP3    H233724   3.762   5.456   6.283
11261TIP3   OH233725   3.725   5.434   6.628
11261TIP3    H133726   3.678   5.351   6.618
11261TIP3    H233727   3.794   5.415   6.692
11262TIP3   OH233728   0.937   1.129   0.265
11262TIP3    H133729   0.867   1.138   0.330
11262TIP3    H233730   0.983   1.213   0.268
11263TIP3   OH233731   3.591   4.653   5.809
11263TIP3    H133732   3.652   4.721   5.779
11263TIP3    H233733   3.634   4.615   5.886
11264TIP3   OH233734   3.711   4.515   6.016
11264TIP3    H133735   3.648   4.468   6.071
11264TIP3    H233736   3.779   4.545   6.077
11265TIP3   OH233737   3.772   4.910   6.442
11265TIP3    H133738   3.823   4.837   6.406
11265TIP3    H233739   3.784   4.981   6.379
11266TIP3   OH233740   3.579   5.196   6.637
11266TIP3    H133741   3.513   5.243   6.687
11266TIP3    H233742   3.531   5.156   6.565
11267TIP3   OH233743   3.627   4.420   5.665
11267TIP3    H133744   3.556   4.420   5.601
11267TIP3    H233745   3.613   4.499   5.717
11268TIP3   OH233746   3.484   4.071   5.600
11268TIP3    H133747   3.443   4.106   5.521
11268TIP3    H233748   3.480   3.976   5.589
11269TIP3   OH233749   3.514   4.358   6.147
11269TIP3    H133750   3.516   4.264   6.133
11269TIP3    H233751   3.496   4.368   6.240
11270TIP3   OH233752   2.139   4.442   6.913
11270TIP3    H133753   2.129   4.403   6.826
11270TIP3    H233754   2.233   4.435   6.932
11271TIP3   OH233755   0.963   0.776   0.069
11271TIP3    H133756   1.030   0.710   0.055
11271TIP3    H233757   0.970   0.834  -0.006
11272TIP3   OH233758   1.143   0.567   0.065
11272TIP3    H133759   1.068   0.524   0.105
11272TIP3    H233760   1.218   0.511   0.087
11273TIP3   OH233761   3.452   3.800   5.548
11273TIP3    H133762   3.513   3.775   5.617
11273TIP3    H233763   3.369   3.759   5.573
11274TIP3   OH233764   3.504   4.076   6.050
11274TIP3    H133765   3.542   3.995   6.083
11274TIP3    H233766   3.559   4.098   5.974
11275TIP3   OH233767   3.669   4.259   6.551
11275TIP3    H133768   3.750   4.282   6.506
11275TIP3    H233769   3.680   4.292   6.640
11276TIP3   OH233770   3.743   4.408   6.785
11276TIP3    H133771   3.667   4.436   6.836
11276TIP3    H233772   3.772   4.487   6.740
11277TIP3   OH233773   8.026   0.131   0.620
11277TIP3    H133774   8.121   0.125   0.615
11277TIP3    H233775   8.001   0.061   0.680
11278TIP3   OH233776   7.035   8.016   0.375
11278TIP3    H133777   7.098   7.957   0.333
11278TIP3    H233778   6.995   8.063   0.302
11279TIP3   OH233779   2.330   3.833   6.914
11279TIP3    H133780   2.384   3.753   6.914
11279TIP3    H233781   2.392   3.903   6.896
11280TIP3   OH233782   7.781   0.086   0.028
11280TIP3    H133783   7.831   0.081  -0.054
11280TIP3    H233784   7.825   0.154   0.079
11281TIP3   OH233785   1.214   0.107   0.174
11281TIP3    H133786   1.127   0.145   0.183
11281TIP3    H233787   1.200   0.029   0.120
11282TIP3   OH233788   3.662   3.754   5.729
11282TIP3    H133789   3.706   3.691   5.672
11282TIP3    H233790   3.723   3.828   5.735
11283TIP3   OH233791   2.103   3.604   6.479
11283TIP3    H133792   2.016   3.590   6.517
11283TIP3    H233793   2.087   3.656   6.400
11284TIP3   OH233794   3.255   5.321   5.990
11284TIP3    H133795   3.311   5.307   5.914
11284TIP3    H233796   3.302   5.386   6.043
11285TIP3   OH233797   5.212   7.713   0.307
11285TIP3    H133798   5.173   7.719   0.394
11285TIP3    H233799   5.143   7.744   0.248
11286TIP3   OH233800   8.025   1.113   0.423
11286TIP3    H133801   7.932   1.091   0.416
11286TIP3    H233802   8.046   1.096   0.515
11287TIP3   OH233803   2.564   5.158   6.918
11287TIP3    H133804   2.515   5.234   6.887
11287TIP3    H233805   2.649   5.166   6.875
11288TIP3   OH233806   0.130   1.385   0.120
11288TIP3    H133807   0.168   1.377   0.207
11288TIP3    H233808   0.193   1.438   0.071
11289TIP3   OH233809   3.155   5.544   6.931
11289TIP3    H133810   3.214   5.489   6.880
11289TIP3    H233811   3.212   5.599   6.984
11290TIP3   OH233812   6.795   7.868   0.075
11290TIP3    H133813   6.706   7.858   0.042
11290TIP3    H233814   6.833   7.780   0.070
11291TIP3   OH233815   7.890   1.403   0.027
11291TIP3    H133816   7.799   1.424   0.006
11291TIP3    H233817   7.914   1.465   0.096
11292TIP3   OH233818   2.456   5.392   6.819
11292TIP3    H133819   2.372   5.398   6.865
11292TIP3    H233820   2.435   5.413   6.728
11293TIP3   OH233821   2.873   5.406   6.611
11293TIP3    H133822   2.804   5.417   6.545
11293TIP3    H233823   2.882   5.493   6.649
11294TIP3   OH233824   3.138   5.348   6.664
11294TIP3    H133825   3.047   5.365   6.641
11294TIP3    H233826   3.188   5.413   6.614
11295TIP3   OH233827   3.340   5.519   6.561
11295TIP3    H133828   3.338   5.605   6.520
11295TIP3    H233829   3.371   5.460   6.492
11296TIP3   OH233830   2.132   5.175   6.693
11296TIP3    H133831   2.159   5.148   6.781
11296TIP3    H233832   2.202   5.145   6.636
11297TIP3   OH233833   2.336   5.067   6.549
11297TIP3    H133834   2.349   4.982   6.591
11297TIP3    H233835   2.423   5.107   6.550
11298TIP3   OH233836   2.607   5.149   6.569
11298TIP3    H133837   2.625   5.057   6.553
11298TIP3    H233838   2.662   5.173   6.643
11299TIP3   OH233839   3.139   3.787   6.639
11299TIP3    H133840   3.122   3.710   6.693
11299TIP3    H233841   3.222   3.768   6.595
11300TIP3   OH233842   3.663   3.691   6.488
11300TIP3    H133843   3.672   3.713   6.395
11300TIP3    H233844   3.580   3.730   6.514
11301TIP3   OH233845   2.407   3.498   6.645
11301TIP3    H133846   2.317   3.465   6.654
11301TIP3    H233847   2.461   3.420   6.638
11302TIP3   OH233848   2.234   3.410   6.311
11302TIP3    H133849   2.258   3.458   6.232
11302TIP3    H233850   2.198   3.476   6.369
11303TIP3   OH233851   2.882   3.536   6.550
11303TIP3    H133852   2.929   3.582   6.480
11303TIP3    H233853   2.926   3.564   6.630
11304TIP3   OH233854   3.377   3.720   6.514
11304TIP3    H133855   3.395   3.710   6.420
11304TIP3    H233856   3.383   3.631   6.549
11305TIP3   OH233857   1.893   4.978   6.063
11305TIP3    H133858   1.808   4.949   6.029
11305TIP3    H233859   1.901   5.069   6.034
11306TIP3   OH233860   2.337   3.535   6.068
11306TIP3    H133861   2.382   3.475   6.009
11306TIP3    H233862   2.406   3.591   6.103
11307TIP3   OH233863   2.822   3.734   6.171
11307TIP3    H133864   2.883   3.685   6.226
11307TIP3    H233865   2.837   3.825   6.194
11308TIP3   OH233866   2.705   5.127   5.662
11308TIP3    H133867   2.790   5.153   5.625
11308TIP3    H233868   2.675   5.056   5.606
11309TIP3   OH233869   3.407   5.269   5.762
11309TIP3    H133870   3.400   5.174   5.754
11309TIP3    H233871   3.365   5.303   5.683
11310TIP3   OH233872   5.497   7.856   0.523
11310TIP3    H133873   5.431   7.794   0.554
11310TIP3    H233874   5.578   7.827   0.563
11311TIP3   OH233875   5.726   7.789   0.672
11311TIP3    H133876   5.804   7.780   0.617
11311TIP3    H233877   5.741   7.729   0.745
11312TIP3   OH233878   2.010   4.967   5.717
11312TIP3    H133879   2.010   4.973   5.812
11312TIP3    H233880   2.092   4.921   5.696
11313TIP3   OH233881   6.540   7.880   0.490
11313TIP3    H133882   6.562   7.850   0.578
11313TIP3    H233883   6.623   7.878   0.443
11314TIP3   OH233884   3.624   5.408   6.953
11314TIP3    H133885   3.551   5.378   6.899
11314TIP3    H233886   3.612   5.503   6.960
11315TIP3   OH233887   4.889   4.804   5.697
11315TIP3    H133888   4.860   4.890   5.667
11315TIP3    H233889   4.818   4.745   5.672
11316TIP3   OH233890   4.914   4.782   6.108
11316TIP3    H133891   4.961   4.766   6.191
11316TIP3    H233892   4.863   4.703   6.094
11317TIP3   OH233893   4.197   4.653   6.462
11317TIP3    H133894   4.237   4.599   6.530
11317TIP3    H233895   4.270   4.676   6.405
11318TIP3   OH233896   5.177   5.090   5.781
11318TIP3    H133897   5.158   5.030   5.852
11318TIP3    H233898   5.196   5.173   5.824
11319TIP3   OH233899   4.163   5.061   6.163
11319TIP3    H133900   4.146   4.966   6.159
11319TIP3    H233901   4.258   5.068   6.151
11320TIP3   OH233902   3.875   4.308   5.919
11320TIP3    H133903   3.825   4.386   5.944
11320TIP3    H233904   3.808   4.243   5.897
11321TIP3   OH233905   3.948   4.586   6.156
11321TIP3    H133906   3.997   4.507   6.177
11321TIP3    H233907   4.015   4.650   6.130
11322TIP3   OH233908   4.706   5.001   6.128
11322TIP3    H133909   4.751   4.927   6.088
11322TIP3    H233910   4.776   5.058   6.159
11323TIP3   OH233911   5.736   4.337   6.123
11323TIP3    H133912   5.761   4.412   6.177
11323TIP3    H233913   5.791   4.343   6.045
11324TIP3   OH233914   5.139   4.503   6.149
11324TIP3    H133915   5.159   4.413   6.175
11324TIP3    H233916   5.089   4.493   6.068
11325TIP3   OH233917   4.478   4.162   6.111
11325TIP3    H133918   4.451   4.234   6.054
11325TIP3    H233919   4.426   4.087   6.082
11326TIP3   OH233920   5.140   4.253   5.750
11326TIP3    H133921   5.220   4.255   5.802
11326TIP3    H233922   5.161   4.304   5.671
11327TIP3   OH233923   4.088   4.362   6.244
11327TIP3    H133924   4.174   4.341   6.280
11327TIP3    H233925   4.082   4.309   6.164
11328TIP3   OH233926   4.511   4.570   6.060
11328TIP3    H133927   4.606   4.555   6.066
11328TIP3    H233928   4.476   4.489   6.024
11329TIP3   OH233929   5.794   4.547   6.295
11329TIP3    H133930   5.704   4.580   6.297
11329TIP3    H233931   5.833   4.579   6.376
11330TIP3   OH233932   4.448   4.162   6.565
11330TIP3    H133933   4.396   4.191   6.490
11330TIP3    H233934   4.392   4.178   6.640
11331TIP3   OH233935   4.807   5.019   5.545
11331TIP3    H133936   4.761   4.991   5.467
11331TIP3    H233937   4.757   5.094   5.578
11332TIP3   OH233938   4.541   4.931   6.338
11332TIP3    H133939   4.486   5.002   6.368
11332TIP3    H233940   4.588   4.966   6.263
11333TIP3   OH233941   5.330   4.286   5.952
11333TIP3    H133942   5.283   4.248   6.026
11333TIP3    H233943   5.376   4.361   5.988
11334TIP3   OH233944   4.336   4.262   6.332
11334TIP3    H133945   4.392   4.337   6.354
11334TIP3    H233946   4.382   4.219   6.260
11335TIP3   OH233947   4.386   5.137   6.440
11335TIP3    H133948   4.376   5.226   6.405
11335TIP3    H233949   4.307   5.121   6.490
11336TIP3   OH233950   3.766   4.839   5.691
11336TIP3    H133951   3.734   4.859   5.603
11336TIP3    H233952   3.791   4.924   5.727
11337TIP3   OH233953   5.223   5.337   5.915
11337TIP3    H133954   5.146   5.330   5.971
11337TIP3    H233955   5.214   5.422   5.872
11338TIP3   OH233956   5.529   4.229   6.299
11338TIP3    H133957   5.442   4.245   6.263
11338TIP3    H233958   5.589   4.255   6.229
11339TIP3   OH233959   4.793   3.853   6.300
11339TIP3    H133960   4.783   3.761   6.323
11339TIP3    H233961   4.715   3.895   6.337
11340TIP3   OH233962   4.923   5.366   5.550
11340TIP3    H133963   4.977   5.288   5.547
11340TIP3    H233964   4.985   5.439   5.539
11341TIP3   OH233965   5.064   5.128   5.529
11341TIP3    H133966   4.982   5.079   5.534
11341TIP3    H233967   5.108   5.110   5.613
11342TIP3   OH233968   5.442   5.232   6.271
11342TIP3    H133969   5.422   5.158   6.213
11342TIP3    H233970   5.421   5.309   6.219
11343TIP3   OH233971   4.724   4.636   5.547
11343TIP3    H133972   4.640   4.677   5.528
11343TIP3    H233973   4.770   4.634   5.463
11344TIP3   OH233974   4.696   4.444   5.249
11344TIP3    H133975   4.762   4.497   5.295
11344TIP3    H233976   4.744   4.368   5.217
11345TIP3   OH233977   5.620   4.888   6.134
11345TIP3    H133978   5.537   4.935   6.133
11345TIP3    H233979   5.657   4.904   6.047
11346TIP3   OH233980   5.081   4.737   5.517
11346TIP3    H133981   5.016   4.768   5.581
11346TIP3    H233982   5.154   4.707   5.571
11347TIP3   OH233983   5.320   4.754   6.447
11347TIP3    H133984   5.315   4.837   6.494
11347TIP3    H233985   5.237   4.750   6.399
11348TIP3   OH233986   4.310   4.702   5.909
11348TIP3    H133987   4.276   4.642   5.843
11348TIP3    H233988   4.384   4.655   5.949
11349TIP3   OH233989   4.427   5.075   6.071
11349TIP3    H133990   4.414   5.109   5.983
11349TIP3    H233991   4.521   5.060   6.077
11350TIP3   OH233992   4.407   4.698   6.283
11350TIP3    H133993   4.445   4.663   6.202
11350TIP3    H233994   4.454   4.779   6.299
11351TIP3   OH233995   5.020   5.340   6.091
11351TIP3    H133996   4.962   5.415   6.094
11351TIP3    H233997   4.975   5.272   6.142
11352TIP3   OH233998   4.584   5.233   6.607
11352TIP3    H133999   4.523   5.293   6.651
11352TIP3    H234000   4.529   5.183   6.548
11353TIP3   OH234001   4.921   4.585   5.347
11353TIP3    H134002   4.976   4.647   5.394
11353TIP3    H234003   4.953   4.588   5.257
11354TIP3   OH234004   4.340   4.778   6.755
11354TIP3    H134005   4.344   4.872   6.769
11354TIP3    H234006   4.246   4.759   6.746
11355TIP3   OH234007   4.679   5.251   5.612
11355TIP3    H134008   4.759   5.303   5.605
11355TIP3    H234009   4.608   5.315   5.610
11356TIP3   OH234010   4.376   5.397   6.687
11356TIP3    H134011   4.355   5.407   6.594
11356TIP3    H234012   4.291   5.383   6.729
11357TIP3   OH234013   5.428   3.812   5.396
11357TIP3    H134014   5.350   3.831   5.447
11357TIP3    H234015   5.442   3.890   5.343
11358TIP3   OH234016   4.186   4.543   5.708
11358TIP3    H134017   4.106   4.586   5.678
11358TIP3    H234018   4.158   4.455   5.735
11359TIP3   OH234019   5.252   5.188   4.949
11359TIP3    H134020   5.245   5.281   4.931
11359TIP3    H234021   5.342   5.165   4.929
11360TIP3   OH234022   3.970   4.949   6.641
11360TIP3    H134023   3.902   4.931   6.576
11360TIP3    H234024   4.005   4.862   6.663
11361TIP3   OH234025   3.874   5.121   6.277
11361TIP3    H134026   3.960   5.102   6.240
11361TIP3    H234027   3.889   5.196   6.334
11362TIP3   OH234028   5.668   5.598   6.342
11362TIP3    H134029   5.674   5.504   6.354
11362TIP3    H234030   5.586   5.623   6.385
11363TIP3   OH234031   4.778   5.376   6.473
11363TIP3    H134032   4.764   5.468   6.494
11363TIP3    H234033   4.705   5.330   6.514
11364TIP3   OH234034   4.550   5.494   5.405
11364TIP3    H134035   4.498   5.474   5.328
11364TIP3    H234036   4.513   5.576   5.439
11365TIP3   OH234037   3.988   5.335   5.800
11365TIP3    H134038   4.035   5.325   5.883
11365TIP3    H234039   3.942   5.252   5.789
11366TIP3   OH234040   4.754   5.410   5.045
11366TIP3    H134041   4.805   5.336   5.012
11366TIP3    H234042   4.786   5.422   5.135
11367TIP3   OH234043   4.803   5.450   5.315
11367TIP3    H134044   4.715   5.461   5.350
11367TIP3    H234045   4.853   5.411   5.386
11368TIP3   OH234046   5.563   4.706   6.607
11368TIP3    H134047   5.479   4.715   6.562
11368TIP3    H234048   5.579   4.611   6.607
11369TIP3   OH234049   4.168   5.138   6.610
11369TIP3    H134050   4.221   5.123   6.689
11369TIP3    H234051   4.097   5.074   6.615
11370TIP3   OH234052   4.555   3.945   6.422
11370TIP3    H134053   4.471   3.911   6.390
11370TIP3    H234054   4.532   4.026   6.468
11371TIP3   OH234055   5.096   4.066   6.622
11371TIP3    H134056   5.165   4.040   6.684
11371TIP3    H234057   5.014   4.050   6.669
11372TIP3   OH234058   5.320   4.491   6.542
11372TIP3    H134059   5.276   4.485   6.627
11372TIP3    H234060   5.300   4.579   6.511
11373TIP3   OH234061   5.016   4.573   5.091
11373TIP3    H134062   4.965   4.576   5.010
11373TIP3    H234063   5.095   4.625   5.070
11374TIP3   OH234064   4.717   3.960   5.393
11374TIP3    H134065   4.677   3.975   5.479
11374TIP3    H234066   4.671   3.884   5.358
11375TIP3   OH234067   4.491   4.475   6.427
11375TIP3    H134068   4.445   4.481   6.511
11375TIP3    H234069   4.467   4.555   6.381
11376TIP3   OH234070   4.376   4.356   5.947
11376TIP3    H134071   4.287   4.330   5.970
11376TIP3    H234072   4.388   4.322   5.859
11377TIP3   OH234073   4.860   4.437   5.681
11377TIP3    H134074   4.809   4.506   5.638
11377TIP3    H234075   4.928   4.415   5.617
11378TIP3   OH234076   5.038   4.697   6.753
11378TIP3    H134077   5.011   4.629   6.815
11378TIP3    H234078   5.131   4.712   6.774
11379TIP3   OH234079   5.019   4.451   5.907
11379TIP3    H134080   4.951   4.476   5.845
11379TIP3    H234081   5.055   4.369   5.872
11380TIP3   OH234082   4.332   4.493   6.651
11380TIP3    H134083   4.341   4.557   6.722
11380TIP3    H234084   4.312   4.410   6.696
11381TIP3   OH234085   4.377   3.971   5.358
11381TIP3    H134086   4.367   3.973   5.453
11381TIP3    H234087   4.299   4.015   5.325
11382TIP3   OH234088   3.996   4.053   6.158
11382TIP3    H134089   4.001   4.040   6.253
11382TIP3    H234090   3.966   3.968   6.124
11383TIP3   OH234091   3.827   3.979   5.751
11383TIP3    H134092   3.873   4.013   5.674
11383TIP3    H234093   3.766   4.049   5.775
11384TIP3   OH234094   5.072   4.696   6.328
11384TIP3    H134095   5.099   4.630   6.265
11384TIP3    H234096   5.024   4.647   6.396
11385TIP3   OH234097   4.741   4.151   6.001
11385TIP3    H134098   4.660   4.151   6.052
11385TIP3    H234099   4.810   4.139   6.066
11386TIP3   OH234100   4.131   4.245   5.995
11386TIP3    H134101   4.043   4.263   5.961
11386TIP3    H234102   4.127   4.153   6.023
11387TIP3   OH234103   4.396   4.235   5.702
11387TIP3    H134104   4.490   4.245   5.686
11387TIP3    H234105   4.355   4.251   5.617
11388TIP3   OH234106   5.189   4.234   6.199
11388TIP3    H134107   5.174   4.250   6.292
11388TIP3    H234108   5.119   4.174   6.174
11389TIP3   OH234109   4.273   4.256   5.459
11389TIP3    H134110   4.209   4.207   5.408
11389TIP3    H234111   4.325   4.303   5.393
11390TIP3   OH234112   5.385   5.935   6.429
11390TIP3    H134113   5.379   5.952   6.334
11390TIP3    H234114   5.462   5.984   6.457
11391TIP3   OH234115   4.323   5.047   6.842
11391TIP3    H134116   4.404   5.068   6.889
11391TIP3    H234117   4.255   5.056   6.908
11392TIP3   OH234118   4.788   4.519   6.112
11392TIP3    H134119   4.848   4.462   6.063
11392TIP3    H234120   4.782   4.478   6.198
11393TIP3   OH234121   4.306   3.978   6.002
11393TIP3    H134122   4.271   3.905   6.053
11393TIP3    H234123   4.294   3.952   5.911
11394TIP3   OH234124   4.759   4.422   6.375
11394TIP3    H134125   4.671   4.451   6.396
11394TIP3    H234126   4.816   4.477   6.429
11395TIP3   OH234127   4.487   4.770   5.490
11395TIP3    H134128   4.412   4.716   5.467
11395TIP3    H234129   4.462   4.812   5.573
11396TIP3   OH234130   5.386   5.027   6.092
11396TIP3    H134131   5.419   5.079   6.018
11396TIP3    H234132   5.305   4.988   6.059
11397TIP3   OH234133   4.945   4.104   5.375
11397TIP3    H134134   4.863   4.055   5.383
11397TIP3    H234135   4.927   4.171   5.310
11398TIP3   OH234136   4.901   5.113   6.513
11398TIP3    H134137   4.947   5.108   6.597
11398TIP3    H234138   4.859   5.199   6.514
11399TIP3   OH234139   5.061   4.381   5.489
11399TIP3    H134140   5.081   4.308   5.431
11399TIP3    H234141   5.021   4.447   5.433
11400TIP3   OH234142   4.169   4.774   6.136
11400TIP3    H134143   4.209   4.762   6.050
11400TIP3    H234144   4.238   4.751   6.198
11401TIP3   OH234145   4.641   4.933   5.334
11401TIP3    H134146   4.593   5.015   5.330
11401TIP3    H234147   4.586   4.875   5.387
11402TIP3   OH234148   4.065   4.715   6.774
11402TIP3    H134149   4.066   4.688   6.866
11402TIP3    H234150   3.990   4.669   6.737
11403TIP3   OH234151   4.806   4.853   6.795
11403TIP3    H134152   4.736   4.795   6.767
11403TIP3    H234153   4.887   4.811   6.763
11404TIP3   OH234154   5.048   5.395   6.404
11404TIP3    H134155   4.953   5.382   6.407
11404TIP3    H234156   5.068   5.436   6.488
11405TIP3   OH234157   5.462   4.445   5.273
11405TIP3    H134158   5.393   4.401   5.223
11405TIP3    H234159   5.460   4.536   5.241
11406TIP3   OH234160   5.686   5.320   6.362
11406TIP3    H134161   5.592   5.302   6.357
11406TIP3    H234162   5.720   5.289   6.278
11407TIP3   OH234163   5.178   5.259   5.221
11407TIP3    H134164   5.138   5.197   5.282
11407TIP3    H234165   5.188   5.210   5.139
11408TIP3   OH234166   5.159   4.891   5.988
11408TIP3    H134167   5.070   4.870   6.017
11408TIP3    H234168   5.189   4.812   5.944
11409TIP3   OH234169   4.309   5.133   5.809
11409TIP3    H134170   4.308   5.210   5.752
11409TIP3    H234171   4.221   5.130   5.847
11410TIP3   OH234172   3.859   4.405   5.515
11410TIP3    H134173   3.906   4.486   5.537
11410TIP3    H234174   3.782   4.405   5.572
11411TIP3   OH234175   4.396   4.887   5.716
11411TIP3    H134176   4.380   4.976   5.746
11411TIP3    H234177   4.369   4.832   5.789
11412TIP3   OH234178   4.587   5.455   6.234
11412TIP3    H134179   4.608   5.514   6.161
11412TIP3    H234180   4.672   5.433   6.272
11413TIP3   OH234181   4.223   5.357   5.652
11413TIP3    H134182   4.138   5.365   5.695
11413TIP3    H234183   4.265   5.442   5.666
11414TIP3   OH234184   4.938   5.110   6.239
11414TIP3    H134185   4.925   5.108   6.334
11414TIP3    H234186   5.021   5.064   6.226
11415TIP3   OH234187   4.938   4.988   5.094
11415TIP3    H134188   4.987   4.954   5.168
11415TIP3    H234189   4.852   4.946   5.100
11416TIP3   OH234190   5.180   5.613   6.273
11416TIP3    H134191   5.115   5.542   6.284
11416TIP3    H234192   5.149   5.662   6.197
11417TIP3   OH234193   5.250   5.461   4.909
11417TIP3    H134194   5.272   5.524   4.841
11417TIP3    H234195   5.177   5.502   4.956
11418TIP3   OH234196   4.275   4.240   6.770
11418TIP3    H134197   4.180   4.250   6.772
11418TIP3    H234198   4.294   4.181   6.843
11419TIP3   OH234199   5.108   4.883   5.281
11419TIP3    H134200   5.092   4.844   5.367
11419TIP3    H234201   5.202   4.899   5.279
11420TIP3   OH234202   4.005   5.344   6.425
11420TIP3    H134203   4.062   5.286   6.477
11420TIP3    H234204   4.023   5.432   6.460
11421TIP3   OH234205   4.285   4.961   5.117
11421TIP3    H134206   4.297   4.870   5.090
11421TIP3    H234207   4.272   4.958   5.211
11422TIP3   OH234208   4.228   4.977   5.389
11422TIP3    H134209   4.290   4.950   5.456
11422TIP3    H234210   4.227   5.072   5.393
11423TIP3   OH234211   3.959   4.658   5.595
11423TIP3    H134212   3.896   4.707   5.648
11423TIP3    H234213   3.980   4.718   5.523
11424TIP3   OH234214   5.142   4.288   6.463
11424TIP3    H134215   5.213   4.338   6.504
11424TIP3    H234216   5.126   4.215   6.523
11425TIP3   OH234217   5.004   4.038   5.644
11425TIP3    H134218   4.980   4.065   5.556
11425TIP3    H234219   5.044   4.115   5.684
11426TIP3   OH234220   4.498   5.162   5.324
11426TIP3    H134221   4.413   5.187   5.361
11426TIP3    H234222   4.528   5.241   5.280
11427TIP3   OH234223   4.679   4.237   5.743
11427TIP3    H134224   4.740   4.307   5.719
11427TIP3    H234225   4.696   4.221   5.836
11428TIP3   OH234226   4.969   4.535   6.527
11428TIP3    H134227   4.988   4.582   6.608
11428TIP3    H234228   5.015   4.452   6.535
11429TIP3   OH234229   4.829   3.938   5.839
11429TIP3    H134230   4.806   4.017   5.888
11429TIP3    H234231   4.892   3.968   5.773
11430TIP3   OH234232   4.246   5.250   5.401
11430TIP3    H134233   4.227   5.321   5.340
11430TIP3    H234234   4.237   5.288   5.488
11431TIP3   OH234235   4.343   3.961   5.636
11431TIP3    H134236   4.329   4.050   5.668
11431TIP3    H234237   4.438   3.947   5.646
11432TIP3   OH234238   5.580   4.422   6.512
11432TIP3    H134239   5.487   4.440   6.527
11432TIP3    H234240   5.581   4.356   6.443
11433TIP3   OH234241   5.247   4.633   5.887
11433TIP3    H134242   5.165   4.584   5.888
11433TIP3    H234243   5.300   4.594   5.956
11434TIP3   OH234244   3.984   4.843   5.382
11434TIP3    H134245   4.056   4.905   5.392
11434TIP3    H234246   4.016   4.780   5.317
11435TIP3   OH234247   3.887   4.123   5.522
11435TIP3    H134248   3.893   4.219   5.521
11435TIP3    H234249   3.822   4.103   5.455
11436TIP3   OH234250   5.227   5.609   5.846
11436TIP3    H134251   5.182   5.661   5.779
11436TIP3    H234252   5.320   5.624   5.830
11437TIP3   OH234253   4.293   3.859   6.385
11437TIP3    H134254   4.268   3.828   6.298
11437TIP3    H234255   4.282   3.783   6.442
11438TIP3   OH234256   3.814   5.109   5.775
11438TIP3    H134257   3.771   5.146   5.853
11438TIP3    H234258   3.772   5.153   5.701
11439TIP3   OH234259   4.020   5.653   6.843
11439TIP3    H134260   4.102   5.659   6.892
11439TIP3    H234261   4.008   5.560   6.826
11440TIP3   OH234262   4.483   5.556   6.885
11440TIP3    H134263   4.575   5.531   6.891
11440TIP3    H234264   4.448   5.504   6.812
11441TIP3   OH234265   4.440   5.158   5.000
11441TIP3    H134266   4.394   5.090   5.049
11441TIP3    H234267   4.516   5.112   4.962
11442TIP3   OH234268   5.102   5.503   6.651
11442TIP3    H134269   5.118   5.433   6.713
11442TIP3    H234270   5.176   5.562   6.661
11443TIP3   OH234271   4.884   5.199   4.927
11443TIP3    H134272   4.918   5.133   4.988
11443TIP3    H234273   4.943   5.194   4.852
11444TIP3   OH234274   1.285   1.043   0.092
11444TIP3    H134275   1.303   0.950   0.103
11444TIP3    H234276   1.198   1.045   0.050
11445TIP3   OH234277   4.107   4.654   5.228
11445TIP3    H134278   4.156   4.627   5.306
11445TIP3    H234279   4.174   4.669   5.161
11446TIP3   OH234280   4.740   5.130   6.810
11446TIP3    H134281   4.694   5.152   6.728
11446TIP3    H234282   4.773   5.041   6.795
11447TIP3   OH234283   4.686   4.871   5.070
11447TIP3    H134284   4.661   4.885   5.161
11447TIP3    H234285   4.668   4.778   5.054
11448TIP3   OH234286   5.217   5.171   6.425
11448TIP3    H134287   5.293   5.201   6.375
11448TIP3    H234288   5.151   5.239   6.414
11449TIP3   OH234289   1.400   0.789   0.100
11449TIP3    H134290   1.473   0.771   0.040
11449TIP3    H234291   1.442   0.807   0.184
11450TIP3   OH234292   4.278   4.593   5.443
11450TIP3    H134293   4.256   4.563   5.531
11450TIP3    H234294   4.327   4.521   5.403
11451TIP3   OH234295   4.602   4.679   6.700
11451TIP3    H134296   4.514   4.717   6.708
11451TIP3    H234297   4.632   4.707   6.614
11452TIP3   OH234298   4.422   4.411   5.288
11452TIP3    H134299   4.393   4.417   5.197
11452TIP3    H234300   4.517   4.419   5.284
11453TIP3   OH234301   5.097   5.052   6.783
11453TIP3    H134302   5.159   5.009   6.725
11453TIP3    H234303   5.091   4.994   6.859
11454TIP3   OH234304   5.230   4.702   4.961
11454TIP3    H134305   5.210   4.658   4.878
11454TIP3    H234306   5.203   4.793   4.947
11455TIP3   OH234307   4.702   4.445   6.803
11455TIP3    H134308   4.702   4.375   6.739
11455TIP3    H234309   4.667   4.521   6.756
11456TIP3   OH234310   4.708   4.246   6.600
11456TIP3    H134311   4.734   4.283   6.516
11456TIP3    H234312   4.617   4.219   6.587
11457TIP3   OH234313   4.719   4.775   6.474
11457TIP3    H134314   4.805   4.816   6.461
11457TIP3    H234315   4.658   4.830   6.426
11458TIP3   OH234316   5.307   4.730   6.851
11458TIP3    H134317   5.348   4.644   6.858
11458TIP3    H234318   5.379   4.791   6.837
11459TIP3   OH234319   5.339   4.995   6.592
11459TIP3    H134320   5.285   5.057   6.542
11459TIP3    H234321   5.428   5.010   6.561
11460TIP3   OH234322   1.754   0.519   0.108
11460TIP3    H134323   1.683   0.457   0.128
11460TIP3    H234324   1.781   0.497   0.019
11461TIP3   OH234325   4.831   4.014   6.702
11461TIP3    H134326   4.789   4.094   6.669
11461TIP3    H234327   4.765   3.946   6.689
11462TIP3   OH234328   4.956   4.485   6.907
11462TIP3    H134329   4.944   4.471   7.001
11462TIP3    H234330   4.871   4.464   6.869
11463TIP3   OH234331   5.201   4.439   6.777
11463TIP3    H134332   5.121   4.439   6.831
11463TIP3    H234333   5.270   4.413   6.837
11464TIP3   OH234334   2.606   0.398  -0.016
11464TIP3    H134335   2.620   0.304  -0.009
11464TIP3    H234336   2.601   0.429   0.074
11465TIP3   OH234337   1.583   0.302   0.172
11465TIP3    H134338   1.589   0.214   0.134
11465TIP3    H234339   1.623   0.293   0.258
11466TIP3   OH234340   4.898   3.992   6.968
11466TIP3    H134341   4.965   3.924   6.961
11466TIP3    H234342   4.866   4.003   6.878
11467TIP3   OH234343   2.161   0.198   0.173
11467TIP3    H134344   2.130   0.126   0.118
11467TIP3    H234345   2.088   0.261   0.174
11468TIP3   OH234346   4.243   5.457   5.215
11468TIP3    H134347   4.331   5.433   5.188
11468TIP3    H234348   4.206   5.504   5.140
11469TIP3   OH234349   3.711   4.841   5.400
11469TIP3    H134350   3.806   4.853   5.397
11469TIP3    H234351   3.697   4.754   5.362
11470TIP3   OH234352   3.613   5.421   5.861
11470TIP3    H134353   3.549   5.367   5.815
11470TIP3    H234354   3.658   5.361   5.920
11471TIP3   OH234355   3.756   5.252   6.029
11471TIP3    H134356   3.749   5.183   6.095
11471TIP3    H234357   3.811   5.319   6.070
11472TIP3   OH234358   5.497   5.660   5.836
11472TIP3    H134359   5.516   5.686   5.926
11472TIP3    H234360   5.548   5.722   5.783
11473TIP3   OH234361   5.515   5.688   6.116
11473TIP3    H134362   5.463   5.608   6.114
11473TIP3    H234363   5.584   5.671   6.180
11474TIP3   OH234364   5.573   5.388   6.685
11474TIP3    H134365   5.499   5.398   6.746
11474TIP3    H234366   5.616   5.473   6.685
11475TIP3   OH234367   5.386   4.924   5.304
11475TIP3    H134368   5.444   4.984   5.258
11475TIP3    H234369   5.387   4.954   5.395
11476TIP3   OH234370   5.574   5.166   5.931
11476TIP3    H134371   5.618   5.099   5.879
11476TIP3    H234372   5.569   5.243   5.875
11477TIP3   OH234373   5.366   5.454   6.126
11477TIP3    H134374   5.293   5.495   6.172
11477TIP3    H234375   5.326   5.414   6.049
11478TIP3   OH234376   5.432   4.694   5.150
11478TIP3    H134377   5.360   4.694   5.087
11478TIP3    H234378   5.413   4.770   5.207
11479TIP3   OH234379   5.283   4.324   5.098
11479TIP3    H134380   5.230   4.368   5.032
11479TIP3    H234381   5.277   4.231   5.077
11480TIP3   OH234382   3.934   4.688   6.409
11480TIP3    H134383   3.924   4.653   6.321
11480TIP3    H234384   4.028   4.685   6.425
11481TIP3   OH234385   5.595   5.040   6.495
11481TIP3    H134386   5.663   4.975   6.476
11481TIP3    H234387   5.603   5.104   6.423
11482TIP3   OH234388   5.774   4.829   6.484
11482TIP3    H134389   5.700   4.789   6.529
11482TIP3    H234390   5.848   4.772   6.503
11483TIP3   OH234391   5.258   4.047   5.053
11483TIP3    H134392   5.318   4.032   5.126
11483TIP3    H234393   5.173   4.016   5.086
11484TIP3   OH234394   5.467   4.510   6.040
11484TIP3    H134395   5.561   4.521   6.026
11484TIP3    H234396   5.451   4.549   6.126
11485TIP3   OH234397   5.531   4.662   6.268
11485TIP3    H134398   5.461   4.690   6.327
11485TIP3    H234399   5.563   4.744   6.229
11486TIP3   OH234400   1.318   0.360   0.116
11486TIP3    H134401   1.412   0.355   0.131
11486TIP3    H234402   1.283   0.277   0.150
11487TIP3   OH234403   6.000   4.257   6.809
11487TIP3    H134404   6.066   4.201   6.768
11487TIP3    H234405   5.961   4.306   6.737
11488TIP3   OH234406   5.432   4.080   5.583
11488TIP3    H134407   5.468   4.064   5.670
11488TIP3    H234408   5.360   4.018   5.575
11489TIP3   OH234409   4.118   4.072   6.425
11489TIP3    H134410   4.174   3.995   6.418
11489TIP3    H234411   4.170   4.144   6.388
11490TIP3   OH234412   3.911   4.354   6.460
11490TIP3    H134413   3.960   4.339   6.380
11490TIP3    H234414   3.946   4.436   6.494
11491TIP3   OH234415   5.846   4.373   6.613
11491TIP3    H134416   5.766   4.413   6.645
11491TIP3    H234417   5.817   4.300   6.558
11492TIP3   OH234418   5.484   4.015   5.216
11492TIP3    H134419   5.530   3.956   5.157
11492TIP3    H234420   5.538   4.094   5.219
11493TIP3   OH234421   3.912   3.833   5.971
11493TIP3    H134422   3.834   3.808   6.020
11493TIP3    H234423   3.880   3.892   5.903
11494TIP3   OH234424   5.082   5.572   5.483
11494TIP3    H134425   5.130   5.564   5.401
11494TIP3    H234426   5.116   5.653   5.523
11495TIP3   OH234427   4.123   3.917   6.790
11495TIP3    H134428   4.068   3.901   6.866
11495TIP3    H234429   4.066   3.963   6.728
11496TIP3   OH234430   4.147   5.375   6.850
11496TIP3    H134431   4.054   5.351   6.844
11496TIP3    H234432   4.169   5.359   6.942
11497TIP3   OH234433   4.371   5.413   6.402
11497TIP3    H134434   4.319   5.488   6.374
11497TIP3    H234435   4.453   5.420   6.353
11498TIP3   OH234436   4.761   5.645   6.547
11498TIP3    H134437   4.799   5.641   6.635
11498TIP3    H234438   4.825   5.693   6.495
11499TIP3   OH234439   4.963   5.782   6.417
11499TIP3    H134440   5.031   5.731   6.372
11499TIP3    H234441   5.012   5.846   6.469
11500TIP3   OH234442   5.759   4.118   6.510
11500TIP3    H134443   5.670   4.098   6.483
11500TIP3    H234444   5.805   4.033   6.505
11501TIP3   OH234445   4.021   5.648   6.460
11501TIP3    H134446   3.932   5.675   6.437
11501TIP3    H234447   4.051   5.715   6.521
11502TIP3   OH234448   4.254   5.640   6.308
11502TIP3    H134449   4.169   5.645   6.352
11502TIP3    H234450   4.235   5.666   6.217
11503TIP3   OH234451   4.888   5.585   6.094
11503TIP3    H134452   4.808   5.587   6.041
11503TIP3    H234453   4.932   5.668   6.076
11504TIP3   OH234454   5.138   5.775   6.049
11504TIP3    H134455   5.129   5.860   6.006
11504TIP3    H234456   5.162   5.715   5.979
11505TIP3   OH234457   3.933   5.429   6.170
11505TIP3    H134458   3.960   5.407   6.259
11505TIP3    H234459   4.005   5.399   6.115
11506TIP3   OH234460   4.136   5.306   6.031
11506TIP3    H134461   4.149   5.225   6.080
11506TIP3    H234462   4.222   5.346   6.027
11507TIP3   OH234463   4.390   5.416   6.029
11507TIP3    H134464   4.444   5.471   5.972
11507TIP3    H234465   4.440   5.408   6.110
11508TIP3   OH234466   4.969   4.055   6.143
11508TIP3    H134467   4.927   3.985   6.194
11508TIP3    H234468   5.035   4.010   6.090
11509TIP3   OH234469   5.469   3.965   6.028
11509TIP3    H134470   5.504   4.017   5.956
11509TIP3    H234471   5.374   3.979   6.024
11510TIP3   OH234472   5.598   4.062   5.805
11510TIP3    H134473   5.662   3.999   5.772
11510TIP3    H234474   5.643   4.146   5.801
11511TIP3   OH234475   4.225   3.754   6.139
11511TIP3    H134476   4.136   3.721   6.147
11511TIP3    H234477   4.279   3.675   6.131
11512TIP3   OH234478   4.009   3.646   5.780
11512TIP3    H134479   4.042   3.699   5.707
11512TIP3    H234480   3.985   3.710   5.847
11513TIP3   OH234481   4.690   3.788   6.037
11513TIP3    H134482   4.732   3.842   5.969
11513TIP3    H234483   4.725   3.822   6.119
11514TIP3   OH234484   5.186   3.942   6.006
11514TIP3    H134485   5.181   3.904   5.918
11514TIP3    H234486   5.188   3.866   6.064
11515TIP3   OH234487   5.231   3.888   5.576
11515TIP3    H134488   5.148   3.933   5.593
11515TIP3    H234489   5.219   3.801   5.616
11516TIP3   OH234490   3.699   5.233   5.559
11516TIP3    H134491   3.616   5.198   5.528
11516TIP3    H234492   3.701   5.323   5.525
11517TIP3   OH234493   4.135   3.787   5.557
11517TIP3    H134494   4.182   3.725   5.500
11517TIP3    H234495   4.202   3.846   5.590
11518TIP3   OH234496   4.619   3.986   5.651
11518TIP3    H134497   4.672   3.933   5.710
11518TIP3    H234498   4.636   4.076   5.677
11519TIP3   OH234499   4.496   5.384   5.142
11519TIP3    H134500   4.581   5.410   5.106
11519TIP3    H234501   4.469   5.309   5.089
11520TIP3   OH234502   5.215   5.529   5.243
11520TIP3    H134503   5.207   5.434   5.239
11520TIP3    H234504   5.166   5.561   5.168
11521TIP3   OH234505   1.599   0.030   0.087
11521TIP3    H134506   1.565  -0.039   0.144
11521TIP3    H234507   1.691   0.038   0.112
11522TIP3   OH234508   1.848   0.038   0.208
11522TIP3    H134509   1.925   0.014   0.155
11522TIP3    H234510   1.840  -0.033   0.271
11523TIP3   OH234511   3.811   5.229   5.209
11523TIP3    H134512   3.815   5.236   5.304
11523TIP3    H234513   3.891   5.182   5.185
11524TIP3   OH234514   2.670   0.127  -0.007
11524TIP3    H134515   2.686   0.097   0.082
11524TIP3    H234516   2.755   0.121  -0.050
11525TIP3   OH234517   5.412   5.661   6.431
11525TIP3    H134518   5.335   5.632   6.381
11525TIP3    H234519   5.401   5.756   6.438
11526TIP3   OH234520   6.698   5.049   5.177
11526TIP3    H134521   6.665   5.136   5.156
11526TIP3    H234522   6.627   4.990   5.152
11527TIP3   OH234523   6.696   5.043   5.601
11527TIP3    H134524   6.748   5.026   5.679
11527TIP3    H234525   6.651   4.960   5.583
11528TIP3   OH234526   5.990   4.901   5.945
11528TIP3    H134527   6.028   4.852   6.019
11528TIP3    H234528   6.066   4.933   5.897
11529TIP3   OH234529   6.967   5.352   5.274
11529TIP3    H134530   6.952   5.287   5.343
11529TIP3    H234531   6.987   5.432   5.321
11530TIP3   OH234532   5.990   5.330   5.631
11530TIP3    H134533   5.972   5.236   5.639
11530TIP3    H234534   6.085   5.335   5.620
11531TIP3   OH234535   5.763   4.838   5.630
11531TIP3    H134536   5.821   4.762   5.641
11531TIP3    H234537   5.821   4.908   5.600
11532TIP3   OH234538   6.620   5.781   5.283
11532TIP3    H134539   6.647   5.718   5.216
11532TIP3    H234540   6.622   5.731   5.365
11533TIP3   OH234541   6.505   5.265   5.606
11533TIP3    H134542   6.550   5.186   5.577
11533TIP3    H234543   6.575   5.322   5.638
11534TIP3   OH234544   7.530   4.592   5.620
11534TIP3    H134545   7.546   4.676   5.662
11534TIP3    H234546   7.567   4.601   5.532
11535TIP3   OH234547   6.907   4.752   5.641
11535TIP3    H134548   6.942   4.668   5.669
11535TIP3    H234549   6.872   4.737   5.554
11536TIP3   OH234550   6.274   4.414   5.607
11536TIP3    H134551   6.249   4.485   5.546
11536TIP3    H234552   6.227   4.337   5.574
11537TIP3   OH234553   6.963   4.513   5.237
11537TIP3    H134554   7.027   4.508   5.309
11537TIP3    H234555   7.012   4.551   5.164
11538TIP3   OH234556   5.898   4.603   5.703
11538TIP3    H134557   5.982   4.591   5.747
11538TIP3    H234558   5.904   4.551   5.624
11539TIP3   OH234559   6.308   4.824   5.543
11539TIP3    H134560   6.403   4.810   5.550
11539TIP3    H234561   6.275   4.740   5.510
11540TIP3   OH234562   7.585   4.809   5.792
11540TIP3    H134563   7.497   4.845   5.784
11540TIP3    H234564   7.620   4.847   5.873
11541TIP3   OH234565   6.247   4.414   6.053
11541TIP3    H134566   6.195   4.451   5.981
11541TIP3    H234567   6.194   4.430   6.131
11542TIP3   OH234568   6.567   5.259   5.057
11542TIP3    H134569   6.541   5.242   4.967
11542TIP3    H234570   6.527   5.343   5.079
11543TIP3   OH234571   6.340   5.191   5.817
11543TIP3    H134572   6.287   5.264   5.851
11543TIP3    H234573   6.390   5.230   5.744
11544TIP3   OH234574   7.123   4.536   5.458
11544TIP3    H134575   7.080   4.515   5.541
11544TIP3    H234576   7.178   4.611   5.478
11545TIP3   OH234577   6.134   4.520   5.822
11545TIP3    H134578   6.185   4.596   5.848
11545TIP3    H234579   6.188   4.477   5.755
11546TIP3   OH234580   6.185   5.395   5.923
11546TIP3    H134581   6.171   5.484   5.891
11546TIP3    H234582   6.107   5.376   5.975
11547TIP3   OH234583   5.560   5.097   5.175
11547TIP3    H134584   5.529   5.116   5.086
11547TIP3    H234585   5.583   5.183   5.211
11548TIP3   OH234586   7.002   5.599   5.415
11548TIP3    H134587   6.915   5.592   5.454
11548TIP3    H234588   7.000   5.683   5.368
11549TIP3   OH234589   7.332   4.478   5.787
11549TIP3    H134590   7.247   4.502   5.750
11549TIP3    H234591   7.396   4.507   5.721
11550TIP3   OH234592   6.586   4.107   5.783
11550TIP3    H134593   6.580   4.015   5.810
11550TIP3    H234594   6.508   4.148   5.823
11551TIP3   OH234595   6.709   5.628   5.068
11551TIP3    H134596   6.760   5.547   5.057
11551TIP3    H234597   6.768   5.698   5.042
11552TIP3   OH234598   6.863   5.408   5.023
11552TIP3    H134599   6.856   5.327   4.973
11552TIP3    H234600   6.902   5.382   5.106
11553TIP3   OH234601   7.224   5.494   5.755
11553TIP3    H134602   7.210   5.419   5.697
11553TIP3    H234603   7.212   5.570   5.700
11554TIP3   OH234604   6.523   4.888   5.029
11554TIP3    H134605   6.442   4.937   5.011
11554TIP3    H234606   6.570   4.889   4.946
11555TIP3   OH234607   6.493   4.693   4.723
11555TIP3    H134608   6.559   4.742   4.773
11555TIP3    H234609   6.544   4.630   4.672
11556TIP3   OH234610   7.414   5.147   5.626
11556TIP3    H134611   7.331   5.194   5.626
11556TIP3    H234612   7.449   5.161   5.538
11557TIP3   OH234613   6.884   4.980   4.988
11557TIP3    H134614   6.828   5.008   5.061
11557TIP3    H234615   6.967   4.956   5.029
11558TIP3   OH234616   7.111   5.007   5.934
11558TIP3    H134617   7.109   5.091   5.980
11558TIP3    H234618   7.029   5.004   5.885
11559TIP3   OH234619   6.108   4.956   5.395
11559TIP3    H134620   6.074   4.897   5.327
11559TIP3    H234621   6.183   4.910   5.432
11560TIP3   OH234622   6.251   5.380   5.535
11560TIP3    H134623   6.229   5.369   5.443
11560TIP3    H234624   6.339   5.343   5.543
11561TIP3   OH234625   6.209   4.955   5.769
11561TIP3    H134626   6.248   4.919   5.689
11561TIP3    H234627   6.258   5.036   5.785
11562TIP3   OH234628   6.763   5.591   5.546
11562TIP3    H134629   6.749   5.672   5.595
11562TIP3    H234630   6.748   5.522   5.610
11563TIP3   OH234631   6.381   5.494   6.093
11563TIP3    H134632   6.320   5.551   6.139
11563TIP3    H234633   6.326   5.442   6.034
11564TIP3   OH234634   6.714   4.839   4.823
11564TIP3    H134635   6.773   4.898   4.870
11564TIP3    H234636   6.742   4.846   4.732
11565TIP3   OH234637   6.135   5.040   6.230
11565TIP3    H134638   6.140   5.134   6.249
11565TIP3    H234639   6.042   5.021   6.224
11566TIP3   OH234640   6.457   5.515   5.079
11566TIP3    H134641   6.543   5.558   5.082
11566TIP3    H234642   6.401   5.577   5.031
11567TIP3   OH234643   6.170   5.652   6.178
11567TIP3    H134644   6.147   5.662   6.086
11567TIP3    H234645   6.087   5.637   6.223
11568TIP3   OH234646   7.252   4.103   4.860
11568TIP3    H134647   7.177   4.072   4.911
11568TIP3    H234648   7.244   4.198   4.860
11569TIP3   OH234649   5.987   4.801   5.188
11569TIP3    H134650   5.910   4.851   5.159
11569TIP3    H234651   5.958   4.709   5.184
11570TIP3   OH234652   7.049   5.441   4.435
11570TIP3    H134653   7.044   5.534   4.413
11570TIP3    H234654   7.138   5.416   4.413
11571TIP3   OH234655   5.769   5.208   6.128
11571TIP3    H134656   5.700   5.191   6.064
11571TIP3    H234657   5.801   5.121   6.153
11572TIP3   OH234658   5.607   5.406   5.785
11572TIP3    H134659   5.696   5.435   5.805
11572TIP3    H234660   5.552   5.482   5.808
11573TIP3   OH234661   7.444   5.838   5.854
11573TIP3    H134662   7.468   5.746   5.859
11573TIP3    H234663   7.353   5.842   5.884
11574TIP3   OH234664   6.570   5.637   5.954
11574TIP3    H134665   6.562   5.728   5.984
11574TIP3    H234666   6.503   5.589   6.003
11575TIP3   OH234667   6.351   5.734   4.907
11575TIP3    H134668   6.308   5.715   4.825
11575TIP3    H234669   6.316   5.819   4.934
11576TIP3   OH234670   5.785   5.591   5.285
11576TIP3    H134671   5.830   5.582   5.369
11576TIP3    H234672   5.736   5.509   5.275
11577TIP3   OH234673   6.553   5.666   4.536
11577TIP3    H134674   6.602   5.591   4.503
11577TIP3    H234675   6.589   5.682   4.623
11578TIP3   OH234676   6.606   5.718   4.804
11578TIP3    H134677   6.520   5.718   4.846
11578TIP3    H234678   6.665   5.683   4.871
11579TIP3   OH234679   7.354   4.964   6.097
11579TIP3    H134680   7.272   4.972   6.049
11579TIP3    H234681   7.373   4.870   6.097
11580TIP3   OH234682   5.968   5.395   6.094
11580TIP3    H134683   6.018   5.383   6.175
11580TIP3    H234684   5.896   5.333   6.101
11581TIP3   OH234685   6.345   4.197   5.907
11581TIP3    H134686   6.260   4.165   5.877
11581TIP3    H234687   6.326   4.277   5.956
11582TIP3   OH234688   6.894   4.321   6.109
11582TIP3    H134689   6.964   4.295   6.169
11582TIP3    H234690   6.813   4.304   6.158
11583TIP3   OH234691   7.115   4.742   6.023
11583TIP3    H134692   7.074   4.740   6.110
11583TIP3    H234693   7.100   4.831   5.992
11584TIP3   OH234694   6.794   4.828   4.561
11584TIP3    H134695   6.747   4.833   4.478
11584TIP3    H234696   6.876   4.873   4.544
11585TIP3   OH234697   6.508   4.239   4.884
11585TIP3    H134698   6.470   4.247   4.971
11585TIP3    H234699   6.468   4.161   4.847
11586TIP3   OH234700   6.284   4.732   5.916
11586TIP3    H134701   6.241   4.741   6.001
11586TIP3    H234702   6.264   4.813   5.870
11587TIP3   OH234703   6.167   4.603   5.439
11587TIP3    H134704   6.077   4.579   5.456
11587TIP3    H234705   6.183   4.576   5.348
11588TIP3   OH234706   6.649   4.685   5.164
11588TIP3    H134707   6.601   4.757   5.124
11588TIP3    H234708   6.708   4.654   5.096
11589TIP3   OH234709   6.836   4.957   6.242
11589TIP3    H134710   6.809   4.888   6.302
11589TIP3    H234711   6.926   4.977   6.267
11590TIP3   OH234712   6.817   4.700   5.388
11590TIP3    H134713   6.749   4.723   5.325
11590TIP3    H234714   6.863   4.627   5.348
11591TIP3   OH234715   6.124   4.746   6.141
11591TIP3    H134716   6.145   4.810   6.209
11591TIP3    H234717   6.109   4.664   6.188
11592TIP3   OH234718   6.171   4.227   4.853
11592TIP3    H134719   6.159   4.230   4.948
11592TIP3    H234720   6.093   4.269   4.818
11593TIP3   OH234721   5.692   4.351   5.709
11593TIP3    H134722   5.776   4.337   5.751
11593TIP3    H234723   5.693   4.293   5.633
11594TIP3   OH234724   5.644   4.247   5.232
11594TIP3    H134725   5.684   4.279   5.151
11594TIP3    H234726   5.580   4.314   5.255
11595TIP3   OH234727   6.858   4.954   5.816
11595TIP3    H134728   6.882   4.887   5.752
11595TIP3    H234729   6.815   4.906   5.886
11596TIP3   OH234730   6.538   4.405   5.491
11596TIP3    H134731   6.462   4.407   5.548
11596TIP3    H234732   6.613   4.394   5.550
11597TIP3   OH234733   5.933   4.449   5.479
11597TIP3    H134734   5.867   4.428   5.414
11597TIP3    H234735   5.989   4.371   5.484
11598TIP3   OH234736   6.184   4.489   5.190
11598TIP3    H134737   6.279   4.500   5.180
11598TIP3    H234738   6.148   4.508   5.103
11599TIP3   OH234739   6.982   4.490   5.696
11599TIP3    H134740   6.963   4.507   5.789
11599TIP3    H234741   6.914   4.428   5.669
11600TIP3   OH234742   6.067   4.520   4.945
11600TIP3    H134743   6.005   4.467   4.895
11600TIP3    H234744   6.121   4.563   4.879
11601TIP3   OH234745   7.164   6.180   5.921
11601TIP3    H134746   7.181   6.199   5.829
11601TIP3    H234747   7.231   6.230   5.969
11602TIP3   OH234748   6.121   5.305   6.328
11602TIP3    H134749   6.202   5.325   6.375
11602TIP3    H234750   6.052   5.314   6.393
11603TIP3   OH234751   6.581   4.772   5.596
11603TIP3    H134752   6.650   4.725   5.550
11603TIP3    H234753   6.579   4.733   5.684
11604TIP3   OH234754   6.099   4.228   5.487
11604TIP3    H134755   6.065   4.154   5.538
11604TIP3    H234756   6.133   4.188   5.407
11605TIP3   OH234757   6.554   4.679   5.863
11605TIP3    H134758   6.467   4.711   5.886
11605TIP3    H234759   6.614   4.730   5.916
11606TIP3   OH234760   6.290   5.031   4.972
11606TIP3    H134761   6.214   4.977   4.947
11606TIP3    H234762   6.263   5.072   5.055
11607TIP3   OH234763   7.179   5.286   5.580
11607TIP3    H134764   7.216   5.334   5.506
11607TIP3    H234765   7.100   5.245   5.544
11608TIP3   OH234766   6.759   4.347   4.882
11608TIP3    H134767   6.665   4.327   4.881
11608TIP3    H234768   6.762   4.442   4.894
11609TIP3   OH234769   6.696   5.366   5.995
11609TIP3    H134770   6.751   5.355   6.072
11609TIP3    H234771   6.660   5.454   6.003
11610TIP3   OH234772   6.815   4.611   4.950
11610TIP3    H134773   6.910   4.618   4.960
11610TIP3    H234774   6.792   4.688   4.898
11611TIP3   OH234775   5.978   5.039   5.624
11611TIP3    H134776   6.017   5.023   5.538
11611TIP3    H234777   6.046   5.011   5.686
11612TIP3   OH234778   6.442   5.190   4.811
11612TIP3    H134779   6.394   5.273   4.810
11612TIP3    H234780   6.389   5.133   4.866
11613TIP3   OH234781   5.861   4.974   6.255
11613TIP3    H134782   5.866   4.950   6.348
11613TIP3    H234783   5.788   4.923   6.221
11614TIP3   OH234784   6.600   5.109   6.271
11614TIP3    H134785   6.534   5.048   6.239
11614TIP3    H234786   6.684   5.070   6.246
11615TIP3   OH234787   6.837   5.651   5.870
11615TIP3    H134788   6.742   5.639   5.879
11615TIP3    H234789   6.863   5.697   5.950
11616TIP3   OH234790   7.223   4.702   4.771
11616TIP3    H134791   7.169   4.655   4.708
11616TIP3    H234792   7.229   4.791   4.735
11617TIP3   OH234793   7.473   5.544   5.852
11617TIP3    H134794   7.379   5.539   5.837
11617TIP3    H234795   7.512   5.526   5.766
11618TIP3   OH234796   6.968   5.516   4.695
11618TIP3    H134797   6.942   5.444   4.753
11618TIP3    H234798   6.990   5.474   4.612
11619TIP3   OH234799   6.950   5.150   5.478
11619TIP3    H134800   6.860   5.129   5.502
11619TIP3    H234801   6.984   5.069   5.440
11620TIP3   OH234802   6.107   5.386   5.292
11620TIP3    H134803   6.106   5.461   5.232
11620TIP3    H234804   6.018   5.381   5.325
11621TIP3   OH234805   5.659   4.671   4.997
11621TIP3    H134806   5.704   4.753   5.015
11621TIP3    H234807   5.580   4.673   5.051
11622TIP3   OH234808   6.186   5.139   5.197
11622TIP3    H134809   6.171   5.229   5.225
11622TIP3    H234810   6.160   5.086   5.272
11623TIP3   OH234811   6.387   5.710   5.746
11623TIP3    H134812   6.422   5.783   5.695
11623TIP3    H234813   6.462   5.677   5.796
11624TIP3   OH234814   6.021   5.609   5.141
11624TIP3    H134815   5.934   5.616   5.180
11624TIP3    H234816   6.057   5.698   5.145
11625TIP3   OH234817   6.737   5.371   5.721
11625TIP3    H134818   6.724   5.366   5.815
11625TIP3    H234819   6.818   5.322   5.705
11626TIP3   OH234820   6.735   5.249   4.598
11626TIP3    H134821   6.781   5.232   4.680
11626TIP3    H234822   6.648   5.210   4.611
11627TIP3   OH234823   6.985   5.872   5.752
11627TIP3    H134824   6.912   5.810   5.760
11627TIP3    H234825   6.960   5.930   5.681
11628TIP3   OH234826   7.039   5.714   4.394
11628TIP3    H134827   7.046   5.768   4.314
11628TIP3    H234828   6.972   5.758   4.446
11629TIP3   OH234829   6.076   4.490   6.261
11629TIP3    H134830   5.981   4.498   6.269
11629TIP3    H234831   6.103   4.436   6.335
11630TIP3   OH234832   6.906   5.194   4.813
11630TIP3    H134833   6.892   5.120   4.872
11630TIP3    H234834   7.000   5.192   4.795
11631TIP3   OH234835   5.816   5.598   5.905
11631TIP3    H134836   5.870   5.540   5.958
11631TIP3    H234837   5.829   5.685   5.944
11632TIP3   OH234838   6.083   5.214   4.598
11632TIP3    H134839   6.094   5.122   4.572
11632TIP3    H234840   6.069   5.211   4.693
11633TIP3   OH234841   6.028   5.231   4.871
11633TIP3    H134842   6.095   5.205   4.934
11633TIP3    H234843   6.025   5.326   4.877
11634TIP3   OH234844   5.759   4.921   5.080
11634TIP3    H134845   5.694   4.968   5.132
11634TIP3    H234846   5.779   4.980   5.008
11635TIP3   OH234847   6.924   4.551   5.958
11635TIP3    H134848   7.002   4.596   5.990
11635TIP3    H234849   6.915   4.474   6.015
11636TIP3   OH234850   6.826   4.289   5.146
11636TIP3    H134851   6.802   4.311   5.056
11636TIP3    H234852   6.867   4.369   5.180
11637TIP3   OH234853   6.294   5.416   4.810
11637TIP3    H134854   6.210   5.441   4.850
11637TIP3    H234855   6.318   5.492   4.756
11638TIP3   OH234856   6.462   4.497   5.239
11638TIP3    H134857   6.524   4.564   5.211
11638TIP3    H234858   6.488   4.477   5.329
11639TIP3   OH234859   6.762   4.789   6.016
11639TIP3    H134860   6.788   4.833   6.097
11639TIP3    H234861   6.812   4.708   6.015
11640TIP3   OH234862   6.632   4.196   5.325
11640TIP3    H134863   6.611   4.274   5.376
11640TIP3    H234864   6.704   4.223   5.267
11641TIP3   OH234865   6.044   5.502   4.889
11641TIP3    H134866   6.024   5.574   4.828
11641TIP3    H234867   6.034   5.542   4.976
11642TIP3   OH234868   6.141   4.216   5.132
11642TIP3    H134869   6.130   4.307   5.160
11642TIP3    H234870   6.236   4.201   5.137
11643TIP3   OH234871   7.381   4.688   6.011
11643TIP3    H134872   7.286   4.696   6.021
11643TIP3    H234873   7.392   4.636   5.932
11644TIP3   OH234874   7.042   4.892   5.390
11644TIP3    H134875   6.965   4.836   5.402
11644TIP3    H234876   7.109   4.853   5.445
11645TIP3   OH234877   5.783   5.100   4.866
11645TIP3    H134878   5.854   5.164   4.875
11645TIP3    H234879   5.814   5.038   4.801
11646TIP3   OH234880   5.698   4.392   5.004
11646TIP3    H134881   5.699   4.488   5.007
11646TIP3    H234882   5.643   4.371   4.929
11647TIP3   OH234883   7.024   5.866   5.332
11647TIP3    H134884   6.983   5.918   5.263
11647TIP3    H234885   7.118   5.877   5.317
11648TIP3   OH234886   6.078   4.115   5.871
11648TIP3    H134887   6.056   4.078   5.785
11648TIP3    H234888   6.076   4.041   5.930
11649TIP3   OH234889   5.609   5.366   5.261
11649TIP3    H134890   5.567   5.404   5.338
11649TIP3    H234891   5.567   5.409   5.187
11650TIP3   OH234892   5.810   5.907   6.328
11650TIP3    H134893   5.893   5.909   6.374
11650TIP3    H234894   5.789   5.814   6.319
11651TIP3   OH234895   6.281   5.808   6.376
11651TIP3    H134896   6.372   5.780   6.382
11651TIP3    H234897   6.245   5.758   6.303
11652TIP3   OH234898   6.236   5.416   4.489
11652TIP3    H134899   6.191   5.346   4.535
11652TIP3    H234900   6.312   5.374   4.449
11653TIP3   OH234901   6.891   5.769   6.111
11653TIP3    H134902   6.895   5.691   6.167
11653TIP3    H234903   6.970   5.818   6.134
11654TIP3   OH234904   6.675   5.451   4.418
11654TIP3    H134905   6.712   5.387   4.479
11654TIP3    H234906   6.732   5.446   4.342
11655TIP3   OH234907   5.915   5.304   6.517
11655TIP3    H134908   5.933   5.211   6.527
11655TIP3    H234909   5.828   5.308   6.477
11656TIP3   OH234910   5.906   4.911   4.712
11656TIP3    H134911   5.958   4.889   4.789
11656TIP3    H234912   5.970   4.924   4.642
11657TIP3   OH234913   6.535   5.385   6.294
11657TIP3    H134914   6.492   5.409   6.212
11657TIP3    H234915   6.571   5.298   6.278
11658TIP3   OH234916   6.467   5.132   4.545
11658TIP3    H134917   6.447   5.144   4.638
11658TIP3    H234918   6.455   5.039   4.529
11659TIP3   OH234919   7.007   5.429   5.912
11659TIP3    H134920   7.084   5.457   5.862
11659TIP3    H234921   6.942   5.497   5.895
11660TIP3   OH234922   6.031   5.048   6.522
11660TIP3    H134923   6.108   5.032   6.468
11660TIP3    H234924   6.066   5.067   6.609
11661TIP3   OH234925   6.082   4.853   4.921
11661TIP3    H134926   6.064   4.823   5.010
11661TIP3    H234927   6.130   4.782   4.880
11662TIP3   OH234928   6.389   4.927   6.177
11662TIP3    H134929   6.306   4.973   6.188
11662TIP3    H234930   6.423   4.959   6.094
11663TIP3   OH234931   6.220   4.665   4.768
11663TIP3    H134932   6.191   4.669   4.677
11663TIP3    H234933   6.315   4.672   4.764
11664TIP3   OH234934   6.889   5.298   6.259
11664TIP3    H134935   6.960   5.259   6.208
11664TIP3    H234936   6.887   5.247   6.340
11665TIP3   OH234937   7.015   4.956   4.455
11665TIP3    H134938   7.002   4.913   4.370
11665TIP3    H234939   6.991   5.047   4.440
11666TIP3   OH234940   6.496   4.700   6.290
11666TIP3    H134941   6.501   4.629   6.226
11666TIP3    H234942   6.461   4.774   6.241
11667TIP3   OH234943   6.506   4.501   6.088
11667TIP3    H134944   6.534   4.539   6.004
11667TIP3    H234945   6.416   4.473   6.073
11668TIP3   OH234946   6.512   5.033   5.961
11668TIP3    H134947   6.600   5.068   5.950
11668TIP3    H234948   6.456   5.092   5.910
11669TIP3   OH234949   7.105   5.001   6.349
11669TIP3    H134950   7.153   4.919   6.338
11669TIP3    H234951   7.172   5.070   6.340
11670TIP3   OH234952   7.133   5.251   6.074
11670TIP3    H134953   7.079   5.314   6.025
11670TIP3    H234954   7.222   5.266   6.042
11671TIP3   OH234955   6.379   4.781   6.531
11671TIP3    H134956   6.310   4.718   6.551
11671TIP3    H234957   6.410   4.757   6.444
11672TIP3   OH234958   6.629   4.269   6.189
11672TIP3    H134959   6.587   4.349   6.156
11672TIP3    H234960   6.563   4.201   6.176
11673TIP3   OH234961   6.752   4.742   6.392
11673TIP3    H134962   6.742   4.729   6.487
11673TIP3    H234963   6.666   4.721   6.356
11674TIP3   OH234964   7.000   4.704   6.263
11674TIP3    H134965   6.922   4.701   6.319
11674TIP3    H234966   7.072   4.676   6.320
11675TIP3   OH234967   7.237   4.654   6.403
11675TIP3    H134968   7.250   4.559   6.412
11675TIP3    H234969   7.231   4.685   6.494
11676TIP3   OH234970   6.210   4.565   6.596
11676TIP3    H134971   6.218   4.476   6.560
11676TIP3    H234972   6.249   4.558   6.684
11677TIP3   OH234973   6.694   4.249   6.455
11677TIP3    H134974   6.762   4.182   6.452
11677TIP3    H234975   6.665   4.259   6.364
11678TIP3   OH234976   6.791   4.465   6.596
11678TIP3    H134977   6.760   4.391   6.543
11678TIP3    H234978   6.717   4.526   6.598
11679TIP3   OH234979   6.039   5.707   4.704
11679TIP3    H134980   6.130   5.691   4.678
11679TIP3    H234981   6.000   5.753   4.629
11680TIP3   OH234982   5.510   5.102   4.891
11680TIP3    H134983   5.605   5.114   4.885
11680TIP3    H234984   5.494   5.016   4.852
11681TIP3   OH234985   5.414   5.683   5.348
11681TIP3    H134986   5.352   5.631   5.299
11681TIP3    H234987   5.458   5.621   5.406
11682TIP3   OH234988   5.558   5.510   5.511
11682TIP3    H134989   5.548   5.444   5.579
11682TIP3    H234990   5.611   5.579   5.553
11683TIP3   OH234991   7.297   5.908   5.322
11683TIP3    H134992   7.317   5.939   5.410
11683TIP3    H234993   7.365   5.948   5.267
11684TIP3   OH234994   7.316   5.957   5.600
11684TIP3    H134995   7.276   5.870   5.606
11684TIP3    H234996   7.397   5.950   5.650
11685TIP3   OH234997   7.353   5.641   6.197
11685TIP3    H134998   7.284   5.648   6.263
11685TIP3    H234999   7.397   5.726   6.199
11686TIP3   OH235000   7.183   5.168   4.784
11686TIP3    H135001   7.241   5.237   4.752
11686TIP3    H235002   7.231   5.129   4.857
11687TIP3   OH235003   7.314   5.024   4.983
11687TIP3    H135004   7.247   4.987   5.042
11687TIP3    H235005   7.379   5.061   5.042
11688TIP3   OH235006   7.360   5.422   5.417
11688TIP3    H135007   7.411   5.353   5.374
11688TIP3    H235008   7.363   5.495   5.356
11689TIP3   OH235009   7.169   5.718   5.608
11689TIP3    H135010   7.100   5.763   5.656
11689TIP3    H235011   7.124   5.677   5.534
11690TIP3   OH235012   7.224   4.940   4.632
11690TIP3    H135013   7.154   4.940   4.567
11690TIP3    H235014   7.209   5.019   4.684
11691TIP3   OH235015   7.076   4.579   4.576
11691TIP3    H135016   7.039   4.622   4.499
11691TIP3    H235017   7.058   4.486   4.563
11692TIP3   OH235018   7.111   4.885   5.122
11692TIP3    H135019   7.118   4.790   5.110
11692TIP3    H235020   7.092   4.896   5.215
11693TIP3   OH235021   5.726   4.923   5.885
11693TIP3    H135022   5.723   4.904   5.791
11693TIP3    H235023   5.819   4.928   5.905
11694TIP3   OH235024   7.392   5.298   5.981
11694TIP3    H135025   7.456   5.229   5.964
11694TIP3    H235026   7.419   5.371   5.925
11695TIP3   OH235027   7.567   5.086   5.976
11695TIP3    H135028   7.493   5.045   6.022
11695TIP3    H235029   7.642   5.032   5.999
11696TIP3   OH235030   7.027   4.307   4.550
11696TIP3    H135031   7.083   4.264   4.616
11696TIP3    H235032   6.941   4.268   4.563
11697TIP3   OH235033   7.105   4.605   5.009
11697TIP3    H135034   7.151   4.522   5.018
11697TIP3    H235035   7.145   4.647   4.933
11698TIP3   OH235036   7.256   4.770   5.530
11698TIP3    H135037   7.337   4.789   5.482
11698TIP3    H235038   7.270   4.809   5.616
11699TIP3   OH235039   7.328   4.919   5.758
11699TIP3    H135040   7.256   4.949   5.813
11699TIP3    H235041   7.359   4.999   5.715
11700TIP3   OH235042   5.947   4.617   6.528
11700TIP3    H135043   6.041   4.616   6.549
11700TIP3    H235044   5.913   4.537   6.569
11701TIP3   OH235045   7.790   4.522   6.297
11701TIP3    H135046   7.854   4.464   6.257
11701TIP3    H235047   7.751   4.570   6.223
11702TIP3   OH235048   7.220   4.348   5.050
11702TIP3    H135049   7.266   4.341   5.134
11702TIP3    H235050   7.157   4.277   5.051
11703TIP3   OH235051   5.912   4.338   5.884
11703TIP3    H135052   5.963   4.256   5.889
11703TIP3    H235053   5.978   4.406   5.869
11704TIP3   OH235054   5.681   4.620   5.873
11704TIP3    H135055   5.770   4.624   5.838
11704TIP3    H235056   5.670   4.704   5.918
11705TIP3   OH235057   7.639   4.629   6.094
11705TIP3    H135058   7.553   4.668   6.103
11705TIP3    H235059   7.624   4.549   6.044
11706TIP3   OH235060   7.302   4.284   4.652
11706TIP3    H135061   7.285   4.297   4.559
11706TIP3    H235062   7.344   4.365   4.681
11707TIP3   OH235063   5.674   4.180   5.496
11707TIP3    H135064   5.591   4.137   5.515
11707TIP3    H235065   5.670   4.200   5.402
11708TIP3   OH235066   6.854   5.830   4.967
11708TIP3    H135067   6.909   5.819   4.889
11708TIP3    H235068   6.895   5.902   5.015
11709TIP3   OH235069   5.916   4.187   6.284
11709TIP3    H135070   5.865   4.165   6.362
11709TIP3    H235071   5.851   4.220   6.222
11710TIP3   OH235072   5.945   5.622   6.342
11710TIP3    H135073   5.851   5.605   6.333
11710TIP3    H235074   5.962   5.611   6.436
11711TIP3   OH235075   6.159   5.671   5.896
11711TIP3    H135076   6.108   5.745   5.864
11711TIP3    H235077   6.244   5.680   5.852
11712TIP3   OH235078   6.557   5.904   6.038
11712TIP3    H135079   6.596   5.895   6.124
11712TIP3    H235080   6.621   5.954   5.987
11713TIP3   OH235081   6.747   6.051   5.903
11713TIP3    H135082   6.811   5.998   5.855
11713TIP3    H235083   6.801   6.108   5.959
11714TIP3   OH235084   7.554   4.379   5.995
11714TIP3    H135085   7.465   4.367   5.961
11714TIP3    H235086   7.594   4.292   5.988
11715TIP3   OH235087   5.818   5.909   5.943
11715TIP3    H135088   5.726   5.925   5.919
11715TIP3    H235089   5.839   5.977   6.007
11716TIP3   OH235090   6.049   5.901   5.793
11716TIP3    H135091   5.966   5.906   5.839
11716TIP3    H235092   6.028   5.926   5.703
11717TIP3   OH235093   6.462   5.920   5.582
11717TIP3    H135094   6.392   5.929   5.518
11717TIP3    H235095   6.472   6.008   5.620
11718TIP3   OH235096   6.726   5.855   5.627
11718TIP3    H135097   6.634   5.874   5.608
11718TIP3    H235098   6.775   5.921   5.579
11719TIP3   OH235099   6.930   6.033   5.531
11719TIP3    H135100   6.928   6.119   5.489
11719TIP3    H235101   6.961   5.974   5.462
11720TIP3   OH235102   5.732   5.690   5.654
11720TIP3    H135103   5.754   5.665   5.743
11720TIP3    H235104   5.804   5.656   5.600
11721TIP3   OH235105   5.934   5.571   5.516
11721TIP3    H135106   5.946   5.487   5.561
11721TIP3    H235107   6.021   5.612   5.521
11722TIP3   OH235108   6.201   5.658   5.543
11722TIP3    H135109   6.222   5.566   5.528
11722TIP3    H235110   6.255   5.683   5.618
11723TIP3   OH235111   6.761   4.308   5.628
11723TIP3    H135112   6.723   4.237   5.680
11723TIP3    H235113   6.830   4.266   5.577
11724TIP3   OH235114   7.266   4.222   5.508
11724TIP3    H135115   7.303   4.275   5.437
11724TIP3    H235116   7.175   4.252   5.514
11725TIP3   OH235117   7.380   4.308   5.271
11725TIP3    H135118   7.449   4.245   5.251
11725TIP3    H235119   7.421   4.394   5.260
11726TIP3   OH235120   6.007   4.007   5.627
11726TIP3    H135121   5.918   3.974   5.637
11726TIP3    H235122   6.061   3.928   5.621
11727TIP3   OH235123   5.821   3.925   5.276
11727TIP3    H135124   5.851   3.965   5.195
11727TIP3    H235125   5.784   3.998   5.327
11728TIP3   OH235126   6.476   4.057   5.522
11728TIP3    H135127   6.528   4.103   5.456
11728TIP3    H235128   6.518   4.079   5.605
11729TIP3   OH235129   6.974   4.192   5.497
11729TIP3    H135130   6.994   4.156   5.410
11729TIP3    H235131   6.981   4.117   5.556
11730TIP3   OH235132   7.042   4.133   5.051
11730TIP3    H135133   6.964   4.182   5.076
11730TIP3    H235134   7.033   4.050   5.098
11731TIP3   OH235135   5.495   5.489   5.044
11731TIP3    H135136   5.410   5.457   5.013
11731TIP3    H235137   5.500   5.579   5.011
11732TIP3   OH235138   5.927   4.052   5.046
11732TIP3    H135139   5.970   3.991   4.987
11732TIP3    H235140   5.997   4.108   5.079
11733TIP3   OH235141   6.416   4.244   5.145
11733TIP3    H135142   6.478   4.193   5.198
11733TIP3    H235143   6.430   4.334   5.173
11734TIP3   OH235144   6.298   5.639   4.638
11734TIP3    H135145   6.381   5.668   4.600
11734TIP3    H235146   6.268   5.569   4.579
11735TIP3   OH235147   7.002   5.784   4.737
11735TIP3    H135148   6.996   5.689   4.728
11735TIP3    H235149   6.957   5.819   4.660
11736TIP3   OH235150   6.230   4.295   6.510
11736TIP3    H135151   6.196   4.228   6.569
11736TIP3    H235152   6.322   4.304   6.533
11737TIP3   OH235153   6.478   4.301   6.632
11737TIP3    H135154   6.555   4.279   6.580
11737TIP3    H235155   6.474   4.233   6.699
11738TIP3   OH235156   5.597   5.479   4.692
11738TIP3    H135157   5.600   5.497   4.785
11738TIP3    H235158   5.680   5.435   4.674
11739TIP3   OH235159   7.300   4.385   6.417
11739TIP3    H135160   7.317   4.356   6.507
11739TIP3    H235161   7.386   4.380   6.374
11740TIP3   OH235162   7.191   5.905   5.933
11740TIP3    H135163   7.120   5.879   5.874
11740TIP3    H235164   7.186   6.000   5.936
11741TIP3   OH235165   8.495   5.319   4.654
11741TIP3    H135166   8.457   5.405   4.640
11741TIP3    H235167   8.423   5.258   4.638
11742TIP3   OH235168   8.432   5.307   5.090
11742TIP3    H135169   8.491   5.296   5.164
11742TIP3    H235170   8.395   5.220   5.075
11743TIP3   OH235171   7.784   5.167   5.436
11743TIP3    H135172   7.821   5.114   5.506
11743TIP3    H235173   7.860   5.191   5.382
11744TIP3   OH235174   0.227   5.591   4.756
11744TIP3    H135175   0.194   5.547   4.835
11744TIP3    H235176   0.250   5.679   4.786
11745TIP3   OH235177   7.768   5.593   5.130
11745TIP3    H135178   7.752   5.498   5.132
11745TIP3    H235179   7.862   5.600   5.113
11746TIP3   OH235180   7.459   4.793   4.908
11746TIP3    H135181   7.427   4.880   4.932
11746TIP3    H235182   7.385   4.751   4.866
11747TIP3   OH235183   7.542   5.108   5.123
11747TIP3    H135184   7.593   5.030   5.148
11747TIP3    H235185   7.609   5.173   5.099
11748TIP3   OH235186   8.394   6.048   4.748
11748TIP3    H135187   8.433   5.987   4.686
11748TIP3    H235188   8.388   5.999   4.830
11749TIP3   OH235189   8.268   5.532   5.075
11749TIP3    H135190   8.311   5.448   5.060
11749TIP3    H235191   8.340   5.593   5.094
11750TIP3   OH235192   0.169   5.034   5.110
11750TIP3    H135193   0.161   4.951   5.158
11750TIP3    H235194   0.108   5.025   5.037
11751TIP3   OH235195   8.030   4.674   5.098
11751TIP3    H135196   8.014   4.745   5.036
11751TIP3    H235197   7.985   4.599   5.060
11752TIP3   OH235198   0.185   4.801   4.724
11752TIP3    H135199   0.229   4.759   4.798
11752TIP3    H235200   0.191   4.895   4.742
11753TIP3   OH235201   7.676   4.883   5.215
11753TIP3    H135202   7.758   4.864   5.261
11753TIP3    H235203   7.681   4.832   5.134
11754TIP3   OH235204   8.084   5.085   5.035
11754TIP3    H135205   8.179   5.071   5.045
11754TIP3    H235206   8.052   5.003   4.997
11755TIP3   OH235207   8.025   4.686   5.551
11755TIP3    H135208   7.974   4.721   5.477
11755TIP3    H235209   7.970   4.703   5.627
11756TIP3   OH235210   8.365   5.538   4.541
11756TIP3    H135211   8.324   5.504   4.462
11756TIP3    H235212   8.313   5.615   4.564
11757TIP3   OH235213   8.123   5.455   5.296
11757TIP3    H135214   8.066   5.525   5.328
11757TIP3    H235215   8.167   5.493   5.220
11758TIP3   OH235216   7.913   4.781   5.319
11758TIP3    H135217   7.967   4.857   5.338
11758TIP3    H235218   7.956   4.738   5.246
11759TIP3   OH235219   7.963   5.652   5.398
11759TIP3    H135220   7.954   5.745   5.374
11759TIP3    H235221   7.885   5.634   5.451
11760TIP3   OH235222   7.356   5.354   4.664
11760TIP3    H135223   7.325   5.372   4.575
11760TIP3    H235224   7.380   5.440   4.699
11761TIP3   OH235225   0.248   5.844   4.858
11761TIP3    H135226   0.160   5.861   4.890
11761TIP3    H235227   0.279   5.929   4.825
11762TIP3   OH235228   8.297   4.362   5.233
11762TIP3    H135229   8.312   4.281   5.280
11762TIP3    H235230   8.240   4.413   5.291
11763TIP3   OH235231   0.020   5.881   4.569
11763TIP3    H135232   0.066   5.799   4.550
11763TIP3    H235233   0.081   5.950   4.541
11764TIP3   OH235234   0.119   5.622   4.511
11764TIP3    H135235   0.028   5.592   4.520
11764TIP3    H235236   0.156   5.610   4.599
11765TIP3   OH235237   0.641   5.761   5.151
11765TIP3    H135238   0.684   5.677   5.168
11765TIP3    H235239   0.586   5.775   5.229
11766TIP3   OH235240   8.293   5.172   4.528
11766TIP3    H135241   8.211   5.220   4.517
11766TIP3    H235242   8.321   5.150   4.439
11767TIP3   OH235243   8.266   4.929   4.238
11767TIP3    H135244   8.336   4.974   4.285
11767TIP3    H235245   8.312   4.868   4.180
11768TIP3   OH235246   0.179   5.269   4.458
11768TIP3    H135247   0.114   5.295   4.524
11768TIP3    H235248   0.186   5.174   4.468
11769TIP3   OH235249   0.305   5.244   5.499
11769TIP3    H135250   0.327   5.334   5.524
11769TIP3    H235251   0.243   5.254   5.427
11770TIP3   OH235252   7.893   5.220   4.887
11770TIP3    H135253   7.859   5.161   4.819
11770TIP3    H235254   7.965   5.171   4.926
11771TIP3   OH235255   8.021   5.647   5.017
11771TIP3    H135256   7.993   5.634   4.926
11771TIP3    H235257   8.107   5.605   5.022
11772TIP3   OH235258   7.996   5.215   5.261
11772TIP3    H135259   8.031   5.178   5.180
11772TIP3    H235260   8.045   5.297   5.272
11773TIP3   OH235261   0.017   5.875   5.001
11773TIP3    H135262   0.017   5.946   5.066
11773TIP3    H235263   0.008   5.795   5.053
11774TIP3   OH235264   8.160   5.729   5.570
11774TIP3    H135265   8.104   5.790   5.617
11774TIP3    H235266   8.102   5.684   5.509
11775TIP3   OH235267   8.482   5.074   4.337
11775TIP3    H135268   8.475   5.169   4.336
11775TIP3    H235269   8.533   5.053   4.259
11776TIP3   OH235270   7.926   5.301   5.721
11776TIP3    H135271   7.932   5.395   5.740
11776TIP3    H235272   7.833   5.284   5.711
11777TIP3   OH235273   8.252   5.788   4.565
11777TIP3    H135274   8.338   5.830   4.567
11777TIP3    H235275   8.198   5.846   4.512
11778TIP3   OH235276   7.972   5.898   5.670
11778TIP3    H135277   7.938   5.920   5.583
11778TIP3    H235278   7.895   5.873   5.721
11779TIP3   OH235279   7.778   5.057   4.687
11779TIP3    H135280   7.701   5.104   4.654
11779TIP3    H235281   7.748   4.966   4.696
11780TIP3   OH235282   0.464   5.735   3.825
11780TIP3    H135283   0.380   5.742   3.871
11780TIP3    H235284   0.442   5.695   3.741
11781TIP3   OH235285   7.562   5.461   5.609
11781TIP3    H135286   7.493   5.444   5.545
11781TIP3    H235287   7.596   5.374   5.631
11782TIP3   OH235288   7.410   5.651   5.262
11782TIP3    H135289   7.504   5.671   5.264
11782TIP3    H235290   7.369   5.730   5.297
11783TIP3   OH235291   8.358   5.887   5.466
11783TIP3    H135292   8.384   5.912   5.554
11783TIP3    H235293   8.278   5.837   5.478
11784TIP3   OH235294   8.155   6.000   4.390
11784TIP3    H135295   8.113   5.975   4.308
11784TIP3    H235296   8.128   6.090   4.405
11785TIP3   OH235297   7.583   5.849   4.772
11785TIP3    H135298   7.627   5.839   4.856
11785TIP3    H235299   7.535   5.767   4.759
11786TIP3   OH235300   8.344   5.979   4.036
11786TIP3    H135301   8.368   5.894   3.999
11786TIP3    H235302   8.375   5.975   4.126
11787TIP3   OH235303   8.415   5.960   4.302
11787TIP3    H135304   8.324   5.966   4.333
11787TIP3    H235305   8.467   5.985   4.378
11788TIP3   OH235306   7.752   5.656   5.574
11788TIP3    H135307   7.788   5.665   5.661
11788TIP3    H235308   7.684   5.589   5.583
11789TIP3   OH235309   8.114   4.468   5.410
11789TIP3    H135310   8.029   4.439   5.376
11789TIP3    H235311   8.094   4.549   5.457
11790TIP3   OH235312   0.083   4.649   5.663
11790TIP3    H135313   0.137   4.590   5.714
11790TIP3    H235314  -0.007   4.626   5.686
11791TIP3   OH235315   0.541   5.113   5.573
11791TIP3    H135316   0.540   5.115   5.668
11791TIP3    H235317   0.463   5.160   5.546
11792TIP3   OH235318   0.131   5.072   4.118
11792TIP3    H135319   0.084   5.098   4.039
11792TIP3    H235320   0.200   5.137   4.127
11793TIP3   OH235321   8.237   4.513   4.359
11793TIP3    H135322   8.216   4.517   4.452
11793TIP3    H235323   8.221   4.422   4.334
11794TIP3   OH235324   8.064   4.991   5.406
11794TIP3    H135325   8.024   5.001   5.492
11794TIP3    H235326   8.047   5.073   5.361
11795TIP3   OH235327   7.952   4.871   4.924
11795TIP3    H135328   7.862   4.846   4.948
11795TIP3    H235329   7.963   4.839   4.835
11796TIP3   OH235330   8.406   4.956   4.654
11796TIP3    H135331   8.367   5.032   4.611
11796TIP3    H235332   8.462   4.917   4.588
11797TIP3   OH235333   0.066   5.220   5.703
11797TIP3    H135334   0.075   5.151   5.768
11797TIP3    H235335   0.132   5.284   5.727
11798TIP3   OH235336   0.015   4.943   4.905
11798TIP3    H135337  -0.018   4.975   4.821
11798TIP3    H235338   0.035   4.851   4.890
11799TIP3   OH235339   7.906   5.005   5.632
11799TIP3    H135340   7.924   5.069   5.701
11799TIP3    H235341   7.889   4.923   5.679
11800TIP3   OH235342   7.927   4.451   4.336
11800TIP3    H135343   7.926   4.463   4.431
11800TIP3    H235344   7.859   4.509   4.303
11801TIP3   OH235345   7.517   4.530   5.203
11801TIP3    H135346   7.575   4.568   5.270
11801TIP3    H235347   7.565   4.540   5.121
11802TIP3   OH235348   7.424   4.518   4.721
11802TIP3    H135349   7.466   4.552   4.642
11802TIP3    H235350   7.359   4.584   4.744
11803TIP3   OH235351   0.107   5.235   5.295
11803TIP3    H135352   0.146   5.174   5.232
11803TIP3    H235353   0.060   5.179   5.357
11804TIP3   OH235354   8.278   4.744   4.994
11804TIP3    H135355   8.207   4.714   5.050
11804TIP3    H235356   8.354   4.692   5.021
11805TIP3   OH235357   7.718   4.737   4.987
11805TIP3    H135358   7.632   4.743   4.945
11805TIP3    H235359   7.752   4.652   4.960
11806TIP3   OH235360   7.952   4.743   4.680
11806TIP3    H135361   8.048   4.751   4.674
11806TIP3    H235362   7.921   4.757   4.591
11807TIP3   OH235363   0.143   4.773   5.191
11807TIP3    H135364   0.119   4.784   5.283
11807TIP3    H235365   0.238   4.758   5.192
11808TIP3   OH235366   7.850   4.759   4.429
11808TIP3    H135367   7.787   4.713   4.373
11808TIP3    H235368   7.902   4.811   4.368
11809TIP3   OH235369   7.924   5.560   5.821
11809TIP3    H135370   7.999   5.601   5.865
11809TIP3    H235371   7.850   5.578   5.878
11810TIP3   OH235372   8.348   5.040   5.097
11810TIP3    H135373   8.394   4.991   5.029
11810TIP3    H235374   8.344   4.980   5.171
11811TIP3   OH235375   7.864   4.496   4.960
11811TIP3    H135376   7.839   4.419   5.011
11811TIP3    H235377   7.906   4.460   4.882
11812TIP3   OH235378   8.318   4.914   5.345
11812TIP3    H135379   8.228   4.942   5.363
11812TIP3    H235380   8.373   4.979   5.388
11813TIP3   OH235381   8.057   5.303   4.460
11813TIP3    H135382   7.983   5.245   4.440
11813TIP3    H235383   8.037   5.339   4.546
11814TIP3   OH235384   0.417   5.495   5.191
11814TIP3    H135385   0.454   5.456   5.111
11814TIP3    H235386   0.383   5.580   5.162
11815TIP3   OH235387   8.472   4.635   4.303
11815TIP3    H135388   8.384   4.609   4.330
11815TIP3    H235389   8.495   4.707   4.361
11816TIP3   OH235390   8.458   5.612   5.432
11816TIP3    H135391   8.514   5.594   5.508
11816TIP3    H235392   8.422   5.699   5.449
11817TIP3   OH235393   0.062   4.846   4.450
11817TIP3    H135394   0.155   4.855   4.472
11817TIP3    H235395   0.040   4.927   4.405
11818TIP3   OH235396   7.765   5.303   5.115
11818TIP3    H135397   7.802   5.286   5.029
11818TIP3    H235398   7.833   5.275   5.177
11819TIP3   OH235399   8.225   5.462   4.317
11819TIP3    H135400   8.172   5.541   4.303
11819TIP3    H235401   8.166   5.400   4.360
11820TIP3   OH235402   7.655   5.230   5.744
11820TIP3    H135403   7.663   5.205   5.836
11820TIP3    H235404   7.580   5.182   5.712
11821TIP3   OH235405   8.340   5.348   5.777
11821TIP3    H135406   8.266   5.294   5.751
11821TIP3    H235407   8.415   5.309   5.732
11822TIP3   OH235408   0.147   5.922   5.401
11822TIP3    H135409   0.064   5.937   5.355
11822TIP3    H235410   0.132   5.955   5.490
11823TIP3   OH235411   0.381   5.683   4.213
11823TIP3    H135412   0.298   5.730   4.203
11823TIP3    H235413   0.383   5.623   4.139
11824TIP3   OH235414   0.141   5.467   4.997
11824TIP3    H135415   0.058   5.421   5.003
11824TIP3    H235416   0.206   5.398   4.983
11825TIP3   OH235417   7.894   5.641   4.768
11825TIP3    H135418   7.900   5.721   4.716
11825TIP3    H235419   7.805   5.609   4.754
11826TIP3   OH235420   7.463   4.926   4.493
11826TIP3    H135421   7.506   5.009   4.513
11826TIP3    H235422   7.382   4.928   4.543
11827TIP3   OH235423   8.010   5.396   4.708
11827TIP3    H135424   7.983   5.487   4.726
11827TIP3    H235425   7.969   5.345   4.778
11828TIP3   OH235426   8.189   5.972   5.237
11828TIP3    H135427   8.222   6.036   5.174
11828TIP3    H235428   8.266   5.947   5.289
11829TIP3   OH235429   7.819   5.875   4.629
11829TIP3    H135430   7.732   5.881   4.669
11829TIP3    H235431   7.852   5.965   4.627
11830TIP3   OH235432   0.006   5.650   5.162
11830TIP3    H135433  -0.002   5.622   5.253
11830TIP3    H235434   0.068   5.589   5.123
11831TIP3   OH235435   8.477   5.577   4.095
11831TIP3    H135436   8.550   5.542   4.145
11831TIP3    H235437   8.405   5.518   4.113
11832TIP3   OH235438   7.858   4.753   5.758
11832TIP3    H135439   7.763   4.762   5.761
11832TIP3    H235440   7.879   4.691   5.828
11833TIP3   OH235441   0.155   5.478   4.280
11833TIP3    H135442   0.193   5.399   4.318
11833TIP3    H235443   0.143   5.538   4.354
11834TIP3   OH235444   7.621   5.864   5.422
11834TIP3    H135445   7.667   5.788   5.457
11834TIP3    H235446   7.630   5.931   5.490
11835TIP3   OH235447   7.802   5.503   4.407
11835TIP3    H135448   7.891   5.475   4.387
11835TIP3    H235449   7.803   5.598   4.391
11836TIP3   OH235450   7.554   5.177   4.575
11836TIP3    H135451   7.490   5.226   4.625
11836TIP3    H235452   7.577   5.234   4.502
11837TIP3   OH235453   0.116   4.831   5.461
11837TIP3    H135454   0.206   4.864   5.465
11837TIP3    H235455   0.106   4.779   5.541
11838TIP3   OH235456   0.027   4.589   4.625
11838TIP3    H135457   0.078   4.556   4.551
11838TIP3    H235458   0.067   4.673   4.647
11839TIP3   OH235459   8.054   5.662   4.275
11839TIP3    H135460   7.980   5.710   4.312
11839TIP3    H235461   8.044   5.673   4.180
11840TIP3   OH235462   8.225   4.764   4.725
11840TIP3    H135463   8.286   4.829   4.693
11840TIP3    H235464   8.242   4.759   4.819
11841TIP3   OH235465  -0.005   5.074   5.481
11841TIP3    H135466   0.019   5.121   5.561
11841TIP3    H235467   0.040   4.990   5.488
11842TIP3   OH235468   8.382   4.473   4.822
11842TIP3    H135469   8.414   4.522   4.898
11842TIP3    H235470   8.428   4.510   4.748
11843TIP3   OH235471   7.824   5.776   4.372
11843TIP3    H135472   7.806   5.849   4.312
11843TIP3    H235473   7.823   5.815   4.459
11844TIP3   OH235474   7.914   4.467   4.616
11844TIP3    H135475   7.899   4.558   4.643
11844TIP3    H235476   8.008   4.455   4.622
11845TIP3   OH235477   0.276   5.233   4.949
11845TIP3    H135478   0.249   5.175   4.878
11845TIP3    H235479   0.268   5.179   5.028
11846TIP3   OH235480   7.573   5.360   4.366
11846TIP3    H135481   7.644   5.421   4.386
11846TIP3    H235482   7.609   5.305   4.296
11847TIP3   OH235483   7.481   4.648   4.489
11847TIP3    H135484   7.496   4.742   4.498
11847TIP3    H235485   7.442   4.639   4.402
11848TIP3   OH235486   0.339   6.116   4.834
11848TIP3    H135487   0.305   6.163   4.758
11848TIP3    H235488   0.431   6.143   4.838
11849TIP3   OH235489   7.861   4.375   5.358
11849TIP3    H135490   7.839   4.342   5.271
11849TIP3    H235491   7.857   4.298   5.415
11850TIP3   OH235492   7.405   5.626   4.745
11850TIP3    H135493   7.363   5.662   4.822
11850TIP3    H235494   7.362   5.668   4.671
11851TIP3   OH235495   7.494   6.112   5.908
11851TIP3    H135496   7.560   6.112   5.838
11851TIP3    H235497   7.461   6.023   5.909
11852TIP3   OH235498   8.014   6.121   5.823
11852TIP3    H135499   8.056   6.180   5.760
11852TIP3    H235500   8.003   6.039   5.776
11853TIP3   OH235501   8.027   5.697   4.001
11853TIP3    H135502   7.939   5.676   3.968
11853TIP3    H235503   8.086   5.645   3.946
11854TIP3   OH235504   8.402   5.749   3.903
11854TIP3    H135505   8.440   5.688   3.966
11854TIP3    H235506   8.459   5.742   3.826
11855TIP3   OH235507   7.707   5.542   6.000
11855TIP3    H135508   7.730   5.450   6.003
11855TIP3    H235509   7.622   5.544   5.956
11856TIP3   OH235510   7.694   5.174   4.206
11856TIP3    H135511   7.746   5.148   4.283
11856TIP3    H235512   7.759   5.190   4.138
11857TIP3   OH235513   8.322   5.622   5.760
11857TIP3    H135514   8.265   5.638   5.684
11857TIP3    H235515   8.331   5.527   5.763
11858TIP3   OH235516   8.231   5.395   4.045
11858TIP3    H135517   8.229   5.410   4.140
11858TIP3    H235518   8.218   5.301   4.035
11859TIP3   OH235519   0.256   5.673   5.381
11859TIP3    H135520   0.256   5.650   5.288
11859TIP3    H235521   0.209   5.757   5.385
11860TIP3   OH235522   7.824   5.287   5.997
11860TIP3    H135523   7.895   5.286   5.932
11860TIP3    H235524   7.867   5.310   6.079
11861TIP3   OH235525   7.864   5.108   4.419
11861TIP3    H135526   7.851   5.075   4.507
11861TIP3    H235527   7.912   5.039   4.373
11862TIP3   OH235528   8.162   5.174   5.656
11862TIP3    H135529   8.079   5.222   5.667
11862TIP3    H235530   8.201   5.213   5.578
11863TIP3   OH235531   7.993   4.921   4.262
11863TIP3    H135532   7.966   4.929   4.171
11863TIP3    H235533   8.089   4.919   4.259
11864TIP3   OH235534   0.229   5.425   5.792
11864TIP3    H135535   0.276   5.459   5.716
11864TIP3    H235536   0.218   5.501   5.850
11865TIP3   OH235537   8.285   4.962   5.775
11865TIP3    H135538   8.289   4.887   5.716
11865TIP3    H235539   8.244   5.031   5.724
11866TIP3   OH235540   8.285   4.759   5.580
11866TIP3    H135541   8.318   4.792   5.496
11866TIP3    H235542   8.192   4.741   5.564
11867TIP3   OH235543   8.287   5.307   5.457
11867TIP3    H135544   8.376   5.318   5.425
11867TIP3    H235545   8.235   5.366   5.402
11868TIP3   OH235546   0.400   5.206   5.808
11868TIP3    H135547   0.351   5.130   5.778
11868TIP3    H235548   0.336   5.277   5.811
11869TIP3   OH235549   0.367   5.513   5.571
11869TIP3    H135550   0.322   5.565   5.504
11869TIP3    H235551   0.447   5.482   5.528
11870TIP3   OH235552   8.166   5.044   6.017
11870TIP3    H135553   8.102   4.975   6.036
11870TIP3    H235554   8.200   5.022   5.930
11871TIP3   OH235555   8.347   4.513   5.700
11871TIP3    H135556   8.303   4.589   5.662
11871TIP3    H235557   8.291   4.439   5.679
11872TIP3   OH235558   0.037   5.013   5.879
11872TIP3    H135559   0.033   4.989   5.972
11872TIP3    H235560  -0.048   4.989   5.844
11873TIP3   OH235561   0.267   4.974   5.727
11873TIP3    H135562   0.182   4.970   5.771
11873TIP3    H235563   0.327   4.927   5.786
11874TIP3   OH235564   0.401   4.887   5.949
11874TIP3    H135565   0.465   4.821   5.976
11874TIP3    H235566   0.345   4.898   6.025
11875TIP3   OH235567   8.007   4.822   6.084
11875TIP3    H135568   8.013   4.735   6.045
11875TIP3    H235569   8.048   4.813   6.170
11876TIP3   OH235570   8.462   4.504   5.950
11876TIP3    H135571   8.522   4.430   5.955
11876TIP3    H235572   8.421   4.496   5.864
11877TIP3   OH235573   0.061   4.718   6.089
11877TIP3    H135574   0.032   4.647   6.031
11877TIP3    H235575  -0.008   4.784   6.081
11878TIP3   OH235576   7.821   5.986   4.193
11878TIP3    H135577   7.914   5.973   4.175
11878TIP3    H235578   7.786   6.023   4.112
11879TIP3   OH235579   7.302   5.345   4.372
11879TIP3    H135580   7.396   5.358   4.371
11879TIP3    H235581   7.289   5.258   4.335
11880TIP3   OH235582   7.208   5.937   4.833
11880TIP3    H135583   7.144   5.883   4.786
11880TIP3    H235584   7.253   5.876   4.891
11881TIP3   OH235585   7.352   5.770   5.001
11881TIP3    H135586   7.341   5.700   5.065
11881TIP3    H235587   7.405   5.836   5.046
11882TIP3   OH235588   0.379   6.021   5.106
11882TIP3    H135589   0.301   6.067   5.137
11882TIP3    H235590   0.381   6.037   5.012
11883TIP3   OH235591   0.480   5.074   4.648
11883TIP3    H135592   0.572   5.053   4.664
11883TIP3    H235593   0.482   5.163   4.613
11884TIP3   OH235594   7.522   5.198   5.381
11884TIP3    H135595   7.514   5.169   5.290
11884TIP3    H235596   7.616   5.197   5.398
11885TIP3   OH235597   7.742   4.879   6.029
11885TIP3    H135598   7.837   4.873   6.041
11885TIP3    H235599   7.708   4.797   6.065
11886TIP3   OH235600   7.707   4.601   5.392
11886TIP3    H135601   7.758   4.520   5.390
11886TIP3    H235602   7.770   4.670   5.371
11887TIP3   OH235603   7.496   4.865   5.431
11887TIP3    H135604   7.548   4.856   5.351
11887TIP3    H235605   7.520   4.951   5.465
11888TIP3   OH235606   7.489   4.354   4.931
11888TIP3    H135607   7.410   4.363   4.985
11888TIP3    H235608   7.479   4.421   4.864
11889TIP3   OH235609   0.158   6.088   4.467
11889TIP3    H135610   0.221   6.077   4.395
11889TIP3    H235611   0.199   6.153   4.524
11890TIP3   OH235612   7.710   4.443   5.769
11890TIP3    H135613   7.653   4.424   5.843
11890TIP3    H235614   7.652   4.486   5.705
11891TIP3   OH235615   7.755   5.839   5.829
11891TIP3    H135616   7.701   5.898   5.776
11891TIP3    H235617   7.731   5.859   5.919
11892TIP3   OH235618   7.961   5.929   5.384
11892TIP3    H135619   7.905   6.000   5.352
11892TIP3    H235620   8.044   5.942   5.339
11893TIP3   OH235621   7.606   6.182   5.357
11893TIP3    H135622   7.516   6.215   5.363
11893TIP3    H235623   7.621   6.136   5.440
11894TIP3   OH235624   7.860   6.160   5.264
11894TIP3    H135625   7.771   6.165   5.299
11894TIP3    H235626   7.850   6.179   5.171
11895TIP3   OH235627   8.256   6.167   5.051
11895TIP3    H135628   8.188   6.164   4.984
11895TIP3    H235629   8.258   6.258   5.081
11896TIP3   OH235630   8.505   6.108   5.152
11896TIP3    H135631   8.421   6.125   5.109
11896TIP3    H235632   8.567   6.166   5.108
11897TIP3   OH235633   0.171   6.266   4.999
11897TIP3    H135634   0.129   6.332   4.943
11897TIP3    H235635   0.226   6.216   4.939
11898TIP3   OH235636   7.528   5.943   5.163
11898TIP3    H135637   7.564   5.935   5.252
11898TIP3    H235638   7.597   5.910   5.106
11899TIP3   OH235639   7.723   5.835   5.010
11899TIP3    H135640   7.734   5.749   5.050
11899TIP3    H235641   7.811   5.873   5.011
11900TIP3   OH235642   7.993   5.922   5.033
11900TIP3    H135643   8.009   5.829   5.017
11900TIP3    H235644   8.047   5.942   5.110
11901TIP3   OH235645  -0.000   4.590   5.043
11901TIP3    H135646   0.013   4.516   5.102
11901TIP3    H235647   0.052   4.661   5.081
11902TIP3   OH235648   7.792   4.273   5.109
11902TIP3    H135649   7.702   4.241   5.119
11902TIP3    H235650   7.845   4.193   5.100
11903TIP3   OH235651   7.559   4.166   4.740
11903TIP3    H135652   7.624   4.195   4.676
11903TIP3    H235653   7.570   4.225   4.814
11904TIP3   OH235654   8.197   4.322   4.982
11904TIP3    H135655   8.249   4.377   4.923
11904TIP3    H235656   8.234   4.338   5.068
11905TIP3   OH235657   0.461   4.413   4.955
11905TIP3    H135658   0.392   4.419   4.888
11905TIP3    H235659   0.424   4.358   5.023
11906TIP3   OH235660   7.283   5.748   4.531
11906TIP3    H135661   7.199   5.717   4.494
11906TIP3    H235662   7.291   5.838   4.500
11907TIP3   OH235663   7.725   4.273   4.536
11907TIP3    H135664   7.775   4.214   4.480
11907TIP3    H235665   7.790   4.336   4.568
11908TIP3   OH235666   8.185   4.511   4.628
11908TIP3    H135667   8.242   4.457   4.683
11908TIP3    H235668   8.203   4.601   4.655
11909TIP3   OH235669   8.082   5.939   4.125
11909TIP3    H135670   8.163   5.970   4.086
11909TIP3    H235671   8.061   5.859   4.078
11910TIP3   OH235672   0.314   6.078   4.233
11910TIP3    H135673   0.338   5.985   4.239
11910TIP3    H235674   0.244   6.081   4.168
11911TIP3   OH235675   8.018   4.551   5.999
11911TIP3    H135676   7.983   4.484   6.058
11911TIP3    H235677   8.110   4.560   6.024
11912TIP3   OH235678   8.259   4.561   6.131
11912TIP3    H135679   8.336   4.541   6.077
11912TIP3    H235680   8.257   4.491   6.197
11913TIP3   OH235681   7.402   5.757   4.185
11913TIP3    H135682   7.400   5.781   4.278
11913TIP3    H235683   7.434   5.667   4.183
11914TIP3   OH235684   0.925   6.072   6.339
11914TIP3    H135685   0.891   6.162   6.336
11914TIP3    H235686   0.852   6.018   6.308
11915TIP3   OH235687   0.940   6.058   6.740
11915TIP3    H135688   0.993   6.043   6.818
11915TIP3    H235689   0.896   5.974   6.725
11916TIP3   OH235690   1.195   6.387   6.433
11916TIP3    H135691   1.187   6.326   6.506
11916TIP3    H235692   1.224   6.469   6.474
11917TIP3   OH235693   0.896   6.901   6.437
11917TIP3    H135694   0.906   6.812   6.403
11917TIP3    H235695   0.903   6.891   6.532
11918TIP3   OH235696   0.758   6.250   6.826
11918TIP3    H135697   0.801   6.185   6.770
11918TIP3    H235698   0.813   6.328   6.819
11919TIP3   OH235699   1.780   5.623   6.777
11919TIP3    H135700   1.802   5.710   6.810
11919TIP3    H235701   1.813   5.622   6.687
11920TIP3   OH235702   1.186   5.796   6.813
11920TIP3    H135703   1.245   5.724   6.834
11920TIP3    H235704   1.145   5.770   6.731
11921TIP3   OH235705   1.217   5.561   6.410
11921TIP3    H135706   1.286   5.551   6.474
11921TIP3    H235707   1.262   5.591   6.331
11922TIP3   OH235708   7.521   1.837   0.011
11922TIP3    H135709   7.435   1.869  -0.017
11922TIP3    H235710   7.532   1.871   0.100
11923TIP3   OH235711   0.825   6.310   6.237
11923TIP3    H135712   0.791   6.298   6.149
11923TIP3    H235713   0.905   6.361   6.226
11924TIP3   OH235714   1.408   5.565   6.600
11924TIP3    H135715   1.441   5.510   6.671
11924TIP3    H235716   1.446   5.652   6.617
11925TIP3   OH235717   1.246   6.639   6.541
11925TIP3    H135718   1.177   6.641   6.608
11925TIP3    H235719   1.268   6.731   6.527
11926TIP3   OH235720   1.583   5.528   6.960
11926TIP3    H135721   1.495   5.548   6.929
11926TIP3    H235722   1.640   5.551   6.887
11927TIP3   OH235723   0.955   6.677   6.245
11927TIP3    H135724   0.992   6.588   6.244
11927TIP3    H235725   1.029   6.734   6.224
11928TIP3   OH235726   1.074   6.426   6.193
11928TIP3    H135727   1.115   6.364   6.132
11928TIP3    H235728   1.119   6.411   6.276
11929TIP3   OH235729   0.753   5.915   6.179
11929TIP3    H135730   0.673   5.873   6.147
11929TIP3    H235731   0.816   5.906   6.108
11930TIP3   OH235732   0.785   5.726   5.898
11930TIP3    H135733   0.857   5.770   5.943
11930TIP3    H235734   0.829   5.660   5.843
11931TIP3   OH235735   1.678   6.173   6.795
11931TIP3    H135736   1.609   6.236   6.815
11931TIP3    H235737   1.708   6.195   6.707
11932TIP3   OH235738   1.135   6.046   6.166
11932TIP3    H135739   1.074   6.057   6.239
11932TIP3    H235740   1.215   6.012   6.206
11933TIP3   OH235741   7.027   1.982   0.099
11933TIP3    H135742   7.065   2.056   0.147
11933TIP3    H235743   6.939   2.012   0.076
11934TIP3   OH235744   1.051   6.652   6.735
11934TIP3    H135745   0.986   6.723   6.730
11934TIP3    H235746   1.000   6.575   6.758
11935TIP3   OH235747   0.979   5.886   6.009
11935TIP3    H135748   1.034   5.945   6.061
11935TIP3    H235749   1.000   5.908   5.918
11936TIP3   OH235750   1.458   5.116   6.069
11936TIP3    H135751   1.364   5.106   6.076
11936TIP3    H235752   1.470   5.187   6.006
11937TIP3   OH235753   1.304   6.501   5.614
11937TIP3    H135754   1.312   6.590   5.579
11937TIP3    H235755   1.390   6.461   5.597
11938TIP3   OH235756   7.398   2.918   0.007
11938TIP3    H135757   7.390   2.824   0.027
11938TIP3    H235758   7.312   2.954   0.028
11939TIP3   OH235759   0.840   6.766   6.006
11939TIP3    H135760   0.756   6.723   6.024
11939TIP3    H235761   0.894   6.744   6.082
11940TIP3   OH235762   6.812   1.343   0.334
11940TIP3    H135763   6.880   1.328   0.400
11940TIP3    H235764   6.730   1.333   0.383
11941TIP3   OH235765   7.050   1.752   0.247
11941TIP3    H135766   6.992   1.748   0.323
11941TIP3    H235767   7.023   1.831   0.200
11942TIP3   OH235768   1.039   5.940   5.752
11942TIP3    H135769   0.993   5.906   5.675
11942TIP3    H235770   1.128   5.959   5.720
11943TIP3   OH235771   0.752   5.305   6.056
11943TIP3    H135772   0.753   5.306   6.151
11943TIP3    H235773   0.716   5.219   6.033
11944TIP3   OH235774   0.908   5.734   6.341
11944TIP3    H135775   0.854   5.799   6.295
11944TIP3    H235776   0.966   5.698   6.274
11945TIP3   OH235777   6.751   1.926   0.441
11945TIP3    H135778   6.733   1.856   0.505
11945TIP3    H235779   6.844   1.946   0.453
11946TIP3   OH235780   1.073   5.738   6.567
11946TIP3    H135781   1.007   5.765   6.503
11946TIP3    H235782   1.120   5.667   6.524
11947TIP3   OH235783   6.747   1.983   0.029
11947TIP3    H135784   6.791   1.923  -0.032
11947TIP3    H235785   6.719   1.927   0.101
11948TIP3   OH235786   1.312   5.553   6.882
11948TIP3    H135787   1.266   5.559   6.966
11948TIP3    H235788   1.264   5.485   6.834
11949TIP3   OH235789   7.074   3.288   0.086
11949TIP3    H135790   7.089   3.285  -0.009
11949TIP3    H235791   7.162   3.285   0.124
11950TIP3   OH235792   0.861   5.792   6.756
11950TIP3    H135793   0.927   5.749   6.703
11950TIP3    H235794   0.848   5.733   6.830
11951TIP3   OH235795   6.457   1.703   0.094
11951TIP3    H135796   6.409   1.784   0.076
11951TIP3    H235797   6.539   1.732   0.135
11952TIP3   OH235798   0.960   5.459   5.959
11952TIP3    H135799   0.889   5.409   6.000
11952TIP3    H235800   0.998   5.509   6.031
11953TIP3   OH235801   6.586   2.365   0.172
11953TIP3    H135802   6.628   2.324   0.247
11953TIP3    H235803   6.512   2.414   0.209
11954TIP3   OH235804   1.075   5.651   6.131
11954TIP3    H135805   1.170   5.646   6.140
11954TIP3    H235806   1.060   5.729   6.077
11955TIP3   OH235807   0.664   6.210   6.021
11955TIP3    H135808   0.582   6.251   6.049
11955TIP3    H235809   0.670   6.130   6.072
11956TIP3   OH235810   6.628   2.144   0.582
11956TIP3    H135811   6.570   2.120   0.510
11956TIP3    H235812   6.697   2.078   0.581
11957TIP3   OH235813   6.733   2.779   0.071
11957TIP3    H135814   6.713   2.695   0.031
11957TIP3    H235815   6.762   2.757   0.160
11958TIP3   OH235816   1.479   5.742   5.943
11958TIP3    H135817   1.421   5.696   5.882
11958TIP3    H235818   1.485   5.831   5.908
11959TIP3   OH235819   7.379   2.641   0.070
11959TIP3    H135820   7.301   2.589   0.089
11959TIP3    H235821   7.415   2.600  -0.009
11960TIP3   OH235822   1.134   6.544   5.820
11960TIP3    H135823   1.155   6.495   5.900
11960TIP3    H235824   1.208   6.527   5.762
11961TIP3   OH235825   1.163   6.193   6.638
11961TIP3    H135826   1.077   6.154   6.654
11961TIP3    H235827   1.217   6.120   6.608
11962TIP3   OH235828   0.988   6.407   6.843
11962TIP3    H135829   0.974   6.383   6.935
11962TIP3    H235830   1.059   6.349   6.814
11963TIP3   OH235831   0.964   6.322   5.778
11963TIP3    H135832   1.021   6.280   5.842
11963TIP3    H235833   0.891   6.261   5.767
11964TIP3   OH235834   1.263   6.912   6.877
11964TIP3    H135835   1.192   6.863   6.918
11964TIP3    H235836   1.220   6.972   6.816
11965TIP3   OH235837   1.316   6.772   5.568
11965TIP3    H135838   1.368   6.850   5.544
11965TIP3    H235839   1.232   6.808   5.595
11966TIP3   OH235840   1.155   6.249   5.979
11966TIP3    H135841   1.136   6.176   6.038
11966TIP3    H235842   1.248   6.241   5.960
11967TIP3   OH235843   6.851   1.562   0.179
11967TIP3    H135844   6.923   1.603   0.227
11967TIP3    H235845   6.828   1.485   0.232
11968TIP3   OH235846   1.102   5.309   6.359
11968TIP3    H135847   1.112   5.287   6.267
11968TIP3    H235848   1.129   5.401   6.364
11969TIP3   OH235849   0.748   5.536   6.450
11969TIP3    H135850   0.812   5.597   6.411
11969TIP3    H235851   0.696   5.590   6.508
11970TIP3   OH235852   6.690   1.787   0.212
11970TIP3    H135853   6.716   1.820   0.298
11970TIP3    H235854   6.741   1.707   0.201
11971TIP3   OH235855   7.316   1.766   0.220
11971TIP3    H135856   7.225   1.746   0.241
11971TIP3    H235857   7.331   1.725   0.135
11972TIP3   OH235858   1.284   5.942   6.556
11972TIP3    H135859   1.210   5.884   6.573
11972TIP3    H235860   1.357   5.902   6.605
11973TIP3   OH235861   1.274   6.918   6.496
11973TIP3    H135862   1.230   6.970   6.429
11973TIP3    H235863   1.367   6.935   6.481
11974TIP3   OH235864   6.720   2.827   0.360
11974TIP3    H135865   6.781   2.793   0.425
11974TIP3    H235866   6.750   2.916   0.342
11975TIP3   OH235867   0.735   6.175   5.752
11975TIP3    H135868   0.699   6.184   5.841
11975TIP3    H235869   0.719   6.084   5.729
11976TIP3   OH235870   0.554   5.787   6.032
11976TIP3    H135871   0.479   5.765   5.976
11976TIP3    H235872   0.629   5.747   5.987
11977TIP3   OH235873   6.731   2.320   0.393
11977TIP3    H135874   6.818   2.360   0.394
11977TIP3    H235875   6.719   2.287   0.482
11978TIP3   OH235876   1.275   6.006   5.621
11978TIP3    H135877   1.262   5.963   5.537
11978TIP3    H235878   1.250   6.097   5.606
11979TIP3   OH235879   6.394   1.500   0.283
11979TIP3    H135880   6.413   1.557   0.208
11979TIP3    H235881   6.351   1.557   0.346
11980TIP3   OH235882   6.477   2.071   0.100
11980TIP3    H135883   6.567   2.067   0.068
11980TIP3    H235884   6.432   2.131   0.040
11981TIP3   OH235885   7.215   1.912   0.449
11981TIP3    H135886   7.193   1.825   0.482
11981TIP3    H235887   7.132   1.959   0.450
11982TIP3   OH235888   6.979   2.246   0.211
11982TIP3    H135889   6.961   2.303   0.136
11982TIP3    H235890   7.073   2.232   0.208
11983TIP3   OH235891   6.537   1.280   0.367
11983TIP3    H135892   6.492   1.358   0.334
11983TIP3    H235893   6.473   1.210   0.355
11984TIP3   OH235894   6.686   1.741   0.627
11984TIP3    H135895   6.711   1.795   0.702
11984TIP3    H235896   6.614   1.688   0.659
11985TIP3   OH235897   6.901   1.654   0.454
11985TIP3    H135898   6.830   1.662   0.518
11985TIP3    H235899   6.981   1.657   0.507
11986TIP3   OH235900   7.175   1.658   0.570
11986TIP3    H135901   7.189   1.564   0.581
11986TIP3    H235902   7.183   1.695   0.658
11987TIP3   OH235903   6.645   1.269   0.614
11987TIP3    H135904   6.700   1.190   0.617
11987TIP3    H235905   6.595   1.260   0.533
11988TIP3   OH235906   6.736   1.470   0.762
11988TIP3    H135907   6.714   1.398   0.704
11988TIP3    H235908   6.653   1.515   0.778
11989TIP3   OH235909   1.527   7.011   6.448
11989TIP3    H135910   1.560   7.015   6.538
11989TIP3    H235911   1.605   7.018   6.393
11990TIP3   OH235912   1.599   6.996   6.711
11990TIP3    H135913   1.549   6.914   6.714
11990TIP3    H235914   1.670   6.983   6.774
11991TIP3   OH235915   7.335   2.650   0.360
11991TIP3    H135916   7.270   2.631   0.292
11991TIP3    H235917   7.381   2.728   0.328
11992TIP3   OH235918   1.429   6.216   5.958
11992TIP3    H135919   1.493   6.279   5.926
11992TIP3    H235920   1.472   6.172   6.031
11993TIP3   OH235921   1.555   6.069   6.155
11993TIP3    H135922   1.491   6.026   6.211
11993TIP3    H235923   1.623   6.100   6.215
11994TIP3   OH235924   1.633   6.470   6.611
11994TIP3    H135925   1.668   6.391   6.570
11994TIP3    H235926   1.607   6.526   6.538
11995TIP3   OH235927   1.463   6.765   6.741
11995TIP3    H135928   1.391   6.793   6.796
11995TIP3    H235929   1.447   6.672   6.725
11996TIP3   OH235930   1.474   5.984   5.809
11996TIP3    H135931   1.406   5.982   5.742
11996TIP3    H235932   1.455   6.062   5.861
11997TIP3   OH235933   1.321   5.626   5.754
11997TIP3    H135934   1.280   5.651   5.671
11997TIP3    H235935   1.312   5.531   5.758
11998TIP3   OH235936   1.355   5.925   6.289
11998TIP3    H135937   1.363   5.830   6.277
11998TIP3    H235938   1.336   5.935   6.382
11999TIP3   OH235939   1.282   5.356   5.741
11999TIP3    H135940   1.354   5.327   5.798
11999TIP3    H235941   1.208   5.300   5.767
12000TIP3   OH235942   1.359   5.642   6.180
12000TIP3    H135943   1.404   5.559   6.193
12000TIP3    H235944   1.401   5.681   6.104
12001TIP3   OH235945   1.507   5.812   6.669
12001TIP3    H135946   1.589   5.833   6.626
12001TIP3    H235947   1.521   5.837   6.761
12002TIP3   OH235948   1.597   5.930   6.905
12002TIP3    H135949   1.515   5.945   6.952
12002TIP3    H235950   1.622   6.016   6.871
12003TIP3   OH235951   7.704   1.568   0.524
12003TIP3    H135952   7.769   1.507   0.490
12003TIP3    H235953   7.666   1.609   0.446
12004TIP3   OH235954   1.477   5.391   6.225
12004TIP3    H135955   1.508   5.368   6.313
12004TIP3    H235956   1.437   5.310   6.192
12005TIP3   OH235957   7.556   1.655   0.310
12005TIP3    H135958   7.468   1.690   0.300
12005TIP3    H235959   7.554   1.570   0.266
12006TIP3   OH235960   1.519   5.309   5.882
12006TIP3    H135961   1.565   5.249   5.824
12006TIP3    H235962   1.574   5.387   5.884
12007TIP3   OH235963   1.128   6.858   6.140
12007TIP3    H135964   1.180   6.848   6.060
12007TIP3    H235965   1.183   6.911   6.198
12008TIP3   OH235966   6.631   3.062   0.043
12008TIP3    H135967   6.707   3.017   0.080
12008TIP3    H235968   6.632   3.149   0.084
12009TIP3   OH235969   7.477   1.399   0.227
12009TIP3    H135970   7.388   1.382   0.198
12009TIP3    H235971   7.522   1.314   0.218
12010TIP3   OH235972   0.934   6.913   6.722
12010TIP3    H135973   0.885   6.925   6.803
12010TIP3    H235974   1.002   6.979   6.725
12011TIP3   OH235975   1.188   7.096   6.687
12011TIP3    H135976   1.177   7.178   6.640
12011TIP3    H235977   1.214   7.033   6.620
12012TIP3   OH235978   1.492   5.300   6.700
12012TIP3    H135979   1.541   5.324   6.622
12012TIP3    H235980   1.404   5.281   6.668
12013TIP3   OH235981   1.622   5.334   6.462
12013TIP3    H135982   1.691   5.276   6.430
12013TIP3    H235983   1.656   5.422   6.449
12014TIP3   OH235984   1.217   5.166   6.604
12014TIP3    H135985   1.297   5.127   6.567
12014TIP3    H235986   1.208   5.125   6.690
12015TIP3   OH235987   0.731   5.291   6.331
12015TIP3    H135988   0.646   5.260   6.362
12015TIP3    H235989   0.742   5.376   6.372
12016TIP3   OH235990   1.251   6.811   5.895
12016TIP3    H135991   1.223   6.720   5.883
12016TIP3    H235992   1.213   6.857   5.820
12017TIP3   OH235993   7.229   1.395   0.646
12017TIP3    H135994   7.246   1.373   0.738
12017TIP3    H235995   7.316   1.395   0.605
12018TIP3   OH235996   7.145   3.015   0.051
12018TIP3    H135997   7.071   2.969   0.010
12018TIP3    H235998   7.109   3.100   0.075
12019TIP3   OH235999   2.742   6.352   5.839
12019TIP3    H136000   2.706   6.439   5.820
12019TIP3    H236001   2.673   6.292   5.815
12020TIP3   OH236002   2.737   6.347   6.267
12020TIP3    H136003   2.792   6.328   6.343
12020TIP3    H236004   2.695   6.263   6.247
12021TIP3   OH236005   2.037   6.207   6.608
12021TIP3    H136006   2.075   6.153   6.678
12021TIP3    H236007   2.112   6.230   6.553
12022TIP3   OH236008   3.008   6.655   5.936
12022TIP3    H136009   2.996   6.587   6.003
12022TIP3    H236010   3.029   6.734   5.986
12023TIP3   OH236011   2.027   6.637   6.299
12023TIP3    H136012   2.013   6.542   6.301
12023TIP3    H236013   2.122   6.647   6.290
12024TIP3   OH236014   1.713   5.841   6.081
12024TIP3    H136015   1.673   5.925   6.102
12024TIP3    H236016   1.643   5.790   6.041
12025TIP3   OH236017   1.790   6.142   6.293
12025TIP3    H136018   1.840   6.066   6.322
12025TIP3    H236019   1.857   6.203   6.261
12026TIP3   OH236020   2.670   7.078   5.953
12026TIP3    H136021   2.693   7.016   5.884
12026TIP3    H236022   2.681   7.029   6.034
12027TIP3   OH236023   2.547   6.569   6.270
12027TIP3    H136024   2.591   6.489   6.242
12027TIP3    H236025   2.617   6.627   6.299
12028TIP3   OH236026   3.579   5.888   6.284
12028TIP3    H136027   3.596   5.973   6.324
12028TIP3    H236028   3.612   5.897   6.194
12029TIP3   OH236029   2.953   6.055   6.305
12029TIP3    H136030   2.989   5.971   6.332
12029TIP3    H236031   2.918   6.039   6.218
12030TIP3   OH236032   2.309   5.713   6.266
12030TIP3    H136033   2.289   5.786   6.207
12030TIP3    H236034   2.255   5.641   6.234
12031TIP3   OH236035   3.006   5.816   5.899
12031TIP3    H136036   3.070   5.811   5.970
12031TIP3    H236037   3.057   5.849   5.824
12032TIP3   OH236038   1.936   5.929   6.394
12032TIP3    H136039   2.019   5.910   6.437
12032TIP3    H236040   1.939   5.876   6.314
12033TIP3   OH236041   2.353   6.127   6.212
12033TIP3    H136042   2.448   6.112   6.217
12033TIP3    H236043   2.318   6.045   6.177
12034TIP3   OH236044   3.634   6.108   6.451
12034TIP3    H136045   3.546   6.143   6.447
12034TIP3    H236046   3.670   6.144   6.532
12035TIP3   OH236047   2.294   5.716   6.714
12035TIP3    H136048   2.242   5.751   6.642
12035TIP3    H236049   2.241   5.733   6.792
12036TIP3   OH236050   2.602   6.561   5.727
12036TIP3    H136051   2.581   6.544   5.635
12036TIP3    H236052   2.562   6.646   5.745
12037TIP3   OH236053   2.385   6.491   6.480
12037TIP3    H136054   2.332   6.564   6.514
12037TIP3    H236055   2.435   6.529   6.408
12038TIP3   OH236056   3.163   5.843   6.120
12038TIP3    H136057   3.125   5.819   6.205
12038TIP3    H236058   3.222   5.915   6.140
12039TIP3   OH236059   2.180   5.823   6.486
12039TIP3    H136060   2.236   5.898   6.509
12039TIP3    H236061   2.226   5.780   6.414
12040TIP3   OH236062   2.232   6.696   6.585
12040TIP3    H136063   2.217   6.785   6.554
12040TIP3    H236064   2.155   6.677   6.639
12041TIP3   OH236065   1.609   6.396   5.845
12041TIP3    H136066   1.584   6.413   5.755
12041TIP3    H236067   1.638   6.480   5.879
12042TIP3   OH236068   3.042   6.902   6.080
12042TIP3    H136069   2.953   6.896   6.116
12042TIP3    H236070   3.043   6.986   6.033
12043TIP3   OH236071   3.380   5.782   6.454
12043TIP3    H136072   3.295   5.802   6.414
12043TIP3    H236073   3.444   5.806   6.387
12044TIP3   OH236074   2.635   5.408   6.445
12044TIP3    H136075   2.628   5.316   6.470
12044TIP3    H236076   2.557   5.449   6.484
12045TIP3   OH236077   2.750   6.929   5.731
12045TIP3    H136078   2.801   6.848   5.720
12045TIP3    H236079   2.810   6.999   5.705
12046TIP3   OH236080   2.906   6.711   5.684
12046TIP3    H136081   2.913   6.634   5.628
12046TIP3    H236082   2.943   6.684   5.768
12047TIP3   OH236083   3.279   6.791   6.421
12047TIP3    H136084   3.262   6.716   6.364
12047TIP3    H236085   3.265   6.867   6.364
12048TIP3   OH236086   2.567   6.190   5.692
12048TIP3    H136087   2.487   6.238   5.672
12048TIP3    H236088   2.616   6.190   5.609
12049TIP3   OH236089   2.539   5.999   5.381
12049TIP3    H136090   2.605   6.047   5.432
12049TIP3    H236091   2.590   5.931   5.335
12050TIP3   OH236092   3.462   6.451   6.291
12050TIP3    H136093   3.377   6.495   6.288
12050TIP3    H236094   3.498   6.461   6.203
12051TIP3   OH236095   2.928   6.286   5.650
12051TIP3    H136096   2.873   6.312   5.724
12051TIP3    H236097   3.010   6.257   5.690
12052TIP3   OH236098   3.157   6.310   6.600
12052TIP3    H136099   3.154   6.394   6.646
12052TIP3    H236100   3.075   6.307   6.550
12053TIP3   OH236101   2.155   6.260   6.060
12053TIP3    H136102   2.121   6.199   5.995
12053TIP3    H236103   2.229   6.213   6.100
12054TIP3   OH236104   2.291   6.686   6.202
12054TIP3    H136105   2.269   6.672   6.110
12054TIP3    H236106   2.379   6.648   6.212
12055TIP3   OH236107   2.252   6.256   6.435
12055TIP3    H136108   2.291   6.219   6.356
12055TIP3    H236109   2.302   6.336   6.450
12056TIP3   OH236110   2.799   6.900   6.206
12056TIP3    H136111   2.793   6.978   6.261
12056TIP3    H236112   2.789   6.827   6.267
12057TIP3   OH236113   2.432   6.792   6.754
12057TIP3    H136114   2.370   6.849   6.798
12057TIP3    H236115   2.378   6.739   6.695
12058TIP3   OH236116   2.758   6.143   5.487
12058TIP3    H136117   2.818   6.200   5.534
12058TIP3    H236118   2.786   6.150   5.395
12059TIP3   OH236119   2.185   6.331   6.907
12059TIP3    H136120   2.193   6.425   6.922
12059TIP3    H236121   2.092   6.316   6.892
12060TIP3   OH236122   2.496   6.820   5.743
12060TIP3    H136123   2.584   6.859   5.747
12060TIP3    H236124   2.445   6.883   5.692
12061TIP3   OH236125   2.222   6.950   6.834
12061TIP3    H136126   2.194   6.959   6.742
12061TIP3    H236127   2.140   6.936   6.882
12062TIP3   OH236128   3.268   5.368   5.542
12062TIP3    H136129   3.192   5.389   5.596
12062TIP3    H236130   3.279   5.445   5.486
12063TIP3   OH236131   2.033   6.100   5.860
12063TIP3    H136132   1.954   6.144   5.829
12063TIP3    H236133   2.007   6.009   5.872
12064TIP3   OH236134   3.095   6.744   5.099
12064TIP3    H136135   3.090   6.837   5.076
12064TIP3    H236136   3.184   6.718   5.076
12065TIP3   OH236137   1.822   6.511   6.803
12065TIP3    H136138   1.756   6.494   6.736
12065TIP3    H236139   1.853   6.424   6.829
12066TIP3   OH236140   1.681   6.687   6.416
12066TIP3    H136141   1.773   6.668   6.403
12066TIP3    H236142   1.679   6.750   6.488
12067TIP3   OH236143   3.511   7.150   6.490
12067TIP3    H136144   3.516   7.056   6.503
12067TIP3    H236145   3.432   7.177   6.537
12068TIP3   OH236146   2.618   6.939   6.615
12068TIP3    H136147   2.609   7.029   6.645
12068TIP3    H236148   2.553   6.890   6.665
12069TIP3   OH236149   2.395   7.034   5.571
12069TIP3    H136150   2.353   7.015   5.487
12069TIP3    H236151   2.359   7.119   5.597
12070TIP3   OH236152   1.831   6.893   5.951
12070TIP3    H136153   1.881   6.887   6.032
12070TIP3    H236154   1.790   6.807   5.942
12071TIP3   OH236155   2.598   6.966   5.197
12071TIP3    H136156   2.647   6.892   5.162
12071TIP3    H236157   2.634   6.981   5.285
12072TIP3   OH236158   2.650   7.011   5.467
12072TIP3    H136159   2.564   7.014   5.510
12072TIP3    H236160   2.708   6.974   5.533
12073TIP3   OH236161   3.400   6.268   6.761
12073TIP3    H136162   3.319   6.274   6.711
12073TIP3    H236163   3.420   6.174   6.762
12074TIP3   OH236164   2.019   6.697   6.762
12074TIP3    H136165   2.074   6.680   6.838
12074TIP3    H236166   1.947   6.634   6.770
12075TIP3   OH236167   2.396   5.498   6.571
12075TIP3    H136168   2.312   5.465   6.539
12075TIP3    H236169   2.374   5.580   6.616
12076TIP3   OH236170   2.937   5.625   6.772
12076TIP3    H136171   3.007   5.599   6.831
12076TIP3    H236172   2.856   5.606   6.820
12077TIP3   OH236173   3.160   6.044   6.687
12077TIP3    H136174   3.120   6.041   6.774
12077TIP3    H236175   3.145   6.134   6.657
12078TIP3   OH236176   2.837   6.138   5.226
12078TIP3    H136177   2.792   6.134   5.141
12078TIP3    H236178   2.921   6.180   5.207
12079TIP3   OH236179   2.545   5.546   5.540
12079TIP3    H136180   2.509   5.552   5.628
12079TIP3    H236181   2.510   5.463   5.506
12080TIP3   OH236182   2.334   6.034   6.582
12080TIP3    H136183   2.288   6.041   6.665
12080TIP3    H236184   2.313   6.115   6.536
12081TIP3   OH236185   2.212   5.912   6.103
12081TIP3    H136186   2.123   5.886   6.128
12081TIP3    H236187   2.223   5.880   6.014
12082TIP3   OH236188   2.694   5.987   5.829
12082TIP3    H136189   2.646   6.059   5.787
12082TIP3    H236190   2.753   5.955   5.760
12083TIP3   OH236191   2.880   6.256   6.902
12083TIP3    H136192   2.855   6.187   6.963
12083TIP3    H236193   2.973   6.271   6.921
12084TIP3   OH236194   2.861   6.003   6.052
12084TIP3    H136195   2.794   6.023   5.988
12084TIP3    H236196   2.910   5.929   6.014
12085TIP3   OH236197   2.170   6.049   6.802
12085TIP3    H136198   2.187   6.113   6.872
12085TIP3    H236199   2.156   5.966   6.849
12086TIP3   OH236200   2.213   5.525   5.516
12086TIP3    H136201   2.204   5.528   5.611
12086TIP3    H236202   2.134   5.569   5.483
12087TIP3   OH236203   1.751   5.559   6.388
12087TIP3    H136204   1.827   5.596   6.433
12087TIP3    H236205   1.783   5.539   6.300
12088TIP3   OH236206   1.669   5.545   5.888
12088TIP3    H136207   1.715   5.578   5.811
12088TIP3    H236208   1.604   5.612   5.909
12089TIP3   OH236209   2.903   6.257   6.479
12089TIP3    H136210   2.928   6.190   6.415
12089TIP3    H236211   2.860   6.207   6.549
12090TIP3   OH236212   2.579   5.704   6.153
12090TIP3    H136213   2.502   5.703   6.210
12090TIP3    H236214   2.653   5.694   6.213
12091TIP3   OH236215   1.973   5.787   6.163
12091TIP3    H136216   1.885   5.790   6.125
12091TIP3    H236217   2.002   5.696   6.148
12092TIP3   OH236218   2.227   5.793   5.856
12092TIP3    H136219   2.322   5.802   5.847
12092TIP3    H236220   2.192   5.810   5.768
12093TIP3   OH236221   3.027   5.793   6.362
12093TIP3    H136222   3.006   5.810   6.454
12093TIP3    H236223   2.962   5.730   6.334
12094TIP3   OH236224   2.113   5.818   5.607
12094TIP3    H136225   2.051   5.767   5.555
12094TIP3    H236226   2.168   5.862   5.542
12095TIP3   OH236227   3.227   7.495   6.584
12095TIP3    H136228   3.225   7.510   6.489
12095TIP3    H236229   3.306   7.541   6.613
12096TIP3   OH236230   7.841   2.592   0.048
12096TIP3    H136231   7.918   2.614   0.099
12096TIP3    H236232   7.768   2.595   0.110
12097TIP3   OH236233   2.627   6.075   6.259
12097TIP3    H136234   2.693   6.027   6.209
12097TIP3    H236235   2.626   6.033   6.344
12098TIP3   OH236236   2.118   5.538   6.150
12098TIP3    H136237   2.087   5.464   6.202
12098TIP3    H236238   2.144   5.501   6.066
12099TIP3   OH236239   2.600   5.976   6.523
12099TIP3    H136240   2.513   6.007   6.548
12099TIP3    H236241   2.660   6.028   6.577
12100TIP3   OH236242   2.331   6.330   5.632
12100TIP3    H136243   2.257   6.274   5.610
12100TIP3    H236244   2.306   6.370   5.716
12101TIP3   OH236245   3.225   6.586   6.244
12101TIP3    H136246   3.261   6.634   6.169
12101TIP3    H236247   3.146   6.545   6.209
12102TIP3   OH236248   2.799   5.647   5.544
12102TIP3    H136249   2.705   5.626   5.540
12102TIP3    H236250   2.802   5.742   5.556
12103TIP3   OH236251   2.745   6.669   6.651
12103TIP3    H136252   2.800   6.657   6.729
12103TIP3    H236253   2.708   6.757   6.662
12104TIP3   OH236254   2.858   5.912   5.613
12104TIP3    H136255   2.953   5.914   5.623
12104TIP3    H236256   2.837   5.989   5.560
12105TIP3   OH236257   2.026   6.353   6.286
12105TIP3    H136258   2.064   6.331   6.201
12105TIP3    H236259   2.090   6.321   6.350
12106TIP3   OH236260   2.487   6.490   5.475
12106TIP3    H136261   2.439   6.572   5.474
12106TIP3    H236262   2.433   6.432   5.529
12107TIP3   OH236263   7.577   2.270  -0.010
12107TIP3    H136264   7.595   2.251   0.082
12107TIP3    H236265   7.504   2.213  -0.032
12108TIP3   OH236266   2.650   6.411   6.944
12108TIP3    H136267   2.582   6.350   6.914
12108TIP3    H236268   2.732   6.372   6.914
12109TIP3   OH236269   2.888   6.960   6.536
12109TIP3    H136270   2.793   6.945   6.541
12109TIP3    H236271   2.911   6.997   6.620
12110TIP3   OH236272   3.273   6.001   5.430
12110TIP3    H136273   3.216   5.956   5.368
12110TIP3    H236274   3.280   6.090   5.396
12111TIP3   OH236275   3.524   6.872   6.512
12111TIP3    H136276   3.430   6.856   6.506
12111TIP3    H236277   3.559   6.842   6.428
12112TIP3   OH236278   3.013   6.815   5.359
12112TIP3    H136279   2.987   6.742   5.414
12112TIP3    H236280   3.036   6.775   5.275
12113TIP3   OH236281   2.995   6.451   6.140
12113TIP3    H136282   2.905   6.429   6.163
12113TIP3    H236283   3.031   6.371   6.103
12114TIP3   OH236284   2.157   6.688   5.955
12114TIP3    H136285   2.158   6.764   5.897
12114TIP3    H236286   2.064   6.672   5.973
12115TIP3   OH236287   1.712   5.968   5.668
12115TIP3    H136288   1.756   6.049   5.691
12115TIP3    H236289   1.632   5.969   5.720
12116TIP3   OH236290   2.231   6.439   5.859
12116TIP3    H136291   2.223   6.529   5.891
12116TIP3    H236292   2.208   6.384   5.934
12117TIP3   OH236293   2.433   7.010   6.410
12117TIP3    H136294   2.469   7.083   6.359
12117TIP3    H236295   2.507   6.976   6.459
12118TIP3   OH236296   2.066   6.912   5.804
12118TIP3    H136297   1.979   6.919   5.845
12118TIP3    H236298   2.101   7.001   5.808
12119TIP3   OH236299   2.783   6.676   6.377
12119TIP3    H136300   2.771   6.670   6.472
12119TIP3    H236301   2.858   6.619   6.358
12120TIP3   OH236302   2.781   6.554   5.264
12120TIP3    H136303   2.826   6.537   5.346
12120TIP3    H236304   2.696   6.511   5.274
12121TIP3   OH236305   3.043   7.170   6.421
12121TIP3    H136306   2.973   7.108   6.439
12121TIP3    H236307   3.009   7.225   6.350
12122TIP3   OH236308   3.089   7.016   5.056
12122TIP3    H136309   3.101   7.073   4.980
12122TIP3    H236310   3.020   7.059   5.107
12123TIP3   OH236311   7.795   1.784  -0.014
12123TIP3    H136312   7.699   1.788  -0.016
12123TIP3    H236313   7.815   1.720   0.054
12124TIP3   OH236314   2.953   6.505   5.483
12124TIP3    H136315   2.935   6.429   5.538
12124TIP3    H236316   3.046   6.499   5.462
12125TIP3   OH236317   1.855   6.896   6.566
12125TIP3    H136318   1.912   6.837   6.616
12125TIP3    H236319   1.864   6.981   6.609
12126TIP3   OH236320   2.123   6.516   5.264
12126TIP3    H136321   2.136   6.425   5.239
12126TIP3    H236322   2.109   6.512   5.359
12127TIP3   OH236323   2.068   6.532   5.538
12127TIP3    H136324   2.139   6.503   5.596
12127TIP3    H236325   2.070   6.628   5.544
12128TIP3   OH236326   1.806   6.219   5.749
12128TIP3    H136327   1.742   6.267   5.802
12128TIP3    H236328   1.827   6.278   5.677
12129TIP3   OH236329   2.964   5.856   6.624
12129TIP3    H136330   3.044   5.900   6.654
12129TIP3    H236331   2.957   5.779   6.679
12130TIP3   OH236332   2.858   5.597   5.812
12130TIP3    H136333   2.838   5.615   5.720
12130TIP3    H236334   2.902   5.676   5.843
12131TIP3   OH236335   2.338   6.716   5.473
12131TIP3    H136336   2.255   6.742   5.513
12131TIP3    H236337   2.364   6.790   5.419
12132TIP3   OH236338   2.506   5.799   5.902
12132TIP3    H136339   2.569   5.866   5.875
12132TIP3    H236340   2.531   5.777   5.992
12133TIP3   OH236341   2.805   6.090   6.676
12133TIP3    H136342   2.833   6.131   6.758
12133TIP3    H236343   2.856   6.009   6.672
12134TIP3   OH236344   2.671   5.493   5.988
12134TIP3    H136345   2.649   5.570   6.040
12134TIP3    H236346   2.741   5.522   5.930
12135TIP3   OH236347   2.089   6.805   5.553
12135TIP3    H136348   2.072   6.877   5.492
12135TIP3    H236349   2.081   6.844   5.640
12136TIP3   OH236350   2.185   5.519   5.795
12136TIP3    H136351   2.174   5.609   5.825
12136TIP3    H236352   2.279   5.503   5.801
12137TIP3   OH236353   3.426   5.990   6.671
12137TIP3    H136354   3.331   5.999   6.681
12137TIP3    H236355   3.436   5.933   6.595
12138TIP3   OH236356   3.086   6.194   6.052
12138TIP3    H136357   3.011   6.136   6.064
12138TIP3    H236358   3.155   6.155   6.106
12139TIP3   OH236359   1.824   6.400   5.532
12139TIP3    H136360   1.896   6.463   5.542
12139TIP3    H236361   1.856   6.336   5.469
12140TIP3   OH236362   1.735   5.689   5.666
12140TIP3    H136363   1.746   5.784   5.671
12140TIP3    H236364   1.682   5.675   5.588
12141TIP3   OH236365   3.067   7.169   5.997
12141TIP3    H136366   3.024   7.220   5.928
12141TIP3    H236367   3.160   7.184   5.983
12142TIP3   OH236368   2.133   5.412   6.534
12142TIP3    H136369   2.103   5.379   6.450
12142TIP3    H236370   2.122   5.338   6.594
12143TIP3   OH236371   1.665   6.660   5.936
12143TIP3    H136372   1.631   6.698   6.018
12143TIP3    H236373   1.620   6.708   5.867
12144TIP3   OH236374   7.533   3.193   0.022
12144TIP3    H136375   7.617   3.163   0.057
12144TIP3    H236376   7.478   3.114   0.023
12145TIP3   OH236377   8.012   3.103   0.076
12145TIP3    H136378   8.100   3.067   0.091
12145TIP3    H236379   7.976   3.050   0.006
12146TIP3   OH236380   2.280   6.718   5.157
12146TIP3    H136381   2.233   6.647   5.201
12146TIP3    H236382   2.355   6.675   5.115
12147TIP3   OH236383   2.942   7.062   6.784
12147TIP3    H136384   2.950   6.989   6.845
12147TIP3    H236385   3.019   7.116   6.800
12148TIP3   OH236386   2.724   6.754   5.080
12148TIP3    H136387   2.760   6.691   5.142
12148TIP3    H236388   2.782   6.748   5.004
12149TIP3   OH236389   7.622   2.598   0.215
12149TIP3    H136390   7.595   2.517   0.259
12149TIP3    H236391   7.545   2.626   0.165
12150TIP3   OH236392   1.948   6.210   5.380
12150TIP3    H136393   1.999   6.184   5.457
12150TIP3    H236394   2.013   6.222   5.311
12151TIP3   OH236395   2.581   6.687   6.963
12151TIP3    H136396   2.540   6.709   6.879
12151TIP3    H236397   2.618   6.600   6.949
12152TIP3   OH236398   2.517   6.432   5.210
12152TIP3    H136399   2.496   6.442   5.303
12152TIP3    H236400   2.502   6.339   5.192
12153TIP3   OH236401   3.057   6.736   6.577
12153TIP3    H136402   3.135   6.761   6.528
12153TIP3    H236403   2.993   6.804   6.557
12154TIP3   OH236404   7.744   2.248   0.233
12154TIP3    H136405   7.812   2.272   0.170
12154TIP3    H236406   7.760   2.306   0.308
12155TIP3   OH236407   2.123   6.150   5.590
12155TIP3    H136408   2.106   6.119   5.679
12155TIP3    H236409   2.173   6.080   5.548
12156TIP3   OH236410   2.443   6.231   6.852
12156TIP3    H136411   2.357   6.271   6.862
12156TIP3    H236412   2.474   6.260   6.766
12157TIP3   OH236413   2.266   5.969   5.435
12157TIP3    H136414   2.237   5.971   5.344
12157TIP3    H236415   2.362   5.975   5.430
12158TIP3   OH236416   2.939   6.605   6.928
12158TIP3    H136417   3.011   6.570   6.875
12158TIP3    H236418   2.939   6.549   7.007
12159TIP3   OH236419   3.060   6.259   5.115
12159TIP3    H136420   3.048   6.217   5.030
12159TIP3    H236421   3.035   6.350   5.101
12160TIP3   OH236422   2.540   5.999   6.962
12160TIP3    H136423   2.546   5.929   6.897
12160TIP3    H236424   2.510   6.075   6.912
12161TIP3   OH236425   2.552   5.805   6.754
12161TIP3    H136426   2.581   5.840   6.670
12161TIP3    H236427   2.462   5.776   6.738
12162TIP3   OH236428   2.554   6.330   6.626
12162TIP3    H136429   2.644   6.358   6.609
12162TIP3    H236430   2.500   6.391   6.575
12163TIP3   OH236431   0.316   2.282   0.059
12163TIP3    H136432   0.352   2.193   0.065
12163TIP3    H236433   0.392   2.338   0.044
12164TIP3   OH236434   3.179   6.556   6.741
12164TIP3    H136435   3.127   6.618   6.690
12164TIP3    H236436   3.269   6.569   6.709
12165TIP3   OH236437   8.084   2.072   0.261
12165TIP3    H136438   8.017   2.005   0.275
12165TIP3    H236439   8.118   2.054   0.173
12166TIP3   OH236440   2.672   5.572   6.854
12166TIP3    H136441   2.632   5.652   6.821
12166TIP3    H236442   2.606   5.504   6.840
12167TIP3   OH236443   8.466   2.037   0.116
12167TIP3    H136444   8.460   2.024   0.211
12167TIP3    H236445   8.380   2.013   0.083
12168TIP3   OH236446   0.214   1.997  -0.012
12168TIP3    H136447   0.135   1.994   0.042
12168TIP3    H236448   0.284   1.967   0.046
12169TIP3   OH236449   0.443   1.950   0.139
12169TIP3    H136450   0.460   1.856   0.145
12169TIP3    H236451   0.441   1.980   0.230
12170TIP3   OH236452   7.906   1.870   0.334
12170TIP3    H136453   7.898   1.787   0.287
12170TIP3    H236454   7.955   1.848   0.413
12171TIP3   OH236455   8.404   1.543   0.178
12171TIP3    H136456   8.473   1.476   0.174
12171TIP3    H236457   8.376   1.554   0.088
12172TIP3   OH236458   8.501   1.757   0.324
12172TIP3    H136459   8.472   1.684   0.268
12172TIP3    H236460   8.428   1.818   0.322
12173TIP3   OH236461   2.088   7.014   5.371
12173TIP3    H136462   2.178   6.994   5.344
12173TIP3    H236463   2.050   7.059   5.296
12174TIP3   OH236464   1.552   6.392   5.563
12174TIP3    H136465   1.647   6.405   5.551
12174TIP3    H236466   1.534   6.309   5.519
12175TIP3   OH236467   1.458   6.967   6.000
12175TIP3    H136468   1.403   6.908   5.949
12175TIP3    H236469   1.506   6.910   6.060
12176TIP3   OH236470   1.604   6.809   6.173
12176TIP3    H136471   1.598   6.745   6.244
12176TIP3    H236472   1.658   6.880   6.209
12177TIP3   OH236473   3.332   7.236   5.983
12177TIP3    H136474   3.362   7.257   6.071
12177TIP3    H236475   3.400   7.271   5.926
12178TIP3   OH236476   3.362   7.248   6.267
12178TIP3    H136477   3.314   7.167   6.257
12178TIP3    H236478   3.430   7.229   6.332
12179TIP3   OH236479   3.401   6.947   6.841
12179TIP3    H136480   3.330   6.957   6.905
12179TIP3    H236481   3.449   7.030   6.846
12180TIP3   OH236482   3.228   6.469   5.448
12180TIP3    H136483   3.287   6.537   5.417
12180TIP3    H236484   3.274   6.428   5.522
12181TIP3   OH236485   3.357   6.323   5.647
12181TIP3    H136486   3.290   6.284   5.703
12181TIP3    H236487   3.422   6.357   5.708
12182TIP3   OH236488   3.405   6.722   6.080
12182TIP3    H136489   3.458   6.651   6.044
12182TIP3    H236490   3.410   6.792   6.014
12183TIP3   OH236491   3.216   7.012   6.270
12183TIP3    H136492   3.149   7.057   6.322
12183TIP3    H236493   3.167   6.971   6.198
12184TIP3   OH236494   3.268   6.242   5.295
12184TIP3    H136495   3.197   6.240   5.230
12184TIP3    H236496   3.251   6.320   5.347
12185TIP3   OH236497   3.117   5.892   5.233
12185TIP3    H136498   3.073   5.926   5.155
12185TIP3    H236499   3.109   5.797   5.226
12186TIP3   OH236500   3.153   6.183   5.782
12186TIP3    H136501   3.160   6.089   5.769
12186TIP3    H236502   3.135   6.193   5.876
12187TIP3   OH236503   1.774   6.241   6.549
12187TIP3    H136504   1.765   6.210   6.459
12187TIP3    H236505   1.868   6.239   6.566
12188TIP3   OH236506   3.437   6.600   6.645
12188TIP3    H136507   3.503   6.532   6.632
12188TIP3    H236508   3.454   6.664   6.576
12189TIP3   OH236509   3.614   6.389   6.640
12189TIP3    H136510   3.540   6.347   6.684
12189TIP3    H236511   3.689   6.333   6.660
12190TIP3   OH236512   3.080   5.622   5.206
12190TIP3    H136513   3.147   5.593   5.268
12190TIP3    H236514   3.000   5.579   5.237
12191TIP3   OH236515   3.148   5.906   5.669
12191TIP3    H136516   3.194   5.823   5.682
12191TIP3    H236517   3.191   5.944   5.592
12192TIP3   OH236518   3.302   6.075   6.191
12192TIP3    H136519   3.383   6.093   6.143
12192TIP3    H236520   3.318   6.112   6.278
12193TIP3   OH236521   3.376   6.222   6.422
12193TIP3    H136522   3.303   6.251   6.476
12193TIP3    H236523   3.408   6.301   6.379
12194TIP3   OH236524   7.539   1.942   0.299
12194TIP3    H136525   7.606   2.010   0.302
12194TIP3    H236526   7.586   1.862   0.321
12195TIP3   OH236527   3.836   5.820   6.958
12195TIP3    H136528   3.902   5.764   6.917
12195TIP3    H236529   3.797   5.869   6.885
12196TIP3   OH236530   3.263   5.657   5.723
12196TIP3    H136531   3.310   5.642   5.805
12196TIP3    H236532   3.202   5.584   5.716
12197TIP3   OH236533   1.968   5.635   6.549
12197TIP3    H136534   2.023   5.557   6.553
12197TIP3    H236535   2.029   5.706   6.531
12198TIP3   OH236536   1.756   5.909   6.607
12198TIP3    H136537   1.813   5.905   6.530
12198TIP3    H236538   1.775   5.995   6.646
12199TIP3   OH236539   3.685   5.930   6.757
12199TIP3    H136540   3.598   5.969   6.766
12199TIP3    H236541   3.671   5.851   6.706
12200TIP3   OH236542   3.308   5.570   5.359
12200TIP3    H136543   3.355   5.509   5.303
12200TIP3    H236544   3.365   5.647   5.364
12201TIP3   OH236545   1.747   5.432   6.124
12201TIP3    H136546   1.660   5.410   6.158
12201TIP3    H236547   1.729   5.478   6.042
12202TIP3   OH236548   2.894   7.133   5.630
12202TIP3    H136549   2.949   7.120   5.553
12202TIP3    H236550   2.939   7.201   5.681
12203TIP3   OH236551   7.631   1.493   0.008
12203TIP3    H136552   7.573   1.457   0.074
12203TIP3    H236553   7.573   1.525  -0.061
12204TIP3   OH236554   7.669   2.923   0.063
12204TIP3    H136555   7.577   2.914   0.038
12204TIP3    H236556   7.673   2.887   0.152
12205TIP3   OH236557   2.202   6.971   6.554
12205TIP3    H136558   2.151   7.045   6.522
12205TIP3    H236559   2.288   6.980   6.512
12206TIP3   OH236560   2.601   7.205   6.697
12206TIP3    H136561   2.640   7.195   6.784
12206TIP3    H236562   2.665   7.257   6.648
12207TIP3   OH236563   2.793   7.355   6.568
12207TIP3    H136564   2.851   7.300   6.516
12207TIP3    H236565   2.851   7.409   6.621
12208TIP3   OH236566   3.603   5.681   6.656
12208TIP3    H136567   3.516   5.671   6.617
12208TIP3    H236568   3.642   5.594   6.649
12209TIP3   OH236569   1.856   7.219   6.588
12209TIP3    H136570   1.767   7.242   6.560
12209TIP3    H236571   1.879   7.285   6.652
12210TIP3   OH236572   2.094   7.201   6.452
12210TIP3    H136573   2.010   7.208   6.497
12210TIP3    H236574   2.075   7.225   6.361
12211TIP3   OH236575   2.510   7.220   6.246
12211TIP3    H136576   2.441   7.231   6.181
12211TIP3    H236577   2.520   7.306   6.286
12212TIP3   OH236578   2.776   7.163   6.299
12212TIP3    H136579   2.684   7.179   6.276
12212TIP3    H236580   2.825   7.228   6.250
12213TIP3   OH236581   2.979   7.334   6.199
12213TIP3    H136582   2.975   7.420   6.157
12213TIP3    H236583   3.008   7.275   6.129
12214TIP3   OH236584   1.775   6.991   6.316
12214TIP3    H136585   1.798   6.965   6.406
12214TIP3    H236586   1.848   6.961   6.263
12215TIP3   OH236587   1.981   6.879   6.180
12215TIP3    H136588   1.991   6.795   6.224
12215TIP3    H236589   2.068   6.920   6.185
12216TIP3   OH236590   2.247   6.963   6.206
12216TIP3    H136591   2.267   6.871   6.191
12216TIP3    H236592   2.302   6.988   6.281
12217TIP3   OH236593   2.806   5.609   6.291
12217TIP3    H136594   2.766   5.537   6.341
12217TIP3    H236595   2.874   5.567   6.239
12218TIP3   OH236596   3.307   5.527   6.182
12218TIP3    H136597   3.345   5.575   6.108
12218TIP3    H236598   3.214   5.550   6.179
12219TIP3   OH236599   3.422   5.604   5.944
12219TIP3    H136600   3.490   5.542   5.919
12219TIP3    H236601   3.461   5.691   5.931
12220TIP3   OH236602   2.041   5.311   6.294
12220TIP3    H136603   1.952   5.277   6.299
12220TIP3    H236604   2.096   5.234   6.284
12221TIP3   OH236605   1.876   5.231   5.956
12221TIP3    H136606   1.897   5.276   5.874
12221TIP3    H236607   1.841   5.300   6.013
12222TIP3   OH236608   2.523   5.353   6.186
12222TIP3    H136609   2.572   5.398   6.116
12222TIP3    H236610   2.566   5.379   6.267
12223TIP3   OH236611   3.020   5.489   6.162
12223TIP3    H136612   3.040   5.453   6.076
12223TIP3    H236613   3.027   5.415   6.222
12224TIP3   OH236614   3.078   5.445   5.728
12224TIP3    H136615   2.999   5.492   5.753
12224TIP3    H236616   3.069   5.359   5.767
12225TIP3   OH236617   1.538   6.794   5.737
12225TIP3    H136618   1.462   6.759   5.693
12225TIP3    H236619   1.550   6.881   5.699
12226TIP3   OH236620   1.975   5.351   5.708
12226TIP3    H136621   2.020   5.287   5.652
12226TIP3    H236622   2.045   5.406   5.742
12227TIP3   OH236623   2.460   5.547   5.804
12227TIP3    H136624   2.519   5.494   5.857
12227TIP3    H236625   2.476   5.637   5.833
12228TIP3   OH236626   2.344   6.941   5.302
12228TIP3    H136627   2.427   6.968   5.264
12228TIP3    H236628   2.313   6.870   5.245
12229TIP3   OH236629   3.045   7.083   5.402
12229TIP3    H136630   3.040   6.988   5.393
12229TIP3    H236631   3.003   7.117   5.323
12230TIP3   OH236632   7.930   1.600   0.235
12230TIP3    H136633   7.899   1.531   0.295
12230TIP3    H236634   8.023   1.610   0.255
12231TIP3   OH236635   8.185   1.597   0.346
12231TIP3    H136636   8.262   1.576   0.294
12231TIP3    H236637   8.180   1.527   0.411
12232TIP3   OH236638   1.617   6.787   5.314
12232TIP3    H136639   1.624   6.811   5.407
12232TIP3    H236640   1.698   6.738   5.296
12233TIP3   OH236641   0.511   1.681   0.142
12233TIP3    H136642   0.528   1.651   0.232
12233TIP3    H236643   0.596   1.676   0.099
12234TIP3   OH236644   3.263   7.221   6.588
12234TIP3    H136645   3.189   7.192   6.535
12234TIP3    H236646   3.250   7.316   6.597
12235TIP3   OH236647   4.541   6.615   5.325
12235TIP3    H136648   4.508   6.701   5.301
12235TIP3    H236649   4.471   6.554   5.302
12236TIP3   OH236650   4.537   6.603   5.754
12236TIP3    H136651   4.592   6.582   5.829
12236TIP3    H236652   4.494   6.521   5.732
12237TIP3   OH236653   3.833   6.462   6.100
12237TIP3    H136654   3.870   6.409   6.171
12237TIP3    H236655   3.908   6.485   6.046
12238TIP3   OH236656   4.804   6.916   5.420
12238TIP3    H136657   4.791   6.847   5.485
12238TIP3    H236658   4.825   6.994   5.472
12239TIP3   OH236659   3.822   6.895   5.791
12239TIP3    H136660   3.807   6.800   5.792
12239TIP3    H236661   3.917   6.904   5.780
12240TIP3   OH236662   3.510   6.096   5.567
12240TIP3    H136663   3.471   6.180   5.591
12240TIP3    H236664   3.438   6.047   5.528
12241TIP3   OH236665   3.586   6.403   5.791
12241TIP3    H136666   3.636   6.325   5.816
12241TIP3    H236667   3.653   6.465   5.759
12242TIP3   OH236668   4.457   7.345   5.438
12242TIP3    H136669   4.476   7.275   5.376
12242TIP3    H236670   4.460   7.303   5.524
12243TIP3   OH236671   4.340   6.823   5.758
12243TIP3    H136672   4.385   6.743   5.729
12243TIP3    H236673   4.411   6.881   5.785
12244TIP3   OH236674   5.380   6.144   5.771
12244TIP3    H136675   5.396   6.229   5.812
12244TIP3    H236676   5.404   6.157   5.679
12245TIP3   OH236677   4.753   6.312   5.790
12245TIP3    H136678   4.784   6.227   5.819
12245TIP3    H236679   4.715   6.296   5.704
12246TIP3   OH236680   4.101   5.975   5.756
12246TIP3    H136681   4.082   6.046   5.694
12246TIP3    H236682   4.050   5.901   5.725
12247TIP3   OH236683   4.805   6.073   5.385
12247TIP3    H136684   4.867   6.066   5.457
12247TIP3    H236685   4.857   6.105   5.312
12248TIP3   OH236686   3.728   6.183   5.877
12248TIP3    H136687   3.811   6.164   5.922
12248TIP3    H236688   3.733   6.132   5.797
12249TIP3   OH236689   4.147   6.386   5.699
12249TIP3    H136690   4.242   6.371   5.703
12249TIP3    H236691   4.112   6.304   5.665
12250TIP3   OH236692   5.435   6.367   5.934
12250TIP3    H136693   5.345   6.399   5.929
12250TIP3    H236694   5.468   6.400   6.018
12251TIP3   OH236695   4.081   5.988   6.212
12251TIP3    H136696   4.030   6.022   6.138
12251TIP3    H236697   4.025   6.003   6.288
12252TIP3   OH236698   4.414   6.826   5.203
12252TIP3    H136699   4.385   6.802   5.115
12252TIP3    H236700   4.361   6.902   5.226
12253TIP3   OH236701   4.186   6.746   5.974
12253TIP3    H136702   4.131   6.818   6.005
12253TIP3    H236703   4.233   6.783   5.900
12254TIP3   OH236704   4.959   6.097   5.609
12254TIP3    H136705   4.921   6.073   5.693
12254TIP3    H236706   5.016   6.171   5.629
12255TIP3   OH236707   3.971   6.082   5.976
12255TIP3    H136708   4.028   6.156   5.998
12255TIP3    H236709   4.018   6.036   5.905
12256TIP3   OH236710   4.026   6.951   6.074
12256TIP3    H136711   4.011   7.041   6.042
12256TIP3    H236712   3.948   6.931   6.125
12257TIP3   OH236713   3.402   6.654   5.328
12257TIP3    H136714   3.369   6.671   5.239
12257TIP3    H236715   3.425   6.741   5.361
12258TIP3   OH236716   4.841   7.163   5.565
12258TIP3    H136717   4.753   7.156   5.603
12258TIP3    H236718   4.841   7.247   5.520
12259TIP3   OH236719   5.174   6.044   5.941
12259TIP3    H136720   5.088   6.058   5.901
12259TIP3    H236721   5.237   6.067   5.873
12260TIP3   OH236722   4.530   7.172   5.235
12260TIP3    H136723   4.578   7.090   5.223
12260TIP3    H236724   4.589   7.240   5.202
12261TIP3   OH236725   4.710   6.976   5.165
12261TIP3    H136726   4.699   6.896   5.115
12261TIP3    H236727   4.746   6.948   5.249
12262TIP3   OH236728   5.079   7.043   5.909
12262TIP3    H136729   5.060   6.969   5.851
12262TIP3    H236730   5.065   7.120   5.855
12263TIP3   OH236731   4.366   6.450   5.180
12263TIP3    H136732   4.284   6.495   5.161
12263TIP3    H236733   4.413   6.447   5.097
12264TIP3   OH236734   4.335   6.255   4.868
12264TIP3    H136735   4.400   6.304   4.918
12264TIP3    H236736   4.385   6.188   4.823
12265TIP3   OH236737   5.261   6.710   5.776
12265TIP3    H136738   5.176   6.753   5.772
12265TIP3    H236739   5.298   6.721   5.688
12266TIP3   OH236740   4.724   6.536   5.139
12266TIP3    H136741   4.670   6.565   5.213
12266TIP3    H236742   4.807   6.509   5.179
12267TIP3   OH236743   4.954   6.569   6.082
12267TIP3    H136744   4.949   6.652   6.130
12267TIP3    H236745   4.872   6.563   6.033
12268TIP3   OH236746   3.951   6.519   5.546
12268TIP3    H136747   3.915   6.458   5.481
12268TIP3    H236748   4.023   6.471   5.587
12269TIP3   OH236749   4.085   6.943   5.689
12269TIP3    H136750   4.060   6.928   5.598
12269TIP3    H236751   4.171   6.903   5.698
12270TIP3   OH236752   4.047   6.513   5.924
12270TIP3    H136753   4.085   6.476   5.844
12270TIP3    H236754   4.098   6.593   5.940
12271TIP3   OH236755   4.602   7.156   5.697
12271TIP3    H136756   4.592   7.233   5.753
12271TIP3    H236757   4.589   7.082   5.755
12272TIP3   OH236758   4.223   7.051   6.242
12272TIP3    H136759   4.162   7.107   6.288
12272TIP3    H236760   4.168   6.998   6.183
12273TIP3   OH236761   4.554   6.399   4.973
12273TIP3    H136762   4.614   6.455   5.021
12273TIP3    H236763   4.582   6.405   4.882
12274TIP3   OH236764   3.976   6.611   6.387
12274TIP3    H136765   3.973   6.705   6.405
12274TIP3    H236766   3.884   6.586   6.378
12275TIP3   OH236767   4.276   7.069   5.236
12275TIP3    H136768   4.362   7.110   5.244
12275TIP3    H236769   4.226   7.128   5.179
12276TIP3   OH236770   4.012   7.209   6.327
12276TIP3    H136771   3.988   7.218   6.235
12276TIP3    H236772   3.929   7.194   6.373
12277TIP3   OH236773   5.063   5.623   5.031
12277TIP3    H136774   4.987   5.642   5.086
12277TIP3    H236775   5.073   5.701   4.976
12278TIP3   OH236776   3.828   6.361   5.345
12278TIP3    H136777   3.749   6.405   5.315
12278TIP3    H236778   3.800   6.270   5.361
12279TIP3   OH236779   4.897   7.014   4.599
12279TIP3    H136780   4.881   7.081   4.533
12279TIP3    H236781   4.984   6.979   4.577
12280TIP3   OH236782   3.607   6.768   6.274
12280TIP3    H136783   3.537   6.747   6.212
12280TIP3    H236784   3.641   6.683   6.302
12281TIP3   OH236785   3.479   6.941   5.915
12281TIP3    H136786   3.573   6.936   5.899
12281TIP3    H236787   3.468   7.018   5.971
12282TIP3   OH236788   5.313   7.408   5.975
12282TIP3    H136789   5.317   7.313   5.987
12282TIP3    H236790   5.231   7.435   6.017
12283TIP3   OH236791   4.412   7.194   6.102
12283TIP3    H136792   4.402   7.285   6.130
12283TIP3    H236793   4.345   7.146   6.151
12284TIP3   OH236794   4.191   7.292   5.057
12284TIP3    H136795   4.148   7.272   4.974
12284TIP3    H236796   4.151   7.375   5.085
12285TIP3   OH236797   3.626   7.149   5.437
12285TIP3    H136798   3.670   7.141   5.522
12285TIP3    H236799   3.577   7.068   5.427
12286TIP3   OH236800   4.390   7.225   4.680
12286TIP3    H136801   4.439   7.150   4.646
12286TIP3    H236802   4.425   7.239   4.767
12287TIP3   OH236803   4.444   7.260   4.949
12287TIP3    H136804   4.360   7.263   4.995
12287TIP3    H236805   4.505   7.223   5.013
12288TIP3   OH236806   5.196   6.520   6.237
12288TIP3    H136807   5.114   6.532   6.189
12288TIP3    H236808   5.214   6.426   6.231
12289TIP3   OH236809   3.806   6.955   6.242
12289TIP3    H136810   3.856   6.943   6.323
12289TIP3    H236811   3.735   6.891   6.249
12290TIP3   OH236812   4.160   5.759   6.082
12290TIP3    H136813   4.077   5.729   6.044
12290TIP3    H236814   4.138   5.841   6.125
12291TIP3   OH236815   4.744   5.909   6.280
12291TIP3    H136816   4.810   5.855   6.324
12291TIP3    H236817   4.661   5.864   6.296
12292TIP3   OH236818   4.958   6.306   6.178
12292TIP3    H136819   4.917   6.304   6.265
12292TIP3    H236820   4.940   6.395   6.146
12293TIP3   OH236821   4.634   6.392   4.712
12293TIP3    H136822   4.589   6.388   4.627
12293TIP3    H236823   4.717   6.435   4.693
12294TIP3   OH236824   4.342   5.802   5.032
12294TIP3    H136825   4.308   5.807   5.122
12294TIP3    H236826   4.306   5.720   4.998
12295TIP3   OH236827   4.128   6.290   6.068
12295TIP3    H136828   4.085   6.296   6.153
12295TIP3    H236829   4.105   6.371   6.023
12296TIP3   OH236830   4.007   6.173   5.588
12296TIP3    H136831   3.919   6.145   5.613
12296TIP3    H236832   4.019   6.138   5.499
12297TIP3   OH236833   4.490   6.246   5.317
12297TIP3    H136834   4.442   6.318   5.276
12297TIP3    H236835   4.547   6.212   5.248
12298TIP3   OH236836   4.673   6.513   6.385
12298TIP3    H136837   4.647   6.444   6.447
12298TIP3    H236838   4.767   6.524   6.400
12299TIP3   OH236839   4.663   6.262   5.536
12299TIP3    H136840   4.593   6.281   5.473
12299TIP3    H236841   4.709   6.187   5.498
12300TIP3   OH236842   3.961   6.299   6.290
12300TIP3    H136843   4.016   6.351   6.349
12300TIP3    H236844   3.942   6.220   6.339
12301TIP3   OH236845   4.008   5.781   5.002
12301TIP3    H136846   4.000   5.784   5.097
12301TIP3    H236847   3.929   5.826   4.970
12302TIP3   OH236848   3.555   5.826   5.868
12302TIP3    H136849   3.623   5.864   5.924
12302TIP3    H236850   3.599   5.806   5.786
12303TIP3   OH236851   3.462   5.803   5.373
12303TIP3    H136852   3.508   5.838   5.297
12303TIP3    H236853   3.399   5.871   5.397
12304TIP3   OH236854   4.703   6.512   5.965
12304TIP3    H136855   4.728   6.446   5.900
12304TIP3    H236856   4.659   6.463   6.034
12305TIP3   OH236857   4.378   5.972   5.645
12305TIP3    H136858   4.304   5.964   5.705
12305TIP3    H236859   4.455   5.956   5.700
12306TIP3   OH236860   3.771   6.043   5.646
12306TIP3    H136861   3.683   6.046   5.608
12306TIP3    H236862   3.801   5.953   5.631
12307TIP3   OH236863   4.023   6.047   5.343
12307TIP3    H136864   4.117   6.057   5.335
12307TIP3    H236865   3.989   6.064   5.256
12308TIP3   OH236866   4.826   6.052   5.853
12308TIP3    H136867   4.803   6.067   5.945
12308TIP3    H236868   4.759   5.990   5.823
12309TIP3   OH236869   3.910   6.073   5.094
12309TIP3    H136870   3.847   6.023   5.042
12309TIP3    H236871   3.965   6.118   5.030
12310TIP3   OH236872   5.021   7.752   6.055
12310TIP3    H136873   5.018   7.762   5.960
12310TIP3    H236874   5.100   7.798   6.082
12311TIP3   OH236875   3.957   6.876   6.477
12311TIP3    H136876   4.039   6.890   6.524
12311TIP3    H236877   3.889   6.879   6.544
12312TIP3   OH236878   4.421   6.337   5.742
12312TIP3    H136879   4.480   6.279   5.692
12312TIP3    H236880   4.417   6.297   5.829
12313TIP3   OH236881   3.915   5.795   5.637
12313TIP3    H136882   3.886   5.720   5.689
12313TIP3    H236883   3.949   5.757   5.556
12314TIP3   OH236884   4.394   6.242   6.001
12314TIP3    H136885   4.306   6.261   6.033
12314TIP3    H236886   4.453   6.284   6.063
12315TIP3   OH236887   4.128   6.587   5.122
12315TIP3    H136888   4.054   6.531   5.099
12315TIP3    H236889   4.103   6.627   5.205
12316TIP3   OH236890   5.024   6.844   5.727
12316TIP3    H136891   5.059   6.892   5.652
12316TIP3    H236892   4.944   6.802   5.693
12317TIP3   OH236893   4.594   5.906   5.024
12317TIP3    H136894   4.501   5.883   5.026
12317TIP3    H236895   4.596   6.000   5.040
12318TIP3   OH236896   4.541   6.928   6.136
12318TIP3    H136897   4.591   6.914   6.216
12318TIP3    H236898   4.501   7.014   6.147
12319TIP3   OH236899   4.653   6.168   5.101
12319TIP3    H136900   4.748   6.171   5.111
12319TIP3    H236901   4.632   6.246   5.049
12320TIP3   OH236902   3.822   6.610   5.774
12320TIP3    H136903   3.859   6.588   5.689
12320TIP3    H236904   3.885   6.577   5.837
12321TIP3   OH236905   4.282   6.748   4.965
12321TIP3    H136906   4.234   6.830   4.963
12321TIP3    H236907   4.227   6.690   5.018
12322TIP3   OH236908   3.701   6.543   6.412
12322TIP3    H136909   3.712   6.516   6.504
12322TIP3    H236910   3.629   6.488   6.380
12323TIP3   OH236911   4.450   6.674   6.417
12323TIP3    H136912   4.390   6.636   6.354
12323TIP3    H236913   4.534   6.630   6.400
12324TIP3   OH236914   4.681   7.216   6.020
12324TIP3    H136915   4.587   7.199   6.025
12324TIP3    H236916   4.704   7.251   6.106
12325TIP3   OH236917   5.069   6.256   4.916
12325TIP3    H136918   5.012   6.211   4.854
12325TIP3    H236919   5.076   6.345   4.881
12326TIP3   OH236920   5.324   7.131   5.999
12326TIP3    H136921   5.230   7.113   5.996
12326TIP3    H236922   5.357   7.099   5.915
12327TIP3   OH236923   4.856   7.134   4.871
12327TIP3    H136924   4.813   7.068   4.926
12327TIP3    H236925   4.865   7.092   4.785
12328TIP3   OH236926   4.792   6.709   5.625
12328TIP3    H136927   4.702   6.686   5.648
12328TIP3    H236928   4.829   6.628   5.589
12329TIP3   OH236929   3.946   6.944   5.443
12329TIP3    H136930   3.947   7.020   5.385
12329TIP3    H236931   3.853   6.926   5.458
12330TIP3   OH236932   3.506   6.228   5.153
12330TIP3    H136933   3.549   6.310   5.175
12330TIP3    H236934   3.425   6.229   5.205
12331TIP3   OH236935   4.031   6.698   5.348
12331TIP3    H136936   4.018   6.788   5.379
12331TIP3    H236937   4.006   6.643   5.422
12332TIP3   OH236938   4.227   7.266   5.896
12332TIP3    H136939   4.264   7.339   5.846
12332TIP3    H236940   4.302   7.231   5.945
12333TIP3   OH236941   3.860   7.167   5.291
12333TIP3    H136942   3.773   7.173   5.331
12333TIP3    H236943   3.894   7.257   5.296
12334TIP3   OH236944   4.578   6.930   5.862
12334TIP3    H136945   4.567   6.925   5.957
12334TIP3    H236946   4.647   6.866   5.842
12335TIP3   OH236947   4.574   6.808   4.748
12335TIP3    H136948   4.617   6.791   4.831
12335TIP3    H236949   4.489   6.763   4.755
12336TIP3   OH236950   4.840   7.422   5.906
12336TIP3    H136951   4.770   7.361   5.925
12336TIP3    H236952   4.805   7.478   5.837
12337TIP3   OH236953   3.910   6.052   6.419
12337TIP3    H136954   3.815   6.058   6.422
12337TIP3    H236955   3.932   5.987   6.485
12338TIP3   OH236956   4.739   6.752   4.968
12338TIP3    H136957   4.726   6.677   5.026
12338TIP3    H236958   4.832   6.751   4.947
12339TIP3   OH236959   3.649   7.155   6.064
12339TIP3    H136960   3.702   7.091   6.113
12339TIP3    H236961   3.668   7.239   6.107
12340TIP3   OH236962   3.923   6.772   4.753
12340TIP3    H136963   3.934   6.681   4.725
12340TIP3    H236964   3.909   6.767   4.847
12341TIP3   OH236965   3.867   6.790   5.025
12341TIP3    H136966   3.934   6.763   5.088
12341TIP3    H236967   3.867   6.886   5.030
12342TIP3   OH236968   3.600   6.478   5.235
12342TIP3    H136969   3.535   6.526   5.287
12342TIP3    H236970   3.620   6.537   5.162
12343TIP3   OH236971   4.760   6.123   6.113
12343TIP3    H136972   4.842   6.165   6.141
12343TIP3    H236973   4.751   6.047   6.170
12344TIP3   OH236974   4.655   5.856   5.294
12344TIP3    H136975   4.636   5.874   5.202
12344TIP3    H236976   4.699   5.935   5.325
12345TIP3   OH236977   4.137   6.976   4.961
12345TIP3    H136978   4.053   7.001   4.999
12345TIP3    H236979   4.159   7.049   4.902
12346TIP3   OH236980   4.301   6.058   5.393
12346TIP3    H136981   4.364   6.124   5.366
12346TIP3    H236982   4.325   6.037   5.483
12347TIP3   OH236983   4.597   6.349   6.160
12347TIP3    H136984   4.622   6.388   6.244
12347TIP3    H236985   4.646   6.268   6.155
12348TIP3   OH236986   4.471   5.757   5.477
12348TIP3    H136987   4.453   5.832   5.533
12348TIP3    H236988   4.541   5.786   5.418
12349TIP3   OH236989   3.888   7.064   5.039
12349TIP3    H136990   3.867   7.135   4.979
12349TIP3    H236991   3.877   7.101   5.126
12350TIP3   OH236992   3.983   5.773   5.280
12350TIP3    H136993   3.971   5.863   5.311
12350TIP3    H236994   4.077   5.758   5.288
12351TIP3   OH236995   5.219   6.243   6.149
12351TIP3    H136996   5.125   6.255   6.165
12351TIP3    H236997   5.224   6.180   6.078
12352TIP3   OH236998   4.884   6.451   5.540
12352TIP3    H136999   4.808   6.394   5.550
12352TIP3    H237000   4.951   6.410   5.595
12353TIP3   OH237001   3.623   6.656   5.019
12353TIP3    H137002   3.694   6.720   5.028
12353TIP3    H237003   3.654   6.593   4.954
12354TIP3   OH237004   3.530   5.950   5.152
12354TIP3    H137005   3.543   6.044   5.159
12354TIP3    H237006   3.475   5.939   5.074
12355TIP3   OH237007   4.862   7.430   5.479
12355TIP3    H137008   4.817   7.473   5.406
12355TIP3    H237009   4.953   7.457   5.470
12356TIP3   OH237010   3.902   5.671   6.025
12356TIP3    H137011   3.883   5.637   5.937
12356TIP3    H237012   3.906   5.593   6.080
12357TIP3   OH237013   3.451   6.927   5.408
12357TIP3    H137014   3.405   6.961   5.484
12357TIP3    H237015   3.409   6.969   5.333
12358TIP3   OH237016   3.657   7.463   6.479
12358TIP3    H137017   3.738   7.469   6.529
12358TIP3    H237018   3.644   7.369   6.466
12359TIP3   OH237019   4.117   7.375   6.520
12359TIP3    H137020   4.209   7.351   6.530
12359TIP3    H237021   4.085   7.320   6.449
12360TIP3   OH237022   4.076   6.974   4.643
12360TIP3    H137023   4.029   6.903   4.687
12360TIP3    H237024   4.151   6.931   4.601
12361TIP3   OH237025   4.736   7.312   6.270
12361TIP3    H137026   4.752   7.240   6.331
12361TIP3    H237027   4.812   7.370   6.281
12362TIP3   OH237028   4.518   7.010   4.568
12362TIP3    H137029   4.552   6.945   4.629
12362TIP3    H237030   4.572   7.001   4.490
12363TIP3   OH237031   3.754   6.863   6.667
12363TIP3    H137032   3.776   6.770   6.677
12363TIP3    H237033   3.667   6.863   6.627
12364TIP3   OH237034   3.745   6.467   4.866
12364TIP3    H137035   3.797   6.442   4.943
12364TIP3    H237036   3.810   6.480   4.797
12365TIP3   OH237037   4.378   6.944   6.444
12365TIP3    H137038   4.333   6.963   6.362
12365TIP3    H237039   4.415   6.856   6.431
12366TIP3   OH237040   4.317   6.688   4.700
12366TIP3    H137041   4.294   6.699   4.792
12366TIP3    H237042   4.300   6.596   4.682
12367TIP3   OH237043   4.855   6.995   6.066
12367TIP3    H137044   4.932   7.020   6.015
12367TIP3    H237045   4.788   7.060   6.043
12368TIP3   OH237046   3.870   6.610   6.670
12368TIP3    H137047   3.945   6.589   6.615
12368TIP3    H237048   3.908   6.624   6.757
12369TIP3   OH237049   3.920   6.408   5.077
12369TIP3    H137050   3.901   6.378   5.166
12369TIP3    H237051   3.968   6.337   5.037
12370TIP3   OH237052   4.199   6.463   6.325
12370TIP3    H137053   4.130   6.525   6.346
12370TIP3    H237054   4.249   6.505   6.255
12371TIP3   OH237055   4.062   6.225   4.922
12371TIP3    H137056   4.032   6.228   4.831
12371TIP3    H237057   4.157   6.232   4.917
12372TIP3   OH237058   4.738   6.857   6.412
12372TIP3    H137059   4.808   6.819   6.358
12372TIP3    H237060   4.731   6.796   6.486
12373TIP3   OH237061   4.856   6.516   4.602
12373TIP3    H137062   4.843   6.476   4.517
12373TIP3    H237063   4.834   6.608   4.589
12374TIP3   OH237064   4.337   6.256   6.440
12374TIP3    H137065   4.343   6.183   6.379
12374TIP3    H237066   4.293   6.325   6.391
12375TIP3   OH237067   4.345   6.059   6.239
12375TIP3    H137068   4.376   6.079   6.150
12375TIP3    H237069   4.255   6.031   6.228
12376TIP3   OH237070   4.350   6.602   6.146
12376TIP3    H137071   4.437   6.601   6.106
12376TIP3    H237072   4.296   6.655   6.086
12377TIP3   OH237073   4.943   6.540   6.475
12377TIP3    H137074   4.956   6.445   6.473
12377TIP3    H237075   5.030   6.577   6.465
12378TIP3   OH237076   4.974   6.811   6.225
12378TIP3    H137077   4.922   6.875   6.177
12378TIP3    H237078   5.063   6.823   6.193
12379TIP3   OH237079   4.222   6.341   6.683
12379TIP3    H137080   4.153   6.276   6.703
12379TIP3    H237081   4.252   6.317   6.595
12380TIP3   OH237082   4.473   5.824   6.337
12380TIP3    H137083   4.432   5.903   6.300
12380TIP3    H237084   4.412   5.753   6.316
12381TIP3   OH237085   4.593   6.301   6.540
12381TIP3    H137086   4.583   6.286   6.634
12381TIP3    H237087   4.507   6.278   6.503
12382TIP3   OH237088   4.848   6.275   6.423
12382TIP3    H137089   4.767   6.259   6.470
12382TIP3    H237090   4.915   6.228   6.473
12383TIP3   OH237091   5.083   6.209   6.555
12383TIP3    H137092   5.094   6.114   6.563
12383TIP3    H237093   5.074   6.239   6.645
12384TIP3   OH237094   4.052   6.125   6.748
12384TIP3    H137095   4.059   6.039   6.708
12384TIP3    H237096   4.092   6.114   6.835
12385TIP3   OH237097   4.534   5.804   6.602
12385TIP3    H137098   4.603   5.737   6.596
12385TIP3    H237099   4.506   5.817   6.512
12386TIP3   OH237100   4.628   6.017   6.749
12386TIP3    H137101   4.599   5.946   6.692
12386TIP3    H237102   4.555   6.079   6.748
12387TIP3   OH237103   3.884   7.277   4.859
12387TIP3    H137104   3.973   7.254   4.830
12387TIP3    H237105   3.844   7.320   4.784
12388TIP3   OH237106   3.349   6.651   5.039
12388TIP3    H137107   3.444   6.663   5.033
12388TIP3    H237108   3.333   6.566   4.998
12389TIP3   OH237109   3.251   7.238   5.498
12389TIP3    H137110   3.187   7.184   5.452
12389TIP3    H237111   3.296   7.177   5.556
12390TIP3   OH237112   3.395   7.071   5.666
12390TIP3    H137113   3.386   7.001   5.731
12390TIP3    H237114   3.445   7.139   5.710
12391TIP3   OH237115   5.116   7.529   5.467
12391TIP3    H137116   5.155   7.523   5.555
12391TIP3    H237117   5.191   7.536   5.408
12392TIP3   OH237118   5.162   7.498   5.746
12392TIP3    H137119   5.115   7.414   5.741
12392TIP3    H237120   5.235   7.481   5.805
12393TIP3   OH237121   5.207   7.209   6.318
12393TIP3    H137122   5.133   7.217   6.379
12393TIP3    H237123   5.253   7.292   6.325
12394TIP3   OH237124   5.016   6.721   4.936
12394TIP3    H137125   5.076   6.786   4.900
12394TIP3    H237126   5.064   6.681   5.009
12395TIP3   OH237127   5.149   6.579   5.134
12395TIP3    H137128   5.082   6.537   5.189
12395TIP3    H237129   5.214   6.611   5.196
12396TIP3   OH237130   5.208   6.981   5.562
12396TIP3    H137131   5.260   6.909   5.527
12396TIP3    H237132   5.218   7.051   5.497
12397TIP3   OH237133   5.014   7.264   5.759
12397TIP3    H137134   4.947   7.311   5.809
12397TIP3    H237135   4.965   7.224   5.686
12398TIP3   OH237136   5.065   6.497   4.780
12398TIP3    H137137   4.995   6.495   4.715
12398TIP3    H237138   5.046   6.573   4.834
12399TIP3   OH237139   4.915   6.145   4.720
12399TIP3    H137140   4.870   6.180   4.644
12399TIP3    H237141   4.907   6.050   4.710
12400TIP3   OH237142   4.950   6.437   5.270
12400TIP3    H137143   4.956   6.342   5.257
12400TIP3    H237144   4.932   6.447   5.364
12401TIP3   OH237145   3.571   6.505   6.045
12401TIP3    H137146   3.561   6.470   5.957
12401TIP3    H237147   3.665   6.499   6.063
12402TIP3   OH237148   5.230   6.853   6.126
12402TIP3    H137149   5.297   6.787   6.112
12402TIP3    H237150   5.237   6.910   6.050
12403TIP3   OH237151   5.411   6.646   6.123
12403TIP3    H137152   5.336   6.602   6.163
12403TIP3    H237153   5.486   6.591   6.144
12404TIP3   OH237154   4.879   5.873   4.691
12404TIP3    H137155   4.943   5.847   4.757
12404TIP3    H237156   4.796   5.834   4.721
12405TIP3   OH237157   4.946   6.161   5.156
12405TIP3    H137158   4.991   6.078   5.168
12405TIP3    H237159   4.988   6.200   5.079
12406TIP3   OH237160   5.100   6.328   5.679
12406TIP3    H137161   5.181   6.344   5.631
12406TIP3    H237162   5.114   6.367   5.766
12407TIP3   OH237163   5.175   6.479   5.906
12407TIP3    H137164   5.101   6.507   5.959
12407TIP3    H237165   5.206   6.560   5.864
12408TIP3   OH237166   3.787   6.180   6.690
12408TIP3    H137167   3.882   6.176   6.703
12408TIP3    H237168   3.754   6.098   6.726
12409TIP3   OH237169   5.629   6.081   6.439
12409TIP3    H137170   5.695   6.022   6.401
12409TIP3    H237171   5.592   6.127   6.364
12410TIP3   OH237172   5.060   5.911   5.209
12410TIP3    H137173   5.104   5.896   5.293
12410TIP3    H237174   4.996   5.839   5.203
12411TIP3   OH237175   3.756   5.903   6.048
12411TIP3    H137176   3.804   5.820   6.050
12411TIP3    H237177   3.823   5.969   6.027
12412TIP3   OH237178   3.545   6.165   6.093
12412TIP3    H137179   3.595   6.152   6.013
12412TIP3    H237180   3.587   6.239   6.136
12413TIP3   OH237181   5.483   6.190   6.238
12413TIP3    H137182   5.400   6.228   6.265
12413TIP3    H237183   5.458   6.113   6.186
12414TIP3   OH237184   5.105   5.827   4.849
12414TIP3    H137185   5.153   5.766   4.793
12414TIP3    H237186   5.160   5.905   4.853
12415TIP3   OH237187   3.534   5.666   5.599
12415TIP3    H137188   3.448   5.656   5.641
12415TIP3    H237189   3.517   5.722   5.523
12416TIP3   OH237190   4.699   7.344   5.121
12416TIP3    H137191   4.778   7.305   5.082
12416TIP3    H237192   4.731   7.421   5.168
12417TIP3   OH237193   3.768   5.751   6.436
12417TIP3    H137194   3.712   5.728   6.509
12417TIP3    H237195   3.708   5.787   6.370
12418TIP3   OH237196   3.785   7.186   6.491
12418TIP3    H137197   3.693   7.162   6.484
12418TIP3    H237198   3.806   7.172   6.583
12419TIP3   OH237199   3.999   7.229   6.045
12419TIP3    H137200   3.948   7.303   6.013
12419TIP3    H237201   4.084   7.237   6.001
12420TIP3   OH237202   4.393   7.460   6.179
12420TIP3    H137203   4.433   7.451   6.266
12420TIP3    H237204   4.456   7.514   6.130
12421TIP3   OH237205   4.583   7.612   6.048
12421TIP3    H137206   4.638   7.556   5.994
12421TIP3    H237207   4.644   7.667   6.096
12422TIP3   OH237208   5.394   5.938   6.141
12422TIP3    H137209   5.305   5.929   6.107
12422TIP3    H237210   5.431   5.850   6.136
12423TIP3   OH237211   3.661   7.473   6.090
12423TIP3    H137212   3.570   7.493   6.069
12423TIP3    H237213   3.685   7.538   6.157
12424TIP3   OH237214   3.891   7.460   5.940
12424TIP3    H137215   3.808   7.465   5.987
12424TIP3    H237216   3.869   7.481   5.850
12425TIP3   OH237217   4.306   7.476   5.731
12425TIP3    H137218   4.234   7.485   5.669
12425TIP3    H237219   4.314   7.562   5.771
12426TIP3   OH237220   4.570   7.419   5.790
12426TIP3    H137221   4.479   7.436   5.766
12426TIP3    H237222   4.620   7.483   5.739
12427TIP3   OH237223   4.770   7.586   5.686
12427TIP3    H137224   4.768   7.674   5.648
12427TIP3    H237225   4.802   7.530   5.615
12428TIP3   OH237226   3.569   7.248   5.815
12428TIP3    H137227   3.596   7.222   5.903
12428TIP3    H237228   3.639   7.216   5.758
12429TIP3   OH237229   3.772   7.137   5.672
12429TIP3    H137230   3.784   7.051   5.714
12429TIP3    H237231   3.859   7.176   5.673
12430TIP3   OH237232   4.042   7.220   5.692
12430TIP3    H137233   4.060   7.127   5.676
12430TIP3    H237234   4.096   7.242   5.768
12431TIP3   OH237235   4.621   5.882   5.757
12431TIP3    H137236   4.602   5.816   5.824
12431TIP3    H237237   4.685   5.839   5.699
12432TIP3   OH237238   5.100   5.786   5.680
12432TIP3    H137239   5.122   5.839   5.603
12432TIP3    H237240   5.004   5.779   5.676
12433TIP3   OH237241   5.215   5.858   5.433
12433TIP3    H137242   5.285   5.798   5.408
12433TIP3    H237243   5.252   5.945   5.422
12434TIP3   OH237244   3.839   5.567   5.776
12434TIP3    H137245   3.750   5.531   5.786
12434TIP3    H237246   3.895   5.489   5.771
12435TIP3   OH237247   3.648   5.471   5.425
12435TIP3    H137248   3.682   5.522   5.351
12435TIP3    H237249   3.618   5.537   5.487
12436TIP3   OH237250   4.349   5.600   5.687
12436TIP3    H137251   4.392   5.651   5.618
12436TIP3    H237252   4.408   5.608   5.762
12437TIP3   OH237253   4.825   5.705   5.678
12437TIP3    H137254   4.838   5.631   5.618
12437TIP3    H237255   4.779   5.667   5.752
12438TIP3   OH237256   4.874   5.699   5.218
12438TIP3    H137257   4.796   5.747   5.244
12438TIP3    H237258   4.863   5.612   5.256
12439TIP3   OH237259   3.333   7.048   5.191
12439TIP3    H137260   3.250   7.016   5.156
12439TIP3    H237261   3.339   7.139   5.160
12440TIP3   OH237262   3.771   5.605   5.193
12440TIP3    H137263   3.816   5.543   5.136
12440TIP3    H237264   3.840   5.661   5.229
12441TIP3   OH237265   4.258   5.804   5.297
12441TIP3    H137266   4.318   5.754   5.352
12441TIP3    H237267   4.271   5.895   5.325
12442TIP3   OH237268   4.137   7.198   4.786
12442TIP3    H137269   4.220   7.226   4.747
12442TIP3    H237270   4.106   7.128   4.730
12443TIP3   OH237271   4.069   5.856   6.659
12443TIP3    H137272   4.035   5.789   6.718
12443TIP3    H237273   4.162   5.863   6.681
12444TIP3   OH237274   4.319   5.859   6.779
12444TIP3    H137275   4.394   5.837   6.724
12444TIP3    H237276   4.314   5.789   6.843
12445TIP3   OH237277   3.450   7.041   4.844
12445TIP3    H137278   3.453   7.049   4.940
12445TIP3    H237279   3.530   6.994   4.822
12446TIP3   OH237280   5.141   5.941   6.563
12446TIP3    H137281   5.156   5.912   6.653
12446TIP3    H237282   5.227   5.936   6.521
12447TIP3   OH237283   5.062   7.478   6.065
12447TIP3    H137284   4.988   7.447   6.013
12447TIP3    H237285   5.050   7.573   6.071
12448TIP3   OH237286   6.296   6.872   5.339
12448TIP3    H137287   6.384   6.847   5.369
12448TIP3    H237288   6.303   6.872   5.244
12449TIP3   OH237289   5.637   6.725   5.580
12449TIP3    H137290   5.674   6.671   5.651
12449TIP3    H237291   5.713   6.750   5.527
12450TIP3   OH237292   5.589   7.159   5.287
12450TIP3    H137293   5.582   7.064   5.286
12450TIP3    H237294   5.683   7.176   5.280
12451TIP3   OH237295   5.303   6.350   5.058
12451TIP3    H137296   5.265   6.436   5.079
12451TIP3    H237297   5.232   6.302   5.015
12452TIP3   OH237298   5.378   6.652   5.278
12452TIP3    H137299   5.428   6.575   5.305
12452TIP3    H237300   5.440   6.704   5.227
12453TIP3   OH237301   6.246   7.625   4.910
12453TIP3    H137302   6.294   7.555   4.865
12453TIP3    H237303   6.272   7.617   5.002
12454TIP3   OH237304   7.173   6.400   5.255
12454TIP3    H137305   7.182   6.490   5.287
12454TIP3    H237306   7.203   6.403   5.164
12455TIP3   OH237307   6.527   6.558   5.279
12455TIP3    H137308   6.568   6.474   5.300
12455TIP3    H237309   6.498   6.548   5.188
12456TIP3   OH237310   5.901   6.228   5.235
12456TIP3    H137311   5.882   6.301   5.176
12456TIP3    H237312   5.846   6.157   5.203
12457TIP3   OH237313   6.602   6.325   4.878
12457TIP3    H137314   6.669   6.318   4.946
12457TIP3    H237315   6.648   6.363   4.803
12458TIP3   OH237316   5.527   6.437   5.367
12458TIP3    H137317   5.611   6.421   5.409
12458TIP3    H237318   5.530   6.387   5.286
12459TIP3   OH237319   5.938   6.630   5.190
12459TIP3    H137320   6.031   6.606   5.198
12459TIP3    H237321   5.897   6.555   5.148
12460TIP3   OH237322   7.223   6.629   5.421
12460TIP3    H137323   7.133   6.660   5.412
12460TIP3    H237324   7.247   6.653   5.511
12461TIP3   OH237325   5.881   6.230   5.689
12461TIP3    H137326   5.833   6.265   5.614
12461TIP3    H237327   5.825   6.248   5.764
12462TIP3   OH237328   6.241   7.122   4.615
12462TIP3    H137329   6.199   7.076   4.543
12462TIP3    H237330   6.175   7.124   4.684
12463TIP3   OH237331   5.983   7.028   5.462
12463TIP3    H137332   5.918   7.092   5.491
12463TIP3    H237333   6.062   7.079   5.444
12464TIP3   OH237334   6.766   6.341   5.097
12464TIP3    H137335   6.721   6.322   5.179
12464TIP3    H237336   6.821   6.417   5.116
12465TIP3   OH237337   5.776   6.338   5.457
12465TIP3    H137338   5.830   6.414   5.479
12465TIP3    H237339   5.820   6.296   5.384
12466TIP3   OH237340   5.811   7.224   5.557
12466TIP3    H137341   5.794   7.314   5.528
12466TIP3    H237342   5.736   7.201   5.611
12467TIP3   OH237343   5.189   6.896   4.807
12467TIP3    H137344   5.159   6.908   4.717
12467TIP3    H237345   5.213   6.984   4.835
12468TIP3   OH237346   6.648   7.421   5.099
12468TIP3    H137347   6.603   7.346   5.061
12468TIP3    H237348   6.631   7.493   5.038
12469TIP3   OH237349   6.969   6.295   5.422
12469TIP3    H137350   6.884   6.313   5.381
12469TIP3    H237351   7.033   6.320   5.356
12470TIP3   OH237352   6.226   5.922   5.421
12470TIP3    H137353   6.216   5.830   5.444
12470TIP3    H237354   6.148   5.964   5.460
12471TIP3   OH237355   6.376   7.438   4.755
12471TIP3    H137356   6.427   7.361   4.727
12471TIP3    H237357   6.417   7.511   4.709
12472TIP3   OH237358   6.494   7.208   4.674
12472TIP3    H137359   6.415   7.170   4.635
12472TIP3    H237360   6.506   7.161   4.756
12473TIP3   OH237361   6.851   7.310   5.410
12473TIP3    H137362   6.840   7.238   5.348
12473TIP3    H237363   6.839   7.389   5.358
12474TIP3   OH237364   6.154   6.679   4.628
12474TIP3    H137365   6.079   6.709   4.577
12474TIP3    H237366   6.224   6.667   4.563
12475TIP3   OH237367   7.056   6.956   5.249
12475TIP3    H137368   6.974   7.006   5.258
12475TIP3    H237369   7.085   6.973   5.160
12476TIP3   OH237370   6.515   6.846   4.635
12476TIP3    H137371   6.469   6.883   4.710
12476TIP3    H237372   6.590   6.800   4.673
12477TIP3   OH237373   6.763   6.811   5.566
12477TIP3    H137374   6.758   6.897   5.607
12477TIP3    H237375   6.680   6.802   5.519
12478TIP3   OH237376   5.754   6.788   5.048
12478TIP3    H137377   5.702   6.730   4.993
12478TIP3    H237378   5.823   6.732   5.084
12479TIP3   OH237379   5.851   7.192   5.173
12479TIP3    H137380   5.817   7.187   5.083
12479TIP3    H237381   5.913   7.120   5.180
12480TIP3   OH237382   5.853   6.780   5.409
12480TIP3    H137383   5.889   6.738   5.331
12480TIP3    H237384   5.905   6.860   5.419
12481TIP3   OH237385   6.313   7.357   5.128
12481TIP3    H137386   6.328   7.448   5.155
12481TIP3    H237387   6.346   7.305   5.201
12482TIP3   OH237388   6.007   7.309   5.732
12482TIP3    H137389   5.948   7.369   5.777
12482TIP3    H237390   5.951   7.262   5.671
12483TIP3   OH237391   6.383   6.653   4.471
12483TIP3    H137392   6.430   6.729   4.506
12483TIP3    H237393   6.395   6.659   4.376
12484TIP3   OH237394   5.781   6.855   5.863
12484TIP3    H137395   5.786   6.947   5.885
12484TIP3    H237396   5.687   6.836   5.856
12485TIP3   OH237397   6.149   7.311   4.843
12485TIP3    H137398   6.204   7.360   4.783
12485TIP3    H237399   6.060   7.331   4.817
12486TIP3   OH237400   5.800   7.473   5.811
12486TIP3    H137401   5.769   7.489   5.722
12486TIP3    H237402   5.720   7.454   5.861
12487TIP3   OH237403   6.860   5.883   4.520
12487TIP3    H137404   6.784   5.906   4.573
12487TIP3    H237405   6.874   5.959   4.463
12488TIP3   OH237406   5.596   6.629   4.889
12488TIP3    H137407   5.533   6.670   4.830
12488TIP3    H237408   5.597   6.537   4.863
12489TIP3   OH237409   6.675   7.247   4.072
12489TIP3    H137410   6.669   7.340   4.047
12489TIP3    H237411   6.764   7.222   4.049
12490TIP3   OH237412   5.403   7.020   5.764
12490TIP3    H137413   5.336   7.003   5.698
12490TIP3    H237414   5.439   6.934   5.784
12491TIP3   OH237415   5.305   7.193   5.389
12491TIP3    H137416   5.392   7.176   5.351
12491TIP3    H237417   5.320   7.263   5.453
12492TIP3   OH237418   6.194   7.446   5.586
12492TIP3    H137419   6.196   7.537   5.615
12492TIP3    H237420   6.129   7.404   5.642
12493TIP3   OH237421   5.997   7.571   4.538
12493TIP3    H137422   5.947   7.549   4.460
12493TIP3    H237423   5.955   7.650   4.573
12494TIP3   OH237424   5.393   7.415   4.949
12494TIP3    H137425   5.467   7.417   5.010
12494TIP3    H237426   5.318   7.391   5.003
12495TIP3   OH237427   6.188   7.476   4.168
12495TIP3    H137428   6.231   7.399   4.131
12495TIP3    H237429   6.223   7.483   4.256
12496TIP3   OH237430   6.245   7.511   4.437
12496TIP3    H137431   6.162   7.521   4.484
12496TIP3    H237432   6.305   7.477   4.503
12497TIP3   OH237433   7.006   6.765   5.714
12497TIP3    H137434   6.925   6.781   5.665
12497TIP3    H237435   7.023   6.672   5.702
12498TIP3   OH237436   5.602   7.209   5.735
12498TIP3    H137437   5.653   7.195   5.815
12498TIP3    H237438   5.531   7.145   5.741
12499TIP3   OH237439   5.988   6.013   5.548
12499TIP3    H137440   5.905   5.980   5.514
12499TIP3    H237441   5.965   6.094   5.592
12500TIP3   OH237442   6.530   6.137   5.747
12500TIP3    H137443   6.599   6.106   5.806
12500TIP3    H237444   6.449   6.116   5.794
12501TIP3   OH237445   6.758   6.549   5.667
12501TIP3    H137446   6.719   6.560   5.753
12501TIP3    H237447   6.749   6.635   5.626
12502TIP3   OH237448   6.429   6.630   4.197
12502TIP3    H137449   6.377   6.626   4.117
12502TIP3    H237450   6.507   6.680   4.172
12503TIP3   OH237451   6.125   6.053   4.498
12503TIP3    H137452   6.095   6.065   4.589
12503TIP3    H237453   6.086   5.969   4.472
12504TIP3   OH237454   5.927   6.550   5.552
12504TIP3    H137455   5.879   6.558   5.635
12504TIP3    H237456   5.911   6.634   5.508
12505TIP3   OH237457   5.803   6.422   5.067
12505TIP3    H137458   5.713   6.398   5.090
12505TIP3    H237459   5.813   6.395   4.976
12506TIP3   OH237460   6.277   6.510   4.808
12506TIP3    H137461   6.229   6.577   4.759
12506TIP3    H237462   6.341   6.477   4.745
12507TIP3   OH237463   6.490   6.820   5.957
12507TIP3    H137464   6.450   6.735   5.976
12507TIP3    H237465   6.584   6.802   5.953
12508TIP3   OH237466   6.454   6.512   5.021
12508TIP3    H137467   6.382   6.533   4.961
12508TIP3    H237468   6.499   6.438   4.979
12509TIP3   OH237469   5.765   6.565   5.775
12509TIP3    H137470   5.777   6.628   5.845
12509TIP3    H237471   5.746   6.482   5.819
12510TIP3   OH237472   5.793   6.027   4.486
12510TIP3    H137473   5.787   6.038   4.581
12510TIP3    H237474   5.719   6.078   4.452
12511TIP3   OH237475   5.351   6.079   5.359
12511TIP3    H137476   5.423   6.116   5.410
12511TIP3    H237477   5.389   6.062   5.273
12512TIP3   OH237478   5.259   6.059   4.861
12512TIP3    H137479   5.305   6.095   4.785
12512TIP3    H237480   5.195   6.127   4.884
12513TIP3   OH237481   6.515   6.753   5.466
12513TIP3    H137482   6.524   6.690   5.394
12513TIP3    H237483   6.465   6.706   5.533
12514TIP3   OH237484   6.169   6.206   5.122
12514TIP3    H137485   6.091   6.215   5.176
12514TIP3    H237486   6.242   6.214   5.184
12515TIP3   OH237487   5.564   6.300   5.134
12515TIP3    H137488   5.476   6.305   5.097
12515TIP3    H237489   5.593   6.210   5.117
12516TIP3   OH237490   5.821   6.315   4.810
12516TIP3    H137491   5.916   6.323   4.811
12516TIP3    H237492   5.796   6.342   4.721
12517TIP3   OH237493   6.624   6.305   5.336
12517TIP3    H137494   6.605   6.322   5.428
12517TIP3    H237495   6.555   6.245   5.308
12518TIP3   OH237496   5.726   6.367   4.547
12518TIP3    H137497   5.655   6.311   4.516
12518TIP3    H237498   5.781   6.382   4.470
12519TIP3   OH237499   5.765   7.119   5.965
12519TIP3    H137500   5.843   7.141   6.015
12519TIP3    H237501   5.694   7.122   6.030
12520TIP3   OH237502   6.192   6.529   5.231
12520TIP3    H137503   6.278   6.523   5.191
12520TIP3    H237504   6.205   6.503   5.322
12521TIP3   OH237505   5.710   6.054   5.117
12521TIP3    H137506   5.683   5.978   5.168
12521TIP3    H237507   5.734   6.018   5.031
12522TIP3   OH237508   6.191   6.477   5.508
12522TIP3    H137509   6.104   6.515   5.520
12522TIP3    H237510   6.250   6.536   5.554
12523TIP3   OH237511   5.883   6.892   4.594
12523TIP3    H137512   5.836   6.809   4.584
12523TIP3    H237513   5.888   6.905   4.689
12524TIP3   OH237514   6.822   7.099   5.238
12524TIP3    H137515   6.849   7.143   5.158
12524TIP3    H237516   6.746   7.047   5.213
12525TIP3   OH237517   6.380   6.153   4.497
12525TIP3    H137518   6.287   6.128   4.495
12525TIP3    H237519   6.384   6.235   4.448
12526TIP3   OH237520   6.303   7.182   5.588
12526TIP3    H137521   6.369   7.177   5.657
12526TIP3    H237522   6.270   7.272   5.592
12527TIP3   OH237523   6.462   6.435   4.620
12527TIP3    H137524   6.556   6.428   4.605
12527TIP3    H237525   6.433   6.499   4.555
12528TIP3   OH237526   5.624   6.885   5.270
12528TIP3    H137527   5.660   6.859   5.185
12528TIP3    H237528   5.684   6.847   5.334
12529TIP3   OH237529   6.067   7.012   4.428
12529TIP3    H137530   6.028   7.099   4.435
12529TIP3    H237531   6.010   6.956   4.480
12530TIP3   OH237532   5.507   6.791   5.894
12530TIP3    H137533   5.513   6.769   5.987
12530TIP3    H237534   5.432   6.741   5.862
12531TIP3   OH237535   6.220   6.921   5.933
12531TIP3    H137536   6.157   6.860   5.896
12531TIP3    H237537   6.305   6.887   5.905
12532TIP3   OH237538   6.460   7.474   5.502
12532TIP3    H137539   6.366   7.456   5.506
12532TIP3    H237540   6.483   7.500   5.592
12533TIP3   OH237541   6.872   6.509   4.404
12533TIP3    H137542   6.820   6.461   4.340
12533TIP3    H237543   6.873   6.599   4.371
12534TIP3   OH237544   7.107   7.325   5.505
12534TIP3    H137545   7.014   7.333   5.482
12534TIP3    H237546   7.151   7.313   5.421
12535TIP3   OH237547   6.594   7.296   4.336
12535TIP3    H137548   6.573   7.218   4.388
12535TIP3    H237549   6.617   7.263   4.250
12536TIP3   OH237550   6.617   6.939   5.154
12536TIP3    H137551   6.560   6.987   5.093
12536TIP3    H237552   6.636   6.857   5.109
12537TIP3   OH237553   5.726   7.195   4.926
12537TIP3    H137554   5.719   7.273   4.872
12537TIP3    H237555   5.636   7.171   4.946
12538TIP3   OH237556   5.305   6.482   4.639
12538TIP3    H137557   5.350   6.564   4.661
12538TIP3    H237558   5.224   6.485   4.690
12539TIP3   OH237559   5.861   6.961   4.858
12539TIP3    H137560   5.817   7.044   4.877
12539TIP3    H237561   5.827   6.900   4.924
12540TIP3   OH237562   6.006   7.533   5.391
12540TIP3    H137563   6.043   7.605   5.341
12540TIP3    H237564   6.079   7.497   5.440
12541TIP3   OH237565   5.637   7.422   4.785
12541TIP3    H137566   5.552   7.435   4.827
12541TIP3    H237567   5.680   7.508   4.792
12542TIP3   OH237568   6.393   7.187   5.324
12542TIP3    H137569   6.365   7.167   5.413
12542TIP3    H237570   6.443   7.110   5.297
12543TIP3   OH237571   6.354   7.051   4.229
12543TIP3    H137572   6.417   7.041   4.301
12543TIP3    H237573   6.276   7.005   4.259
12544TIP3   OH237574   6.589   7.695   5.402
12544TIP3    H137575   6.537   7.615   5.412
12544TIP3    H237576   6.565   7.729   5.316
12545TIP3   OH237577   6.673   7.518   4.028
12545TIP3    H137578   6.710   7.590   3.977
12545TIP3    H237579   6.596   7.556   4.071
12546TIP3   OH237580   5.710   6.312   5.894
12546TIP3    H137581   5.615   6.322   5.897
12546TIP3    H237582   5.731   6.258   5.970
12547TIP3   OH237583   6.551   7.015   4.416
12547TIP3    H137584   6.526   6.969   4.496
12547TIP3    H237585   6.646   7.002   4.409
12548TIP3   OH237586   5.427   7.396   5.547
12548TIP3    H137587   5.487   7.349   5.604
12548TIP3    H237588   5.444   7.489   5.566
12549TIP3   OH237589   5.710   7.055   4.242
12549TIP3    H137590   5.712   6.966   4.207
12549TIP3    H237591   5.696   7.044   4.336
12550TIP3   OH237592   5.662   7.045   4.514
12550TIP3    H137593   5.742   7.004   4.547
12550TIP3    H237594   5.676   7.139   4.528
12551TIP3   OH237595   5.399   6.733   4.720
12551TIP3    H137596   5.330   6.779   4.768
12551TIP3    H237597   5.422   6.792   4.648
12552TIP3   OH237598   6.565   6.364   5.597
12552TIP3    H137599   6.644   6.407   5.628
12552TIP3    H237600   6.556   6.286   5.652
12553TIP3   OH237601   6.442   6.121   4.770
12553TIP3    H137602   6.419   6.143   4.680
12553TIP3    H237603   6.486   6.199   4.804
12554TIP3   OH237604   5.949   7.252   4.469
12554TIP3    H137605   5.860   7.270   4.500
12554TIP3    H237606   5.969   7.325   4.410
12555TIP3   OH237607   6.095   6.312   4.872
12555TIP3    H137608   6.155   6.383   4.846
12555TIP3    H237609   6.121   6.291   4.962
12556TIP3   OH237610   6.405   6.583   5.656
12556TIP3    H137611   6.426   6.590   5.749
12556TIP3    H237612   6.450   6.503   5.628
12557TIP3   OH237613   6.266   6.006   4.953
12557TIP3    H137614   6.240   6.081   5.007
12557TIP3    H237615   6.331   6.040   4.893
12558TIP3   OH237616   5.690   7.319   4.533
12558TIP3    H137617   5.667   7.386   4.468
12558TIP3    H237618   5.669   7.360   4.617
12559TIP3   OH237619   5.777   6.039   4.766
12559TIP3    H137620   5.768   6.131   4.790
12559TIP3    H237621   5.872   6.022   4.770
12560TIP3   OH237622   7.022   6.492   5.631
12560TIP3    H137623   6.929   6.500   5.650
12560TIP3    H237624   7.027   6.431   5.558
12561TIP3   OH237625   6.680   6.691   5.025
12561TIP3    H137626   6.603   6.634   5.033
12561TIP3    H237627   6.747   6.648   5.079
12562TIP3   OH237628   5.416   6.918   4.508
12562TIP3    H137629   5.490   6.978   4.517
12562TIP3    H237630   5.446   6.852   4.445
12563TIP3   OH237631   5.332   6.206   4.642
12563TIP3    H137632   5.341   6.301   4.649
12563TIP3    H237633   5.287   6.192   4.559
12564TIP3   OH237634   6.637   7.661   4.959
12564TIP3    H137635   6.594   7.721   4.898
12564TIP3    H237636   6.730   7.679   4.950
12565TIP3   OH237637   5.726   5.928   5.504
12565TIP3    H137638   5.698   5.897   5.418
12565TIP3    H237639   5.717   5.852   5.561
12566TIP3   OH237640   5.259   7.154   4.887
12566TIP3    H137641   5.222   7.179   4.972
12566TIP3    H237642   5.320   7.224   4.866
12567TIP3   OH237643   5.445   7.708   5.974
12567TIP3    H137644   5.530   7.712   6.019
12567TIP3    H237645   5.430   7.615   5.960
12568TIP3   OH237646   5.916   7.612   6.020
12568TIP3    H137647   6.010   7.596   6.011
12568TIP3    H237648   5.877   7.570   5.944
12569TIP3   OH237649   5.885   7.233   4.133
12569TIP3    H137650   5.828   7.170   4.176
12569TIP3    H237651   5.954   7.180   4.093
12570TIP3   OH237652   6.535   7.538   5.760
12570TIP3    H137653   6.527   7.469   5.826
12570TIP3    H237654   6.629   7.557   5.758
12571TIP3   OH237655   6.305   7.257   4.053
12571TIP3    H137656   6.341   7.193   4.115
12571TIP3    H237657   6.364   7.253   3.978
12572TIP3   OH237658   5.556   7.107   6.150
12572TIP3    H137659   5.575   7.014   6.158
12572TIP3    H237660   5.469   7.111   6.110
12573TIP3   OH237661   5.529   6.723   4.356
12573TIP3    H137662   5.588   6.691   4.424
12573TIP3    H237663   5.588   6.749   4.284
12574TIP3   OH237664   6.168   7.197   5.928
12574TIP3    H137665   6.122   7.216   5.846
12574TIP3    H237666   6.194   7.105   5.920
12575TIP3   OH237667   6.076   6.890   4.184
12575TIP3    H137668   6.068   6.933   4.270
12575TIP3    H237669   6.045   6.801   4.200
12576TIP3   OH237670   6.630   7.253   5.561
12576TIP3    H137671   6.709   7.275   5.511
12576TIP3    H237672   6.562   7.309   5.524
12577TIP3   OH237673   5.675   6.854   6.155
12577TIP3    H137674   5.754   6.832   6.105
12577TIP3    H237675   5.708   6.873   6.243
12578TIP3   OH237676   5.740   6.655   4.534
12578TIP3    H137677   5.732   6.566   4.566
12578TIP3    H237678   5.803   6.650   4.462
12579TIP3   OH237679   6.038   6.748   5.806
12579TIP3    H137680   5.952   6.788   5.814
12579TIP3    H237681   6.067   6.771   5.718
12580TIP3   OH237682   6.542   7.094   5.916
12580TIP3    H137683   6.624   7.087   5.866
12580TIP3    H237684   6.513   7.004   5.927
12581TIP3   OH237685   6.648   6.767   4.089
12581TIP3    H137686   6.638   6.727   4.002
12581TIP3    H237687   6.619   6.857   4.077
12582TIP3   OH237688   6.140   6.513   5.908
12582TIP3    H137689   6.139   6.440   5.846
12582TIP3    H237690   6.103   6.587   5.859
12583TIP3   OH237691   6.143   6.304   5.722
12583TIP3    H137692   6.168   6.345   5.639
12583TIP3    H237693   6.051   6.279   5.709
12584TIP3   OH237694   6.136   6.822   5.563
12584TIP3    H137695   6.204   6.822   5.496
12584TIP3    H237696   6.080   6.897   5.541
12585TIP3   OH237697   6.777   6.797   6.042
12585TIP3    H137698   6.812   6.729   5.985
12585TIP3    H237699   6.829   6.875   6.021
12586TIP3   OH237700   6.766   7.057   5.693
12586TIP3    H137701   6.711   7.121   5.649
12586TIP3    H237702   6.856   7.082   5.669
12587TIP3   OH237703   6.003   6.594   6.137
12587TIP3    H137704   5.940   6.527   6.163
12587TIP3    H237705   6.037   6.564   6.053
12588TIP3   OH237706   6.266   6.080   5.829
12588TIP3    H137707   6.226   6.158   5.793
12588TIP3    H237708   6.201   6.011   5.816
12589TIP3   OH237709   6.384   6.574   6.019
12589TIP3    H137710   6.365   6.557   6.112
12589TIP3    H237711   6.304   6.548   5.973
12590TIP3   OH237712   6.645   6.556   5.913
12590TIP3    H137713   6.565   6.540   5.963
12590TIP3    H237714   6.714   6.513   5.964
12591TIP3   OH237715   6.875   6.467   6.049
12591TIP3    H137716   6.886   6.372   6.054
12591TIP3    H237717   6.869   6.495   6.140
12592TIP3   OH237718   5.848   6.378   6.226
12592TIP3    H137719   5.853   6.288   6.193
12592TIP3    H237720   5.887   6.373   6.314
12593TIP3   OH237721   6.336   6.070   6.094
12593TIP3    H137722   6.404   6.003   6.090
12593TIP3    H237723   6.304   6.077   6.004
12594TIP3   OH237724   6.414   6.299   6.230
12594TIP3    H137725   6.389   6.224   6.176
12594TIP3    H237726   6.339   6.358   6.225
12595TIP3   OH237727   5.669   7.521   4.341
12595TIP3    H137728   5.760   7.507   4.312
12595TIP3    H237729   5.629   7.572   4.271
12596TIP3   OH237730   5.142   6.905   4.527
12596TIP3    H137731   5.236   6.919   4.519
12596TIP3    H237732   5.126   6.821   4.484
12597TIP3   OH237733   5.014   7.454   4.938
12597TIP3    H137734   4.960   7.384   4.903
12597TIP3    H237735   5.070   7.412   5.004
12598TIP3   OH237736   5.192   7.345   5.134
12598TIP3    H137737   5.178   7.271   5.193
12598TIP3    H237738   5.237   7.411   5.188
12599TIP3   OH237739   6.903   7.721   4.965
12599TIP3    H137740   6.923   7.756   5.052
12599TIP3    H237741   6.969   7.760   4.907
12600TIP3   OH237742   6.943   7.776   5.234
12600TIP3    H137743   6.899   7.693   5.252
12600TIP3    H237744   7.000   7.790   5.309
12601TIP3   OH237745   6.823   6.971   4.418
12601TIP3    H137746   6.884   7.038   4.389
12601TIP3    H237747   6.865   6.932   4.495
12602TIP3   OH237748   6.940   6.827   4.622
12602TIP3    H137749   6.868   6.791   4.674
12602TIP3    H237750   7.003   6.859   4.687
12603TIP3   OH237751   6.988   7.223   5.055
12603TIP3    H137752   7.042   7.160   5.007
12603TIP3    H237753   6.984   7.300   4.998
12604TIP3   OH237754   6.798   7.550   5.285
12604TIP3    H137755   6.731   7.595   5.337
12604TIP3    H237756   6.749   7.505   5.216
12605TIP3   OH237757   6.857   6.747   4.265
12605TIP3    H137758   6.784   6.745   4.203
12605TIP3    H237759   6.840   6.825   4.319
12606TIP3   OH237760   6.739   6.395   4.195
12606TIP3    H137761   6.673   6.435   4.138
12606TIP3    H237762   6.725   6.301   4.185
12607TIP3   OH237763   6.729   6.700   4.753
12607TIP3    H137764   6.732   6.606   4.732
12607TIP3    H237765   6.715   6.704   4.847
12608TIP3   OH237766   5.372   6.761   5.530
12608TIP3    H137767   5.361   6.726   5.442
12608TIP3    H237768   5.467   6.757   5.546
12609TIP3   OH237769   7.034   7.114   5.666
12609TIP3    H137770   7.108   7.054   5.658
12609TIP3    H237771   7.062   7.193   5.619
12610TIP3   OH237772   7.226   6.907   5.637
12610TIP3    H137773   7.146   6.864   5.666
12610TIP3    H237774   7.296   6.844   5.655
12611TIP3   OH237775   6.685   6.124   4.174
12611TIP3    H137776   6.743   6.102   4.247
12611TIP3    H237777   6.600   6.091   4.201
12612TIP3   OH237778   6.752   6.424   4.649
12612TIP3    H137779   6.795   6.340   4.663
12612TIP3    H237780   6.792   6.459   4.569
12613TIP3   OH237781   6.897   6.575   5.166
12613TIP3    H137782   6.977   6.593   5.117
12613TIP3    H237783   6.910   6.620   5.250
12614TIP3   OH237784   6.968   6.733   5.386
12614TIP3    H137785   6.895   6.763   5.440
12614TIP3    H237786   6.996   6.812   5.339
12615TIP3   OH237787   5.585   6.439   6.174
12615TIP3    H137788   5.679   6.433   6.188
12615TIP3    H237789   5.550   6.357   6.209
12616TIP3   OH237790   7.539   6.389   5.855
12616TIP3    H137791   7.541   6.299   5.888
12616TIP3    H237792   7.449   6.400   5.823
12617TIP3   OH237793   6.861   6.170   4.695
12617TIP3    H137794   6.903   6.153   4.780
12617TIP3    H237795   6.794   6.103   4.688
12618TIP3   OH237796   5.564   6.154   5.524
12618TIP3    H137797   5.617   6.074   5.528
12618TIP3    H237798   5.627   6.223   5.504
12619TIP3   OH237799   5.345   6.414   5.584
12619TIP3    H137800   5.396   6.403   5.503
12619TIP3    H237801   5.377   6.496   5.621
12620TIP3   OH237802   7.285   6.438   5.767
12620TIP3    H137803   7.214   6.481   5.815
12620TIP3    H237804   7.241   6.377   5.708
12621TIP3   OH237805   6.910   6.080   4.335
12621TIP3    H137806   6.960   6.019   4.281
12621TIP3    H237807   6.965   6.159   4.339
12622TIP3   OH237808   5.330   5.923   5.087
12622TIP3    H137809   5.245   5.910   5.128
12622TIP3    H237810   5.313   5.978   5.011
12623TIP3   OH237811   6.479   7.635   4.602
12623TIP3    H137812   6.524   7.606   4.522
12623TIP3    H237813   6.515   7.723   4.618
12624TIP3   OH237814   5.554   5.976   5.907
12624TIP3    H137815   5.501   5.970   5.987
12624TIP3    H237816   5.500   6.027   5.847
12625TIP3   OH237817   5.588   7.430   5.987
12625TIP3    H137818   5.495   7.412   5.972
12625TIP3    H237819   5.599   7.418   6.081
12626TIP3   OH237820   5.765   7.501   5.524
12626TIP3    H137821   5.705   7.566   5.487
12626TIP3    H237822   5.849   7.519   5.483
12627TIP3   OH237823   6.214   7.710   5.656
12627TIP3    H137824   6.247   7.707   5.746
12627TIP3    H237825   6.279   7.761   5.608
12628TIP3   OH237826   6.399   7.862   5.522
12628TIP3    H137827   6.467   7.805   5.484
12628TIP3    H237828   6.448   7.935   5.560
12629TIP3   OH237829   7.190   6.201   5.635
12629TIP3    H137830   7.103   6.189   5.596
12629TIP3    H237831   7.232   6.115   5.626
12630TIP3   OH237832   5.465   7.670   5.555
12630TIP3    H137833   5.521   7.703   5.485
12630TIP3    H237834   5.419   7.748   5.587
12631TIP3   OH237835   6.089   7.737   5.221
12631TIP3    H137836   6.009   7.746   5.169
12631TIP3    H237837   6.103   7.823   5.259
12632TIP3   OH237838   6.334   7.625   5.177
12632TIP3    H137839   6.251   7.667   5.201
12632TIP3    H237840   6.397   7.697   5.175
12633TIP3   OH237841   6.533   7.815   5.162
12633TIP3    H137842   6.532   7.906   5.132
12633TIP3    H237843   6.572   7.766   5.090
12634TIP3   OH237844   5.344   7.508   5.301
12634TIP3    H137845   5.380   7.466   5.379
12634TIP3    H237846   5.419   7.553   5.261
12635TIP3   OH237847   5.577   7.401   5.142
12635TIP3    H137848   5.577   7.325   5.200
12635TIP3    H237849   5.662   7.442   5.156
12636TIP3   OH237850   5.846   7.469   5.174
12636TIP3    H137851   5.860   7.375   5.169
12636TIP3    H237852   5.893   7.497   5.252
12637TIP3   OH237853   6.407   6.132   5.270
12637TIP3    H137854   6.363   6.060   5.314
12637TIP3    H237855   6.472   6.090   5.214
12638TIP3   OH237856   6.901   6.040   5.158
12638TIP3    H137857   6.938   6.089   5.084
12638TIP3    H237858   6.808   6.061   5.157
12639TIP3   OH237859   7.015   6.115   4.920
12639TIP3    H137860   7.084   6.054   4.892
12639TIP3    H237861   7.052   6.202   4.906
12640TIP3   OH237862   5.640   5.827   5.262
12640TIP3    H137863   5.550   5.795   5.273
12640TIP3    H237864   5.693   5.747   5.254
12641TIP3   OH237865   5.459   5.731   4.917
12641TIP3    H137866   5.485   5.782   4.840
12641TIP3    H237867   5.422   5.796   4.976
12642TIP3   OH237868   6.119   5.864   5.158
12642TIP3    H137869   6.163   5.912   5.088
12642TIP3    H237870   6.159   5.896   5.238
12643TIP3   OH237871   6.614   6.010   5.135
12643TIP3    H137872   6.625   5.978   5.045
12643TIP3    H237873   6.619   5.932   5.189
12644TIP3   OH237874   6.667   5.967   4.699
12644TIP3    H137875   6.586   6.015   4.716
12644TIP3    H237876   6.653   5.881   4.739
12645TIP3   OH237877   5.568   5.864   4.681
12645TIP3    H137878   5.614   5.805   4.622
12645TIP3    H237879   5.636   5.922   4.715
12646TIP3   OH237880   6.054   6.061   4.769
12646TIP3    H137881   6.116   6.010   4.821
12646TIP3    H237882   6.068   6.152   4.796
12647TIP3   OH237883   5.932   7.460   4.275
12647TIP3    H137884   6.015   7.489   4.236
12647TIP3    H237885   5.906   7.384   4.223
12648TIP3   OH237886   6.612   7.565   4.371
12648TIP3    H137887   6.607   7.469   4.363
12648TIP3    H237888   6.570   7.597   4.291
12649TIP3   OH237889   5.866   6.108   6.145
12649TIP3    H137890   5.831   6.042   6.205
12649TIP3    H237891   5.958   6.116   6.170
12650TIP3   OH237892   6.116   6.118   6.267
12650TIP3    H137893   6.194   6.096   6.216
12650TIP3    H237894   6.108   6.047   6.331
12651TIP3   OH237895   5.261   7.321   4.322
12651TIP3    H137896   5.285   7.341   4.412
12651TIP3    H237897   5.332   7.267   4.288
12652TIP3   OH237898   6.927   6.196   6.060
12652TIP3    H137899   6.945   6.164   6.149
12652TIP3    H237900   7.010   6.188   6.014
12653TIP3   OH237901   8.098   7.096   4.361
12653TIP3    H137902   8.086   7.177   4.311
12653TIP3    H237903   8.045   7.031   4.315
12654TIP3   OH237904   8.069   7.106   4.654
12654TIP3    H137905   8.099   7.022   4.691
12654TIP3    H237906   8.087   7.099   4.561
12655TIP3   OH237907   7.427   6.973   5.060
12655TIP3    H137908   7.455   6.912   5.128
12655TIP3    H237909   7.503   6.979   5.002
12656TIP3   OH237910   7.408   7.389   4.806
12656TIP3    H137911   7.389   7.296   4.800
12656TIP3    H237912   7.501   7.396   4.787
12657TIP3   OH237913   7.103   6.611   4.541
12657TIP3    H137914   7.059   6.692   4.567
12657TIP3    H237915   7.035   6.558   4.500
12658TIP3   OH237916   7.171   6.898   4.758
12658TIP3    H137917   7.223   6.823   4.787
12658TIP3    H237918   7.231   6.948   4.703
12659TIP3   OH237919   7.950   7.328   4.762
12659TIP3    H137920   7.972   7.246   4.716
12659TIP3    H237921   8.034   7.362   4.792
12660TIP3   OH237922   8.336   6.855   4.746
12660TIP3    H137923   8.373   6.775   4.784
12660TIP3    H237924   8.293   6.825   4.666
12661TIP3   OH237925   7.696   6.481   4.723
12661TIP3    H137926   7.677   6.553   4.662
12661TIP3    H237927   7.644   6.408   4.690
12662TIP3   OH237928   7.323   6.689   4.855
12662TIP3    H137929   7.406   6.669   4.898
12662TIP3    H237930   7.325   6.638   4.774
12663TIP3   OH237931   7.753   6.882   4.666
12663TIP3    H137932   7.846   6.862   4.671
12663TIP3    H237933   7.713   6.803   4.629
12664TIP3   OH237934   7.673   6.485   5.181
12664TIP3    H137935   7.628   6.512   5.101
12664TIP3    H237936   7.610   6.501   5.251
12665TIP3   OH237937   8.049   7.287   4.169
12665TIP3    H137938   8.004   7.260   4.089
12665TIP3    H237939   8.001   7.365   4.198
12666TIP3   OH237940   7.760   7.239   4.947
12666TIP3    H137941   7.711   7.318   4.969
12666TIP3    H237942   7.832   7.271   4.892
12667TIP3   OH237943   0.099   6.578   4.535
12667TIP3    H137944   0.020   6.545   4.491
12667TIP3    H237945   0.066   6.621   4.614
12668TIP3   OH237946   7.569   6.583   4.944
12668TIP3    H137947   7.627   6.655   4.966
12668TIP3    H237948   7.611   6.539   4.870
12669TIP3   OH237949   6.994   7.152   4.298
12669TIP3    H137950   6.956   7.167   4.211
12669TIP3    H237951   7.005   7.240   4.334
12670TIP3   OH237952   8.018   6.170   4.899
12670TIP3    H137953   8.005   6.079   4.927
12670TIP3    H237954   7.942   6.217   4.933
12671TIP3   OH237955   8.264   7.465   4.199
12671TIP3    H137956   8.197   7.397   4.193
12671TIP3    H237957   8.340   7.427   4.155
12672TIP3   OH237958   7.962   6.955   4.158
12672TIP3    H137959   7.877   6.992   4.133
12672TIP3    H237960   8.011   6.950   4.075
12673TIP3   OH237961   7.923   6.775   3.843
12673TIP3    H137962   7.992   6.821   3.892
12673TIP3    H237963   7.969   6.705   3.797
12674TIP3   OH237964   8.291   7.055   4.136
12674TIP3    H137965   8.242   7.071   4.217
12674TIP3    H237966   8.372   7.014   4.164
12675TIP3   OH237967   7.545   7.017   4.529
12675TIP3    H137968   7.504   6.960   4.463
12675TIP3    H237969   7.616   6.964   4.565
12676TIP3   OH237970   7.663   7.395   4.692
12676TIP3    H137971   7.621   7.375   4.608
12676TIP3    H237972   7.743   7.342   4.693
12677TIP3   OH237973   7.643   7.001   4.889
12677TIP3    H137974   7.683   6.968   4.808
12677TIP3    H237975   7.689   7.083   4.906
12678TIP3   OH237976   8.141   6.921   3.945
12678TIP3    H137977   8.198   6.974   4.002
12678TIP3    H237978   8.170   6.941   3.857
12679TIP3   OH237979   7.528   7.127   5.302
12679TIP3    H137980   7.499   7.158   5.217
12679TIP3    H237981   7.450   7.091   5.344
12680TIP3   OH237982   7.927   7.523   4.212
12680TIP3    H137983   7.969   7.569   4.140
12680TIP3    H237984   7.834   7.521   4.189
12681TIP3   OH237985   0.121   6.108   4.044
12681TIP3    H137986   0.030   6.109   4.016
12681TIP3    H237987   0.165   6.167   3.983
12682TIP3   OH237988   7.417   6.870   4.326
12682TIP3    H137989   7.340   6.916   4.291
12682TIP3    H237990   7.388   6.779   4.334
12683TIP3   OH237991   7.190   7.252   5.249
12683TIP3    H137992   7.116   7.240   5.189
12683TIP3    H237993   7.211   7.164   5.279
12684TIP3   OH237994   7.012   7.462   4.919
12684TIP3    H137995   7.100   7.491   4.941
12684TIP3    H237996   6.956   7.536   4.940
12685TIP3   OH237997   7.766   7.748   4.063
12685TIP3    H137998   7.774   7.731   3.970
12685TIP3    H237999   7.828   7.819   4.080
12686TIP3   OH238000   7.169   7.632   4.408
12686TIP3    H138001   7.216   7.615   4.490
12686TIP3    H238002   7.124   7.550   4.389
12687TIP3   OH238003   7.368   7.451   5.203
12687TIP3    H138004   7.424   7.446   5.280
12687TIP3    H238005   7.306   7.380   5.214
12688TIP3   OH238006   7.787   6.273   5.024
12688TIP3    H138007   7.702   6.236   4.998
12688TIP3    H238008   7.764   6.350   5.076
12689TIP3   OH238009   8.294   6.381   5.228
12689TIP3    H138010   8.360   6.329   5.274
12689TIP3    H238011   8.213   6.366   5.276
12690TIP3   OH238012   8.224   6.955   3.686
12690TIP3    H138013   8.182   6.932   3.603
12690TIP3    H238014   8.318   6.945   3.669
12691TIP3   OH238015   7.943   6.301   4.011
12691TIP3    H138016   7.911   6.306   4.101
12691TIP3    H238017   7.902   6.222   3.976
12692TIP3   OH238018   7.729   6.787   5.037
12692TIP3    H138019   7.675   6.791   5.116
12692TIP3    H238020   7.703   6.865   4.987
12693TIP3   OH238021   7.599   6.680   4.559
12693TIP3    H138022   7.510   6.653   4.584
12693TIP3    H238023   7.610   6.646   4.470
12694TIP3   OH238024   8.079   6.749   4.290
12694TIP3    H138025   8.033   6.820   4.245
12694TIP3    H238026   8.132   6.708   4.221
12695TIP3   OH238027   8.235   6.745   4.514
12695TIP3    H138028   8.180   6.761   4.438
12695TIP3    H238029   8.271   6.658   4.499
12696TIP3   OH238030   7.547   6.798   5.243
12696TIP3    H138031   7.597   6.852   5.305
12696TIP3    H238032   7.523   6.720   5.292
12697TIP3   OH238033   7.597   6.300   3.971
12697TIP3    H138034   7.593   6.299   4.067
12697TIP3    H238035   7.518   6.346   3.945
12698TIP3   OH238036   7.148   6.336   4.843
12698TIP3    H138037   7.222   6.369   4.894
12698TIP3    H238038   7.185   6.313   4.758
12699TIP3   OH238039   7.063   6.313   4.348
12699TIP3    H138040   7.107   6.348   4.270
12699TIP3    H238041   6.999   6.380   4.371
12700TIP3   OH238042   7.963   6.475   4.616
12700TIP3    H138043   7.885   6.466   4.671
12700TIP3    H238044   8.036   6.455   4.675
12701TIP3   OH238045   7.362   6.553   4.621
12701TIP3    H138046   7.274   6.559   4.583
12701TIP3    H238047   7.390   6.464   4.603
12702TIP3   OH238048   7.612   6.557   4.315
12702TIP3    H138049   7.707   6.567   4.307
12702TIP3    H238050   7.578   6.576   4.227
12703TIP3   OH238051   8.410   6.598   4.809
12703TIP3    H138052   8.387   6.595   4.902
12703TIP3    H238053   8.373   6.518   4.772
12704TIP3   OH238054   7.498   6.591   4.067
12704TIP3    H138055   7.434   6.541   4.017
12704TIP3    H238056   7.555   6.631   4.001
12705TIP3   OH238057   8.017   6.791   4.708
12705TIP3    H138058   8.080   6.769   4.640
12705TIP3    H238059   8.024   6.719   4.772
12706TIP3   OH238060   7.509   6.306   4.606
12706TIP3    H138061   7.480   6.232   4.659
12706TIP3    H238062   7.537   6.268   4.523
12707TIP3   OH238063   7.990   6.706   5.015
12707TIP3    H138064   7.898   6.734   5.011
12707TIP3    H238065   8.039   6.783   4.986
12708TIP3   OH238066   7.724   7.080   4.090
12708TIP3    H138067   7.646   7.029   4.070
12708TIP3    H238068   7.707   7.115   4.178
12709TIP3   OH238069   8.142   6.459   3.917
12709TIP3    H138070   8.074   6.407   3.960
12709TIP3    H238071   8.173   6.519   3.984
12710TIP3   OH238072   8.227   6.676   4.069
12710TIP3    H138073   8.318   6.673   4.101
12710TIP3    H238074   8.224   6.756   4.016
12711TIP3   OH238075   7.418   7.119   4.751
12711TIP3    H138076   7.454   7.094   4.667
12711TIP3    H238077   7.472   7.072   4.815
12712TIP3   OH238078   7.873   7.246   3.936
12712TIP3    H138079   7.813   7.320   3.935
12712TIP3    H238080   7.827   7.177   3.985
12713TIP3   OH238081   7.286   7.019   5.388
12713TIP3    H138082   7.277   6.992   5.480
12713TIP3    H238083   7.213   6.977   5.344
12714TIP3   OH238084   7.539   7.396   4.446
12714TIP3    H138085   7.530   7.453   4.369
12714TIP3    H238086   7.453   7.355   4.455
12715TIP3   OH238087   7.094   6.740   4.128
12715TIP3    H138088   7.139   6.822   4.151
12715TIP3    H238089   7.014   6.741   4.179
12716TIP3   OH238090   7.666   7.176   4.336
12716TIP3    H138091   7.637   7.263   4.361
12716TIP3    H238092   7.630   7.118   4.403
12717TIP3   OH238093   7.370   7.735   4.159
12717TIP3    H138094   7.333   7.807   4.210
12717TIP3    H238095   7.437   7.697   4.215
12718TIP3   OH238096   8.136   7.232   3.638
12718TIP3    H138097   8.200   7.180   3.688
12718TIP3    H238098   8.055   7.181   3.644
12719TIP3   OH238099   7.484   6.557   5.374
12719TIP3    H138100   7.392   6.584   5.377
12719TIP3    H238101   7.489   6.481   5.433
12720TIP3   OH238102   8.312   7.191   3.895
12720TIP3    H138103   8.301   7.153   3.982
12720TIP3    H238104   8.405   7.212   3.890
12721TIP3   OH238105   7.239   7.628   5.041
12721TIP3    H138106   7.284   7.557   5.087
12721TIP3    H238107   7.228   7.697   5.107
12722TIP3   OH238108   7.501   7.274   3.719
12722TIP3    H138109   7.518   7.185   3.689
12722TIP3    H238110   7.486   7.265   3.813
12723TIP3   OH238111   7.447   7.281   3.990
12723TIP3    H138112   7.520   7.268   4.050
12723TIP3    H238113   7.439   7.376   3.982
12724TIP3   OH238114   7.196   6.987   4.208
12724TIP3    H138115   7.130   7.034   4.259
12724TIP3    H238116   7.212   7.043   4.132
12725TIP3   OH238117   8.342   6.604   5.076
12725TIP3    H138118   8.314   6.675   5.134
12725TIP3    H238119   8.323   6.524   5.124
12726TIP3   OH238120   7.699   7.453   3.926
12726TIP3    H138121   7.615   7.490   3.953
12726TIP3    H238122   7.742   7.524   3.878
12727TIP3   OH238123   7.886   6.571   4.369
12727TIP3    H138124   7.954   6.632   4.338
12727TIP3    H238125   7.914   6.546   4.457
12728TIP3   OH238126   8.085   6.281   4.447
12728TIP3    H138127   8.046   6.352   4.499
12728TIP3    H238128   8.168   6.318   4.415
12729TIP3   OH238129   7.431   7.551   3.967
12729TIP3    H138130   7.418   7.592   3.881
12729TIP3    H238131   7.412   7.621   4.030
12730TIP3   OH238132   7.583   6.284   4.252
12730TIP3    H138133   7.574   6.374   4.283
12730TIP3    H238134   7.676   6.264   4.260
12731TIP3   OH238135   8.477   6.916   4.506
12731TIP3    H138136   8.403   6.858   4.486
12731TIP3    H238137   8.470   6.931   4.600
12732TIP3   OH238138   7.201   7.157   3.985
12732TIP3    H138139   7.275   7.217   3.997
12732TIP3    H238140   7.232   7.094   3.919
12733TIP3   OH238141   7.115   6.463   4.124
12733TIP3    H138142   7.130   6.557   4.131
12733TIP3    H238143   7.036   6.455   4.070
12734TIP3   OH238144   7.525   6.181   4.998
12734TIP3    H138145   7.495   6.146   4.914
12734TIP3    H238146   7.517   6.108   5.059
12735TIP3   OH238147   7.001   7.415   4.383
12735TIP3    H138148   6.959   7.453   4.460
12735TIP3    H238149   6.964   7.464   4.310
12736TIP3   OH238150   7.678   7.451   3.605
12736TIP3    H138151   7.611   7.399   3.650
12736TIP3    H238152   7.754   7.393   3.600
12737TIP3   OH238153   7.338   6.974   3.835
12737TIP3    H138154   7.386   6.951   3.914
12737TIP3    H238155   7.405   6.987   3.768
12738TIP3   OH238156   7.842   7.197   3.657
12738TIP3    H138157   7.842   7.204   3.752
12738TIP3    H238158   7.837   7.102   3.641
12739TIP3   OH238159   7.507   6.915   4.050
12739TIP3    H138160   7.487   6.881   4.138
12739TIP3    H238161   7.554   6.843   4.007
12740TIP3   OH238162   7.757   6.974   5.320
12740TIP3    H138163   7.686   7.037   5.327
12740TIP3    H238164   7.816   7.011   5.255
12741TIP3   OH238165   7.651   6.737   3.892
12741TIP3    H138166   7.623   6.738   3.800
12741TIP3    H238167   7.746   6.745   3.888
12742TIP3   OH238168   7.806   6.726   5.455
12742TIP3    H138169   7.858   6.675   5.393
12742TIP3    H238170   7.801   6.813   5.416
12743TIP3   OH238171   7.928   6.563   5.246
12743TIP3    H138172   7.965   6.603   5.167
12743TIP3    H238173   7.840   6.535   5.220
12744TIP3   OH238174   8.052   6.338   5.353
12744TIP3    H138175   8.011   6.418   5.321
12744TIP3    H238176   7.993   6.268   5.326
12745TIP3   OH238177   7.691   6.639   5.696
12745TIP3    H138178   7.719   6.658   5.606
12745TIP3    H238179   7.721   6.715   5.746
12746TIP3   OH238180   8.110   6.292   5.621
12746TIP3    H138181   8.200   6.260   5.610
12746TIP3    H238182   8.080   6.310   5.532
12747TIP3   OH238183   7.437   7.723   3.758
12747TIP3    H138184   7.528   7.721   3.729
12747TIP3    H238185   7.398   7.795   3.708
12748TIP3   OH238186   6.930   7.158   4.014
12748TIP3    H138187   7.025   7.170   4.007
12748TIP3    H238188   6.914   7.074   3.972
12749TIP3   OH238189   6.807   7.717   4.480
12749TIP3    H138190   6.745   7.662   4.432
12749TIP3    H238191   6.851   7.657   4.540
12750TIP3   OH238192   6.952   7.550   4.642
12750TIP3    H138193   6.940   7.478   4.703
12750TIP3    H238194   7.007   7.613   4.690
12751TIP3   OH238195   8.507   6.667   3.651
12751TIP3    H138196   8.462   6.665   3.566
12751TIP3    H238197   8.490   6.580   3.688
12752TIP3   OH238198   0.008   6.924   4.231
12752TIP3    H138199   0.015   6.830   4.214
12752TIP3    H238200   0.023   6.932   4.325
12753TIP3   OH238201   7.163   7.013   5.005
12753TIP3    H138202   7.152   6.978   4.916
12753TIP3    H238203   7.257   7.010   5.021
12754TIP3   OH238204   8.461   6.405   3.709
12754TIP3    H138205   8.530   6.341   3.689
12754TIP3    H238206   8.379   6.357   3.698
12755TIP3   OH238207   8.476   6.645   4.189
12755TIP3    H138208   8.434   6.594   4.258
12755TIP3    H238209   8.535   6.583   4.146
12756TIP3   OH238210   7.382   6.680   5.672
12756TIP3    H138211   7.477   6.668   5.672
12756TIP3    H238212   7.347   6.599   5.708
12757TIP3   OH238213   7.359   6.403   5.015
12757TIP3    H138214   7.412   6.323   5.020
12757TIP3    H238215   7.421   6.472   4.994
12758TIP3   OH238216   7.141   6.668   5.072
12758TIP3    H138217   7.192   6.657   4.992
12758TIP3    H238218   7.162   6.757   5.102
12759TIP3   OH238219   7.131   6.186   4.579
12759TIP3    H138220   7.044   6.172   4.617
12759TIP3    H238221   7.115   6.237   4.500
12760TIP3   OH238222   7.360   6.284   5.421
12760TIP3    H138223   7.308   6.257   5.497
12760TIP3    H238224   7.295   6.316   5.358
12761TIP3   OH238225   7.131   7.711   4.798
12761TIP3    H138226   7.169   7.697   4.884
12761TIP3    H238227   7.195   7.676   4.737
12762TIP3   OH238228   7.307   7.580   4.641
12762TIP3    H138229   7.318   7.503   4.696
12762TIP3    H238230   7.395   7.616   4.632
12763TIP3   OH238231   7.571   7.662   4.664
12763TIP3    H138232   7.622   7.584   4.683
12763TIP3    H238233   7.540   7.692   4.750
12764TIP3   OH238234   8.172   6.373   4.765
12764TIP3    H138235   8.136   6.295   4.807
12764TIP3    H238236   8.255   6.345   4.728
12765TIP3   OH238237   0.215   6.297   4.659
12765TIP3    H138238   0.245   6.348   4.584
12765TIP3    H238239   0.120   6.313   4.663
12766TIP3   OH238240   0.319   6.445   4.452
12766TIP3    H138241   0.326   6.418   4.360
12766TIP3    H238242   0.239   6.498   4.456
12767TIP3   OH238243   7.435   6.082   4.755
12767TIP3    H138244   7.346   6.049   4.762
12767TIP3    H238245   7.489   6.004   4.745
12768TIP3   OH238246   7.265   5.994   4.408
12768TIP3    H138247   7.288   6.044   4.330
12768TIP3    H238248   7.227   6.059   4.467
12769TIP3   OH238249   7.917   6.131   4.633
12769TIP3    H138250   7.974   6.170   4.566
12769TIP3    H238251   7.961   6.152   4.716
12770TIP3   OH238252   8.432   6.312   4.668
12770TIP3    H138253   8.407   6.337   4.579
12770TIP3    H238254   8.417   6.218   4.672
12771TIP3   OH238255   6.917   7.553   4.161
12771TIP3    H138256   6.839   7.504   4.134
12771TIP3    H238257   6.906   7.639   4.121
12772TIP3   OH238258   7.364   6.125   4.170
12772TIP3    H138259   7.404   6.062   4.110
12772TIP3    H238260   7.437   6.177   4.203
12773TIP3   OH238261   7.859   6.315   4.274
12773TIP3    H138262   7.930   6.270   4.321
12773TIP3    H238263   7.868   6.406   4.300
12774TIP3   OH238264   7.697   7.719   3.667
12774TIP3    H138265   7.777   7.709   3.717
12774TIP3    H238266   7.681   7.633   3.627
12775TIP3   OH238267   7.632   6.381   5.561
12775TIP3    H138268   7.621   6.288   5.581
12775TIP3    H238269   7.666   6.382   5.471
12776TIP3   OH238270   7.856   6.361   5.751
12776TIP3    H138271   7.947   6.369   5.720
12776TIP3    H238272   7.842   6.267   5.761
12777TIP3   OH238273   7.037   7.541   3.819
12777TIP3    H138274   7.036   7.543   3.914
12777TIP3    H238275   7.118   7.497   3.796
12778TIP3   OH238276   1.379   7.444   6.374
12778TIP3    H138277   1.405   7.517   6.430
12778TIP3    H238278   1.444   7.443   6.303
12779TIP3   OH238279   0.880   7.374   6.081
12779TIP3    H138280   0.858   7.306   6.144
12779TIP3    H238281   0.797   7.392   6.036
12780TIP3   OH238282   1.475   7.615   6.570
12780TIP3    H138283   1.460   7.708   6.552
12780TIP3    H238284   1.424   7.598   6.649
12781TIP3   OH238285   1.140   7.401   6.223
12781TIP3    H138286   1.124   7.321   6.274
12781TIP3    H238287   1.223   7.435   6.256
12782TIP3   OH238288   1.202   7.357   6.576
12782TIP3    H138289   1.124   7.403   6.545
12782TIP3    H238290   1.267   7.371   6.507
12783TIP3   OH238291   1.113   6.919   5.684
12783TIP3    H138292   1.032   6.937   5.733
12783TIP3    H238293   1.127   6.998   5.632
12784TIP3   OH238294   1.130   7.557   5.586
12784TIP3    H138295   1.079   7.508   5.521
12784TIP3    H238296   1.130   7.647   5.554
12785TIP3   OH238297   1.318   7.523   6.780
12785TIP3    H138298   1.255   7.535   6.852
12785TIP3    H238299   1.281   7.452   6.728
12786TIP3   OH238300   0.937   7.793   5.248
12786TIP3    H138301   0.882   7.738   5.191
12786TIP3    H238302   1.002   7.831   5.189
12787TIP3   OH238303   1.023   8.000   5.627
12787TIP3    H138304   1.077   8.069   5.590
12787TIP3    H238305   1.078   7.959   5.693
12788TIP3   OH238306   1.182   7.877   5.828
12788TIP3    H138307   1.123   7.901   5.899
12788TIP3    H238308   1.267   7.913   5.853
12789TIP3   OH238309   1.121   7.795   5.453
12789TIP3    H138310   1.049   7.791   5.390
12789TIP3    H238311   1.103   7.873   5.505
12790TIP3   OH238312   1.009   7.437   5.367
12790TIP3    H138313   0.949   7.464   5.298
12790TIP3    H238314   0.982   7.348   5.389
12791TIP3   OH238315   0.929   7.182   5.434
12791TIP3    H138316   1.014   7.149   5.463
12791TIP3    H238317   0.871   7.107   5.443
12792TIP3   OH238318   1.074   7.463   5.860
12792TIP3    H138319   1.081   7.372   5.829
12792TIP3    H238320   1.083   7.516   5.782
12793TIP3   OH238321   7.441   3.430   0.134
12793TIP3    H138322   7.468   3.343   0.106
12793TIP3    H238323   7.377   3.458   0.069
12794TIP3   OH238324   1.102   7.190   5.870
12794TIP3    H138325   1.155   7.163   5.945
12794TIP3    H238326   1.033   7.123   5.864
12795TIP3   OH238327   1.590   7.458   6.863
12795TIP3    H138328   1.512   7.512   6.853
12795TIP3    H238329   1.577   7.386   6.801
12796TIP3   OH238330   1.185   7.128   5.522
12796TIP3    H138331   1.251   7.069   5.485
12796TIP3    H238332   1.229   7.212   5.527
12797TIP3   OH238333   1.443   7.218   6.755
12797TIP3    H138334   1.356   7.183   6.741
12797TIP3    H238335   1.501   7.142   6.753
12798TIP3   OH238336   1.165   7.094   6.315
12798TIP3    H138337   1.208   7.117   6.233
12798TIP3    H238338   1.072   7.089   6.293
12799TIP3   OH238339   1.277   7.154   6.076
12799TIP3    H138340   1.346   7.093   6.051
12799TIP3    H238341   1.316   7.241   6.065
12800TIP3   OH238342   0.895   7.102   6.250
12800TIP3    H138343   0.877   7.040   6.179
12800TIP3    H238344   0.883   7.051   6.330
12801TIP3   OH238345   0.907   6.987   5.856
12801TIP3    H138346   0.820   7.000   5.816
12801TIP3    H238347   0.896   6.911   5.913
12802TIP3   OH238348   5.215   0.033   5.558
12802TIP3    H138349   5.212   0.127   5.539
12802TIP3    H238350   5.157  -0.007   5.493
12803TIP3   OH238351   5.203   0.136   5.900
12803TIP3    H138352   5.252   0.118   5.980
12803TIP3    H238353   5.165   0.052   5.875
12804TIP3   OH238354   1.678   8.005   6.251
12804TIP3    H138355   1.714   7.957   6.325
12804TIP3    H238356   1.754   8.036   6.202
12805TIP3   OH238357   5.483   0.426   5.601
12805TIP3    H138358   5.459   0.366   5.671
12805TIP3    H238359   5.512   0.506   5.646
12806TIP3   OH238360   4.601   0.405   6.058
12806TIP3    H138361   4.516   0.360   6.061
12806TIP3    H238362   4.642   0.373   5.978
12807TIP3   OH238363   1.346   7.643   5.746
12807TIP3    H138364   1.310   7.725   5.778
12807TIP3    H238365   1.279   7.608   5.687
12808TIP3   OH238366   1.425   7.942   5.935
12808TIP3    H138367   1.473   7.866   5.968
12808TIP3    H238368   1.492   7.999   5.899
12809TIP3   OH238369   5.021   0.350   5.969
12809TIP3    H138370   5.053   0.276   5.918
12809TIP3    H238371   5.100   0.392   6.003
12810TIP3   OH238372   3.217   7.699   5.919
12810TIP3    H138373   3.235   7.785   5.959
12810TIP3    H238374   3.244   7.709   5.828
12811TIP3   OH238375   2.599   7.870   5.952
12811TIP3    H138376   2.633   7.784   5.976
12811TIP3    H238377   2.562   7.857   5.864
12812TIP3   OH238378   1.944   7.524   5.912
12812TIP3    H138379   1.928   7.598   5.853
12812TIP3    H238380   1.890   7.453   5.877
12813TIP3   OH238381   2.635   7.635   5.535
12813TIP3    H138382   2.695   7.632   5.610
12813TIP3    H238383   2.690   7.665   5.462
12814TIP3   OH238384   1.566   7.731   6.040
12814TIP3    H138385   1.650   7.720   6.085
12814TIP3    H238386   1.577   7.684   5.957
12815TIP3   OH238387   2.007   7.930   5.860
12815TIP3    H138388   2.102   7.918   5.862
12815TIP3    H238389   1.973   7.847   5.827
12816TIP3   OH238390   3.278   7.921   6.085
12816TIP3    H138391   3.186   7.946   6.089
12816TIP3    H238392   3.315   7.951   6.168
12817TIP3   OH238393   1.930   7.526   6.355
12817TIP3    H138394   1.875   7.563   6.285
12817TIP3    H238395   1.880   7.541   6.435
12818TIP3   OH238396   5.195   0.253   5.385
12818TIP3    H138397   5.141   0.256   5.306
12818TIP3    H238398   5.199   0.343   5.416
12819TIP3   OH238399   4.856   0.277   6.172
12819TIP3    H138400   4.806   0.349   6.210
12819TIP3    H238401   4.906   0.316   6.101
12820TIP3   OH238402   2.800   7.655   5.754
12820TIP3    H138403   2.762   7.631   5.838
12820TIP3    H238404   2.861   7.726   5.774
12821TIP3   OH238405   1.812   7.634   6.130
12821TIP3    H138406   1.869   7.708   6.153
12821TIP3    H238407   1.858   7.590   6.059
12822TIP3   OH238408   4.115   0.055   5.528
12822TIP3    H138409   4.066   0.076   5.448
12822TIP3    H238410   4.147   0.139   5.560
12823TIP3   OH238411   3.015   7.596   6.090
12823TIP3    H138412   2.930   7.617   6.052
12823TIP3    H238413   3.078   7.621   6.023
12824TIP3   OH238414   2.271   7.222   6.082
12824TIP3    H138415   2.265   7.131   6.108
12824TIP3    H238416   2.194   7.263   6.121
12825TIP3   OH238417   5.526   0.378   5.321
12825TIP3    H138418   5.465   0.412   5.255
12825TIP3    H238419   5.484   0.397   5.405
12826TIP3   OH238420   5.821   0.643   5.976
12826TIP3    H138421   5.827   0.566   5.920
12826TIP3    H238422   5.863   0.713   5.925
12827TIP3   OH238423   2.228   7.962   5.343
12827TIP3    H138424   2.146   8.010   5.336
12827TIP3    H238425   2.264   7.963   5.254
12828TIP3   OH238426   2.184   7.766   5.034
12828TIP3    H138427   2.243   7.831   5.073
12828TIP3    H238428   2.241   7.712   4.979
12829TIP3   OH238429   5.949   0.218   5.927
12829TIP3    H138430   5.862   0.258   5.934
12829TIP3    H238431   5.970   0.222   5.834
12830TIP3   OH238432   5.386   0.046   5.299
12830TIP3    H138433   5.335   0.096   5.362
12830TIP3    H238434   5.468   0.027   5.345
12831TIP3   OH238435   5.625   0.101   6.233
12831TIP3    H138436   5.623   0.180   6.288
12831TIP3    H238437   5.542   0.104   6.185
12832TIP3   OH238438   1.805   8.033   5.696
12832TIP3    H138439   1.769   7.970   5.633
12832TIP3    H238440   1.875   7.985   5.740
12833TIP3   OH238441   4.740   0.359   5.832
12833TIP3    H138442   4.705   0.388   5.747
12833TIP3    H238443   4.832   0.341   5.815
12834TIP3   OH238444   4.732   0.048   6.079
12834TIP3    H138445   4.779   0.019   6.001
12834TIP3    H238446   4.776   0.129   6.105
12835TIP3   OH238447   2.393   7.935   5.118
12835TIP3    H138448   2.450   7.985   5.176
12835TIP3    H238449   2.424   7.956   5.030
12836TIP3   OH238450   2.907   7.181   5.182
12836TIP3    H138451   2.830   7.203   5.235
12836TIP3    H238452   2.918   7.257   5.124
12837TIP3   OH238453   1.686   7.866   5.510
12837TIP3    H138454   1.620   7.920   5.468
12837TIP3    H238455   1.646   7.780   5.519
12838TIP3   OH238456   5.874   0.056   6.394
12838TIP3    H138457   5.788   0.065   6.354
12838TIP3    H238458   5.892  -0.038   6.392
12839TIP3   OH238459   2.031   7.312   6.207
12839TIP3    H138460   1.946   7.282   6.174
12839TIP3    H238461   2.011   7.392   6.255
12840TIP3   OH238462   2.575   7.436   6.409
12840TIP3    H138463   2.645   7.412   6.469
12840TIP3    H238464   2.495   7.417   6.458
12841TIP3   OH238465   2.801   7.854   6.322
12841TIP3    H138466   2.756   7.848   6.406
12841TIP3    H238467   2.782   7.942   6.291
12842TIP3   OH238468   2.491   7.980   4.868
12842TIP3    H138469   2.450   7.950   4.786
12842TIP3    H238470   2.577   8.011   4.841
12843TIP3   OH238471   2.176   7.360   5.175
12843TIP3    H138472   2.141   7.366   5.264
12843TIP3    H238473   2.144   7.275   5.143
12844TIP3   OH238474   1.977   7.837   6.218
12844TIP3    H138475   1.934   7.846   6.303
12844TIP3    H238476   1.955   7.918   6.171
12845TIP3   OH238477   1.857   7.725   5.748
12845TIP3    H138478   1.767   7.705   5.772
12845TIP3    H238479   1.866   7.693   5.658
12846TIP3   OH238480   2.343   7.741   5.454
12846TIP3    H138481   2.300   7.818   5.416
12846TIP3    H238482   2.412   7.720   5.391
12847TIP3   OH238483   5.364   0.045   6.533
12847TIP3    H138484   5.335  -0.020   6.598
12847TIP3    H238485   5.457   0.059   6.555
12848TIP3   OH238486   2.499   7.841   5.699
12848TIP3    H138487   2.453   7.908   5.648
12848TIP3    H238488   2.508   7.767   5.638
12849TIP3   OH238489   1.819   7.855   6.444
12849TIP3    H138490   1.885   7.906   6.492
12849TIP3    H238491   1.803   7.779   6.500
12850TIP3   OH238492   1.847   7.337   5.157
12850TIP3    H138493   1.836   7.337   5.252
12850TIP3    H238494   1.770   7.382   5.123
12851TIP3   OH238495   1.379   7.400   6.023
12851TIP3    H138496   1.452   7.430   6.078
12851TIP3    H238497   1.412   7.407   5.934
12852TIP3   OH238498   1.325   7.364   5.541
12852TIP3    H138499   1.368   7.390   5.460
12852TIP3    H238500   1.264   7.436   5.560
12853TIP3   OH238501   5.366   0.058   6.118
12853TIP3    H138502   5.397  -0.007   6.055
12853TIP3    H238503   5.328   0.007   6.190
12854TIP3   OH238504   2.213   7.513   5.797
12854TIP3    H138505   2.138   7.512   5.857
12854TIP3    H238506   2.289   7.504   5.854
12855TIP3   OH238507   1.615   7.602   5.804
12855TIP3    H138508   1.526   7.603   5.768
12855TIP3    H238509   1.647   7.514   5.784
12856TIP3   OH238510   1.857   7.595   5.504
12856TIP3    H138511   1.952   7.605   5.496
12856TIP3    H238512   1.823   7.616   5.418
12857TIP3   OH238513   2.671   7.605   5.999
12857TIP3    H138514   2.649   7.621   6.091
12857TIP3    H238515   2.605   7.542   5.969
12858TIP3   OH238516   1.739   7.624   5.260
12858TIP3    H138517   1.679   7.572   5.206
12858TIP3    H238518   1.803   7.659   5.197
12859TIP3   OH238519   2.276   7.881   5.892
12859TIP3    H138520   2.343   7.838   5.838
12859TIP3    H238521   2.279   7.835   5.976
12860TIP3   OH238522   1.754   7.354   5.785
12860TIP3    H138523   1.727   7.277   5.835
12860TIP3    H238524   1.787   7.319   5.702
12861TIP3   OH238525   2.243   7.783   6.156
12861TIP3    H138526   2.156   7.813   6.180
12861TIP3    H238527   2.303   7.833   6.212
12862TIP3   OH238528   4.828   0.091   5.334
12862TIP3    H138529   4.751   0.039   5.316
12862TIP3    H238530   4.812   0.130   5.419
12863TIP3   OH238531   5.699   0.328   5.907
12863TIP3    H138532   5.723   0.390   5.839
12863TIP3    H238533   5.612   0.296   5.881
12864TIP3   OH238534   2.435   7.449   5.183
12864TIP3    H138535   2.340   7.436   5.176
12864TIP3    H238536   2.446   7.543   5.189
12865TIP3   OH238537   5.232   0.390   6.306
12865TIP3    H138538   5.248   0.381   6.399
12865TIP3    H238539   5.157   0.450   6.300
12866TIP3   OH238540   2.513   7.708   5.237
12866TIP3    H138541   2.607   7.720   5.250
12866TIP3    H238542   2.486   7.784   5.185
12867TIP3   OH238543   4.500   0.067   5.924
12867TIP3    H138544   4.538   0.062   5.836
12867TIP3    H238545   4.574   0.051   5.983
12868TIP3   OH238546   4.882   0.277   5.144
12868TIP3    H138547   4.925   0.354   5.181
12868TIP3    H238548   4.868   0.219   5.218
12869TIP3   OH238549   5.127   0.195   6.550
12869TIP3    H138550   5.098   0.175   6.461
12869TIP3    H238551   5.213   0.155   6.558
12870TIP3   OH238552   2.921   7.805   5.077
12870TIP3    H138553   2.857   7.763   5.019
12870TIP3    H238554   2.938   7.890   5.036
12871TIP3   OH238555   6.024   0.555   6.143
12871TIP3    H138556   5.948   0.608   6.119
12871TIP3    H238557   6.059   0.524   6.060
12872TIP3   OH238558   5.457   0.231   5.804
12872TIP3    H138559   5.366   0.209   5.824
12872TIP3    H238560   5.494   0.152   5.767
12873TIP3   OH238561   1.358   7.766   5.303
12873TIP3    H138562   1.415   7.842   5.318
12873TIP3    H238563   1.281   7.783   5.358
12874TIP3   OH238564   4.768   0.219   5.570
12874TIP3    H138565   4.694   0.269   5.535
12874TIP3    H238566   4.729   0.152   5.626
12875TIP3   OH238567   5.282   0.404   6.033
12875TIP3    H138568   5.266   0.405   6.127
12875TIP3    H238569   5.369   0.366   6.023
12876TIP3   OH238570   5.177   0.262   4.963
12876TIP3    H138571   5.260   0.218   4.985
12876TIP3    H238572   5.155   0.229   4.876
12877TIP3   OH238573   1.767   7.596   6.568
12877TIP3    H138574   1.672   7.585   6.571
12877TIP3    H238575   1.798   7.549   6.646
12878TIP3   OH238576   5.424   0.194   5.071
12878TIP3    H138577   5.406   0.144   5.151
12878TIP3    H238578   5.518   0.208   5.072
12879TIP3   OH238579   4.600   0.203   5.087
12879TIP3    H138580   4.552   0.169   5.011
12879TIP3    H238581   4.673   0.252   5.049
12880TIP3   OH238582   4.323  -0.017   5.375
12880TIP3    H138583   4.257   0.004   5.441
12880TIP3    H238584   4.321   0.057   5.314
12881TIP3   OH238585   2.605   7.665   6.259
12881TIP3    H138586   2.683   7.709   6.292
12881TIP3    H238587   2.594   7.588   6.316
12882TIP3   OH238588   2.495   7.409   5.451
12882TIP3    H138589   2.474   7.425   5.359
12882TIP3    H238590   2.535   7.491   5.481
12883TIP3   OH238591   2.132   7.602   5.548
12883TIP3    H138592   2.204   7.653   5.512
12883TIP3    H238593   2.158   7.583   5.638
12884TIP3   OH238594   2.445   7.899   6.312
12884TIP3    H138595   2.471   7.942   6.394
12884TIP3    H238596   2.496   7.818   6.310
12885TIP3   OH238597   2.307   7.306   5.625
12885TIP3    H138598   2.285   7.383   5.678
12885TIP3    H238599   2.378   7.336   5.568
12886TIP3   OH238600   1.820   7.325   5.437
12886TIP3    H138601   1.810   7.416   5.466
12886TIP3    H238602   1.914   7.309   5.439
12887TIP3   OH238603   3.063   7.794   6.303
12887TIP3    H138604   2.969   7.808   6.314
12887TIP3    H238605   3.070   7.732   6.230
12888TIP3   OH238606   2.729   8.006   5.705
12888TIP3    H138607   2.656   7.944   5.711
12888TIP3    H238608   2.800   7.964   5.754
12889TIP3   OH238609   4.242   0.165   5.161
12889TIP3    H138610   4.205   0.211   5.086
12889TIP3    H238611   4.311   0.110   5.125
12890TIP3   OH238612   1.360   7.490   5.302
12890TIP3    H138613   1.385   7.582   5.306
12890TIP3    H238614   1.267   7.491   5.281
12891TIP3   OH238615   1.764   7.232   6.169
12891TIP3    H138616   1.739   7.197   6.084
12891TIP3    H238617   1.761   7.157   6.228
12892TIP3   OH238618   1.581   7.978   5.081
12892TIP3    H138619   1.635   7.966   5.159
12892TIP3    H238620   1.643   7.973   5.008
12893TIP3   OH238621   4.909   0.203   4.873
12893TIP3    H138622   4.926   0.258   4.949
12893TIP3    H238623   4.887   0.117   4.909
12894TIP3   OH238624   5.488   0.471   6.242
12894TIP3    H138625   5.477   0.553   6.290
12894TIP3    H238626   5.409   0.421   6.259
12895TIP3   OH238627   1.795   7.932   5.258
12895TIP3    H138628   1.769   7.886   5.338
12895TIP3    H238629   1.838   7.864   5.205
12896TIP3   OH238630   4.891  -0.008   6.484
12896TIP3    H138631   4.902   0.051   6.559
12896TIP3    H238632   4.939   0.034   6.413
12897TIP3   OH238633   1.909   7.739   5.083
12897TIP3    H138634   1.882   7.729   4.992
12897TIP3    H238635   2.003   7.754   5.079
12898TIP3   OH238636   5.423   0.392   6.549
12898TIP3    H138637   5.497   0.348   6.508
12898TIP3    H238638   5.418   0.354   6.636
12899TIP3   OH238639   5.571   0.032   4.730
12899TIP3    H138640   5.536  -0.023   4.660
12899TIP3    H238641   5.601   0.112   4.684
12900TIP3   OH238642   2.201   7.787   6.568
12900TIP3    H138643   2.205   7.716   6.505
12900TIP3    H238644   2.156   7.858   6.522
12901TIP3   OH238645   2.195   7.596   6.367
12901TIP3    H138646   2.219   7.636   6.284
12901TIP3    H238647   2.102   7.576   6.359
12902TIP3   OH238648   5.046   0.123   6.295
12902TIP3    H138649   5.127   0.142   6.247
12902TIP3    H238650   4.980   0.179   6.253
12903TIP3   OH238651   5.631   0.066   6.625
12903TIP3    H138652   5.675  -0.018   6.634
12903TIP3    H238653   5.701   0.131   6.634
12904TIP3   OH238654   5.660   0.328   6.397
12904TIP3    H138655   5.609   0.386   6.341
12904TIP3    H238656   5.751   0.340   6.370
12905TIP3   OH238657   2.065   7.896   6.786
12905TIP3    H138658   1.992   7.840   6.811
12905TIP3    H238659   2.103   7.852   6.709
12906TIP3   OH238660   2.312   7.377   6.490
12906TIP3    H138661   2.274   7.455   6.448
12906TIP3    H238662   2.245   7.309   6.478
12907TIP3   OH238663   2.440   7.851   6.690
12907TIP3    H138664   2.420   7.849   6.784
12907TIP3    H238665   2.358   7.825   6.648
12908TIP3   OH238666   2.677   7.794   6.553
12908TIP3    H138667   2.601   7.800   6.611
12908TIP3    H238668   2.750   7.771   6.610
12909TIP3   OH238669   2.917   7.762   6.693
12909TIP3    H138670   2.934   7.668   6.703
12909TIP3    H238671   2.911   7.795   6.783
12910TIP3   OH238672   1.898   7.693   6.869
12910TIP3    H138673   1.873   7.603   6.847
12910TIP3    H238674   1.951   7.685   6.948
12911TIP3   OH238675   2.381   7.371   6.753
12911TIP3    H138676   2.449   7.304   6.751
12911TIP3    H238677   2.352   7.378   6.662
12912TIP3   OH238678   2.462   7.589   6.906
12912TIP3    H138679   2.437   7.518   6.846
12912TIP3    H238680   2.390   7.651   6.900
12913TIP3   OH238681   4.011   0.062   5.271
12913TIP3    H138682   4.082   0.113   5.232
12913TIP3    H238683   3.985   0.000   5.203
12914TIP3   OH238684   5.690   0.216   5.087
12914TIP3    H138685   5.756   0.281   5.061
12914TIP3    H238686   5.724   0.178   5.167
12915TIP3   OH238687   5.816   0.097   5.295
12915TIP3    H138688   5.749   0.063   5.355
12915TIP3    H238689   5.880   0.140   5.352
12916TIP3   OH238690   5.853   0.487   5.742
12916TIP3    H138691   5.884   0.412   5.690
12916TIP3    H238692   5.825   0.552   5.677
12917TIP3   OH238693   5.773   0.016   4.919
12917TIP3    H138694   5.702   0.010   4.856
12917TIP3    H238695   5.748   0.089   4.976
12918TIP3   OH238696   2.753   7.710   4.886
12918TIP3    H138697   2.719   7.747   4.804
12918TIP3    H238698   2.742   7.616   4.875
12919TIP3   OH238699   2.783   7.984   5.435
12919TIP3    H138700   2.794   7.890   5.422
12919TIP3    H238701   2.771   7.994   5.530
12920TIP3   OH238702   4.253   0.054   6.182
12920TIP3    H138703   4.248   0.009   6.097
12920TIP3    H238704   4.342   0.034   6.214
12921TIP3   OH238705   5.913   0.375   6.314
12921TIP3    H138706   5.975   0.303   6.302
12921TIP3    H238707   5.939   0.440   6.248
12922TIP3   OH238708   6.098   0.176   6.297
12922TIP3    H138709   6.022   0.130   6.334
12922TIP3    H238710   6.171   0.117   6.313
12923TIP3   OH238711   2.715   7.443   4.852
12923TIP3    H138712   2.785   7.409   4.908
12923TIP3    H238713   2.638   7.393   4.878
12924TIP3   OH238714   2.794   7.717   5.314
12924TIP3    H138715   2.837   7.633   5.327
12924TIP3    H238716   2.839   7.756   5.239
12925TIP3   OH238717   2.945   7.881   5.830
12925TIP3    H138718   3.025   7.902   5.783
12925TIP3    H238719   2.960   7.915   5.918
12926TIP3   OH238720   5.845   0.003   6.066
12926TIP3    H138721   5.772   0.036   6.117
12926TIP3    H238722   5.880   0.081   6.022
12927TIP3   OH238723   3.478   7.633   6.594
12927TIP3    H138724   3.542   7.576   6.552
12927TIP3    H238725   3.437   7.681   6.522
12928TIP3   OH238726   2.905   7.467   5.361
12928TIP3    H138727   2.947   7.451   5.446
12928TIP3    H238728   2.841   7.395   5.353
12929TIP3   OH238729   1.594   7.449   6.195
12929TIP3    H138730   1.653   7.373   6.195
12929TIP3    H238731   1.651   7.524   6.182
12930TIP3   OH238732   1.387   7.761   6.258
12930TIP3    H138733   1.445   7.742   6.184
12930TIP3    H238734   1.382   7.857   6.260
12931TIP3   OH238735   3.325   7.742   6.397
12931TIP3    H138736   3.242   7.783   6.418
12931TIP3    H238737   3.302   7.665   6.344
12932TIP3   OH238738   2.946   7.379   4.996
12932TIP3    H138739   2.994   7.319   4.939
12932TIP3    H238740   3.003   7.456   5.002
12933TIP3   OH238741   1.377   7.208   5.757
12933TIP3    H138742   1.286   7.200   5.788
12933TIP3    H238743   1.373   7.273   5.687
12934TIP3   OH238744   1.600   7.310   6.542
12934TIP3    H138745   1.538   7.276   6.608
12934TIP3    H238746   1.544   7.343   6.472
12935TIP3   OH238747   3.238   7.495   6.294
12935TIP3    H138748   3.150   7.482   6.259
12935TIP3    H238749   3.279   7.408   6.289
12936TIP3   OH238750   2.442   7.422   5.930
12936TIP3    H138751   2.404   7.350   5.979
12936TIP3    H238752   2.512   7.382   5.878
12937TIP3   OH238753   2.945   7.342   5.822
12937TIP3    H138754   2.982   7.389   5.748
12937TIP3    H238755   2.851   7.363   5.820
12938TIP3   OH238756   3.059   7.417   5.585
12938TIP3    H138757   3.129   7.357   5.558
12938TIP3    H238758   3.097   7.504   5.572
12939TIP3   OH238759   1.683   7.124   5.927
12939TIP3    H138760   1.594   7.088   5.934
12939TIP3    H238761   1.739   7.047   5.922
12940TIP3   OH238762   1.459   7.014   5.567
12940TIP3    H138763   1.515   7.058   5.503
12940TIP3    H238764   1.444   7.079   5.636
12941TIP3   OH238765   2.158   7.168   5.823
12941TIP3    H138766   2.207   7.212   5.754
12941TIP3    H238767   2.202   7.195   5.904
12942TIP3   OH238768   2.658   7.306   5.802
12942TIP3    H138769   2.675   7.273   5.714
12942TIP3    H238770   2.665   7.230   5.859
12943TIP3   OH238771   2.716   7.259   5.366
12943TIP3    H138772   2.637   7.307   5.391
12943TIP3    H238773   2.705   7.172   5.404
12944TIP3   OH238774   1.618   7.137   5.381
12944TIP3    H138775   1.643   7.103   5.295
12944TIP3    H238776   1.684   7.203   5.402
12945TIP3   OH238777   2.094   7.353   5.441
12945TIP3    H138778   2.156   7.301   5.491
12945TIP3    H238779   2.107   7.443   5.472
12946TIP3   OH238780   1.905   7.416   6.783
12946TIP3    H138781   1.870   7.351   6.845
12946TIP3    H238782   1.997   7.426   6.808
12947TIP3   OH238783   2.154   7.403   6.910
12947TIP3    H138784   2.233   7.390   6.858
12947TIP3    H238785   2.153   7.329   6.971
12948TIP3   OH238786   2.984   7.494   6.719
12948TIP3    H138787   3.000   7.467   6.809
12948TIP3    H238788   3.070   7.491   6.677
12949TIP3   OH238789   7.031   0.416   5.060
12949TIP3    H138790   7.003   0.460   4.980
12949TIP3    H238791   6.986   0.331   5.058
12950TIP3   OH238792   6.995   0.372   5.357
12950TIP3    H138793   7.049   0.362   5.435
12950TIP3    H238794   6.952   0.287   5.346
12951TIP3   OH238795   6.298   0.262   5.746
12951TIP3    H138796   6.337   0.205   5.812
12951TIP3    H238797   6.372   0.301   5.701
12952TIP3   OH238798   7.250   0.622   5.113
12952TIP3    H138799   7.321   0.599   5.054
12952TIP3    H238800   7.276   0.707   5.150
12953TIP3   OH238801   6.415   0.609   5.542
12953TIP3    H138802   6.321   0.593   5.543
12953TIP3    H238803   6.439   0.609   5.449
12954TIP3   OH238804   3.154   7.906   5.210
12954TIP3    H138805   3.110   7.986   5.236
12954TIP3    H238806   3.084   7.851   5.173
12955TIP3   OH238807   6.040   0.192   5.420
12955TIP3    H138808   6.107   0.127   5.440
12955TIP3    H238809   6.084   0.255   5.363
12956TIP3   OH238810   6.926   0.600   5.496
12956TIP3    H138811   6.921   0.516   5.449
12956TIP3    H238812   6.861   0.592   5.565
12957TIP3   OH238813   5.003   7.941   5.400
12957TIP3    H138814   5.014   8.025   5.444
12957TIP3    H238815   5.047   7.953   5.315
12958TIP3   OH238816   7.230   0.104   5.429
12958TIP3    H138817   7.266   0.021   5.459
12958TIP3    H238818   7.192   0.085   5.344
12959TIP3   OH238819   3.745   7.778   5.392
12959TIP3    H138820   3.724   7.850   5.332
12959TIP3    H238821   3.692   7.705   5.361
12960TIP3   OH238822   4.450   7.872   5.025
12960TIP3    H138823   4.518   7.866   5.092
12960TIP3    H238824   4.496   7.905   4.947
12961TIP3   OH238825   3.370   7.999   5.517
12961TIP3    H138826   3.454   7.980   5.559
12961TIP3    H238827   3.372   7.949   5.436
12962TIP3   OH238828   6.637   0.166   5.335
12962TIP3    H138829   6.731   0.147   5.339
12962TIP3    H238830   6.599   0.085   5.301
12963TIP3   OH238831   7.873   0.147   5.558
12963TIP3    H138832   7.789   0.193   5.568
12963TIP3    H238833   7.935   0.197   5.610
12964TIP3   OH238834   3.726   7.784   5.839
12964TIP3    H138835   3.673   7.817   5.767
12964TIP3    H238836   3.671   7.797   5.917
12965TIP3   OH238837   6.960   0.524   4.820
12965TIP3    H138838   6.903   0.505   4.745
12965TIP3    H238839   6.956   0.619   4.829
12966TIP3   OH238840   6.690   0.523   5.610
12966TIP3    H138841   6.649   0.554   5.691
12966TIP3    H238842   6.666   0.588   5.544
12967TIP3   OH238843   4.610   7.907   5.244
12967TIP3    H138844   4.570   7.884   5.327
12967TIP3    H238845   4.670   7.978   5.265
12968TIP3   OH238846   3.614   7.891   5.609
12968TIP3    H138847   3.672   7.963   5.635
12968TIP3    H238848   3.660   7.847   5.538
12969TIP3   OH238849   6.528   0.649   5.785
12969TIP3    H138850   6.490   0.647   5.697
12969TIP3    H238851   6.456   0.625   5.842
12970TIP3   OH238852   5.916   0.331   4.987
12970TIP3    H138853   5.862   0.340   4.909
12970TIP3    H238854   5.950   0.419   5.003
12971TIP3   OH238855   4.803   7.841   5.572
12971TIP3    H138856   4.719   7.868   5.535
12971TIP3    H238857   4.867   7.865   5.505
12972TIP3   OH238858   4.067   7.478   5.571
12972TIP3    H138859   4.060   7.386   5.596
12972TIP3    H238860   3.990   7.520   5.609
12973TIP3   OH238861   7.290   0.633   4.806
12973TIP3    H138862   7.242   0.678   4.737
12973TIP3    H238863   7.346   0.570   4.760
12974TIP3   OH238864   7.607   0.899   5.448
12974TIP3    H138865   7.615   0.818   5.398
12974TIP3    H238866   7.656   0.964   5.398
12975TIP3   OH238867   6.864   0.229   4.848
12975TIP3    H138868   6.779   0.272   4.835
12975TIP3    H238869   6.901   0.222   4.760
12976TIP3   OH238870   6.807   0.015   4.527
12976TIP3    H138871   6.868   0.077   4.568
12976TIP3    H238872   6.863  -0.044   4.477
12977TIP3   OH238873   7.746   0.482   5.422
12977TIP3    H138874   7.662   0.529   5.418
12977TIP3    H238875   7.778   0.484   5.332
12978TIP3   OH238876   7.187   0.312   4.789
12978TIP3    H138877   7.142   0.369   4.851
12978TIP3    H238878   7.267   0.286   4.834
12979TIP3   OH238879   7.413   0.350   5.712
12979TIP3    H138880   7.415   0.430   5.764
12979TIP3    H238881   7.330   0.355   5.665
12980TIP3   OH238882   6.433   0.281   5.184
12980TIP3    H138883   6.392   0.218   5.125
12980TIP3    H238884   6.504   0.233   5.226
12981TIP3   OH238885   6.520   0.651   5.298
12981TIP3    H138886   6.461   0.667   5.224
12981TIP3    H238887   6.603   0.627   5.257
12982TIP3   OH238888   6.540   0.295   5.557
12982TIP3    H138889   6.578   0.255   5.478
12982TIP3    H238890   6.589   0.376   5.569
12983TIP3   OH238891   6.725   0.788   5.923
12983TIP3    H138892   6.668   0.858   5.956
12983TIP3    H238893   6.671   0.740   5.861
12984TIP3   OH238894   7.020   0.174   4.621
12984TIP3    H138895   7.082   0.231   4.667
12984TIP3    H238896   7.048   0.176   4.530
12985TIP3   OH238897   6.454   0.400   6.002
12985TIP3    H138898   6.454   0.485   6.046
12985TIP3    H238899   6.365   0.366   6.015
12986TIP3   OH238900   6.314   0.105   5.009
12986TIP3    H138901   6.249   0.156   4.960
12986TIP3    H238902   6.271   0.020   5.023
12987TIP3   OH238903   6.091   0.477   5.893
12987TIP3    H138904   6.017   0.457   5.835
12987TIP3    H238905   6.132   0.392   5.910
12988TIP3   OH238906   7.660   0.318   5.892
12988TIP3    H138907   7.579   0.328   5.843
12988TIP3    H238908   7.681   0.225   5.886
12989TIP3   OH238909   6.273   0.668   5.867
12989TIP3    H138910   6.242   0.728   5.934
12989TIP3    H238911   6.211   0.595   5.869
12990TIP3   OH238912   3.829   7.569   5.694
12990TIP3    H138913   3.745   7.536   5.662
12990TIP3    H238914   3.807   7.649   5.741
12991TIP3   OH238915   4.365   7.695   5.892
12991TIP3    H138916   4.435   7.669   5.952
12991TIP3    H238917   4.285   7.677   5.940
12992TIP3   OH238918   7.431   0.093   5.811
12992TIP3    H138919   7.383   0.089   5.894
12992TIP3    H238920   7.411   0.179   5.776
12993TIP3   OH238921   7.082   0.155   4.357
12993TIP3    H138922   7.055   0.121   4.272
12993TIP3    H238923   7.109   0.245   4.340
12994TIP3   OH238924   3.974   7.615   4.664
12994TIP3    H138925   3.938   7.622   4.752
12994TIP3    H238926   3.940   7.533   4.630
12995TIP3   OH238927   6.604   0.080   5.713
12995TIP3    H138928   6.557   0.087   5.796
12995TIP3    H238929   6.580   0.159   5.664
12996TIP3   OH238930   3.654   7.977   5.229
12996TIP3    H138931   3.564   7.956   5.254
12996TIP3    H238932   3.662   7.947   5.139
12997TIP3   OH238933   6.980   0.019   4.966
12997TIP3    H138934   6.935   0.094   4.926
12997TIP3    H238935   7.036  -0.015   4.896
12998TIP3   OH238936   7.164   0.302   6.020
12998TIP3    H138937   7.131   0.236   6.081
12998TIP3    H238938   7.255   0.315   6.046
12999TIP3   OH238939   7.149   0.043   5.178
12999TIP3    H138940   7.077   0.053   5.115
12999TIP3    H238941   7.200  -0.030   5.143
13000TIP3   OH238942   6.433   0.094   5.927
13000TIP3    H138943   6.439   0.156   6.000
13000TIP3    H238944   6.418   0.010   5.969
13001TIP3   OH238945   3.642   7.598   4.638
13001TIP3    H138946   3.631   7.600   4.733
13001TIP3    H238947   3.564   7.641   4.604
13002TIP3   OH238948   3.189   7.641   5.509
13002TIP3    H138949   3.265   7.675   5.557
13002TIP3    H238950   3.224   7.616   5.423
13003TIP3   OH238951   3.104   7.606   5.015
13003TIP3    H138952   3.148   7.638   4.936
13003TIP3    H238953   3.042   7.676   5.037
13004TIP3   OH238954   7.167   0.317   5.576
13004TIP3    H138955   7.192   0.238   5.528
13004TIP3    H238956   7.122   0.284   5.654
13005TIP3   OH238957   4.012   7.784   5.284
13005TIP3    H138958   3.934   7.777   5.338
13005TIP3    H238959   4.085   7.764   5.343
13006TIP3   OH238960   3.413   7.858   5.286
13006TIP3    H138961   3.324   7.862   5.250
13006TIP3    H238962   3.441   7.767   5.271
13007TIP3   OH238963   3.660   7.856   4.984
13007TIP3    H138964   3.754   7.866   4.969
13007TIP3    H238965   3.620   7.872   4.899
13008TIP3   OH238966   4.474   7.858   5.485
13008TIP3    H138967   4.449   7.875   5.575
13008TIP3    H238968   4.411   7.792   5.454
13009TIP3   OH238969   3.529   7.874   4.744
13009TIP3    H138970   3.465   7.826   4.692
13009TIP3    H238971   3.592   7.908   4.680
13010TIP3   OH238972   6.444   0.649   6.144
13010TIP3    H138973   6.518   0.648   6.205
13010TIP3    H238974   6.367   0.656   6.201
13011TIP3   OH238975   6.904   0.108   5.379
13011TIP3    H138976   6.957   0.041   5.335
13011TIP3    H238977   6.899   0.079   5.470
13012TIP3   OH238978   3.553   7.608   5.272
13012TIP3    H138979   3.523   7.533   5.324
13012TIP3    H238980   3.576   7.571   5.187
13013TIP3   OH238981   6.872   0.041   5.648
13013TIP3    H138982   6.784   0.066   5.677
13013TIP3    H238983   6.931   0.095   5.700
13014TIP3   OH238984   6.620   0.350   4.821
13014TIP3    H138985   6.548   0.290   4.804
13014TIP3    H238986   6.601   0.388   4.906
13015TIP3   OH238987   7.502   0.597   5.381
13015TIP3    H138988   7.528   0.645   5.303
13015TIP3    H238989   7.415   0.563   5.361
13016TIP3   OH238990   4.231   7.707   4.670
13016TIP3    H138991   4.137   7.690   4.664
13016TIP3    H238992   4.239   7.801   4.682
13017TIP3   OH238993   7.001   0.625   5.784
13017TIP3    H138994   7.012   0.659   5.873
13017TIP3    H238995   6.958   0.695   5.736
13018TIP3   OH238996   4.300   7.966   4.744
13018TIP3    H138997   4.396   7.973   4.747
13018TIP3    H238998   4.272   8.040   4.692
13019TIP3   OH238999   6.301   0.334   5.419
13019TIP3    H139000   6.331   0.326   5.329
13019TIP3    H239001   6.377   0.311   5.472
13020TIP3   OH239002   6.722   0.533   4.649
13020TIP3    H139003   6.684   0.613   4.686
13020TIP3    H239004   6.685   0.463   4.702
13021TIP3   OH239005   6.203   0.275   6.056
13021TIP3    H139006   6.197   0.262   6.151
13021TIP3    H239007   6.125   0.231   6.021
13022TIP3   OH239008   6.917   0.419   6.070
13022TIP3    H139009   6.852   0.359   6.034
13022TIP3    H239010   7.001   0.386   6.037
13023TIP3   OH239011   7.532   0.052   4.568
13023TIP3    H139012   7.484   0.002   4.502
13023TIP3    H239013   7.560   0.132   4.523
13024TIP3   OH239014   7.811   0.849   5.632
13024TIP3    H139015   7.726   0.884   5.605
13024TIP3    H239016   7.856   0.829   5.550
13025TIP3   OH239017   7.267   0.444   5.336
13025TIP3    H139018   7.254   0.412   5.425
13025TIP3    H239019   7.313   0.373   5.291
13026TIP3   OH239020   6.012  -0.003   4.784
13026TIP3    H139021   6.062   0.076   4.802
13026TIP3    H239022   5.931   0.007   4.834
13027TIP3   OH239023   6.569   0.479   5.060
13027TIP3    H139024   6.500   0.537   5.028
13027TIP3    H239025   6.523   0.413   5.111
13028TIP3   OH239026   6.979   0.541   4.449
13028TIP3    H139027   7.056   0.485   4.455
13028TIP3    H239028   6.916   0.491   4.398
13029TIP3   OH239029   3.553   7.857   6.046
13029TIP3    H139030   3.458   7.866   6.051
13029TIP3    H239031   3.577   7.802   6.120
13030TIP3   OH239032   7.217   0.446   4.555
13030TIP3    H139033   7.202   0.397   4.636
13030TIP3    H239034   7.311   0.464   4.554
13031TIP3   OH239035   6.421   0.462   4.580
13031TIP3    H139036   6.344   0.426   4.536
13031TIP3    H239037   6.462   0.518   4.515
13032TIP3   OH239038   6.129   0.233   4.860
13032TIP3    H139039   6.059   0.259   4.921
13032TIP3    H239040   6.131   0.303   4.795
13033TIP3   OH239041   4.401   7.922   5.741
13033TIP3    H139042   4.480   7.963   5.777
13033TIP3    H239043   4.387   7.846   5.798
13034TIP3   OH239044   4.280   7.668   4.940
13034TIP3    H139045   4.266   7.680   4.847
13034TIP3    H239046   4.333   7.743   4.967
13035TIP3   OH239047   3.940   7.864   5.029
13035TIP3    H139048   4.009   7.924   5.000
13035TIP3    H239049   3.961   7.846   5.120
13036TIP3   OH239050   7.091   0.152   5.787
13036TIP3    H139051   7.117   0.189   5.871
13036TIP3    H239052   7.134   0.067   5.784
13037TIP3   OH239053   4.100   7.567   5.118
13037TIP3    H139054   4.078   7.645   5.168
13037TIP3    H239055   4.166   7.596   5.056
13038TIP3   OH239056   3.615   7.585   4.918
13038TIP3    H139057   3.604   7.675   4.949
13038TIP3    H239058   3.709   7.570   4.923
13039TIP3   OH239059   7.697   0.047   5.800
13039TIP3    H139060   7.602   0.049   5.810
13039TIP3    H239061   7.711   0.005   5.715
13040TIP3   OH239062   7.362   0.232   5.190
13040TIP3    H139063   7.292   0.166   5.192
13040TIP3    H239064   7.436   0.191   5.234
13041TIP3   OH239065   6.052   0.418   4.653
13041TIP3    H139066   6.009   0.459   4.579
13041TIP3    H239067   6.119   0.362   4.614
13042TIP3   OH239068   3.181   7.736   4.791
13042TIP3    H139069   3.195   7.830   4.802
13042TIP3    H239070   3.144   7.728   4.703
13043TIP3   OH239071   3.566   7.485   5.659
13043TIP3    H139072   3.537   7.452   5.574
13043TIP3    H239073   3.556   7.410   5.718
13044TIP3   OH239074   6.226   0.579   6.323
13044TIP3    H139075   6.277   0.498   6.316
13044TIP3    H239076   6.158   0.571   6.257
13045TIP3   OH239077   6.236   0.232   4.570
13045TIP3    H139078   6.290   0.207   4.645
13045TIP3    H239079   6.293   0.220   4.494
13046TIP3   OH239080   6.845   0.672   6.132
13046TIP3    H139081   6.814   0.718   6.054
13046TIP3    H239082   6.869   0.585   6.100
13047TIP3   OH239083   6.728   0.466   4.380
13047TIP3    H139084   6.733   0.510   4.465
13047TIP3    H239085   6.688   0.381   4.399
13048TIP3   OH239086   7.267   0.667   5.694
13048TIP3    H139087   7.260   0.743   5.752
13048TIP3    H239088   7.179   0.628   5.696
13049TIP3   OH239089   6.399   0.365   6.322
13049TIP3    H139090   6.479   0.323   6.290
13049TIP3    H239091   6.423   0.400   6.408
13050TIP3   OH239092   6.430   0.165   4.755
13050TIP3    H139093   6.400   0.117   4.832
13050TIP3    H239094   6.472   0.099   4.700
13051TIP3   OH239095   6.702   0.274   5.960
13051TIP3    H139096   6.620   0.323   5.966
13051TIP3    H239097   6.742   0.303   5.878
13052TIP3   OH239098   3.704   7.993   4.576
13052TIP3    H139099   3.677   7.983   4.485
13052TIP3    H239100   3.798   8.010   4.571
13053TIP3   OH239101   7.216   0.641   6.063
13053TIP3    H139102   7.269   0.571   6.026
13053TIP3    H239103   7.187   0.607   6.148
13054TIP3   OH239104   7.406   0.317   4.233
13054TIP3    H139105   7.353   0.265   4.172
13054TIP3    H239106   7.476   0.353   4.179
13055TIP3   OH239107   6.806   0.051   6.079
13055TIP3    H139108   6.813  -0.021   6.017
13055TIP3    H239109   6.769   0.123   6.028
13056TIP3   OH239110   3.984   7.872   5.873
13056TIP3    H139111   4.013   7.909   5.790
13056TIP3    H239112   3.894   7.846   5.858
13057TIP3   OH239113   6.859   0.368   5.756
13057TIP3    H139114   6.932   0.427   5.772
13057TIP3    H239115   6.804   0.414   5.692
13058TIP3   OH239116   7.428   0.315   6.130
13058TIP3    H139117   7.454   0.224   6.144
13058TIP3    H239118   7.510   0.360   6.111
13059TIP3   OH239119   7.455   0.569   5.871
13059TIP3    H139120   7.394   0.617   5.815
13059TIP3    H239121   7.542   0.598   5.843
13060TIP3   OH239122   6.672   0.146   6.307
13060TIP3    H139123   6.614   0.074   6.333
13060TIP3    H239124   6.712   0.116   6.225
13061TIP3   OH239125   4.104   7.641   5.975
13061TIP3    H139126   4.063   7.721   5.941
13061TIP3    H239127   4.038   7.573   5.962
13062TIP3   OH239128   7.062   0.101   6.177
13062TIP3    H139129   7.057   0.095   6.272
13062TIP3    H239130   6.975   0.076   6.146
13063TIP3   OH239131   7.298   0.038   6.038
13063TIP3    H139132   7.222   0.042   6.097
13063TIP3    H239133   7.371   0.013   6.095
13064TIP3   OH239134   4.703   8.025   6.178
13064TIP3    H139135   4.723   7.932   6.183
13064TIP3    H239136   4.699   8.054   6.269
13065TIP3   OH239137   3.698   7.931   6.381
13065TIP3    H139138   3.704   7.843   6.344
13065TIP3    H239139   3.734   7.923   6.470
13066TIP3   OH239140   4.167   7.616   6.240
13066TIP3    H139141   4.237   7.551   6.234
13066TIP3    H239142   4.138   7.627   6.149
13067TIP3   OH239143   4.258   7.842   6.366
13067TIP3    H139144   4.226   7.767   6.317
13067TIP3    H239145   4.182   7.901   6.373
13068TIP3   OH239146   5.808   0.332   4.729
13068TIP3    H139147   5.896   0.363   4.707
13068TIP3    H239148   5.794   0.257   4.672
13069TIP3   OH239149   7.717   1.083   5.934
13069TIP3    H139150   7.639   1.113   5.980
13069TIP3    H239151   7.789   1.132   5.974
13070TIP3   OH239152   7.470   0.515   4.616
13070TIP3    H139153   7.533   0.559   4.558
13070TIP3    H239154   7.524   0.462   4.675
13071TIP3   OH239155   7.609   0.369   4.791
13071TIP3    H139156   7.547   0.328   4.851
13071TIP3    H239157   7.678   0.404   4.849
13072TIP3   OH239158   7.675   0.744   5.222
13072TIP3    H139159   7.721   0.672   5.180
13072TIP3    H239160   7.652   0.804   5.151
13073TIP3   OH239161   7.587   0.286   4.436
13073TIP3    H139162   7.513   0.293   4.376
13073TIP3    H239163   7.593   0.373   4.476
13074TIP3   OH239164   4.537   7.960   4.372
13074TIP3    H139165   4.498   7.998   4.294
13074TIP3    H239166   4.537   7.866   4.355
13075TIP3   OH239167   7.413   0.225   4.919
13075TIP3    H139168   7.424   0.133   4.896
13075TIP3    H239169   7.405   0.226   5.014
13076TIP3   OH239170   6.037   0.290   5.672
13076TIP3    H139171   6.021   0.250   5.586
13076TIP3    H239172   6.130   0.274   5.689
13077TIP3   OH239173   7.705   0.646   5.788
13077TIP3    H139174   7.767   0.575   5.772
13077TIP3    H239175   7.732   0.715   5.728
13078TIP3   OH239176   7.881   0.435   5.782
13078TIP3    H139177   7.807   0.391   5.822
13078TIP3    H239178   7.957   0.385   5.810
13079TIP3   OH239179   4.514   7.689   4.320
13079TIP3    H139180   4.587   7.671   4.380
13079TIP3    H239181   4.439   7.646   4.361
13080TIP3   OH239182   4.585   7.977   4.800
13080TIP3    H139183   4.627   7.893   4.811
13080TIP3    H239184   4.624   8.015   4.721
13081TIP3   OH239185   7.581   0.124   5.316
13081TIP3    H139186   7.662   0.145   5.270
13081TIP3    H239187   7.592   0.162   5.403
13082TIP3   OH239188   7.627   0.270   5.549
13082TIP3    H139189   7.553   0.301   5.601
13082TIP3    H239190   7.664   0.349   5.511
13083TIP3   OH239191   3.436   7.982   6.321
13083TIP3    H139192   3.530   7.980   6.341
13083TIP3    H239193   3.402   7.901   6.359
13084TIP3   OH239194   5.264   7.892   6.067
13084TIP3    H139195   5.329   7.830   6.034
13084TIP3    H239196   5.232   7.938   5.989
13085TIP3   OH239197   4.686   7.731   4.863
13085TIP3    H139198   4.736   7.717   4.943
13085TIP3    H239199   4.625   7.657   4.860
13086TIP3   OH239200   3.403   7.710   5.677
13086TIP3    H139201   3.455   7.630   5.682
13086TIP3    H239202   3.466   7.779   5.655
13087TIP3   OH239203   3.188   7.972   5.734
13087TIP3    H139204   3.232   7.968   5.649
13087TIP3    H239205   3.247   8.024   5.789
13088TIP3   OH239206   5.126   8.015   5.865
13088TIP3    H139207   5.032   8.034   5.863
13088TIP3    H239208   5.138   7.952   5.793
13089TIP3   OH239209   4.746   7.660   4.467
13089TIP3    H139210   4.788   7.581   4.434
13089TIP3    H239211   4.818   7.723   4.475
13090TIP3   OH239212   3.176   7.490   5.250
13090TIP3    H139213   3.089   7.472   5.286
13090TIP3    H239214   3.158   7.538   5.169
13091TIP3   OH239215   3.401   7.554   6.068
13091TIP3    H139216   3.346   7.537   6.145
13091TIP3    H239217   3.341   7.594   6.005
13092TIP3   OH239218   5.037   7.742   5.773
13092TIP3    H139219   4.951   7.734   5.732
13092TIP3    H239220   5.076   7.655   5.765
13093TIP3   OH239221   4.230   7.678   5.420
13093TIP3    H139222   4.192   7.606   5.470
13093TIP3    H239223   4.300   7.638   5.369
13094TIP3   OH239224   4.737   7.573   5.279
13094TIP3    H139225   4.773   7.635   5.216
13094TIP3    H239226   4.646   7.600   5.291
13095TIP3   OH239227   4.869   7.684   5.064
13095TIP3    H139228   4.928   7.609   5.065
13095TIP3    H239229   4.926   7.759   5.050
13096TIP3   OH239230   3.478   7.383   5.417
13096TIP3    H139231   3.389   7.350   5.425
13096TIP3    H239232   3.532   7.304   5.408
13097TIP3   OH239233   3.302   7.296   5.074
13097TIP3    H139234   3.326   7.343   4.994
13097TIP3    H239235   3.268   7.363   5.132
13098TIP3   OH239236   3.955   7.424   5.312
13098TIP3    H139237   4.003   7.469   5.243
13098TIP3    H239238   3.999   7.449   5.393
13099TIP3   OH239239   4.451   7.573   5.289
13099TIP3    H139240   4.449   7.541   5.199
13099TIP3    H239241   4.456   7.494   5.342
13100TIP3   OH239242   4.515   7.523   4.895
13100TIP3    H139243   4.425   7.556   4.903
13100TIP3    H239244   4.507   7.428   4.905
13101TIP3   OH239245   3.406   7.418   4.831
13101TIP3    H139246   3.451   7.356   4.774
13101TIP3    H239247   3.475   7.474   4.865
13102TIP3   OH239248   3.889   7.615   4.928
13102TIP3    H139249   3.948   7.560   4.981
13102TIP3    H239250   3.907   7.704   4.958
13103TIP3   OH239251   3.709   7.664   6.295
13103TIP3    H139252   3.674   7.598   6.354
13103TIP3    H239253   3.802   7.671   6.320
13104TIP3   OH239254   3.956   7.668   6.419
13104TIP3    H139255   4.032   7.646   6.366
13104TIP3    H239256   3.951   7.599   6.485
13105TIP3   OH239257   4.777   7.759   6.187
13105TIP3    H139258   4.793   7.728   6.275
13105TIP3    H239259   4.862   7.754   6.143
13106TIP3   OH239260   0.270   0.645   4.478
13106TIP3    H139261   0.228   0.731   4.480
13106TIP3    H239262   0.206   0.587   4.438
13107TIP3   OH239263   0.232   0.623   4.876
13107TIP3    H139264   0.276   0.612   4.960
13107TIP3    H239265   0.203   0.535   4.851
13108TIP3   OH239266   8.115   0.529   5.229
13108TIP3    H139267   8.147   0.469   5.296
13108TIP3    H239268   8.192   0.546   5.174
13109TIP3   OH239269   0.428   0.995   4.669
13109TIP3    H139270   0.445   0.909   4.708
13109TIP3    H239271   0.495   1.052   4.707
13110TIP3   OH239272   8.171   0.857   4.993
13110TIP3    H139273   8.169   0.767   4.959
13110TIP3    H239274   8.242   0.899   4.944
13111TIP3   OH239275   7.743   0.134   4.734
13111TIP3    H139276   7.700   0.219   4.741
13111TIP3    H239277   7.688   0.084   4.674
13112TIP3   OH239278   7.839   0.447   4.918
13112TIP3    H139279   7.908   0.382   4.928
13112TIP3    H239280   7.872   0.507   4.851
13113TIP3   OH239281   0.126   0.881   4.887
13113TIP3    H139282   0.152   0.793   4.858
13113TIP3    H239283   0.207   0.922   4.916
13114TIP3   OH239284   1.071   0.228   4.955
13114TIP3    H139285   1.136   0.289   4.989
13114TIP3    H239286   1.108   0.198   4.872
13115TIP3   OH239287   0.495   0.376   4.929
13115TIP3    H139288   0.547   0.299   4.953
13115TIP3    H239289   0.464   0.357   4.840
13116TIP3   OH239290   8.380   0.021   4.877
13116TIP3    H139291   8.354   0.089   4.816
13116TIP3    H239292   8.335  -0.058   4.846
13117TIP3   OH239293   0.569   0.125   4.517
13117TIP3    H139294   0.637   0.126   4.584
13117TIP3    H239295   0.614   0.150   4.437
13118TIP3   OH239296   8.004   0.237   5.005
13118TIP3    H139297   8.086   0.211   5.046
13118TIP3    H239298   8.004   0.193   4.920
13119TIP3   OH239299   8.412   0.414   4.812
13119TIP3    H139300   8.505   0.393   4.820
13119TIP3    H239301   8.372   0.334   4.776
13120TIP3   OH239302   0.112   0.856   4.372
13120TIP3    H139303   0.045   0.797   4.337
13120TIP3    H239304   0.126   0.920   4.303
13121TIP3   OH239305   8.484   0.770   5.093
13121TIP3    H139306   8.446   0.842   5.143
13121TIP3    H239307   8.534   0.813   5.024
13122TIP3   OH239308   0.735   0.165   4.732
13122TIP3    H139309   0.695   0.128   4.811
13122TIP3    H239310   0.774   0.248   4.762
13123TIP3   OH239311   8.238   0.123   5.095
13123TIP3    H139312   8.297   0.185   5.136
13123TIP3    H239313   8.290   0.079   5.028
13124TIP3   OH239314   8.369   0.979   5.225
13124TIP3    H139315   8.343   1.047   5.161
13124TIP3    H239316   8.286   0.948   5.260
13125TIP3   OH239317   7.688   0.567   4.454
13125TIP3    H139318   7.663   0.591   4.365
13125TIP3    H239319   7.732   0.645   4.488
13126TIP3   OH239320   0.883   0.064   5.077
13126TIP3    H139321   0.801   0.081   5.030
13126TIP3    H239322   0.948   0.119   5.034
13127TIP3   OH239323   5.845   7.734   5.077
13127TIP3    H139324   5.845   7.640   5.091
13127TIP3    H239325   5.780   7.769   5.138
13128TIP3   OH239326   0.573   0.953   4.114
13128TIP3    H139327   0.498   0.913   4.158
13128TIP3    H239328   0.580   1.040   4.154
13129TIP3   OH239329   0.123   0.492   4.301
13129TIP3    H139330   0.041   0.538   4.283
13129TIP3    H239331   0.161   0.476   4.215
13130TIP3   OH239332   0.100   0.290   3.973
13130TIP3    H139333   0.164   0.341   4.024
13130TIP3    H239334   0.154   0.225   3.927
13131TIP3   OH239335   0.447   0.544   4.295
13131TIP3    H139336   0.394   0.565   4.372
13131TIP3    H239337   0.525   0.501   4.330
13132TIP3   OH239338   8.227   0.551   4.657
13132TIP3    H139339   8.191   0.485   4.598
13132TIP3    H239340   8.301   0.508   4.700
13133TIP3   OH239341   8.370   0.975   4.839
13133TIP3    H139342   8.368   0.971   4.743
13133TIP3    H239343   8.460   0.951   4.862
13134TIP3   OH239344   8.335   0.545   5.045
13134TIP3    H139345   8.372   0.508   4.965
13134TIP3    H239346   8.389   0.623   5.061
13135TIP3   OH239347   8.474   0.986   5.508
13135TIP3    H139348   8.424   1.067   5.499
13135TIP3    H239349   8.489   0.956   5.419
13136TIP3   OH239350   0.302   0.438   4.088
13136TIP3    H139351   0.358   0.490   4.145
13136TIP3    H239352   0.337   0.452   4.000
13137TIP3   OH239353   8.244   0.650   5.510
13137TIP3    H139354   8.237   0.742   5.533
13137TIP3    H239355   8.154   0.619   5.502
13138TIP3   OH239356   6.482   7.674   4.152
13138TIP3    H139357   6.401   7.694   4.201
13138TIP3    H239358   6.494   7.750   4.095
13139TIP3   OH239359   8.118   0.363   4.480
13139TIP3    H139360   8.047   0.411   4.437
13139TIP3    H239361   8.087   0.272   4.482
13140TIP3   OH239362   7.904   0.761   5.389
13140TIP3    H139363   7.835   0.731   5.330
13140TIP3    H239364   7.937   0.680   5.430
13141TIP3   OH239365   8.117   0.923   5.316
13141TIP3    H139366   8.067   0.965   5.386
13141TIP3    H239367   8.080   0.835   5.309
13142TIP3   OH239368   6.168   7.950   5.380
13142TIP3    H139369   6.235   7.914   5.437
13142TIP3    H239370   6.085   7.934   5.425
13143TIP3   OH239371   0.400   0.442   3.834
13143TIP3    H139372   0.361   0.432   3.747
13143TIP3    H239373   0.470   0.506   3.822
13144TIP3   OH239374   5.743   7.870   4.123
13144TIP3    H139375   5.731   7.883   4.217
13144TIP3    H239376   5.704   7.784   4.105
13145TIP3   OH239377   8.400   0.323   5.194
13145TIP3    H139378   8.354   0.333   5.277
13145TIP3    H239379   8.381   0.404   5.146
13146TIP3   OH239380   8.276   0.200   4.698
13146TIP3    H139381   8.183   0.187   4.717
13146TIP3    H239382   8.287   0.171   4.608
13147TIP3   OH239383   0.262   0.302   4.445
13147TIP3    H139384   0.207   0.367   4.401
13147TIP3    H239385   0.316   0.265   4.375
13148TIP3   OH239386   0.419   0.310   4.672
13148TIP3    H139387   0.354   0.331   4.605
13148TIP3    H239388   0.470   0.238   4.634
13149TIP3   OH239389   8.225   0.346   5.410
13149TIP3    H139390   8.290   0.395   5.461
13149TIP3    H239391   8.205   0.269   5.464
13150TIP3   OH239392   5.054   7.867   4.985
13150TIP3    H139393   5.109   7.902   5.055
13150TIP3    H239394   5.046   7.939   4.923
13151TIP3   OH239395   4.958   7.855   4.511
13151TIP3    H139396   5.048   7.887   4.518
13151TIP3    H239397   4.922   7.902   4.436
13152TIP3   OH239398   0.370   0.548   5.104
13152TIP3    H139399   0.424   0.502   5.040
13152TIP3    H239400   0.375   0.494   5.183
13153TIP3   OH239401   0.149   0.020   4.785
13153TIP3    H139402   0.068   0.022   4.836
13153TIP3    H239403   0.218   0.014   4.850
13154TIP3   OH239404   8.009   0.116   4.763
13154TIP3    H139405   7.915   0.127   4.752
13154TIP3    H239406   8.036   0.063   4.689
13155TIP3   OH239407   0.600   0.115   4.981
13155TIP3    H139408   0.584   0.135   5.074
13155TIP3    H239409   0.528   0.058   4.956
13156TIP3   OH239410   8.234   0.900   5.618
13156TIP3    H139411   8.324   0.927   5.601
13156TIP3    H239412   8.213   0.937   5.704
13157TIP3   OH239413   0.175   0.350   4.861
13157TIP3    H139414   0.246   0.305   4.815
13157TIP3    H239415   0.179   0.316   4.950
13158TIP3   OH239416   5.394   7.836   4.744
13158TIP3    H139417   5.446   7.777   4.690
13158TIP3    H239418   5.347   7.891   4.682
13159TIP3   OH239419   0.163   0.271   5.129
13159TIP3    H139420   0.076   0.299   5.157
13159TIP3    H239421   0.223   0.312   5.191
13160TIP3   OH239422   8.399   0.657   4.268
13160TIP3    H139423   8.336   0.590   4.241
13160TIP3    H239424   8.362   0.694   4.348
13161TIP3   OH239425   6.007   7.962   4.165
13161TIP3    H139426   5.914   7.947   4.148
13161TIP3    H239427   6.015   8.057   4.173
13162TIP3   OH239428   0.412   0.211   4.225
13162TIP3    H139429   0.507   0.213   4.233
13162TIP3    H239430   0.392   0.284   4.166
13163TIP3   OH239431   8.104   0.604   4.900
13163TIP3    H139432   8.129   0.590   4.809
13163TIP3    H239433   8.169   0.556   4.951
13164TIP3   OH239434   8.442   0.820   4.051
13164TIP3    H139435   8.476   0.899   4.092
13164TIP3    H239436   8.431   0.758   4.123
13165TIP3   OH239437   7.984   0.553   5.548
13165TIP3    H139438   7.987   0.530   5.640
13165TIP3    H239439   7.907   0.508   5.514
13166TIP3   OH239440   0.822   0.302   4.044
13166TIP3    H139441   0.768   0.260   3.977
13166TIP3    H239442   0.856   0.381   4.002
13167TIP3   OH239443   0.464   0.749   4.783
13167TIP3    H139444   0.386   0.694   4.791
13167TIP3    H239445   0.533   0.689   4.753
13168TIP3   OH239446   7.800   0.268   4.255
13168TIP3    H139447   7.854   0.344   4.273
13168TIP3    H239448   7.733   0.269   4.324
13169TIP3   OH239449   8.292   0.764   4.494
13169TIP3    H139450   8.224   0.829   4.513
13169TIP3    H239451   8.273   0.692   4.554
13170TIP3   OH239452   0.381   0.920   4.986
13170TIP3    H139453   0.429   0.898   5.066
13170TIP3    H239454   0.422   0.866   4.918
13171TIP3   OH239455   0.328   0.857   3.817
13171TIP3    H139456   0.368   0.786   3.868
13171TIP3    H239457   0.237   0.828   3.804
13172TIP3   OH239458   8.178   0.115   5.567
13172TIP3    H139459   8.107   0.051   5.562
13172TIP3    H239460   8.254   0.064   5.593
13173TIP3   OH239461   0.480   0.699   3.984
13173TIP3    H139462   0.438   0.735   4.062
13173TIP3    H239463   0.562   0.748   3.976
13174TIP3   OH239464   8.177   0.785   3.964
13174TIP3    H139465   8.183   0.704   3.914
13174TIP3    H239466   8.268   0.808   3.983
13175TIP3   OH239467   7.927   0.499   4.342
13175TIP3    H139468   7.847   0.519   4.390
13175TIP3    H239469   7.944   0.578   4.290
13176TIP3   OH239470   0.557   0.169   5.250
13176TIP3    H139471   0.639   0.189   5.295
13176TIP3    H239472   0.528   0.087   5.290
13177TIP3   OH239473   6.082   7.921   4.433
13177TIP3    H139474   6.051   7.939   4.344
13177TIP3    H239475   6.125   8.002   4.460
13178TIP3   OH239476   0.090   0.103   4.528
13178TIP3    H139477   0.147   0.175   4.503
13178TIP3    H239478   0.109   0.089   4.621
13179TIP3   OH239479   0.362   0.363   5.307
13179TIP3    H139480   0.359   0.369   5.402
13179TIP3    H239481   0.427   0.296   5.289
13180TIP3   OH239482   5.896   7.824   4.616
13180TIP3    H139483   5.869   7.902   4.666
13180TIP3    H239484   5.960   7.857   4.553
13181TIP3   OH239485   0.614   0.521   4.677
13181TIP3    H139486   0.543   0.458   4.683
13181TIP3    H239487   0.677   0.492   4.743
13182TIP3   OH239488   7.950   0.739   4.178
13182TIP3    H139489   8.002   0.809   4.138
13182TIP3    H239490   7.958   0.665   4.118
13183TIP3   OH239491   7.743  -0.014   4.285
13183TIP3    H139492   7.812   0.052   4.296
13183TIP3    H239493   7.702   0.008   4.202
13184TIP3   OH239494   8.019   0.830   5.818
13184TIP3    H139495   8.080   0.757   5.805
13184TIP3    H239496   7.965   0.831   5.739
13185TIP3   OH239497   8.023   0.512   4.035
13185TIP3    H139498   8.079   0.485   4.108
13185TIP3    H239499   8.083   0.523   3.961
13186TIP3   OH239500   0.076   0.744   3.817
13186TIP3    H139501   0.019   0.765   3.891
13186TIP3    H239502   0.055   0.654   3.794
13187TIP3   OH239503   8.187   0.612   5.783
13187TIP3    H139504   8.228   0.610   5.696
13187TIP3    H239505   8.256   0.584   5.842
13188TIP3   OH239506   8.222   0.449   4.223
13188TIP3    H139507   8.201   0.403   4.304
13188TIP3    H239508   8.259   0.382   4.166
13189TIP3   OH239509   8.463   0.502   5.440
13189TIP3    H139510   8.402   0.573   5.459
13189TIP3    H239511   8.526   0.541   5.379
13190TIP3   OH239512   8.331   0.281   4.040
13190TIP3    H139513   8.297   0.267   3.951
13190TIP3    H239514   8.426   0.275   4.030
13191TIP3   OH239515   0.605   0.584   3.699
13191TIP3    H139516   0.590   0.534   3.618
13191TIP3    H239517   0.587   0.675   3.674
13192TIP3   OH239518   0.067   0.283   5.557
13192TIP3    H139519   0.064   0.209   5.496
13192TIP3    H239520   0.037   0.357   5.505
13193TIP3   OH239521   0.064   0.084   5.357
13193TIP3    H139522   0.082   0.118   5.269
13193TIP3    H239523   0.018   0.001   5.340
13194TIP3   OH239524   0.132   0.605   5.251
13194TIP3    H139525   0.217   0.594   5.209
13194TIP3    H239526   0.084   0.666   5.196
13195TIP3   OH239527   8.446   0.393   5.795
13195TIP3    H139528   8.407   0.306   5.808
13195TIP3    H239529   8.484   0.389   5.707
13196TIP3   OH239530   5.905   7.902   5.452
13196TIP3    H139531   5.863   7.987   5.435
13196TIP3    H239532   5.841   7.838   5.422
13197TIP3   OH239533   0.335   0.350   5.585
13197TIP3    H139534   0.346   0.365   5.679
13197TIP3    H239535   0.244   0.322   5.577
13198TIP3   OH239536   8.328   0.162   5.873
13198TIP3    H139537   8.322   0.075   5.832
13198TIP3    H239538   8.366   0.145   5.959
13199TIP3   OH239539   6.006   7.886   5.705
13199TIP3    H139540   6.070   7.815   5.694
13199TIP3    H239541   5.958   7.888   5.622
13200TIP3   OH239542   0.293   0.055   5.899
13200TIP3    H139543   0.323  -0.010   5.836
13200TIP3    H239544   0.302   0.138   5.853
13201TIP3   OH239545   7.657   0.623   4.188
13201TIP3    H139546   7.691   0.684   4.122
13201TIP3    H239547   7.630   0.546   4.137
13202TIP3   OH239548   0.827   0.881   4.189
13202TIP3    H139549   0.873   0.958   4.155
13202TIP3    H239550   0.742   0.882   4.144
13203TIP3   OH239551   0.785   0.701   4.395
13203TIP3    H139552   0.739   0.630   4.351
13203TIP3    H239553   0.798   0.766   4.326
13204TIP3   OH239554   0.795   0.546   3.891
13204TIP3    H139555   0.738   0.524   3.818
13204TIP3    H239556   0.785   0.641   3.903
13205TIP3   OH239557   0.678   0.201   3.835
13205TIP3    H139558   0.628   0.232   3.760
13205TIP3    H239559   0.671   0.106   3.831
13206TIP3   OH239560   0.658   0.435   4.413
13206TIP3    H139561   0.709   0.355   4.404
13206TIP3    H239562   0.667   0.459   4.506
13207TIP3   OH239563   7.852   0.544   5.170
13207TIP3    H139564   7.838   0.498   5.087
13207TIP3    H239565   7.945   0.534   5.187
13208TIP3   OH239566   6.305   7.946   3.821
13208TIP3    H139567   6.369   7.911   3.883
13208TIP3    H239568   6.222   7.905   3.847
13209TIP3   OH239569   0.697   0.183   4.271
13209TIP3    H139570   0.742   0.099   4.280
13209TIP3    H239571   0.736   0.224   4.193
13210TIP3   OH239572   0.817   0.414   4.832
13210TIP3    H139573   0.894   0.425   4.777
13210TIP3    H239574   0.849   0.425   4.921
13211TIP3   OH239575   8.070   0.253   5.857
13211TIP3    H139576   8.160   0.228   5.836
13211TIP3    H239577   8.023   0.170   5.868
13212TIP3   OH239578   6.477   7.950   4.324
13212TIP3    H139579   6.512   7.933   4.411
13212TIP3    H239580   6.409   7.885   4.312
13213TIP3   OH239581   5.217   7.956   5.196
13213TIP3    H139582   5.276   7.895   5.240
13213TIP3    H239583   5.274   8.026   5.165
13214TIP3   OH239584   7.824   0.212   5.220
13214TIP3    H139585   7.870   0.217   5.136
13214TIP3    H239586   7.889   0.241   5.284
13215TIP3   OH239587   6.525   7.879   3.976
13215TIP3    H139588   6.571   7.822   3.915
13215TIP3    H239589   6.575   7.961   3.974
13216TIP3   OH239590   4.929   7.702   4.733
13216TIP3    H139591   4.836   7.712   4.756
13216TIP3    H239592   4.940   7.756   4.655
13217TIP3   OH239593   5.200   7.875   5.586
13217TIP3    H139594   5.158   7.811   5.644
13217TIP3    H239595   5.141   7.882   5.511
13218TIP3   OH239596   6.808   8.025   5.218
13218TIP3    H139597   6.716   8.023   5.193
13218TIP3    H239598   6.832   7.933   5.229
13219TIP3   OH239599   6.047   7.953   4.924
13219TIP3    H139600   6.008   7.877   4.967
13219TIP3    H239601   6.107   7.916   4.860
13220TIP3   OH239602   6.513   7.858   4.818
13220TIP3    H139603   6.552   7.891   4.737
13220TIP3    H239604   6.418   7.870   4.805
13221TIP3   OH239605   6.614   7.891   4.565
13221TIP3    H139606   6.687   7.834   4.540
13221TIP3    H239607   6.644   7.979   4.544
13222TIP3   OH239608   5.247   7.638   4.867
13222TIP3    H139609   5.297   7.717   4.845
13222TIP3    H239610   5.313   7.573   4.891
13223TIP3   OH239611   5.748   7.672   4.808
13223TIP3    H139612   5.798   7.721   4.743
13223TIP3    H239613   5.778   7.707   4.892
13224TIP3   OH239614   6.238   7.846   4.756
13224TIP3    H139615   6.227   7.818   4.664
13224TIP3    H239616   6.239   7.764   4.805
13225TIP3   OH239617   6.284   7.759   4.329
13225TIP3    H139618   6.207   7.807   4.358
13225TIP3    H239619   6.274   7.672   4.368
13226TIP3   OH239620   5.204   7.758   4.295
13226TIP3    H139621   5.288   7.714   4.302
13226TIP3    H239622   5.210   7.832   4.355
13227TIP3   OH239623   5.722   7.884   4.391
13227TIP3    H139624   5.755   7.829   4.462
13227TIP3    H239625   5.718   7.972   4.428
13228TIP3   OH239626   5.492   7.916   5.790
13228TIP3    H139627   5.458   7.837   5.831
13228TIP3    H239628   5.584   7.919   5.815
13229TIP3   OH239629   5.722   7.935   5.938
13229TIP3    H139630   5.811   7.965   5.919
13229TIP3    H239631   5.735   7.852   5.985
13230TIP3   OH239632   0.966   0.389   4.266
13230TIP3    H139633   0.979   0.477   4.232
13230TIP3    H239634   0.909   0.347   4.202
13231TIP3   OH239635   1.124   0.792   4.351
13231TIP3    H139636   1.146   0.707   4.390
13231TIP3    H239637   1.207   0.825   4.316
13232TIP3   OH239638   1.570   0.217   4.416
13232TIP3    H139639   1.598   0.308   4.410
13232TIP3    H239640   1.556   0.190   4.325
13233TIP3   OH239641   1.230   0.571   4.458
13233TIP3    H139642   1.207   0.533   4.543
13233TIP3    H239643   1.268   0.498   4.409
13234TIP3   OH239644   0.952   1.006   3.931
13234TIP3    H139645   1.013   0.965   3.869
13234TIP3    H239646   0.921   1.084   3.886
13235TIP3   OH239647   1.350   0.560   3.867
13235TIP3    H139648   1.272   0.612   3.883
13235TIP3    H239649   1.349   0.495   3.938
13236TIP3   OH239650   1.618   0.420   4.127
13236TIP3    H139651   1.526   0.406   4.149
13236TIP3    H239652   1.619   0.504   4.081
13237TIP3   OH239653   1.515   0.066   3.583
13237TIP3    H139654   1.521   0.073   3.678
13237TIP3    H239655   1.482   0.151   3.554
13238TIP3   OH239656   1.040   0.103   4.454
13238TIP3    H139657   1.128   0.135   4.471
13238TIP3    H239658   1.046   0.061   4.368
13239TIP3   OH239659   1.019   0.088   3.980
13239TIP3    H139660   1.113   0.094   3.963
13239TIP3    H239661   0.990   0.179   3.988
13240TIP3   OH239662   1.383   0.412   4.295
13240TIP3    H139663   1.334   0.454   4.225
13240TIP3    H239664   1.363   0.318   4.286
13241TIP3   OH239665   1.433   0.334   3.720
13241TIP3    H139666   1.349   0.310   3.681
13241TIP3    H239667   1.414   0.413   3.772
13242TIP3   OH239668   1.502   0.116   4.177
13242TIP3    H139669   1.477   0.028   4.148
13242TIP3    H239670   1.588   0.131   4.139
13243TIP3   OH239671   1.007   0.482   3.687
13243TIP3    H139672   1.083   0.539   3.678
13243TIP3    H239673   0.977   0.497   3.776
13244TIP3   OH239674   1.523   0.127   3.865
13244TIP3    H139675   1.505   0.207   3.816
13244TIP3    H239676   1.619   0.119   3.862
13245TIP3   OH239677   1.132   0.248   3.753
13245TIP3    H139678   1.084   0.322   3.716
13245TIP3    H239679   1.075   0.173   3.738
13246TIP3   OH239680   7.040   7.932   4.664
13246TIP3    H139681   7.043   7.900   4.573
13246TIP3    H239682   7.083   7.863   4.714
13247TIP3   OH239683   0.933   0.849   3.671
13247TIP3    H139684   0.966   0.929   3.630
13247TIP3    H239685   0.916   0.789   3.598
13248TIP3   OH239686   1.289   0.138   4.792
13248TIP3    H139687   1.300   0.058   4.741
13248TIP3    H239688   1.376   0.177   4.795
13249TIP3   OH239689   1.189   0.494   4.713
13249TIP3    H139690   1.139   0.412   4.717
13249TIP3    H239691   1.127   0.561   4.741
13250TIP3   OH239692   6.732   7.965   4.214
13250TIP3    H139693   6.641   7.942   4.232
13250TIP3    H239694   6.727   8.026   4.140
13251TIP3   OH239695   1.348   0.106   5.063
13251TIP3    H139696   1.279   0.072   5.120
13251TIP3    H239697   1.311   0.101   4.975
13252TIP3   OH239698   7.019   7.865   4.395
13252TIP3    H139699   6.933   7.825   4.407
13252TIP3    H239700   7.080   7.791   4.397
13253TIP3   OH239701   6.831   7.770   4.018
13253TIP3    H139702   6.850   7.812   3.935
13253TIP3    H239703   6.802   7.841   4.076
13254TIP3   OH239704   1.854   0.035   4.331
13254TIP3    H139705   1.836   0.070   4.244
13254TIP3    H239706   1.920  -0.033   4.316
13255TIP3   OH239707   6.937   7.872   3.758
13255TIP3    H139708   7.009   7.827   3.714
13255TIP3    H239709   6.981   7.932   3.819
13256TIP3   OH239710   1.793   0.129   3.832
13256TIP3    H139711   1.855   0.061   3.807
13256TIP3    H239712   1.845   0.208   3.840
13257TIP3   OH239713   7.411   5.709   1.106
13257TIP3    H139714   7.429   5.766   1.031
13257TIP3    H239715   7.482   5.644   1.105
13258TIP3   OH239716   7.019   6.009   1.040
13258TIP3    H139717   7.055   5.921   1.029
13258TIP3    H239718   7.095   6.063   1.060
13259TIP3   OH239719   7.179   5.162   1.204
13259TIP3    H139720   7.159   5.109   1.127
13259TIP3    H239721   7.265   5.132   1.232
13260TIP3   OH239722   7.268   5.632   1.341
13260TIP3    H139723   7.303   5.672   1.421
13260TIP3    H239724   7.332   5.654   1.273
13261TIP3   OH239725   7.487   6.108   1.026
13261TIP3    H139726   7.511   6.160   0.949
13261TIP3    H239727   7.391   6.104   1.024
13262TIP3   OH239728   6.592   5.668   1.072
13262TIP3    H139729   6.624   5.581   1.097
13262TIP3    H239730   6.671   5.719   1.056
13263TIP3   OH239731   7.128   5.753   0.988
13263TIP3    H139732   7.156   5.763   1.079
13263TIP3    H239733   7.188   5.809   0.938
13264TIP3   OH239734   7.383   5.247   0.986
13264TIP3    H139735   7.474   5.224   0.970
13264TIP3    H239736   7.372   5.334   0.946
13265TIP3   OH239737   7.658   5.279   1.316
13265TIP3    H139738   7.688   5.220   1.247
13265TIP3    H239739   7.563   5.265   1.319
13266TIP3   OH239740   7.394   6.129   1.293
13266TIP3    H139741   7.443   6.047   1.298
13266TIP3    H239742   7.422   6.169   1.210
13267TIP3   OH239743   0.354   5.628   1.284
13267TIP3    H139744   0.332   5.712   1.243
13267TIP3    H239745   0.303   5.564   1.235
13268TIP3   OH239746   0.586   5.911   1.291
13268TIP3    H139747   0.541   5.862   1.361
13268TIP3    H239748   0.596   5.999   1.327
13269TIP3   OH239749   0.305   6.366   1.326
13269TIP3    H139750   0.338   6.279   1.305
13269TIP3    H239751   0.284   6.362   1.419
13270TIP3   OH239752   0.261   5.833   1.124
13270TIP3    H139753   0.242   5.818   1.032
13270TIP3    H239754   0.219   5.918   1.144
13271TIP3   OH239755   7.804   5.606   1.196
13271TIP3    H139756   7.714   5.587   1.223
13271TIP3    H239757   7.820   5.695   1.227
13272TIP3   OH239758   0.617   6.172   1.383
13272TIP3    H139759   0.566   6.184   1.463
13272TIP3    H239760   0.669   6.252   1.376
13273TIP3   OH239761   0.411   6.175   1.124
13273TIP3    H139762   0.467   6.100   1.101
13273TIP3    H239763   0.468   6.251   1.117
13274TIP3   OH239764   0.573   5.968   1.026
13274TIP3    H139765   0.562   5.886   0.977
13274TIP3    H239766   0.579   5.940   1.117
13275TIP3   OH239767   0.220   5.464   1.104
13275TIP3    H139768   0.143   5.516   1.083
13275TIP3    H239769   0.270   5.460   1.023
13276TIP3   OH239770   0.188   5.261   0.786
13276TIP3    H139771   0.246   5.318   0.837
13276TIP3    H239772   0.248   5.198   0.745
13277TIP3   OH239773   0.568   5.542   1.052
13277TIP3    H139774   0.559   5.563   1.146
13277TIP3    H239775   0.629   5.469   1.049
13278TIP3   OH239776   0.508   6.190   1.640
13278TIP3    H139777   0.571   6.233   1.698
13278TIP3    H239778   0.542   6.101   1.630
13279TIP3   OH239779   0.385   5.433   0.882
13279TIP3    H139780   0.449   5.483   0.933
13279TIP3    H239781   0.414   5.443   0.791
13280TIP3   OH239782   0.151   6.091   1.152
13280TIP3    H139783   0.241   6.122   1.152
13280TIP3    H239784   0.102   6.156   1.103
13281TIP3   OH239785   8.208   5.311   1.238
13281TIP3    H139786   8.164   5.395   1.222
13281TIP3    H239787   8.238   5.317   1.329
13282TIP3   OH239788   0.730   6.017   0.509
13282TIP3    H139789   0.732   6.112   0.498
13282TIP3    H239790   0.819   5.988   0.485
13283TIP3   OH239791   0.053   6.305   0.983
13283TIP3    H139792   0.014   6.290   0.897
13283TIP3    H239793   0.025   6.394   1.007
13284TIP3   OH239794   8.120   6.129   1.420
13284TIP3    H139795   8.108   6.112   1.514
13284TIP3    H239796   8.031   6.142   1.387
13285TIP3   OH239797   0.262   6.239   0.610
13285TIP3    H139798   0.312   6.165   0.574
13285TIP3    H239799   0.297   6.250   0.699
13286TIP3   OH239800   0.308   6.279   0.881
13286TIP3    H139801   0.222   6.283   0.922
13286TIP3    H239802   0.365   6.242   0.948
13287TIP3   OH239803   0.472   5.442   0.625
13287TIP3    H139804   0.445   5.405   0.542
13287TIP3    H239805   0.561   5.474   0.609
13288TIP3   OH239806   0.332   5.240   1.227
13288TIP3    H139807   0.288   5.323   1.206
13288TIP3    H239808   0.382   5.219   1.148
13289TIP3   OH239809   8.409   5.010   1.255
13289TIP3    H139810   8.497   5.016   1.218
13289TIP3    H239811   8.351   5.005   1.179
13290TIP3   OH239812   8.279   5.017   0.983
13290TIP3    H139813   8.198   5.064   1.003
13290TIP3    H239814   8.332   5.081   0.935
13291TIP3   OH239815   8.489   5.615   1.044
13291TIP3    H139816   8.434   5.538   1.033
13291TIP3    H239817   8.470   5.645   1.133
13292TIP3   OH239818   0.348   4.976   0.839
13292TIP3    H139819   0.395   4.901   0.874
13292TIP3    H239820   0.369   5.048   0.899
13293TIP3   OH239821   0.454   5.179   0.990
13293TIP3    H139822   0.543   5.144   0.989
13293TIP3    H239823   0.462   5.264   0.947
13294TIP3   OH239824   0.138   5.766   0.875
13294TIP3    H139825   0.090   5.849   0.876
13294TIP3    H239826   0.088   5.709   0.934
13295TIP3   OH239827   0.679   6.092   0.788
13295TIP3    H139828   0.644   6.039   0.859
13295TIP3    H239829   0.684   6.032   0.713
13296TIP3   OH239830   8.301   5.948   1.316
13296TIP3    H139831   8.351   6.012   1.264
13296TIP3    H239832   8.243   6.001   1.370
13297TIP3   OH239833   8.043   5.160   1.012
13297TIP3    H139834   8.090   5.242   0.999
13297TIP3    H239835   7.975   5.182   1.076
13298TIP3   OH239836   8.427   5.706   1.290
13298TIP3    H139837   8.381   5.788   1.305
13298TIP3    H239838   8.494   5.702   1.358
13299TIP3   OH239839   8.268   6.201   1.190
13299TIP3    H139840   8.215   6.188   1.269
13299TIP3    H239841   8.303   6.289   1.199
13300TIP3   OH239842   0.430   5.816   0.658
13300TIP3    H139843   0.475   5.790   0.737
13300TIP3    H239844   0.346   5.769   0.661
13301TIP3   OH239845   0.756   6.290   0.475
13301TIP3    H139846   0.769   6.345   0.398
13301TIP3    H239847   0.684   6.331   0.523
13302TIP3   OH239848   0.595   5.741   0.868
13302TIP3    H139849   0.576   5.673   0.933
13302TIP3    H239850   0.690   5.735   0.856
13303TIP3   OH239851   8.323   5.783   0.671
13303TIP3    H139852   8.342   5.695   0.637
13303TIP3    H239853   8.310   5.769   0.765
13304TIP3   OH239854   8.263   5.782   0.940
13304TIP3    H139855   8.338   5.760   0.996
13304TIP3    H239856   8.250   5.876   0.953
13305TIP3   OH239857   8.070   5.532   1.176
13305TIP3    H139858   7.975   5.544   1.176
13305TIP3    H239859   8.105   5.621   1.177
13306TIP3   OH239860   8.488   5.992   0.885
13306TIP3    H139861   8.401   6.016   0.916
13306TIP3    H239862   8.518   6.067   0.835
13307TIP3   OH239863   0.176   5.017   1.196
13307TIP3    H139864   0.216   5.103   1.210
13307TIP3    H239865   0.251   4.957   1.189
13308TIP3   OH239866   8.224   6.061   0.961
13308TIP3    H139867   8.217   6.128   0.893
13308TIP3    H239868   8.243   6.110   1.041
13309TIP3   OH239869   7.997   5.701   0.914
13309TIP3    H139870   7.985   5.790   0.947
13309TIP3    H239871   8.092   5.693   0.902
13310TIP3   OH239872   7.925   4.919   0.907
13310TIP3    H139873   7.968   4.981   0.965
13310TIP3    H239874   7.869   4.867   0.965
13311TIP3   OH239875   0.728   6.437   1.396
13311TIP3    H139876   0.665   6.483   1.342
13311TIP3    H239877   0.812   6.453   1.354
13312TIP3   OH239878   7.800   5.860   1.327
13312TIP3    H139879   7.844   5.937   1.362
13312TIP3    H239880   7.708   5.884   1.325
13313TIP3   OH239881   8.455   5.996   0.564
13313TIP3    H139882   8.413   5.923   0.610
13313TIP3    H239883   8.529   5.956   0.518
13314TIP3   OH239884   0.388   6.028   0.488
13314TIP3    H139885   0.420   5.962   0.550
13314TIP3    H239886   0.449   6.023   0.414
13315TIP3   OH239887   8.208   5.489   0.795
13315TIP3    H139888   8.264   5.475   0.871
13315TIP3    H239889   8.268   5.506   0.723
13316TIP3   OH239890   0.175   5.698   0.613
13316TIP3    H139891   0.152   5.713   0.705
13316TIP3    H239892   0.157   5.605   0.599
13317TIP3   OH239893   8.344   5.388   1.012
13317TIP3    H139894   8.310   5.351   1.093
13317TIP3    H239895   8.377   5.313   0.962
13318TIP3   OH239896   8.422   5.199   0.829
13318TIP3    H139897   8.391   5.216   0.739
13318TIP3    H239898   8.516   5.214   0.825
13319TIP3   OH239899   0.714   5.528   0.517
13319TIP3    H139900   0.697   5.484   0.433
13319TIP3    H239901   0.689   5.619   0.502
13320TIP3   OH239902   8.248   6.272   0.785
13320TIP3    H139903   8.339   6.260   0.757
13320TIP3    H239904   8.206   6.317   0.712
13321TIP3   OH239905   7.742   5.660   0.848
13321TIP3    H139906   7.835   5.673   0.867
13321TIP3    H239907   7.734   5.568   0.825
13322TIP3   OH239908   7.627   6.316   1.335
13322TIP3    H139909   7.547   6.337   1.287
13322TIP3    H239910   7.596   6.289   1.422
13323TIP3   OH239911   0.941   6.550   1.268
13323TIP3    H139912   0.922   6.625   1.324
13323TIP3    H239913   0.988   6.588   1.193
13324TIP3   OH239914   0.872   5.711   0.867
13324TIP3    H139915   0.910   5.785   0.818
13324TIP3    H239916   0.933   5.696   0.939
13325TIP3   OH239917   0.899   5.486   0.710
13325TIP3    H139918   0.831   5.496   0.644
13325TIP3    H239919   0.888   5.562   0.768
13326TIP3   OH239920   0.672   5.170   0.664
13326TIP3    H139921   0.738   5.239   0.657
13326TIP3    H239922   0.721   5.094   0.696
13327TIP3   OH239923   0.553   6.393   1.048
13327TIP3    H139924   0.608   6.388   0.970
13327TIP3    H239925   0.593   6.463   1.100
13328TIP3   OH239926   0.205   6.438   1.579
13328TIP3    H139927   0.127   6.481   1.546
13328TIP3    H239928   0.233   6.491   1.654
13329TIP3   OH239929   0.435   6.507   1.728
13329TIP3    H139930   0.418   6.430   1.673
13329TIP3    H239931   0.505   6.554   1.682
13330TIP3   OH239932   0.630   6.634   1.584
13330TIP3    H139933   0.630   6.720   1.542
13330TIP3    H239934   0.668   6.575   1.519
13331TIP3   OH239935   7.753   6.107   1.105
13331TIP3    H139936   7.660   6.086   1.097
13331TIP3    H239937   7.757   6.201   1.085
13332TIP3   OH239938   0.008   6.216   0.715
13332TIP3    H139939   0.092   6.244   0.678
13332TIP3    H239940  -0.021   6.146   0.656
13333TIP3   OH239941   0.699   6.359   0.813
13333TIP3    H139942   0.698   6.264   0.807
13333TIP3    H239943   0.655   6.389   0.733
13334TIP3   OH239944   7.910   6.115   0.741
13334TIP3    H139945   7.836   6.061   0.767
13334TIP3    H239946   7.980   6.053   0.723
13335TIP3   OH239947   0.998   5.913   0.732
13335TIP3    H139948   0.990   5.914   0.637
13335TIP3    H239949   1.013   6.004   0.756
13336TIP3   OH239950   1.838   6.582   0.490
13336TIP3    H139951   1.823   6.556   0.399
13336TIP3    H239952   1.803   6.671   0.495
13337TIP3   OH239953   1.258   6.445   0.796
13337TIP3    H139954   1.310   6.396   0.859
13337TIP3    H239955   1.176   6.396   0.789
13338TIP3   OH239956   2.024   6.500   0.074
13338TIP3    H139957   2.061   6.425   0.028
13338TIP3    H239958   2.083   6.515   0.148
13339TIP3   OH239959   1.093   5.484   0.518
13339TIP3    H139960   1.141   5.567   0.524
13339TIP3    H239961   1.032   5.486   0.591
13340TIP3   OH239962   1.512   6.438   0.679
13340TIP3    H139963   1.421   6.442   0.710
13340TIP3    H239964   1.544   6.527   0.686
13341TIP3   OH239965   1.594   6.047   0.160
13341TIP3    H139966   1.599   5.955   0.134
13341TIP3    H239967   1.545   6.046   0.242
13342TIP3   OH239968   1.489   6.080   0.425
13342TIP3    H139969   1.449   6.067   0.511
13342TIP3    H239970   1.508   6.174   0.422
13343TIP3   OH239971   1.203   5.733   0.552
13343TIP3    H139972   1.269   5.745   0.620
13343TIP3    H239973   1.207   5.813   0.500
13344TIP3   OH239974   1.818   6.219   0.351
13344TIP3    H139975   1.737   6.269   0.355
13344TIP3    H239976   1.883   6.282   0.321
13345TIP3   OH239977   1.566   6.341   0.427
13345TIP3    H139978   1.538   6.411   0.368
13345TIP3    H239979   1.551   6.376   0.514
13346TIP3   OH239980   1.237   5.954   0.372
13346TIP3    H139981   1.293   6.031   0.362
13346TIP3    H239982   1.282   5.885   0.324
13347TIP3   OH239983   1.083   5.194   0.538
13347TIP3    H139984   1.060   5.287   0.545
13347TIP3    H239985   1.179   5.194   0.534
13348TIP3   OH239986   1.079   6.162   0.809
13348TIP3    H139987   1.069   6.216   0.887
13348TIP3    H239988   1.055   6.219   0.736
13349TIP3   OH239989   1.723   6.267   0.059
13349TIP3    H139990   1.678   6.192   0.097
13349TIP3    H239991   1.796   6.230   0.010
13350TIP3   OH239992   7.808   2.292   6.872
13350TIP3    H139993   7.876   2.247   6.923
13350TIP3    H239994   7.845   2.300   6.785
13351TIP3   OH239995   1.388   5.760   0.256
13351TIP3    H139996   1.425   5.719   0.334
13351TIP3    H239997   1.462   5.764   0.195
13352TIP3   OH239998   1.915   6.025   0.114
13352TIP3    H139999   1.860   6.061   0.184
13352TIP3    H240000   1.901   5.931   0.119
13353TIP3   OH240001   1.525   6.549   0.254
13353TIP3    H140002   1.620   6.544   0.243
13353TIP3    H240003   1.493   6.592   0.175
13354TIP3   OH240004   0.978   5.922   0.442
13354TIP3    H140005   1.068   5.947   0.425
13354TIP3    H240006   0.970   5.834   0.405
13355TIP3   OH240007   0.907   6.513   0.889
13355TIP3    H140008   0.838   6.457   0.852
13355TIP3    H240009   0.960   6.453   0.941
13356TIP3   OH240010   1.084   6.347   1.022
13356TIP3    H140011   1.127   6.279   1.074
13356TIP3    H240012   1.114   6.430   1.061
13357TIP3   OH240013   1.005   6.323   0.602
13357TIP3    H140014   0.920   6.289   0.573
13357TIP3    H240015   1.007   6.413   0.569
13358TIP3   OH240016   1.788   6.488   0.215
13358TIP3    H140017   1.869   6.514   0.170
13358TIP3    H240018   1.753   6.417   0.162
13359TIP3   OH240019   1.098   6.316   0.258
13359TIP3    H140020   1.095   6.332   0.353
13359TIP3    H240021   1.178   6.265   0.244
13360TIP3   OH240022   5.294   7.292   1.220
13360TIP3    H140023   5.378   7.320   1.185
13360TIP3    H240024   5.315   7.224   1.284
13361TIP3   OH240025   5.257   7.647   1.159
13361TIP3    H140026   5.241   7.694   1.077
13361TIP3    H240027   5.181   7.591   1.169
13362TIP3   OH240028   6.768   7.145   1.545
13362TIP3    H140029   6.701   7.204   1.512
13362TIP3    H240030   6.720   7.068   1.577
13363TIP3   OH240031   7.008   7.558   1.510
13363TIP3    H140032   6.983   7.469   1.533
13363TIP3    H240033   7.092   7.572   1.552
13364TIP3   OH240034   6.604   7.950   1.468
13364TIP3    H140035   6.654   7.883   1.421
13364TIP3    H240036   6.609   7.923   1.560
13365TIP3   OH240037   6.583   7.336   1.429
13365TIP3    H140038   6.640   7.366   1.358
13365TIP3    H240039   6.553   7.416   1.471
13366TIP3   OH240040   6.762   7.781   1.313
13366TIP3    H140041   6.820   7.708   1.292
13366TIP3    H240042   6.808   7.859   1.281
13367TIP3   OH240043   6.960   7.612   1.233
13367TIP3    H140044   6.976   7.534   1.180
13367TIP3    H240045   6.983   7.586   1.322
13368TIP3   OH240046   6.614   6.939   1.207
13368TIP3    H140047   6.543   6.969   1.264
13368TIP3    H240048   6.680   7.008   1.211
13369TIP3   OH240049   6.578   6.906   0.885
13369TIP3    H140050   6.577   6.926   0.979
13369TIP3    H240051   6.658   6.855   0.872
13370TIP3   OH240052   6.809   7.110   1.263
13370TIP3    H140053   6.838   7.081   1.350
13370TIP3    H240054   6.888   7.107   1.210
13371TIP3   OH240055   6.878   6.928   0.971
13371TIP3    H140056   6.884   7.016   1.009
13371TIP3    H240057   6.861   6.942   0.878
13372TIP3   OH240058   6.570   7.614   1.458
13372TIP3    H140059   6.615   7.652   1.383
13372TIP3    H240060   6.483   7.654   1.456
13373TIP3   OH240061   7.230   6.196   0.988
13373TIP3    H140062   7.143   6.204   0.949
13373TIP3    H240063   7.274   6.277   0.965
13374TIP3   OH240064   7.101   7.569   0.645
13374TIP3    H140065   7.096   7.661   0.621
13374TIP3    H240066   7.192   7.544   0.627
13375TIP3   OH240067   6.463   7.954   1.053
13375TIP3    H140068   6.409   7.926   0.979
13375TIP3    H240069   6.442   8.047   1.064
13376TIP3   OH240070   6.611   7.801   0.745
13376TIP3    H140071   6.661   7.732   0.701
13376TIP3    H240072   6.660   7.819   0.826
13377TIP3   OH240073   6.708   7.843   1.000
13377TIP3    H140074   6.626   7.868   1.042
13377TIP3    H240075   6.769   7.829   1.072
13378TIP3   OH240076   6.822   7.023   0.721
13378TIP3    H140077   6.772   7.000   0.643
13378TIP3    H240078   6.911   7.039   0.688
13379TIP3   OH240079   6.524   6.420   1.057
13379TIP3    H140080   6.438   6.397   1.093
13379TIP3    H240081   6.568   6.336   1.045
13380TIP3   OH240082   6.738   6.768   1.388
13380TIP3    H140083   6.680   6.799   1.319
13380TIP3    H240084   6.818   6.819   1.376
13381TIP3   OH240085   6.234   6.384   1.114
13381TIP3    H140086   6.158   6.358   1.165
13381TIP3    H240087   6.214   6.472   1.082
13382TIP3   OH240088   5.993   6.469   1.249
13382TIP3    H140089   5.932   6.541   1.233
13382TIP3    H240090   6.066   6.510   1.296
13383TIP3   OH240091   6.267   7.182   1.314
13383TIP3    H140092   6.193   7.182   1.375
13383TIP3    H240093   6.283   7.275   1.296
13384TIP3   OH240094   6.849   6.469   0.968
13384TIP3    H140095   6.830   6.434   1.055
13384TIP3    H240096   6.895   6.551   0.985
13385TIP3   OH240097   6.976   6.692   1.054
13385TIP3    H140098   7.067   6.687   1.082
13385TIP3    H240099   6.966   6.780   1.017
13386TIP3   OH240100   6.554   7.351   0.900
13386TIP3    H140101   6.536   7.444   0.912
13386TIP3    H240102   6.552   7.315   0.988
13387TIP3   OH240103   7.334   6.833   0.822
13387TIP3    H140104   7.246   6.798   0.811
13387TIP3    H240105   7.322   6.927   0.834
13388TIP3   OH240106   7.024   7.644   0.902
13388TIP3    H140107   7.003   7.566   0.954
13388TIP3    H240108   7.045   7.610   0.815
13389TIP3   OH240109   6.031   7.720   1.359
13389TIP3    H140110   6.012   7.654   1.426
13389TIP3    H240111   5.986   7.799   1.389
13390TIP3   OH240112   6.800   7.412   0.795
13390TIP3    H140113   6.857   7.407   0.872
13390TIP3    H240114   6.715   7.380   0.825
13391TIP3   OH240115   7.095   7.841   0.609
13391TIP3    H140116   7.107   7.899   0.534
13391TIP3    H240117   7.027   7.883   0.661
13392TIP3   OH240118   6.969   7.396   1.025
13392TIP3    H140119   6.916   7.317   1.029
13392TIP3    H240120   7.059   7.364   1.022
13393TIP3   OH240121   6.156   7.352   0.721
13393TIP3    H140122   6.169   7.262   0.691
13393TIP3    H240123   6.161   7.347   0.816
13394TIP3   OH240124   6.018   7.408   1.198
13394TIP3    H140125   6.072   7.350   1.144
13394TIP3    H240126   6.035   7.496   1.164
13395TIP3   OH240127   6.955   6.573   1.352
13395TIP3    H140128   6.890   6.542   1.289
13395TIP3    H240129   6.911   6.643   1.401
13396TIP3   OH240130   6.498   7.609   0.942
13396TIP3    H140131   6.491   7.653   1.027
13396TIP3    H240132   6.495   7.680   0.878
13397TIP3   OH240133   6.194   7.649   1.155
13397TIP3    H140134   6.197   7.731   1.105
13397TIP3    H240135   6.151   7.673   1.237
13398TIP3   OH240136   5.825   7.207   1.153
13398TIP3    H140137   5.857   7.297   1.139
13398TIP3    H240138   5.905   7.155   1.161
13399TIP3   OH240139   1.402   0.002   1.588
13399TIP3    H140140   1.362   0.056   1.521
13399TIP3    H240141   1.492  -0.013   1.556
13400TIP3   OH240142   6.305   7.581   0.691
13400TIP3    H140143   6.259   7.498   0.706
13400TIP3    H240144   6.379   7.557   0.635
13401TIP3   OH240145   6.740   7.604   0.616
13401TIP3    H140146   6.778   7.540   0.677
13401TIP3    H240147   6.793   7.595   0.537
13402TIP3   OH240148   5.976   7.126   0.887
13402TIP3    H140149   6.045   7.150   0.949
13402TIP3    H240150   6.023   7.103   0.807
13403TIP3   OH240151   6.455   7.255   0.666
13403TIP3    H140152   6.485   7.275   0.755
13403TIP3    H240153   6.463   7.160   0.659
13404TIP3   OH240154   6.084   6.970   1.154
13404TIP3    H140155   6.165   6.945   1.199
13404TIP3    H240156   6.109   6.973   1.061
13405TIP3   OH240157   6.192   6.658   1.096
13405TIP3    H140158   6.237   6.684   1.016
13405TIP3    H240159   6.260   6.657   1.163
13406TIP3   OH240160   7.080   7.070   0.626
13406TIP3    H140161   7.111   7.032   0.544
13406TIP3    H240162   7.052   7.158   0.603
13407TIP3   OH240163   5.963   7.919   0.866
13407TIP3    H140164   6.007   7.835   0.880
13407TIP3    H240165   5.995   7.948   0.780
13408TIP3   OH240166   5.555   7.195   1.130
13408TIP3    H140167   5.650   7.199   1.120
13408TIP3    H240168   5.531   7.110   1.093
13409TIP3   OH240169   1.679   0.032   1.528
13409TIP3    H140170   1.661   0.110   1.582
13409TIP3    H240171   1.738   0.063   1.459
13410TIP3   OH240172   7.231   7.309   1.003
13410TIP3    H140173   7.288   7.378   0.966
13410TIP3    H240174   7.282   7.273   1.075
13411TIP3   OH240175   7.382   7.180   1.191
13411TIP3    H140176   7.333   7.117   1.244
13411TIP3    H240177   7.450   7.213   1.251
13412TIP3   OH240178   7.329   7.540   1.566
13412TIP3    H140179   7.408   7.488   1.580
13412TIP3    H240180   7.361   7.624   1.533
13413TIP3   OH240181   7.272   7.100   0.824
13413TIP3    H140182   7.201   7.093   0.761
13413TIP3    H240183   7.250   7.177   0.876
13414TIP3   OH240184   7.084   6.738   0.772
13414TIP3    H140185   7.059   6.748   0.680
13414TIP3    H240186   7.103   6.644   0.781
13415TIP3   OH240187   7.262   6.985   1.335
13415TIP3    H140188   7.239   6.893   1.319
13415TIP3    H240189   7.210   7.009   1.411
13416TIP3   OH240190   7.139   6.473   0.761
13416TIP3    H140191   7.221   6.456   0.807
13416TIP3    H240192   7.078   6.406   0.794
13417TIP3   OH240193   7.170   6.726   1.289
13417TIP3    H140194   7.118   6.647   1.303
13417TIP3    H240195   7.229   6.705   1.217
13418TIP3   OH240196   7.205   6.403   1.373
13418TIP3    H140197   7.207   6.435   1.463
13418TIP3    H240198   7.176   6.312   1.381
13419TIP3   OH240199   7.382   6.407   0.872
13419TIP3    H140200   7.444   6.351   0.827
13419TIP3    H240201   7.424   6.493   0.875
13420TIP3   OH240202   6.893   7.981   1.185
13420TIP3    H140203   6.949   7.959   1.111
13420TIP3    H240204   6.948   8.035   1.242
13421TIP3   OH240205   6.940   6.298   1.179
13421TIP3    H140206   6.875   6.327   1.243
13421TIP3    H240207   6.998   6.241   1.229
13422TIP3   OH240208   5.526   7.689   1.333
13422TIP3    H140209   5.448   7.639   1.358
13422TIP3    H240210   5.500   7.780   1.345
13423TIP3   OH240211   6.350   7.835   0.826
13423TIP3    H140212   6.429   7.842   0.773
13423TIP3    H240213   6.299   7.765   0.785
13424TIP3   OH240214   7.043   7.909   0.963
13424TIP3    H140215   7.042   7.814   0.952
13424TIP3    H240216   7.005   7.943   0.882
13425TIP3   OH240217   5.725   7.635   0.910
13425TIP3    H140218   5.781   7.662   0.984
13425TIP3    H240219   5.743   7.542   0.899
13426TIP3   OH240220   0.044   7.430   0.892
13426TIP3    H140221   0.012   7.517   0.870
13426TIP3    H240222  -0.027   7.371   0.866
13427TIP3   OH240223   0.044   7.439   1.309
13427TIP3    H140224   0.093   7.413   1.387
13427TIP3    H240225   0.003   7.358   1.279
13428TIP3   OH240226   7.845   7.352   1.608
13428TIP3    H140227   7.832   7.280   1.669
13428TIP3    H240228   7.934   7.340   1.575
13429TIP3   OH240229   0.312   7.727   0.980
13429TIP3    H140230   0.293   7.664   1.050
13429TIP3    H240231   0.327   7.809   1.025
13430TIP3   OH240232   7.848   7.744   1.390
13430TIP3    H140233   7.823   7.653   1.374
13430TIP3    H240234   7.937   7.751   1.355
13431TIP3   OH240235   7.537   6.967   1.105
13431TIP3    H140236   7.488   7.049   1.110
13431TIP3    H240237   7.547   6.941   1.197
13432TIP3   OH240238   7.601   7.234   1.350
13432TIP3    H140239   7.647   7.161   1.390
13432TIP3    H240240   7.667   7.278   1.297
13433TIP3   OH240241   2.800   0.141   1.002
13433TIP3    H140242   2.825   0.078   0.934
13433TIP3    H240243   2.811   0.094   1.084
13434TIP3   OH240244   8.340   7.649   1.322
13434TIP3    H140245   8.385   7.572   1.288
13434TIP3    H240246   8.410   7.710   1.344
13435TIP3   OH240247   0.829   6.976   1.312
13435TIP3    H140248   0.851   7.055   1.361
13435TIP3    H240249   0.864   6.992   1.224
13436TIP3   OH240250   0.256   7.131   1.355
13436TIP3    H140251   0.292   7.046   1.380
13436TIP3    H240252   0.219   7.116   1.268
13437TIP3   OH240253   8.136   6.799   1.310
13437TIP3    H140254   8.118   6.880   1.263
13437TIP3    H240255   8.071   6.737   1.275
13438TIP3   OH240256   0.306   6.898   0.944
13438TIP3    H140257   0.371   6.888   1.013
13438TIP3    H240258   0.356   6.933   0.869
13439TIP3   OH240259   7.744   7.025   1.447
13439TIP3    H140260   7.825   6.986   1.480
13439TIP3    H240261   7.698   6.952   1.404
13440TIP3   OH240262   8.171   7.228   1.245
13440TIP3    H140263   8.267   7.219   1.244
13440TIP3    H240264   8.140   7.144   1.211
13441TIP3   OH240265   0.894   7.176   1.493
13441TIP3    H140266   0.811   7.223   1.491
13441TIP3    H240267   0.900   7.142   1.583
13442TIP3   OH240268   8.417   7.640   0.770
13442TIP3    H140269   8.386   7.620   0.681
13442TIP3    H240270   8.374   7.723   0.792
13443TIP3   OH240271   8.210   7.566   1.552
13443TIP3    H140272   8.153   7.636   1.585
13443TIP3    H240273   8.251   7.604   1.474
13444TIP3   OH240274   0.471   6.912   1.158
13444TIP3    H140275   0.430   6.890   1.242
13444TIP3    H240276   0.523   6.990   1.176
13445TIP3   OH240277   7.982   6.907   1.522
13445TIP3    H140278   8.047   6.962   1.565
13445TIP3    H240279   8.032   6.851   1.464
13446TIP3   OH240280   8.025   7.758   1.645
13446TIP3    H140281   8.001   7.844   1.610
13446TIP3    H240282   7.949   7.703   1.628
13447TIP3   OH240283   7.405   7.488   0.883
13447TIP3    H140284   7.377   7.504   0.793
13447TIP3    H240285   7.429   7.575   0.916
13448TIP3   OH240286   0.341   7.973   1.113
13448TIP3    H140287   0.258   7.968   1.160
13448TIP3    H240288   0.342   8.061   1.076
13449TIP3   OH240289   0.617   6.903   1.482
13449TIP3    H140290   0.530   6.895   1.444
13449TIP3    H240291   0.674   6.929   1.410
13450TIP3   OH240292   8.458   6.517   1.473
13450TIP3    H140293   8.443   6.422   1.473
13450TIP3    H240294   8.389   6.551   1.531
13451TIP3   OH240295   0.052   8.009   0.779
13451TIP3    H140296   0.104   7.930   0.768
13451TIP3    H240297   0.110   8.080   0.753
13452TIP3   OH240298   0.208   7.792   0.731
13452TIP3    H140299   0.199   7.712   0.680
13452TIP3    H240300   0.247   7.763   0.814
13453TIP3   OH240301   0.566   7.870   1.468
13453TIP3    H140302   0.545   7.792   1.416
13453TIP3    H240303   0.563   7.942   1.405
13454TIP3   OH240304   8.369   7.271   0.741
13454TIP3    H140305   8.287   7.318   0.725
13454TIP3    H240306   8.414   7.272   0.657
13455TIP3   OH240307   8.338   7.077   0.431
13455TIP3    H140308   8.404   7.126   0.480
13455TIP3    H240309   8.388   7.011   0.384
13456TIP3   OH240310   0.748   7.525   1.320
13456TIP3    H140311   0.666   7.573   1.323
13456TIP3    H240312   0.782   7.541   1.232
13457TIP3   OH240313   0.226   7.362   0.699
13457TIP3    H140314   0.172   7.389   0.773
13457TIP3    H240315   0.309   7.336   0.739
13458TIP3   OH240316   0.445   7.375   1.633
13458TIP3    H140317   0.455   7.461   1.674
13458TIP3    H240318   0.362   7.380   1.586
13459TIP3   OH240319   7.949   7.343   1.118
13459TIP3    H140320   7.916   7.282   1.052
13459TIP3    H240321   8.028   7.301   1.152
13460TIP3   OH240322   8.088   7.770   1.252
13460TIP3    H140323   8.063   7.751   1.162
13460TIP3    H240324   8.174   7.729   1.262
13461TIP3   OH240325   8.091   7.324   1.490
13461TIP3    H140326   8.115   7.300   1.401
13461TIP3    H240327   8.135   7.408   1.505
13462TIP3   OH240328   0.103   7.983   1.250
13462TIP3    H140329   0.095   8.059   1.307
13462TIP3    H240330   0.093   7.908   1.309
13463TIP3   OH240331   8.219   7.900   1.789
13463TIP3    H140332   8.160   7.951   1.845
13463TIP3    H240333   8.162   7.837   1.745
13464TIP3   OH240334   0.058   7.220   0.533
13464TIP3    H140335   0.118   7.279   0.580
13464TIP3    H240336   0.086   7.226   0.441
13465TIP3   OH240337   8.301   7.894   0.795
13465TIP3    H140338   8.386   7.938   0.797
13465TIP3    H240339   8.245   7.953   0.744
13466TIP3   OH240340   0.565   6.450   0.589
13466TIP3    H140341   0.489   6.471   0.644
13466TIP3    H240342   0.577   6.527   0.534
13467TIP3   OH240343   7.832   7.182   0.917
13467TIP3    H140344   7.755   7.230   0.886
13467TIP3    H240345   7.797   7.098   0.946
13468TIP3   OH240346   0.389   7.824   0.150
13468TIP3    H140347   0.386   7.916   0.125
13468TIP3    H240348   0.480   7.797   0.135
13469TIP3   OH240349   7.443   7.785   1.476
13469TIP3    H140350   7.536   7.798   1.492
13469TIP3    H240351   7.401   7.864   1.512
13470TIP3   OH240352   3.657   0.175   1.563
13470TIP3    H140353   3.666   0.080   1.577
13470TIP3    H240354   3.564   0.192   1.576
13471TIP3   OH240355   2.740   0.018   1.644
13471TIP3    H140356   2.752   0.104   1.684
13471TIP3    H240357   2.676  -0.026   1.700
13472TIP3   OH240358   2.529   0.102   0.619
13472TIP3    H140359   2.482   0.081   0.538
13472TIP3    H240360   2.491   0.185   0.648
13473TIP3   OH240361   7.630   7.974   0.997
13473TIP3    H140362   7.675   7.962   1.080
13473TIP3    H240363   7.581   7.893   0.984
13474TIP3   OH240364   2.731   0.034   0.247
13474TIP3    H140365   2.781  -0.040   0.212
13474TIP3    H240366   2.765   0.046   0.335
13475TIP3   OH240367   2.783   0.076   0.517
13475TIP3    H140368   2.696   0.080   0.557
13475TIP3    H240369   2.839   0.037   0.584
13476TIP3   OH240370   0.725   7.329   1.736
13476TIP3    H140371   0.636   7.365   1.726
13476TIP3    H240372   0.712   7.234   1.732
13477TIP3   OH240373   0.396   7.153   1.790
13477TIP3    H140374   0.421   7.184   1.877
13477TIP3    H240375   0.409   7.229   1.733
13478TIP3   OH240376   0.137   7.209   0.270
13478TIP3    H140377   0.093   7.208   0.185
13478TIP3    H240378   0.220   7.254   0.255
13479TIP3   OH240379   8.349   6.621   0.591
13479TIP3    H140380   8.311   6.629   0.678
13479TIP3    H240381   8.313   6.539   0.556
13480TIP3   OH240382   8.165   7.095   1.623
13480TIP3    H140383   8.145   7.119   1.713
13480TIP3    H240384   8.138   7.171   1.571
13481TIP3   OH240385   8.062   7.001   1.139
13481TIP3    H140386   7.969   6.989   1.157
13481TIP3    H240387   8.075   6.963   1.052
13482TIP3   OH240388   0.000   7.072   0.875
13482TIP3    H140389  -0.050   7.143   0.835
13482TIP3    H240390   0.057   7.039   0.805
13483TIP3   OH240391   0.161   7.083   1.099
13483TIP3    H140392   0.097   7.104   1.032
13483TIP3    H240393   0.210   7.009   1.063
13484TIP3   OH240394   8.019   6.606   0.569
13484TIP3    H140395   8.012   6.621   0.663
13484TIP3    H240396   7.941   6.647   0.532
13485TIP3   OH240397   7.590   6.825   1.335
13485TIP3    H140398   7.518   6.812   1.396
13485TIP3    H240399   7.600   6.741   1.291
13486TIP3   OH240400   7.526   6.638   0.888
13486TIP3    H140401   7.574   6.671   0.811
13486TIP3    H240402   7.453   6.699   0.898
13487TIP3   OH240403   0.187   7.330   1.524
13487TIP3    H140404   0.215   7.262   1.462
13487TIP3    H240405   0.150   7.281   1.597
13488TIP3   OH240406   8.389   6.785   1.192
13488TIP3    H140407   8.310   6.789   1.246
13488TIP3    H240408   8.461   6.789   1.255
13489TIP3   OH240409   7.811   6.909   1.140
13489TIP3    H140410   7.717   6.912   1.121
13489TIP3    H240411   7.829   6.817   1.158
13490TIP3   OH240412   8.042   6.865   0.895
13490TIP3    H140413   8.135   6.882   0.877
13490TIP3    H240414   7.997   6.888   0.814
13491TIP3   OH240415   0.343   6.871   1.404
13491TIP3    H140416   0.333   6.880   1.498
13491TIP3    H240417   0.270   6.816   1.377
13492TIP3   OH240418   7.915   6.892   0.656
13492TIP3    H140419   7.854   6.842   0.602
13492TIP3    H240420   7.968   6.941   0.593
13493TIP3   OH240421   3.424   0.548   1.684
13493TIP3    H140422   3.419   0.600   1.604
13493TIP3    H240423   3.416   0.612   1.755
13494TIP3   OH240424   8.444   7.178   1.274
13494TIP3    H140425   8.507   7.128   1.222
13494TIP3    H240426   8.443   7.136   1.359
13495TIP3   OH240427   7.936   6.651   1.189
13495TIP3    H140428   7.917   6.584   1.254
13495TIP3    H240429   7.947   6.603   1.107
13496TIP3   OH240430   8.429   7.075   1.528
13496TIP3    H140431   8.339   7.066   1.560
13496TIP3    H240432   8.480   7.097   1.606
13497TIP3   OH240433   8.131   7.409   0.688
13497TIP3    H140434   8.057   7.353   0.666
13497TIP3    H240435   8.106   7.449   0.772
13498TIP3   OH240436   0.515   7.666   1.288
13498TIP3    H140437   0.548   7.717   1.214
13498TIP3    H240438   0.434   7.626   1.255
13499TIP3   OH240439   0.100   6.728   0.588
13499TIP3    H140440   0.007   6.706   0.586
13499TIP3    H240441   0.102   6.823   0.600
13500TIP3   OH240442   8.520   7.723   1.673
13500TIP3    H140443   8.489   7.641   1.713
13500TIP3    H240444   8.468   7.791   1.715
13501TIP3   OH240445   0.160   6.991   0.659
13501TIP3    H140446   0.255   6.996   0.667
13501TIP3    H240447   0.136   7.068   0.606
13502TIP3   OH240448   7.830   7.476   1.333
13502TIP3    H140449   7.872   7.432   1.259
13502TIP3    H240450   7.844   7.417   1.407
13503TIP3   OH240451   8.284   7.569   0.529
13503TIP3    H140452   8.237   7.653   0.527
13503TIP3    H240453   8.229   7.512   0.583
13504TIP3   OH240454   3.008  -0.000   1.593
13504TIP3    H140455   2.913  -0.006   1.595
13504TIP3    H240456   3.031   0.046   1.673
13505TIP3   OH240457   0.573   7.082   0.479
13505TIP3    H140458   0.515   7.036   0.419
13505TIP3    H240459   0.581   7.170   0.442
13506TIP3   OH240460   0.817   7.917   1.568
13506TIP3    H140461   0.724   7.906   1.547
13506TIP3    H240462   0.863   7.881   1.492
13507TIP3   OH240463   0.315   7.895   0.412
13507TIP3    H140464   0.288   7.823   0.468
13507TIP3    H240465   0.334   7.854   0.327
13508TIP3   OH240466   0.289   7.533   1.189
13508TIP3    H140467   0.198   7.511   1.213
13508TIP3    H240468   0.322   7.452   1.149
13509TIP3   OH240469   7.948   7.766   1.007
13509TIP3    H140470   7.948   7.843   0.950
13509TIP3    H240471   7.855   7.745   1.019
13510TIP3   OH240472   7.528   7.075   0.717
13510TIP3    H140473   7.572   7.157   0.742
13510TIP3    H240474   7.441   7.081   0.757
13511TIP3   OH240475   8.035   7.519   0.916
13511TIP3    H140476   8.021   7.609   0.945
13511TIP3    H240477   8.006   7.466   0.989
13512TIP3   OH240478   2.550   0.075   1.451
13512TIP3    H140479   2.588   0.146   1.399
13512TIP3    H240480   2.621   0.044   1.506
13513TIP3   OH240481   2.199  -0.024   0.855
13513TIP3    H140482   2.112  -0.017   0.893
13513TIP3    H240483   2.234   0.065   0.859
13514TIP3   OH240484   0.084   7.754   1.408
13514TIP3    H140485   0.072   7.751   1.503
13514TIP3    H240486   0.147   7.684   1.390
13515TIP3   OH240487   0.078   7.634   0.311
13515TIP3    H140488   0.122   7.615   0.394
13515TIP3    H240489  -0.007   7.589   0.318
13516TIP3   OH240490   3.188   0.144   1.440
13516TIP3    H140491   3.106   0.103   1.468
13516TIP3    H240492   3.171   0.238   1.445
13517TIP3   OH240493   3.222   0.083   0.106
13517TIP3    H140494   3.235   0.140   0.030
13517TIP3    H240495   3.152   0.125   0.156
13518TIP3   OH240496   0.248   7.578   0.527
13518TIP3    H140497   0.233   7.503   0.585
13518TIP3    H240498   0.341   7.574   0.506
13519TIP3   OH240499   7.673   7.959   1.586
13519TIP3    H140500   7.768   7.951   1.570
13519TIP3    H240501   7.662   7.935   1.678
13520TIP3   OH240502   7.929   7.596   0.314
13520TIP3    H140503   7.939   7.504   0.287
13520TIP3    H240504   7.914   7.591   0.408
13521TIP3   OH240505   7.874   7.614   0.586
13521TIP3    H140506   7.940   7.587   0.650
13521TIP3    H240507   7.873   7.710   0.591
13522TIP3   OH240508   7.616   7.320   0.808
13522TIP3    H140509   7.546   7.367   0.854
13522TIP3    H240510   7.634   7.375   0.731
13523TIP3   OH240511   0.311   6.919   1.669
13523TIP3    H140512   0.336   7.002   1.709
13523TIP3    H240513   0.284   6.865   1.743
13524TIP3   OH240514   0.166   6.679   0.852
13524TIP3    H140515   0.144   6.698   0.761
13524TIP3    H240516   0.207   6.760   0.884
13525TIP3   OH240517   8.142   7.799   0.525
13525TIP3    H140518   8.058   7.824   0.563
13525TIP3    H240519   8.165   7.872   0.468
13526TIP3   OH240520   8.319   6.876   0.939
13526TIP3    H140521   8.379   6.946   0.915
13526TIP3    H240522   8.339   6.858   1.031
13527TIP3   OH240523   0.085   7.200   1.745
13527TIP3    H140524   0.039   7.263   1.800
13527TIP3    H240525   0.156   7.168   1.800
13528TIP3   OH240526   8.479   6.581   1.024
13528TIP3    H140527   8.458   6.659   1.075
13528TIP3    H240528   8.550   6.609   0.965
13529TIP3   OH240529   7.893   7.887   0.602
13529TIP3    H140530   7.872   7.959   0.542
13529TIP3    H240531   7.881   7.925   0.690
13530TIP3   OH240532   7.985   6.595   0.854
13530TIP3    H140533   7.975   6.688   0.878
13530TIP3    H240534   8.079   6.579   0.856
13531TIP3   OH240535   0.651   7.056   1.715
13531TIP3    H140536   0.557   7.070   1.728
13531TIP3    H240537   0.656   7.000   1.638
13532TIP3   OH240538   0.376   7.277   1.097
13532TIP3    H140539   0.300   7.220   1.107
13532TIP3    H240540   0.445   7.235   1.148
13533TIP3   OH240541   7.630   7.483   0.580
13533TIP3    H140542   7.703   7.545   0.585
13533TIP3    H240543   7.659   7.418   0.517
13534TIP3   OH240544   7.559   6.801   0.664
13534TIP3    H140545   7.593   6.890   0.680
13534TIP3    H240546   7.470   6.803   0.698
13535TIP3   OH240547   3.196   0.227   1.043
13535TIP3    H140548   3.154   0.281   0.976
13535TIP3    H240549   3.290   0.243   1.030
13536TIP3   OH240550   7.457   7.754   0.966
13536TIP3    H140551   7.412   7.788   1.044
13536TIP3    H240552   7.412   7.796   0.893
13537TIP3   OH240553   8.084   7.796   0.205
13537TIP3    H140554   8.036   7.726   0.249
13537TIP3    H240555   8.158   7.753   0.163
13538TIP3   OH240556   3.141   0.105   1.818
13538TIP3    H140557   3.195   0.028   1.798
13538TIP3    H240558   3.204   0.173   1.841
13539TIP3   OH240559   0.026   7.836   0.131
13539TIP3    H140560   0.059   7.773   0.194
13539TIP3    H240561   0.085   7.828   0.056
13540TIP3   OH240562   7.753   7.291   0.430
13540TIP3    H140563   7.803   7.265   0.508
13540TIP3    H240564   7.820   7.304   0.362
13541TIP3   OH240565   8.322   7.513   0.264
13541TIP3    H140566   8.298   7.524   0.356
13541TIP3    H240567   8.303   7.421   0.245
13542TIP3   OH240568   0.386   7.853   1.680
13542TIP3    H140569   0.451   7.861   1.610
13542TIP3    H240570   0.304   7.883   1.639
13543TIP3   OH240571   7.923   7.229   0.646
13543TIP3    H140572   7.902   7.198   0.734
13543TIP3    H240573   7.971   7.157   0.606
13544TIP3   OH240574   8.066   7.047   0.489
13544TIP3    H140575   8.035   7.052   0.399
13544TIP3    H240576   8.162   7.055   0.481
13545TIP3   OH240577   0.359   7.336   0.168
13545TIP3    H140578   0.351   7.296   0.081
13545TIP3    H240579   0.335   7.428   0.154
13546TIP3   OH240580   8.415   7.458   1.709
13546TIP3    H140581   8.462   7.418   1.636
13546TIP3    H240582   8.333   7.490   1.670
13547TIP3   OH240583   0.497   7.609   1.756
13547TIP3    H140584   0.443   7.687   1.743
13547TIP3    H240585   0.586   7.642   1.765
13548TIP3   OH240586   2.224   0.085   0.422
13548TIP3    H140587   2.312   0.061   0.392
13548TIP3    H240588   2.184   0.128   0.346
13549TIP3   OH240589   7.359   7.482   0.600
13549TIP3    H140590   7.453   7.494   0.594
13549TIP3    H240591   7.342   7.397   0.560
13550TIP3   OH240592   1.586   0.048   1.052
13550TIP3    H140593   1.520  -0.005   1.007
13550TIP3    H240594   1.632  -0.014   1.109
13551TIP3   OH240595   7.399   7.892   1.214
13551TIP3    H140596   7.388   7.826   1.282
13551TIP3    H240597   7.454   7.960   1.255
13552TIP3   OH240598   3.464   0.281   1.015
13552TIP3    H140599   3.499   0.334   1.087
13552TIP3    H240600   3.507   0.316   0.937
13553TIP3   OH240601   3.479   0.312   1.346
13553TIP3    H140602   3.454   0.222   1.325
13553TIP3    H240603   3.558   0.328   1.296
13554TIP3   OH240604   0.524   7.545   0.493
13554TIP3    H140605   0.584   7.613   0.463
13554TIP3    H240606   0.569   7.504   0.567
13555TIP3   OH240607   0.651   7.402   0.692
13555TIP3    H140608   0.585   7.364   0.750
13555TIP3    H240609   0.717   7.437   0.752
13556TIP3   OH240610   0.691   7.801   1.121
13556TIP3    H140611   0.745   7.736   1.076
13556TIP3    H240612   0.692   7.877   1.062
13557TIP3   OH240613   3.381   0.058   1.278
13557TIP3    H140614   3.308   0.091   1.331
13557TIP3    H240615   3.339   0.013   1.205
13558TIP3   OH240616   0.573   7.320   0.338
13558TIP3    H140617   0.501   7.318   0.275
13558TIP3    H240618   0.557   7.398   0.391
13559TIP3   OH240619   0.415   6.967   0.290
13559TIP3    H140620   0.367   7.006   0.217
13559TIP3    H240621   0.408   6.873   0.275
13560TIP3   OH240622   0.452   7.264   0.831
13560TIP3    H140623   0.458   7.169   0.819
13560TIP3    H240624   0.430   7.274   0.924
13561TIP3   OH240625   7.570   7.400   1.572
13561TIP3    H140626   7.564   7.344   1.495
13561TIP3    H240627   7.663   7.401   1.594
13562TIP3   OH240628   0.749   7.718   1.752
13562TIP3    H140629   0.820   7.655   1.745
13562TIP3    H240630   0.780   7.794   1.702
13563TIP3   OH240631   0.928   7.509   1.724
13563TIP3    H140632   0.857   7.446   1.719
13563TIP3    H240633   0.971   7.490   1.808
13564TIP3   OH240634   0.383   6.696   0.253
13564TIP3    H140635   0.446   6.670   0.320
13564TIP3    H240636   0.300   6.657   0.283
13565TIP3   OH240637   0.451   6.987   0.718
13565TIP3    H140638   0.497   6.904   0.731
13565TIP3    H240639   0.492   7.027   0.642
13566TIP3   OH240640   0.591   7.152   1.222
13566TIP3    H140641   0.677   7.164   1.182
13566TIP3    H240642   0.600   7.193   1.309
13567TIP3   OH240643   0.646   7.300   1.447
13567TIP3    H140644   0.577   7.327   1.508
13567TIP3    H240645   0.678   7.381   1.409
13568TIP3   OH240646   0.567   6.737   0.772
13568TIP3    H140647   0.610   6.724   0.856
13568TIP3    H240648   0.505   6.664   0.765
13569TIP3   OH240649   0.611   6.652   0.410
13569TIP3    H140650   0.660   6.591   0.354
13569TIP3    H240651   0.665   6.731   0.411
13570TIP3   OH240652   7.608   6.614   1.150
13570TIP3    H140653   7.540   6.555   1.183
13570TIP3    H240654   7.582   6.631   1.059
13571TIP3   OH240655   3.028   0.201   0.679
13571TIP3    H140656   3.083   0.187   0.601
13571TIP3    H240657   3.073   0.270   0.728
13572TIP3   OH240658   2.305   0.007   1.570
13572TIP3    H140659   2.267   0.094   1.558
13572TIP3    H240660   2.394   0.015   1.536
13573TIP3   OH240661   2.800   0.264   1.754
13573TIP3    H140662   2.862   0.261   1.827
13573TIP3    H240663   2.841   0.322   1.690
13574TIP3   OH240664   2.931   0.432   1.584
13574TIP3    H140665   2.974   0.379   1.516
13574TIP3    H240666   2.989   0.507   1.596
13575TIP3   OH240667   1.985   0.313   1.626
13575TIP3    H140668   1.895   0.340   1.609
13575TIP3    H240669   1.982   0.277   1.715
13576TIP3   OH240670   2.227   0.266   1.504
13576TIP3    H140671   2.144   0.286   1.546
13576TIP3    H240672   2.215   0.292   1.413
13577TIP3   OH240673   2.643   0.279   1.290
13577TIP3    H140674   2.575   0.294   1.225
13577TIP3    H240675   2.655   0.364   1.332
13578TIP3   OH240676   2.910   0.227   1.358
13578TIP3    H140677   2.821   0.243   1.329
13578TIP3    H240678   2.963   0.288   1.306
13579TIP3   OH240679   3.085   0.402   1.228
13579TIP3    H140680   3.080   0.481   1.173
13579TIP3    H240681   3.122   0.335   1.171
13580TIP3   OH240682   1.902   0.062   1.361
13580TIP3    H140683   1.929   0.038   1.449
13580TIP3    H240684   1.972   0.031   1.304
13581TIP3   OH240685   7.775   7.959   1.232
13581TIP3    H140686   7.790   7.882   1.287
13581TIP3    H240687   7.860   8.002   1.227
13582TIP3   OH240688   2.374   0.034   1.242
13582TIP3    H140689   2.395  -0.058   1.225
13582TIP3    H240690   2.425   0.057   1.319
13583TIP3   OH240691   0.125   6.708   1.331
13583TIP3    H140692   0.082   6.636   1.377
13583TIP3    H240693   0.184   6.665   1.270
13584TIP3   OH240694   0.592   6.608   1.231
13584TIP3    H140695   0.636   6.655   1.160
13584TIP3    H240696   0.499   6.630   1.221
13585TIP3   OH240697   0.719   6.685   0.998
13585TIP3    H140698   0.785   6.623   0.967
13585TIP3    H240699   0.758   6.771   0.985
13586TIP3   OH240700   7.891   6.448   1.372
13586TIP3    H140701   7.797   6.437   1.387
13586TIP3    H240702   7.918   6.368   1.326
13587TIP3   OH240703   7.640   6.286   0.874
13587TIP3    H140704   7.683   6.330   0.800
13587TIP3    H240705   7.675   6.330   0.952
13588TIP3   OH240706   8.335   6.459   1.224
13588TIP3    H140707   8.378   6.499   1.148
13588TIP3    H240708   8.368   6.508   1.299
13589TIP3   OH240709   0.314   6.586   1.172
13589TIP3    H140710   0.335   6.556   1.084
13589TIP3    H240711   0.314   6.506   1.225
13590TIP3   OH240712   0.383   6.525   0.780
13590TIP3    H140713   0.303   6.573   0.800
13590TIP3    H240714   0.369   6.438   0.818
13591TIP3   OH240715   7.335   7.873   0.752
13591TIP3    H140716   7.254   7.840   0.714
13591TIP3    H240717   7.340   7.964   0.722
13592TIP3   OH240718   7.787   6.449   0.711
13592TIP3    H140719   7.839   6.402   0.646
13592TIP3    H240720   7.851   6.498   0.763
13593TIP3   OH240721   8.259   6.623   0.853
13593TIP3    H140722   8.326   6.576   0.903
13593TIP3    H240723   8.272   6.715   0.877
13594TIP3   OH240724   8.143   8.020   0.349
13594TIP3    H140725   8.227   8.047   0.311
13594TIP3    H240726   8.113   7.949   0.292
13595TIP3   OH240727   3.176   0.150   0.449
13595TIP3    H140728   3.171   0.054   0.442
13595TIP3    H240729   3.133   0.182   0.370
13596TIP3   OH240730   7.449   7.861   0.404
13596TIP3    H140731   7.449   7.868   0.499
13596TIP3    H240732   7.530   7.814   0.383
13597TIP3   OH240733   3.395   0.177   1.626
13597TIP3    H140734   3.321   0.157   1.569
13597TIP3    H240735   3.356   0.221   1.702
13598TIP3   OH240736   1.827   7.683   0.390
13598TIP3    H140737   1.807   7.773   0.363
13598TIP3    H240738   1.760   7.630   0.347
13599TIP3   OH240739   1.814   7.673   0.751
13599TIP3    H140740   1.809   7.604   0.817
13599TIP3    H240741   1.779   7.634   0.671
13600TIP3   OH240742   1.134   7.545   1.099
13600TIP3    H140743   1.166   7.497   1.175
13600TIP3    H240744   1.214   7.573   1.054
13601TIP3   OH240745   2.119   7.978   0.467
13601TIP3    H140746   2.086   7.923   0.538
13601TIP3    H240747   2.125   8.066   0.505
13602TIP3   OH240748   1.132   7.958   0.858
13602TIP3    H140749   1.103   7.867   0.850
13602TIP3    H240750   1.222   7.958   0.827
13603TIP3   OH240751   0.805   7.179   0.616
13603TIP3    H140752   0.765   7.263   0.638
13603TIP3    H240753   0.735   7.129   0.574
13604TIP3   OH240754   0.880   7.481   0.830
13604TIP3    H140755   0.934   7.406   0.857
13604TIP3    H240756   0.944   7.547   0.802
13605TIP3   OH240757   4.584   0.397   0.458
13605TIP3    H140758   4.614   0.324   0.404
13605TIP3    H240759   4.576   0.360   0.546
13606TIP3   OH240760   1.641   7.895   0.805
13606TIP3    H140761   1.691   7.818   0.778
13606TIP3    H240762   1.708   7.961   0.823
13607TIP3   OH240763   1.375   7.044   0.784
13607TIP3    H140764   1.358   7.126   0.739
13607TIP3    H240765   1.319   6.980   0.740
13608TIP3   OH240766   2.033   7.166   0.405
13608TIP3    H140767   2.104   7.105   0.425
13608TIP3    H240768   2.066   7.220   0.334
13609TIP3   OH240769   1.021   7.258   0.927
13609TIP3    H140770   1.099   7.228   0.974
13609TIP3    H240771   1.024   7.214   0.843
13610TIP3   OH240772   1.452   7.472   0.728
13610TIP3    H140773   1.543   7.449   0.744
13610TIP3    H240774   1.412   7.390   0.697
13611TIP3   OH240775   1.370   7.020   1.257
13611TIP3    H140776   1.344   7.070   1.180
13611TIP3    H240777   1.319   7.057   1.328
13612TIP3   OH240778   1.746   7.906   0.245
13612TIP3    H140779   1.706   7.875   0.164
13612TIP3    H240780   1.690   7.977   0.274
13613TIP3   OH240781   1.472   7.837   1.019
13613TIP3    H140782   1.417   7.907   1.055
13613TIP3    H240783   1.517   7.878   0.945
13614TIP3   OH240784   1.254   7.128   1.021
13614TIP3    H140785   1.305   7.208   1.032
13614TIP3    H240786   1.293   7.085   0.944
13615TIP3   OH240787   4.139   0.015   1.127
13615TIP3    H140788   4.100   0.057   1.050
13615TIP3    H240789   4.065  -0.012   1.180
13616TIP3   OH240790   0.705   7.727   0.384
13616TIP3    H140791   0.673   7.739   0.295
13616TIP3    H240792   0.727   7.815   0.414
13617TIP3   OH240793   4.992   0.210   0.588
13617TIP3    H140794   4.909   0.202   0.634
13617TIP3    H240795   4.987   0.295   0.544
13618TIP3   OH240796   4.683   0.238   0.252
13618TIP3    H140797   4.739   0.161   0.242
13618TIP3    H240798   4.739   0.312   0.227
13619TIP3   OH240799   1.997   8.027   0.220
13619TIP3    H140800   1.921   7.968   0.221
13619TIP3    H240801   2.049   8.000   0.296
13620TIP3   OH240802   1.656   7.555   0.212
13620TIP3    H140803   1.572   7.599   0.198
13620TIP3    H240804   1.697   7.555   0.126
13621TIP3   OH240805   7.308   3.308   6.871
13621TIP3    H140806   7.371   3.370   6.907
13621TIP3    H240807   7.361   3.248   6.818
13622TIP3   OH240808   2.012   7.622   0.191
13622TIP3    H140809   1.958   7.646   0.267
13622TIP3    H240810   2.094   7.592   0.230
13623TIP3   OH240811   1.238   7.599   0.595
13623TIP3    H140812   1.201   7.539   0.530
13623TIP3    H240813   1.315   7.553   0.628
13624TIP3   OH240814   1.380   7.960   0.736
13624TIP3    H140815   1.369   7.958   0.641
13624TIP3    H240816   1.473   7.945   0.750
13625TIP3   OH240817   1.358   7.598   0.953
13625TIP3    H140818   1.394   7.571   0.868
13625TIP3    H240819   1.399   7.682   0.971
13626TIP3   OH240820   4.758   0.193   0.719
13626TIP3    H140821   4.726   0.268   0.769
13626TIP3    H240822   4.737   0.117   0.773
13627TIP3   OH240823   4.330   0.148   1.276
13627TIP3    H140824   4.284   0.202   1.340
13627TIP3    H240825   4.261   0.101   1.231
13628TIP3   OH240826   7.515   3.481   6.951
13628TIP3    H140827   7.573   3.540   7.000
13628TIP3    H240828   7.545   3.487   6.861
13629TIP3   OH240829   1.231   7.645   1.371
13629TIP3    H140830   1.251   7.725   1.419
13629TIP3    H240831   1.138   7.630   1.389
13630TIP3   OH240832   4.433   0.125   0.287
13630TIP3    H140833   4.515   0.174   0.278
13630TIP3    H240834   4.373   0.168   0.226
13631TIP3   OH240835   4.113   0.361   1.471
13631TIP3    H140836   4.096   0.331   1.381
13631TIP3    H240837   4.068   0.297   1.526
13632TIP3   OH240838   2.268   6.693  -0.009
13632TIP3    H140839   2.210   6.725   0.061
13632TIP3    H240840   2.331   6.763  -0.022
13633TIP3   OH240841   1.115   7.435   0.399
13633TIP3    H140842   1.044   7.485   0.360
13633TIP3    H240843   1.080   7.347   0.411
13634TIP3   OH240844   7.830   4.077   6.578
13634TIP3    H140845   7.833   4.170   6.554
13634TIP3    H240846   7.919   4.045   6.559
13635TIP3   OH240847   0.884   7.810   1.321
13635TIP3    H140848   0.811   7.812   1.259
13635TIP3    H240849   0.899   7.717   1.339
13636TIP3   OH240850   3.564   0.021   0.973
13636TIP3    H140851   3.653   0.048   0.992
13636TIP3    H240852   3.510   0.095   1.001
13637TIP3   OH240853   4.524   0.236   1.088
13637TIP3    H140854   4.565   0.295   1.152
13637TIP3    H240855   4.471   0.177   1.141
13638TIP3   OH240856   4.323   0.347   0.099
13638TIP3    H140857   4.277   0.324   0.018
13638TIP3    H240858   4.284   0.431   0.124
13639TIP3   OH240859   3.753   0.202   0.479
13639TIP3    H140860   3.795   0.188   0.564
13639TIP3    H240861   3.701   0.123   0.464
13640TIP3   OH240862   7.360   4.298   6.672
13640TIP3    H140863   7.410   4.224   6.635
13640TIP3    H240864   7.393   4.307   6.761
13641TIP3   OH240865   4.576   0.325   0.001
13641TIP3    H140866   4.488   0.329   0.039
13641TIP3    H240867   4.629   0.283   0.069
13642TIP3   OH240868   1.103   7.970   1.311
13642TIP3    H140869   1.139   7.944   1.396
13642TIP3    H240870   1.028   7.912   1.298
13643TIP3   OH240871   1.409   6.851   1.036
13643TIP3    H140872   1.397   6.887   1.124
13643TIP3    H240873   1.446   6.923   0.986
13644TIP3   OH240874   7.607   3.455   6.696
13644TIP3    H140875   7.555   3.459   6.616
13644TIP3    H240876   7.689   3.501   6.674
13645TIP3   OH240877   1.641   6.878   0.069
13645TIP3    H140878   1.600   6.883   0.155
13645TIP3    H240879   1.604   6.799   0.029
13646TIP3   OH240880   1.413   7.341   1.058
13646TIP3    H140881   1.385   7.359   1.148
13646TIP3    H240882   1.409   7.427   1.015
13647TIP3   OH240883   1.303   7.260   0.633
13647TIP3    H140884   1.212   7.241   0.656
13647TIP3    H240885   1.313   7.226   0.544
13648TIP3   OH240886   1.763   7.329   0.326
13648TIP3    H140887   1.721   7.406   0.287
13648TIP3    H240888   1.829   7.303   0.262
13649TIP3   OH240889   1.857   7.281   0.584
13649TIP3    H140890   1.811   7.325   0.513
13649TIP3    H240891   1.917   7.221   0.540
13650TIP3   OH240892   1.276   7.387   1.295
13650TIP3    H140893   1.259   7.463   1.350
13650TIP3    H240894   1.229   7.315   1.337
13651TIP3   OH240895   1.309   6.860   0.056
13651TIP3    H140896   1.299   6.867   0.151
13651TIP3    H240897   1.231   6.903   0.020
13652TIP3   OH240898   0.859   6.902   0.922
13652TIP3    H140899   0.930   6.931   0.980
13652TIP3    H240900   0.902   6.887   0.838
13653TIP3   OH240901   0.763   6.887   0.420
13653TIP3    H140902   0.809   6.923   0.344
13653TIP3    H240903   0.699   6.954   0.443
13654TIP3   OH240904   1.631   7.048   0.673
13654TIP3    H140905   1.545   7.043   0.715
13654TIP3    H240906   1.690   7.080   0.741
13655TIP3   OH240907   1.065   7.133   0.688
13655TIP3    H140908   0.975   7.140   0.654
13655TIP3    H240909   1.095   7.047   0.660
13656TIP3   OH240910   1.316   7.129   0.392
13656TIP3    H140911   1.410   7.137   0.376
13656TIP3    H240912   1.276   7.145   0.306
13657TIP3   OH240913   1.202   7.145   0.146
13657TIP3    H140914   1.139   7.099   0.092
13657TIP3    H240915   1.260   7.190   0.084
13658TIP3   OH240916   1.136   7.835   1.561
13658TIP3    H140917   1.231   7.833   1.576
13658TIP3    H240918   1.100   7.879   1.639
13659TIP3   OH240919   1.713   7.401   0.793
13659TIP3    H140920   1.765   7.351   0.729
13659TIP3    H240921   1.730   7.358   0.877
13660TIP3   OH240922   1.200   6.891   0.639
13660TIP3    H140923   1.167   6.818   0.691
13660TIP3    H240924   1.216   6.852   0.553
13661TIP3   OH240925   1.412   7.692   0.173
13661TIP3    H140926   1.348   7.624   0.158
13661TIP3    H240927   1.394   7.722   0.263
13662TIP3   OH240928   1.886   6.993   0.058
13662TIP3    H140929   1.793   6.970   0.056
13662TIP3    H240930   1.887   7.088   0.070
13663TIP3   OH240931   1.839   7.913   1.158
13663TIP3    H140932   1.837   7.854   1.233
13663TIP3    H240933   1.820   7.999   1.195
13664TIP3   OH240934   1.954   7.260   0.123
13664TIP3    H140935   2.048   7.259   0.107
13664TIP3    H240936   1.922   7.336   0.075
13665TIP3   OH240937   1.095   7.678   0.816
13665TIP3    H140938   1.140   7.661   0.733
13665TIP3    H240939   1.153   7.643   0.883
13666TIP3   OH240940   1.588   7.833   0.025
13666TIP3    H140941   1.547   7.920   0.018
13666TIP3    H240942   1.524   7.780   0.072
13667TIP3   OH240943   0.987   7.551   1.459
13667TIP3    H140944   0.967   7.551   1.552
13667TIP3    H240945   0.906   7.522   1.416
13668TIP3   OH240946   4.826   0.262   1.084
13668TIP3    H140947   4.749   0.255   1.027
13668TIP3    H240948   4.808   0.338   1.139
13669TIP3   OH240949   8.038   3.332   6.905
13669TIP3    H140950   7.985   3.281   6.844
13669TIP3    H240951   8.041   3.419   6.866
13670TIP3   OH240952   7.773   4.139   6.848
13670TIP3    H140953   7.744   4.068   6.905
13670TIP3    H240954   7.783   4.099   6.762
13671TIP3   OH240955   2.052   7.803   0.676
13671TIP3    H140956   1.968   7.760   0.692
13671TIP3    H240957   2.106   7.736   0.635
13672TIP3   OH240958   4.074   0.014   0.483
13672TIP3    H140959   4.062   0.082   0.417
13672TIP3    H240960   3.985  -0.009   0.511
13673TIP3   OH240961   0.805   7.308   0.181
13673TIP3    H140962   0.848   7.391   0.202
13673TIP3    H240963   0.724   7.309   0.232
13674TIP3   OH240964   1.353   7.782   0.421
13674TIP3    H140965   1.320   7.870   0.438
13674TIP3    H240966   1.310   7.728   0.487
13675TIP3   OH240967   4.428   0.241   0.828
13675TIP3    H140968   4.412   0.335   0.819
13675TIP3    H240969   4.475   0.233   0.911
13676TIP3   OH240970   3.981   0.229   0.330
13676TIP3    H140971   3.896   0.229   0.373
13676TIP3    H240972   3.993   0.320   0.302
13677TIP3   OH240973   1.895   7.986   0.884
13677TIP3    H140974   1.890   7.960   0.976
13677TIP3    H240975   1.960   7.927   0.845
13678TIP3   OH240976   7.537   3.882   6.723
13678TIP3    H140977   7.586   3.851   6.799
13678TIP3    H240978   7.453   3.837   6.728
13679TIP3   OH240979   7.851   4.347   6.531
13679TIP3    H140980   7.875   4.407   6.460
13679TIP3    H240981   7.780   4.391   6.577
13680TIP3   OH240982   2.039   7.798  -0.023
13680TIP3    H140983   2.025   7.747   0.057
13680TIP3    H240984   2.134   7.805  -0.030
13681TIP3   OH240985   3.786   0.159   1.073
13681TIP3    H140986   3.834   0.094   1.125
13681TIP3    H240987   3.759   0.225   1.137
13682TIP3   OH240988   6.887   3.838   6.735
13682TIP3    H140989   6.903   3.751   6.699
13682TIP3    H240990   6.863   3.822   6.827
13683TIP3   OH240991   1.170   7.869   0.071
13683TIP3    H140992   1.250   7.838   0.113
13683TIP3    H240993   1.176   7.964   0.073
13684TIP3   OH240994   0.901   7.557   0.276
13684TIP3    H140995   0.835   7.603   0.329
13684TIP3    H240996   0.919   7.616   0.203
13685TIP3   OH240997   1.914   6.933   0.325
13685TIP3    H140998   1.899   6.940   0.231
13685TIP3    H240999   1.946   7.019   0.351
13686TIP3   OH241000   4.284   0.051   0.017
13686TIP3    H141001   4.195   0.071   0.049
13686TIP3    H241002   4.300   0.116  -0.051
13687TIP3   OH241003   1.594   7.131   0.409
13687TIP3    H141004   1.652   7.201   0.378
13687TIP3    H241005   1.614   7.124   0.502
13688TIP3   OH241006   1.748   6.846   0.523
13688TIP3    H141007   1.718   6.925   0.569
13688TIP3    H241008   1.810   6.878   0.458
13689TIP3   OH241009   4.029   0.129   0.080
13689TIP3    H141010   4.006   0.200   0.020
13689TIP3    H241011   4.009   0.163   0.167
13690TIP3   OH241012   1.269   6.855   0.342
13690TIP3    H141013   1.260   6.948   0.362
13690TIP3    H241014   1.363   6.839   0.341
13691TIP3   OH241015   2.282   7.596   0.585
13691TIP3    H141016   2.219   7.527   0.604
13691TIP3    H241017   2.325   7.613   0.669
13692TIP3   OH241018   0.918   7.752   0.074
13692TIP3    H141019   0.993   7.811   0.081
13692TIP3    H241020   0.945   7.686   0.011
13693TIP3   OH241021   0.840   7.032   0.200
13693TIP3    H141022   0.843   7.128   0.200
13693TIP3    H241023   0.812   7.009   0.111
13694TIP3   OH241024   5.013   0.469   0.490
13694TIP3    H141025   4.976   0.527   0.423
13694TIP3    H241026   5.105   0.462   0.468
13695TIP3   OH241027   1.134   6.624   1.066
13695TIP3    H141028   1.119   6.653   0.976
13695TIP3    H241029   1.193   6.690   1.103
13696TIP3   OH241030   3.580  -0.014   0.452
13696TIP3    H141031   3.531   0.018   0.528
13696TIP3    H241032   3.537   0.027   0.377
13697TIP3   OH241033   3.715   0.478   1.581
13697TIP3    H141034   3.792   0.445   1.628
13697TIP3    H241035   3.661   0.400   1.567
13698TIP3   OH241036   7.046   4.038   6.633
13698TIP3    H141037   6.995   3.967   6.674
13698TIP3    H241038   7.119   3.993   6.591
13699TIP3   OH241039   7.489   4.089   6.552
13699TIP3    H141040   7.521   4.024   6.614
13699TIP3    H241041   7.548   4.083   6.477
13700TIP3   OH241042   6.698   3.554   6.866
13700TIP3    H141043   6.777   3.513   6.902
13700TIP3    H241044   6.676   3.501   6.790
13701TIP3   OH241045   7.286   3.767   6.698
13701TIP3    H141046   7.263   3.778   6.790
13701TIP3    H241047   7.275   3.674   6.681
13702TIP3   OH241048   1.244   7.482   0.140
13702TIP3    H141049   1.206   7.445   0.220
13702TIP3    H241050   1.284   7.407   0.096
13703TIP3   OH241051   1.517   7.656   1.364
13703TIP3    H141052   1.431   7.628   1.332
13703TIP3    H241053   1.574   7.650   1.287
13704TIP3   OH241054   7.036   3.281   6.924
13704TIP3    H141055   7.005   3.291   6.834
13704TIP3    H241056   7.131   3.286   6.917
13705TIP3   OH241057   7.827   3.584   6.587
13705TIP3    H141058   7.814   3.544   6.501
13705TIP3    H241059   7.801   3.676   6.574
13706TIP3   OH241060   1.667   7.684   1.127
13706TIP3    H141061   1.742   7.740   1.106
13706TIP3    H241062   1.591   7.732   1.094
13707TIP3   OH241063   6.856   4.352   6.845
13707TIP3    H141064   6.942   4.325   6.812
13707TIP3    H241065   6.815   4.396   6.770
13708TIP3   OH241066   0.647   7.735   0.113
13708TIP3    H141067   0.739   7.754   0.094
13708TIP3    H241068   0.628   7.657   0.061
13709TIP3   OH241069   3.382   0.301   0.544
13709TIP3    H141070   3.315   0.250   0.498
13709TIP3    H241071   3.426   0.239   0.602
13710TIP3   OH241072   3.520   0.125   0.705
13710TIP3    H141073   3.507   0.056   0.770
13710TIP3    H241074   3.582   0.186   0.746
13711TIP3   OH241075   7.983   3.797   6.920
13711TIP3    H141076   8.036   3.871   6.888
13711TIP3    H241077   8.027   3.769   7.000
13712TIP3   OH241078   2.426   7.696   0.211
13712TIP3    H141079   2.356   7.639   0.243
13712TIP3    H241080   2.439   7.761   0.280
13713TIP3   OH241081   5.268   0.057   0.525
13713TIP3    H141082   5.287  -0.012   0.589
13713TIP3    H241083   5.173   0.058   0.519
13714TIP3   OH241084   5.186   0.350   0.734
13714TIP3    H141085   5.164   0.339   0.827
13714TIP3    H241086   5.125   0.293   0.688
13715TIP3   OH241087   8.029   3.570   6.772
13715TIP3    H141088   7.961   3.568   6.705
13715TIP3    H241089   8.011   3.651   6.821
13716TIP3   OH241090   7.879   3.214   6.719
13716TIP3    H141091   7.834   3.251   6.644
13716TIP3    H241092   7.877   3.120   6.705
13717TIP3   OH241093   2.240   7.522   0.316
13717TIP3    H141094   2.241   7.426   0.309
13717TIP3    H241095   2.243   7.539   0.410
13718TIP3   OH241096   0.865   7.584   1.081
13718TIP3    H141097   0.849   7.551   0.992
13718TIP3    H241098   0.960   7.584   1.090
13719TIP3   OH241099   7.854   2.943   6.693
13719TIP3    H141100   7.905   2.901   6.762
13719TIP3    H241101   7.765   2.912   6.708
13720TIP3   OH241102   2.261   7.242   0.206
13720TIP3    H141103   2.287   7.150   0.202
13720TIP3    H241104   2.297   7.280   0.126
13721TIP3   OH241105   1.053   6.964   1.118
13721TIP3    H141106   1.095   6.899   1.174
13721TIP3    H241107   1.125   7.014   1.081
13722TIP3   OH241108   0.849   7.234   1.147
13722TIP3    H141109   0.896   7.232   1.064
13722TIP3    H241110   0.857   7.324   1.177
13723TIP3   OH241111   8.108   2.892   6.867
13723TIP3    H141112   8.137   2.831   6.799
13723TIP3    H241113   8.157   2.972   6.851
13724TIP3   OH241114   0.832   6.747   0.645
13724TIP3    H141115   0.747   6.737   0.688
13724TIP3    H241116   0.815   6.805   0.571
13725TIP3   OH241117   4.820   0.449   0.156
13725TIP3    H141118   4.875   0.433   0.079
13725TIP3    H241119   4.870   0.512   0.208
13726TIP3   OH241120   0.896   6.752   1.450
13726TIP3    H141121   0.975   6.791   1.487
13726TIP3    H241122   0.856   6.822   1.399
13727TIP3   OH241123   3.903   0.271   1.644
13727TIP3    H141124   3.833   0.232   1.592
13727TIP3    H241125   3.879   0.251   1.735
13728TIP3   OH241126   4.105   0.222   0.938
13728TIP3    H141127   4.047   0.298   0.931
13728TIP3    H241128   4.188   0.258   0.967
13729TIP3   OH241129   3.677   0.395   1.175
13729TIP3    H141130   3.687   0.461   1.107
13729TIP3    H241131   3.743   0.419   1.241
13730TIP3   OH241132   3.974   0.463   0.939
13730TIP3    H141133   3.895   0.495   0.983
13730TIP3    H241134   3.962   0.488   0.847
13731TIP3   OH241135   4.517   0.567   0.709
13731TIP3    H141136   4.430   0.530   0.699
13731TIP3    H241137   4.502   0.650   0.754
13732TIP3   OH241138   4.705   0.433   0.848
13732TIP3    H141139   4.654   0.480   0.783
13732TIP3    H241140   4.787   0.482   0.855
13733TIP3   OH241141   4.966   0.663   0.686
13733TIP3    H141142   4.985   0.614   0.766
13733TIP3    H241143   4.979   0.600   0.615
13734TIP3   OH241144   3.697   0.295   0.844
13734TIP3    H141145   3.720   0.266   0.932
13734TIP3    H241146   3.769   0.262   0.789
13735TIP3   OH241147   3.895   0.168   0.711
13735TIP3    H141148   3.909   0.095   0.771
13735TIP3    H241149   3.983   0.203   0.695
13736TIP3   OH241150   4.163   0.231   0.657
13736TIP3    H141151   4.169   0.169   0.584
13736TIP3    H241152   4.190   0.180   0.734
13737TIP3   OH241153   1.112   6.682   0.791
13737TIP3    H141154   1.023   6.646   0.790
13737TIP3    H241155   1.169   6.606   0.781
13738TIP3   OH241156   0.968   6.563   0.478
13738TIP3    H141157   0.988   6.611   0.398
13738TIP3    H241158   0.924   6.627   0.534
13739TIP3   OH241159   1.595   6.697   0.701
13739TIP3    H141160   1.647   6.749   0.640
13739TIP3    H241161   1.580   6.755   0.776
13740TIP3   OH241162   2.128   6.778   0.214
13740TIP3    H141163   2.067   6.840   0.254
13740TIP3    H241164   2.147   6.714   0.283
13741TIP3   OH241165   3.467   0.115   0.239
13741TIP3    H141166   3.384   0.080   0.205
13741TIP3    H241167   3.469   0.205   0.207
13742TIP3   OH241168   1.065   6.688   0.241
13742TIP3    H141169   1.113   6.629   0.183
13742TIP3    H241170   1.133   6.745   0.278
13743TIP3   OH241171   1.542   6.877   0.328
13743TIP3    H141172   1.599   6.827   0.387
13743TIP3    H241173   1.559   6.968   0.350
13744TIP3   OH241174   7.105   4.265   6.768
13744TIP3    H141175   7.188   4.292   6.729
13744TIP3    H241176   7.075   4.193   6.714
13745TIP3   OH241177   7.808   4.408   6.873
13745TIP3    H141178   7.803   4.312   6.868
13745TIP3    H241179   7.766   4.439   6.793
13746TIP3   OH241180   6.421   4.119   6.837
13746TIP3    H141181   6.417   4.113   6.932
13746TIP3    H241182   6.499   4.070   6.813
13747TIP3   OH241183   2.559   7.454   0.152
13747TIP3    H141184   2.536   7.546   0.162
13747TIP3    H241185   2.519   7.428   0.069
13748TIP3   OH241186   8.145   3.991   6.810
13748TIP3    H141187   8.110   4.006   6.722
13748TIP3    H241188   8.176   4.077   6.838
13749TIP3   OH241189   0.049   3.677   6.839
13749TIP3    H141190  -0.025   3.726   6.805
13749TIP3    H241191   0.041   3.683   6.934
13750TIP3   OH241192   5.320   0.321   0.470
13750TIP3    H141193   5.320   0.225   0.476
13750TIP3    H241194   5.312   0.351   0.560
13751TIP3   OH241195   0.304   4.706   6.588
13751TIP3    H141196   0.308   4.614   6.559
13751TIP3    H241197   0.396   4.733   6.593
13752TIP3   OH241198   8.386   4.482   6.914
13752TIP3    H141199   8.387   4.458   7.006
13752TIP3    H241200   8.348   4.406   6.869
13753TIP3   OH241201   0.191   3.112   6.507
13753TIP3    H141202   0.252   3.039   6.493
13753TIP3    H241203   0.179   3.150   6.420
13754TIP3   OH241204   8.235   3.135   6.854
13754TIP3    H141205   8.273   3.171   6.774
13754TIP3    H241206   8.175   3.203   6.885
13755TIP3   OH241207   0.101   3.387   6.623
13755TIP3    H141208   0.121   3.293   6.616
13755TIP3    H241209   0.160   3.419   6.691
13756TIP3   OH241210   0.423   3.868   6.705
13756TIP3    H141211   0.367   3.884   6.629
13756TIP3    H241212   0.372   3.899   6.779
13757TIP3   OH241213   0.550   4.020   6.402
13757TIP3    H141214   0.538   4.081   6.475
13757TIP3    H241215   0.570   3.936   6.444
13758TIP3   OH241216   0.194   4.272   6.864
13758TIP3    H141217   0.172   4.358   6.829
13758TIP3    H241218   0.192   4.283   6.959
13759TIP3   OH241219   8.260   3.554   6.619
13759TIP3    H141220   8.305   3.636   6.641
13759TIP3    H241221   8.181   3.554   6.673
13760TIP3   OH241222   0.280   3.999   6.899
13760TIP3    H141223   0.233   4.079   6.875
13760TIP3    H241224   0.308   4.014   6.990
13761TIP3   OH241225   0.122   4.524   6.768
13761TIP3    H141226   0.040   4.537   6.816
13761TIP3    H241227   0.155   4.612   6.753
13762TIP3   OH241228   0.122   4.073   6.249
13762TIP3    H141229   0.087   3.984   6.254
13762TIP3    H241230   0.112   4.108   6.337
13763TIP3   OH241231   0.056   4.184   6.491
13763TIP3    H141232   0.134   4.180   6.546
13763TIP3    H241233   0.029   4.276   6.494
13764TIP3   OH241234   8.338   3.814   6.715
13764TIP3    H141235   8.271   3.859   6.767
13764TIP3    H241236   8.357   3.874   6.643
13765TIP3   OH241237   0.533   4.257   6.559
13765TIP3    H141238   0.476   4.329   6.533
13765TIP3    H241239   0.621   4.286   6.533
13766TIP3   OH241240   0.013   4.448   6.520
13766TIP3    H141241   0.041   4.511   6.454
13766TIP3    H241242   0.055   4.477   6.601
13767TIP3   OH241243   8.341   4.018   6.512
13767TIP3    H141244   8.406   4.087   6.512
13767TIP3    H241245   8.376   3.951   6.453
13768TIP3   OH241246   8.308   3.272   6.630
13768TIP3    H141247   8.325   3.366   6.635
13768TIP3    H241248   8.285   3.256   6.539
13769TIP3   OH241249   8.213   4.256   6.881
13769TIP3    H141250   8.174   4.295   6.959
13769TIP3    H241251   8.168   4.299   6.808
13770TIP3   OH241252   0.293   4.367   6.218
13770TIP3    H141253   0.243   4.329   6.145
13770TIP3    H241254   0.377   4.322   6.215
13771TIP3   OH241255   8.447   3.810   6.382
13771TIP3    H141256   8.486   3.765   6.457
13771TIP3    H241257   8.496   3.778   6.307
13772TIP3   OH241258   0.526   3.910   6.143
13772TIP3    H141259   0.555   3.961   6.218
13772TIP3    H241260   0.455   3.855   6.177
13773TIP3   OH241261   0.108   3.703   6.571
13773TIP3    H141262   0.089   3.673   6.661
13773TIP3    H241263   0.167   3.636   6.536
13774TIP3   OH241264   0.304   3.560   6.438
13774TIP3    H141265   0.324   3.625   6.370
13774TIP3    H241266   0.336   3.477   6.403
13775TIP3   OH241267   0.115   4.626   6.340
13775TIP3    H141268   0.210   4.634   6.334
13775TIP3    H241269   0.083   4.649   6.253
13776TIP3   OH241270   8.076   3.972   6.528
13776TIP3    H141271   8.169   3.994   6.522
13776TIP3    H241272   8.069   3.887   6.486
13777TIP3   OH241273   5.184   0.554   0.021
13777TIP3    H141274   5.120   0.500  -0.025
13777TIP3    H241275   5.232   0.493   0.077
13778TIP3   OH241276   5.329   0.393   0.194
13778TIP3    H141277   5.309   0.329   0.262
13778TIP3    H241278   5.371   0.465   0.241
13779TIP3   OH241279   8.091   4.379   6.672
13779TIP3    H141280   8.011   4.343   6.633
13779TIP3    H241281   8.096   4.468   6.637
13780TIP3   OH241282  -0.002   2.985   6.655
13780TIP3    H141283   0.071   3.028   6.611
13780TIP3    H241284  -0.015   3.035   6.735
13781TIP3   OH241285   0.386   4.635   6.266
13781TIP3    H141286   0.447   4.684   6.212
13781TIP3    H241287   0.355   4.564   6.209
13782TIP3   OH241288   8.198   4.376   6.336
13782TIP3    H141289   8.213   4.390   6.429
13782TIP3    H241290   8.277   4.331   6.305
13783TIP3   OH241291   7.477   1.071   1.356
13783TIP3    H141292   7.538   1.030   1.296
13783TIP3    H241293   7.507   1.162   1.363
13784TIP3   OH241294   7.210   0.360   1.094
13784TIP3    H141295   7.269   0.409   1.151
13784TIP3    H241296   7.268   0.299   1.047
13785TIP3   OH241297   7.425   0.492   1.196
13785TIP3    H141298   7.446   0.577   1.235
13785TIP3    H241299   7.464   0.496   1.109
13786TIP3   OH241300   7.773   1.117   0.806
13786TIP3    H141301   7.771   1.209   0.779
13786TIP3    H241302   7.861   1.087   0.781
13787TIP3   OH241303   7.027   1.401   1.270
13787TIP3    H141304   7.013   1.423   1.178
13787TIP3    H241305   7.024   1.486   1.315
13788TIP3   OH241306   7.301   1.305   0.914
13788TIP3    H141307   7.343   1.234   0.864
13788TIP3    H241308   7.322   1.286   1.005
13789TIP3   OH241309   7.323   1.327   1.187
13789TIP3    H141310   7.265   1.275   1.243
13789TIP3    H241311   7.404   1.334   1.237
13790TIP3   OH241312   7.523   0.518   0.943
13790TIP3    H141313   7.470   0.520   0.862
13790TIP3    H241314   7.608   0.551   0.916
13791TIP3   OH241315   7.206   0.875   1.121
13791TIP3    H141316   7.161   0.957   1.140
13791TIP3    H241317   7.171   0.813   1.186
13792TIP3   OH241318   7.990   0.391   1.111
13792TIP3    H141319   7.922   0.345   1.062
13792TIP3    H241320   7.987   0.481   1.078
13793TIP3   OH241321   7.674   1.167   1.060
13793TIP3    H141322   7.663   1.083   1.103
13793TIP3    H241323   7.706   1.145   0.972
13794TIP3   OH241324   7.450   0.918   0.982
13794TIP3    H141325   7.509   0.913   1.057
13794TIP3    H241326   7.364   0.898   1.018
13795TIP3   OH241327   7.777   1.392   0.768
13795TIP3    H141328   7.822   1.455   0.711
13795TIP3    H241329   7.703   1.441   0.804
13796TIP3   OH241330   7.641   0.908   1.186
13796TIP3    H141331   7.616   0.839   1.248
13796TIP3    H241332   7.733   0.891   1.168
13797TIP3   OH241333   6.839   0.883   0.987
13797TIP3    H141334   6.841   0.791   0.959
13797TIP3    H241335   6.762   0.887   1.045
13798TIP3   OH241336   7.078   1.106   1.197
13798TIP3    H141337   7.114   1.133   1.281
13798TIP3    H241338   7.051   1.187   1.155
13799TIP3   OH241339   6.677   1.123   1.150
13799TIP3    H141340   6.703   1.194   1.092
13799TIP3    H241341   6.747   1.119   1.215
13800TIP3   OH241342   6.972   1.084   0.866
13800TIP3    H141343   6.928   1.013   0.914
13800TIP3    H241344   7.041   1.040   0.817
13801TIP3   OH241345   7.411   1.100   0.778
13801TIP3    H141346   7.439   1.033   0.840
13801TIP3    H241347   7.469   1.090   0.703
13802TIP3   OH241348   6.571   0.621   1.032
13802TIP3    H141349   6.589   0.615   1.125
13802TIP3    H241350   6.657   0.619   0.990
13803TIP3   OH241351   7.142   0.798   0.864
13803TIP3    H141352   7.153   0.820   0.957
13803TIP3    H241353   7.149   0.702   0.862
13804TIP3   OH241354   6.933   0.334   1.134
13804TIP3    H141355   6.902   0.350   1.045
13804TIP3    H241356   7.028   0.348   1.129
13805TIP3   OH241357   7.742   0.630   0.814
13805TIP3    H141358   7.724   0.589   0.729
13805TIP3    H241359   7.714   0.721   0.803
13806TIP3   OH241360   6.763   1.336   0.999
13806TIP3    H141361   6.859   1.335   0.998
13806TIP3    H241362   6.738   1.369   0.913
13807TIP3   OH241363   7.906   0.848   1.155
13807TIP3    H141364   7.964   0.913   1.115
13807TIP3    H241365   7.959   0.808   1.224
13808TIP3   OH241366   8.061   0.726   1.349
13808TIP3    H141367   8.018   0.692   1.428
13808TIP3    H241368   8.147   0.754   1.379
13809TIP3   OH241369   7.956   0.632   0.987
13809TIP3    H141370   7.884   0.620   0.925
13809TIP3    H241371   7.931   0.707   1.040
13810TIP3   OH241372   7.798   0.312   0.931
13810TIP3    H141373   7.747   0.334   0.853
13810TIP3    H241374   7.753   0.237   0.969
13811TIP3   OH241375   7.703   0.087   1.052
13811TIP3    H141376   7.789   0.076   1.094
13811TIP3    H241377   7.651   0.014   1.084
13812TIP3   OH241378   5.118   7.984   1.111
13812TIP3    H141379   5.064   7.918   1.068
13812TIP3    H241380   5.179   8.014   1.044
13813TIP3   OH241381   7.776   1.427   1.367
13813TIP3    H141382   7.768   1.428   1.272
13813TIP3    H241383   7.748   1.515   1.394
13814TIP3   OH241384   7.039   1.316   0.981
13814TIP3    H141385   7.131   1.321   0.956
13814TIP3    H241386   7.007   1.236   0.941
13815TIP3   OH241387   7.724   1.435   1.093
13815TIP3    H141388   7.708   1.342   1.084
13815TIP3    H241389   7.677   1.475   1.020
13816TIP3   OH241390   0.716   0.973   1.043
13816TIP3    H141391   0.685   1.061   1.023
13816TIP3    H241392   0.646   0.915   1.014
13817TIP3   OH241393   0.716   0.995   1.431
13817TIP3    H141394   0.760   0.970   1.512
13817TIP3    H241395   0.673   0.915   1.401
13818TIP3   OH241396   0.988   1.277   1.128
13818TIP3    H141397   0.976   1.210   1.196
13818TIP3    H241398   1.010   1.356   1.176
13819TIP3   OH241399   0.010   1.270   1.468
13819TIP3    H141400  -0.006   1.178   1.487
13819TIP3    H241401   0.105   1.279   1.471
13820TIP3   OH241402   8.202   0.499   1.259
13820TIP3    H141403   8.163   0.584   1.280
13820TIP3    H241404   8.131   0.449   1.219
13821TIP3   OH241405   8.311   0.761   1.452
13821TIP3    H141406   8.367   0.688   1.479
13821TIP3    H241407   8.366   0.838   1.462
13822TIP3   OH241408   0.640   1.704   1.148
13822TIP3    H141409   0.665   1.642   1.079
13822TIP3    H241410   0.640   1.651   1.228
13823TIP3   OH241411   0.524   1.205   1.467
13823TIP3    H141412   0.566   1.126   1.432
13823TIP3    H241413   0.595   1.252   1.512
13824TIP3   OH241414   1.564   0.532   1.430
13824TIP3    H141415   1.545   0.626   1.421
13824TIP3    H241416   1.613   0.510   1.351
13825TIP3   OH241417   0.898   0.657   1.520
13825TIP3    H141418   0.966   0.595   1.548
13825TIP3    H241419   0.886   0.639   1.427
13826TIP3   OH241420   0.352   0.421   1.466
13826TIP3    H141421   0.300   0.479   1.410
13826TIP3    H241422   0.364   0.342   1.414
13827TIP3   OH241423   0.992   0.445   1.095
13827TIP3    H141424   1.057   0.440   1.165
13827TIP3    H241425   1.039   0.481   1.021
13828TIP3   OH241426   0.352   0.767   1.387
13828TIP3    H141427   0.446   0.750   1.392
13828TIP3    H241428   0.314   0.687   1.350
13829TIP3   OH241429   1.577   0.714   1.688
13829TIP3    H141430   1.511   0.778   1.660
13829TIP3    H241431   1.528   0.633   1.701
13830TIP3   OH241432   0.585   1.183   0.924
13830TIP3    H141433   0.559   1.165   0.833
13830TIP3    H241434   0.543   1.267   0.944
13831TIP3   OH241435   1.154   0.473   1.313
13831TIP3    H141436   1.138   0.436   1.400
13831TIP3    H241437   1.207   0.551   1.329
13832TIP3   OH241438   8.078   1.024   1.031
13832TIP3    H141439   8.053   1.045   0.941
13832TIP3    H241440   8.103   1.108   1.070
13833TIP3   OH241441   1.018   1.522   1.269
13833TIP3    H141442   0.928   1.512   1.300
13833TIP3    H241443   1.019   1.606   1.223
13834TIP3   OH241444   1.375   0.497   1.638
13834TIP3    H141445   1.282   0.489   1.617
13834TIP3    H241446   1.420   0.494   1.553
13835TIP3   OH241447   0.726   1.554   0.930
13835TIP3    H141448   0.777   1.474   0.919
13835TIP3    H241449   0.785   1.624   0.903
13836TIP3   OH241450   0.880   1.337   0.881
13836TIP3    H141451   0.880   1.257   0.827
13836TIP3    H241452   0.920   1.309   0.964
13837TIP3   OH241453   1.234   1.417   1.622
13837TIP3    H141454   1.229   1.341   1.563
13837TIP3    H241455   1.219   1.492   1.564
13838TIP3   OH241456   0.541   0.818   0.889
13838TIP3    H141457   0.459   0.864   0.871
13838TIP3    H241458   0.588   0.818   0.805
13839TIP3   OH241459   0.516   0.622   0.583
13839TIP3    H141460   0.581   0.672   0.633
13839TIP3    H241461   0.567   0.557   0.535
13840TIP3   OH241462   1.441   1.077   1.484
13840TIP3    H141463   1.357   1.123   1.489
13840TIP3    H241464   1.475   1.098   1.397
13841TIP3   OH241465   0.902   0.909   0.852
13841TIP3    H141466   0.847   0.934   0.926
13841TIP3    H241467   0.985   0.883   0.892
13842TIP3   OH241468   1.129   0.988   1.712
13842TIP3    H141469   1.147   1.076   1.746
13842TIP3    H241470   1.042   0.994   1.673
13843TIP3   OH241471   0.130   0.888   1.256
13843TIP3    H141472   0.096   0.824   1.194
13843TIP3    H241473   0.208   0.846   1.293
13844TIP3   OH241474   0.279   1.320   1.395
13844TIP3    H141475   0.265   1.294   1.304
13844TIP3    H241476   0.362   1.278   1.419
13845TIP3   OH241477   0.232   0.886   1.605
13845TIP3    H141478   0.273   0.840   1.531
13845TIP3    H241479   0.302   0.938   1.643
13846TIP3   OH241480   0.773   1.509   1.387
13846TIP3    H141481   0.763   1.587   1.441
13846TIP3    H241482   0.771   1.436   1.450
13847TIP3   OH241483   0.733   0.769   0.686
13847TIP3    H141484   0.793   0.826   0.734
13847TIP3    H241485   0.760   0.777   0.595
13848TIP3   OH241486   0.475   1.440   0.942
13848TIP3    H141487   0.561   1.482   0.945
13848TIP3    H241488   0.420   1.501   0.892
13849TIP3   OH241489   1.252  -0.003   0.737
13849TIP3    H141490   1.175   0.023   0.787
13849TIP3    H241491   1.268   0.069   0.677
13850TIP3   OH241492   8.504   0.725   1.057
13850TIP3    H141493   8.430   0.777   1.027
13850TIP3    H241494   8.467   0.640   1.081
13851TIP3   OH241495   1.068   1.368   0.299
13851TIP3    H141496   1.064   1.461   0.276
13851TIP3    H241497   1.157   1.341   0.277
13852TIP3   OH241498   1.479   1.784   1.686
13852TIP3    H141499   1.484   1.688   1.693
13852TIP3    H241500   1.395   1.806   1.727
13853TIP3   OH241501   0.370   1.657   0.770
13853TIP3    H141502   0.326   1.636   0.688
13853TIP3    H241503   0.330   1.740   0.797
13854TIP3   OH241504   8.312   1.495   1.137
13854TIP3    H141505   8.352   1.499   1.224
13854TIP3    H241506   8.266   1.411   1.135
13855TIP3   OH241507   0.571   1.590   0.397
13855TIP3    H141508   0.621   1.516   0.362
13855TIP3    H241509   0.607   1.604   0.485
13856TIP3   OH241510   0.624   1.635   0.667
13856TIP3    H141511   0.538   1.637   0.709
13856TIP3    H241512   0.682   1.596   0.733
13857TIP3   OH241513   0.813   0.771   0.427
13857TIP3    H141514   0.766   0.760   0.344
13857TIP3    H241515   0.896   0.811   0.403
13858TIP3   OH241516   0.526   0.184   0.733
13858TIP3    H141517   0.497   0.172   0.823
13858TIP3    H241518   0.489   0.110   0.685
13859TIP3   OH241519   0.202   0.562   1.286
13859TIP3    H141520   0.113   0.547   1.318
13859TIP3    H241521   0.205   0.520   1.200
13860TIP3   OH241522   0.683   0.623   1.019
13860TIP3    H141523   0.633   0.693   0.978
13860TIP3    H241524   0.739   0.589   0.948
13861TIP3   OH241525   0.844   0.629   1.245
13861TIP3    H141526   0.784   0.649   1.173
13861TIP3    H241527   0.893   0.553   1.213
13862TIP3   OH241528   0.189   0.161   0.677
13862TIP3    H141529   0.189   0.174   0.772
13862TIP3    H241530   0.109   0.204   0.647
13863TIP3   OH241531   8.217   0.245   1.078
13863TIP3    H141532   8.236   0.274   0.989
13863TIP3    H241533   8.134   0.286   1.100
13864TIP3   OH241534   0.858   0.899   1.644
13864TIP3    H141535   0.883   0.815   1.605
13864TIP3    H241536   0.862   0.883   1.738
13865TIP3   OH241537   0.608   0.406   1.337
13865TIP3    H141538   0.542   0.421   1.405
13865TIP3    H241539   0.691   0.402   1.384
13866TIP3   OH241540   8.455   0.464   1.352
13866TIP3    H141541   8.368   0.472   1.314
13866TIP3    H241542   8.491   0.384   1.314
13867TIP3   OH241543   0.209   0.430   1.045
13867TIP3    H141544   0.303   0.448   1.037
13867TIP3    H241545   0.173   0.453   0.960
13868TIP3   OH241546   1.070   0.436   1.584
13868TIP3    H141547   1.081   0.390   1.668
13868TIP3    H241548   0.992   0.396   1.545
13869TIP3   OH241549   0.089   0.449   0.800
13869TIP3    H141550   0.027   0.401   0.746
13869TIP3    H241551   0.146   0.494   0.737
13870TIP3   OH241552   1.171   2.110   1.758
13870TIP3    H141553   1.184   2.124   1.664
13870TIP3    H241554   1.206   2.189   1.799
13871TIP3   OH241555   0.627   0.718   1.417
13871TIP3    H141556   0.673   0.677   1.344
13871TIP3    H241557   0.681   0.696   1.494
13872TIP3   OH241558   0.094   0.218   1.325
13872TIP3    H141559   0.048   0.188   1.404
13872TIP3    H241560   0.052   0.169   1.254
13873TIP3   OH241561   0.304   0.953   0.832
13873TIP3    H141562   0.229   0.898   0.809
13873TIP3    H241563   0.279   0.995   0.915
13874TIP3   OH241564   1.200   1.211   1.440
13874TIP3    H141565   1.237   1.260   1.367
13874TIP3    H241566   1.120   1.172   1.405
13875TIP3   OH241567   0.781   0.273   0.739
13875TIP3    H141568   0.688   0.256   0.730
13875TIP3    H241569   0.787   0.369   0.743
13876TIP3   OH241570   0.842   0.538   0.804
13876TIP3    H141571   0.937   0.544   0.813
13876TIP3    H241572   0.818   0.613   0.751
13877TIP3   OH241573   0.004   0.981   1.483
13877TIP3    H141574   0.041   0.963   1.396
13877TIP3    H241575   0.071   0.953   1.544
13878TIP3   OH241576   0.462   1.113   0.677
13878TIP3    H141577   0.414   1.196   0.675
13878TIP3    H241578   0.406   1.055   0.730
13879TIP3   OH241579   0.892   1.538   1.775
13879TIP3    H141580   0.804   1.571   1.788
13879TIP3    H241581   0.950   1.608   1.805
13880TIP3   OH241582   1.251   0.627   0.629
13880TIP3    H141583   1.193   0.582   0.567
13880TIP3    H241584   1.258   0.716   0.595
13881TIP3   OH241585   1.475   1.508   1.710
13881TIP3    H141586   1.384   1.481   1.699
13881TIP3    H241587   1.522   1.467   1.638
13882TIP3   OH241588   0.986   1.438   0.560
13882TIP3    H141589   0.960   1.365   0.616
13882TIP3    H241590   1.008   1.398   0.476
13883TIP3   OH241591   0.969   1.078   1.330
13883TIP3    H141592   0.877   1.056   1.344
13883TIP3    H241593   1.008   0.997   1.298
13884TIP3   OH241594   0.129   1.312   1.150
13884TIP3    H141595   0.122   1.388   1.091
13884TIP3    H241596   0.045   1.311   1.196
13885TIP3   OH241597   8.197   0.600   0.857
13885TIP3    H141598   8.242   0.681   0.880
13885TIP3    H241599   8.113   0.605   0.902
13886TIP3   OH241600   0.203   1.066   1.055
13886TIP3    H141601   0.190   1.156   1.085
13886TIP3    H241602   0.179   1.011   1.130
13887TIP3   OH241603   0.388   1.635   1.602
13887TIP3    H141604   0.429   1.710   1.559
13887TIP3    H241605   0.460   1.572   1.612
13888TIP3   OH241606   0.044   1.537   0.998
13888TIP3    H141607  -0.043   1.536   1.038
13888TIP3    H241608   0.073   1.628   1.007
13889TIP3   OH241609   0.787   1.282   1.553
13889TIP3    H141610   0.854   1.283   1.622
13889TIP3    H241611   0.810   1.208   1.498
13890TIP3   OH241612   0.754   1.177   0.462
13890TIP3    H141613   0.798   1.159   0.545
13890TIP3    H241614   0.669   1.132   0.471
13891TIP3   OH241615   0.985   1.807   1.617
13891TIP3    H141616   0.902   1.764   1.594
13891TIP3    H241617   0.998   1.872   1.548
13892TIP3   OH241618   1.066   1.641   0.257
13892TIP3    H141619   1.085   1.700   0.185
13892TIP3    H241620   0.995   1.683   0.305
13893TIP3   OH241621   0.925   1.126   0.681
13893TIP3    H141622   0.908   1.051   0.737
13893TIP3    H241623   1.018   1.121   0.661
13894TIP3   OH241624   0.100   1.141   0.468
13894TIP3    H141625   0.111   1.050   0.440
13894TIP3    H241626   0.088   1.136   0.562
13895TIP3   OH241627   0.045   1.156   0.741
13895TIP3    H141628   0.111   1.130   0.805
13895TIP3    H241629   0.046   1.252   0.744
13896TIP3   OH241630   8.282   0.851   0.947
13896TIP3    H141631   8.215   0.897   0.998
13896TIP3    H241632   8.303   0.910   0.874
13897TIP3   OH241633   0.841   0.234   1.004
13897TIP3    H141634   0.819   0.252   0.912
13897TIP3    H241635   0.888   0.312   1.033
13898TIP3   OH241636   0.315   1.340   0.673
13898TIP3    H141637   0.230   1.364   0.711
13898TIP3    H241638   0.339   1.414   0.617
13899TIP3   OH241639   0.485   0.444   1.084
13899TIP3    H141640   0.549   0.508   1.052
13899TIP3    H241641   0.513   0.426   1.174
13900TIP3   OH241642   0.659   0.172   1.197
13900TIP3    H141643   0.635   0.246   1.253
13900TIP3    H241644   0.728   0.207   1.141
13901TIP3   OH241645   0.065   1.430   0.748
13901TIP3    H141646   0.045   1.502   0.689
13901TIP3    H241647   0.058   1.468   0.836
13902TIP3   OH241648   0.175   0.172   0.950
13902TIP3    H141649   0.180   0.261   0.987
13902TIP3    H241650   0.259   0.132   0.973
13903TIP3   OH241651   1.058   0.819   1.255
13903TIP3    H141652   0.984   0.758   1.263
13903TIP3    H241653   1.126   0.780   1.310
13904TIP3   OH241654   8.300   1.027   0.730
13904TIP3    H141655   8.373   1.088   0.740
13904TIP3    H241656   8.332   0.963   0.666
13905TIP3   OH241657   8.213   0.325   0.823
13905TIP3    H141658   8.222   0.419   0.836
13905TIP3    H241659   8.164   0.317   0.741
13906TIP3   OH241660   1.038   1.789   1.190
13906TIP3    H141661   0.995   1.842   1.123
13906TIP3    H241662   1.131   1.804   1.177
13907TIP3   OH241663   8.127   1.283   1.127
13907TIP3    H141664   8.096   1.329   1.205
13907TIP3    H241665   8.087   1.330   1.054
13908TIP3   OH241666   0.255   1.342   0.357
13908TIP3    H141667   0.209   1.271   0.402
13908TIP3    H241668   0.330   1.299   0.315
13909TIP3   OH241669   0.698   1.378   0.281
13909TIP3    H141670   0.733   1.314   0.343
13909TIP3    H241671   0.756   1.371   0.205
13910TIP3   OH241672   8.420   0.834   0.578
13910TIP3    H141673   8.471   0.808   0.655
13910TIP3    H241674   8.485   0.848   0.509
13911TIP3   OH241675   0.492   1.056   0.411
13911TIP3    H141676   0.471   1.066   0.504
13911TIP3    H241677   0.479   0.963   0.393
13912TIP3   OH241678   1.006   1.290   1.730
13912TIP3    H141679   1.097   1.314   1.713
13912TIP3    H241680   0.965   1.371   1.759
13913TIP3   OH241681   0.095   0.775   0.788
13913TIP3    H141682   0.077   0.743   0.876
13913TIP3    H241683   0.146   0.706   0.746
13914TIP3   OH241684   0.242   0.597   0.630
13914TIP3    H141685   0.213   0.599   0.539
13914TIP3    H241686   0.337   0.602   0.624
13915TIP3   OH241687   1.038   0.883   0.312
13915TIP3    H141688   1.023   0.841   0.227
13915TIP3    H241689   1.012   0.974   0.298
13916TIP3   OH241690   0.063   1.644   0.571
13916TIP3    H141691   0.152   1.620   0.545
13916TIP3    H241692   0.025   1.686   0.494
13917TIP3   OH241693   8.027   1.022   0.744
13917TIP3    H141694   8.122   1.032   0.739
13917TIP3    H241695   8.010   0.935   0.707
13918TIP3   OH241696   7.914   1.618   1.181
13918TIP3    H141697   7.858   1.557   1.133
13918TIP3    H241698   7.970   1.562   1.236
13919TIP3   OH241699   8.069   1.458   1.343
13919TIP3    H141700   8.002   1.424   1.402
13919TIP3    H241701   8.123   1.515   1.398
13920TIP3   OH241702   1.301   1.858   1.175
13920TIP3    H141703   1.331   1.872   1.265
13920TIP3    H241704   1.370   1.896   1.121
13921TIP3   OH241705   1.335   1.860   1.453
13921TIP3    H141706   1.285   1.778   1.452
13921TIP3    H241707   1.403   1.845   1.520
13922TIP3   OH241708   1.200   1.092   0.648
13922TIP3    H141709   1.260   1.160   0.616
13922TIP3    H241710   1.247   1.051   0.721
13923TIP3   OH241711   1.332   0.946   0.845
13923TIP3    H141712   1.265   0.910   0.903
13923TIP3    H241713   1.398   0.983   0.904
13924TIP3   OH241714   1.377   1.346   1.276
13924TIP3    H141715   1.432   1.277   1.240
13924TIP3    H241716   1.385   1.419   1.215
13925TIP3   OH241717   1.173   1.638   1.469
13925TIP3    H141718   1.099   1.674   1.518
13925TIP3    H241719   1.132   1.594   1.394
13926TIP3   OH241720   1.244   0.867   0.493
13926TIP3    H141721   1.174   0.864   0.428
13926TIP3    H241722   1.225   0.944   0.546
13927TIP3   OH241723   1.093   0.520   0.434
13927TIP3    H141724   1.054   0.556   0.355
13927TIP3    H241725   1.083   0.425   0.425
13928TIP3   OH241726   1.129   0.811   0.985
13928TIP3    H141727   1.135   0.717   0.970
13928TIP3    H241728   1.109   0.819   1.078
13929TIP3   OH241729   1.371   1.215   1.825
13929TIP3    H141730   1.445   1.154   1.829
13929TIP3    H241731   1.412   1.301   1.814
13930TIP3   OH241732   1.573   1.024   1.832
13930TIP3    H141733   1.531   0.939   1.843
13930TIP3    H241734   1.666   1.006   1.846
13931TIP3   OH241735   1.056   0.251   0.409
13931TIP3    H141736   1.123   0.218   0.469
13931TIP3    H241737   0.976   0.205   0.435
13932TIP3   OH241738   1.131   0.538   0.868
13932TIP3    H141739   1.177   0.455   0.881
13932TIP3    H241740   1.171   0.576   0.790
13933TIP3   OH241741   1.276   0.707   1.395
13933TIP3    H141742   1.357   0.729   1.349
13933TIP3    H241743   1.288   0.745   1.482
13934TIP3   OH241744   1.352   0.858   1.619
13934TIP3    H141745   1.274   0.891   1.663
13934TIP3    H241746   1.388   0.935   1.575
13935TIP3   OH241747   1.249   0.291   0.919
13935TIP3    H141748   1.289   0.271   1.004
13935TIP3    H241749   1.185   0.221   0.906
13936TIP3   OH241750   1.292   0.196   0.555
13936TIP3    H141751   1.336   0.138   0.494
13936TIP3    H241752   1.346   0.274   0.558
13937TIP3   OH241753   8.207   0.173   1.347
13937TIP3    H141754   8.117   0.150   1.371
13937TIP3    H241755   8.202   0.196   1.254
13938TIP3   OH241756   0.868   1.760   0.829
13938TIP3    H141757   0.922   1.744   0.752
13938TIP3    H241758   0.915   1.828   0.878
13939TIP3   OH241759   0.142   1.601   1.729
13939TIP3    H141760   0.114   1.689   1.704
13939TIP3    H241761   0.233   1.595   1.701
13940TIP3   OH241762   0.781   1.976   1.751
13940TIP3    H141763   0.857   1.935   1.710
13940TIP3    H241764   0.810   1.995   1.841
13941TIP3   OH241765   0.069   1.853   1.639
13941TIP3    H141766  -0.010   1.878   1.688
13941TIP3    H241767   0.050   1.880   1.549
13942TIP3   OH241768   0.487   1.840   1.443
13942TIP3    H141769   0.416   1.850   1.379
13942TIP3    H241770   0.496   1.926   1.483
13943TIP3   OH241771   0.750   1.768   1.482
13943TIP3    H141772   0.657   1.787   1.470
13943TIP3    H241773   0.795   1.834   1.430
13944TIP3   OH241774   0.967   1.964   1.391
13944TIP3    H141775   0.953   2.047   1.347
13944TIP3    H241776   0.991   1.903   1.320
13945TIP3   OH241777   8.238   1.647   1.482
13945TIP3    H141778   8.254   1.636   1.576
13945TIP3    H241779   8.315   1.609   1.440
13946TIP3   OH241780   8.451   1.516   1.373
13946TIP3    H141781   8.462   1.431   1.415
13946TIP3    H241782   8.538   1.556   1.375
13947TIP3   OH241783   0.218   1.593   1.387
13947TIP3    H141784   0.240   1.502   1.371
13947TIP3    H241785   0.259   1.614   1.471
13948TIP3   OH241786   0.856   0.331   1.449
13948TIP3    H141787   0.801   0.261   1.486
13948TIP3    H241788   0.914   0.285   1.388
13949TIP3   OH241789   1.295   0.162   1.388
13949TIP3    H141790   1.334   0.206   1.312
13949TIP3    H241791   1.201   0.177   1.379
13950TIP3   OH241792   1.400   0.229   1.145
13950TIP3    H141793   1.467   0.168   1.115
13950TIP3    H241794   1.437   0.316   1.130
13951TIP3   OH241795   5.485   7.889   1.045
13951TIP3    H141796   5.563   7.938   1.017
13951TIP3    H241797   5.500   7.872   1.138
13952TIP3   OH241798   6.225   7.968   1.338
13952TIP3    H141799   6.264   8.053   1.317
13952TIP3    H241800   6.158   7.988   1.404
13953TIP3   OH241801   1.022   0.152   1.320
13953TIP3    H141802   1.051   0.112   1.238
13953TIP3    H241803   0.991   0.078   1.373
13954TIP3   OH241804   1.060   0.089   0.910
13954TIP3    H141805   0.978   0.129   0.937
13954TIP3    H241806   1.056  -0.000   0.945
13955TIP3   OH241807   8.012   1.414   0.918
13955TIP3    H141808   7.929   1.379   0.886
13955TIP3    H241809   8.024   1.495   0.868
13956TIP3   OH241810   5.645   8.001   0.834
13956TIP3    H141811   5.671   7.927   0.779
13956TIP3    H241812   5.728   8.046   0.853
13957TIP3   OH241813   0.462   0.177   1.006
13957TIP3    H141814   0.518   0.159   1.081
13957TIP3    H241815   0.451   0.272   1.007
13958TIP3   OH241816   0.316   1.565   0.501
13958TIP3    H141817   0.400   1.591   0.463
13958TIP3    H241818   0.286   1.494   0.445
13959TIP3   OH241819   1.018   1.706   0.601
13959TIP3    H141820   1.012   1.611   0.593
13959TIP3    H241821   0.977   1.740   0.521
13960TIP3   OH241822   8.129   1.412   0.550
13960TIP3    H141823   8.135   1.425   0.645
13960TIP3    H241824   8.208   1.363   0.527
13961TIP3   OH241825   1.222   1.841   1.766
13961TIP3    H141826   1.143   1.812   1.720
13961TIP3    H241827   1.209   1.935   1.778
13962TIP3   OH241828   2.515   1.236   0.530
13962TIP3    H141829   2.481   1.323   0.506
13962TIP3    H241830   2.445   1.176   0.504
13963TIP3   OH241831   2.481   1.217   0.938
13963TIP3    H141832   2.521   1.199   1.023
13963TIP3    H241833   2.438   1.135   0.914
13964TIP3   OH241834   1.804   1.079   1.290
13964TIP3    H141835   1.837   1.027   1.363
13964TIP3    H241836   1.883   1.114   1.248
13965TIP3   OH241837   2.783   1.479   0.597
13965TIP3    H141838   2.736   1.426   0.661
13965TIP3    H241839   2.781   1.568   0.633
13966TIP3   OH241840   1.785   1.509   0.985
13966TIP3    H141841   1.770   1.415   0.989
13966TIP3    H241842   1.881   1.518   0.985
13967TIP3   OH241843   1.486   0.720   0.770
13967TIP3    H141844   1.446   0.804   0.793
13967TIP3    H241845   1.416   0.671   0.727
13968TIP3   OH241846   1.562   1.029   0.985
13968TIP3    H141847   1.611   0.951   1.013
13968TIP3    H241848   1.630   1.092   0.961
13969TIP3   OH241849   2.467   1.982   0.592
13969TIP3    H141850   2.489   1.898   0.551
13969TIP3    H241851   2.415   1.958   0.669
13970TIP3   OH241852   2.305   1.445   0.948
13970TIP3    H141853   2.344   1.362   0.921
13970TIP3    H241854   2.379   1.497   0.980
13971TIP3   OH241855   3.293   0.737   0.902
13971TIP3    H141856   3.298   0.819   0.951
13971TIP3    H241857   3.338   0.755   0.820
13972TIP3   OH241858   2.735   0.932   0.996
13972TIP3    H141859   2.765   0.844   1.021
13972TIP3    H241860   2.695   0.920   0.910
13973TIP3   OH241861   2.084   0.591   0.946
13973TIP3    H141862   2.061   0.665   0.889
13973TIP3    H241863   2.028   0.519   0.915
13974TIP3   OH241864   2.766   0.696   0.579
13974TIP3    H141865   2.829   0.666   0.645
13974TIP3    H241866   2.820   0.726   0.506
13975TIP3   OH241867   1.696   0.807   1.086
13975TIP3    H141868   1.782   0.793   1.127
13975TIP3    H241869   1.700   0.755   1.005
13976TIP3   OH241870   2.125   1.007   0.889
13976TIP3    H141871   2.219   0.988   0.897
13976TIP3    H241872   2.087   0.926   0.857
13977TIP3   OH241873   3.291   0.943   1.082
13977TIP3    H141874   3.204   0.983   1.073
13977TIP3    H241875   3.297   0.920   1.175
13978TIP3   OH241876   2.057   0.604   1.404
13978TIP3    H141877   2.010   0.637   1.328
13978TIP3    H241878   1.997   0.619   1.477
13979TIP3   OH241879   2.388   1.448   0.409
13979TIP3    H141880   2.359   1.424   0.321
13979TIP3    H241881   2.334   1.524   0.432
13980TIP3   OH241882   2.152   1.367   1.165
13980TIP3    H141883   2.089   1.432   1.198
13980TIP3    H241884   2.196   1.410   1.092
13981TIP3   OH241885   2.930   0.654   0.790
13981TIP3    H141886   2.883   0.651   0.873
13981TIP3    H241887   2.981   0.735   0.793
13982TIP3   OH241888   1.948   0.697   1.165
13982TIP3    H141889   2.000   0.774   1.187
13982TIP3    H241890   1.996   0.656   1.093
13983TIP3   OH241891   1.970   1.551   1.257
13983TIP3    H141892   1.962   1.643   1.233
13983TIP3    H241893   1.889   1.530   1.304
13984TIP3   OH241894   1.375   1.276   0.529
13984TIP3    H141895   1.342   1.293   0.440
13984TIP3    H241896   1.397   1.363   0.563
13985TIP3   OH241897   2.769   1.735   0.700
13985TIP3    H141898   2.705   1.733   0.772
13985TIP3    H241899   2.738   1.807   0.644
13986TIP3   OH241900   3.094   0.650   1.092
13986TIP3    H141901   3.007   0.653   1.054
13986TIP3    H241902   3.153   0.663   1.018
13987TIP3   OH241903   2.404   0.294   1.128
13987TIP3    H141904   2.396   0.202   1.152
13987TIP3    H241905   2.329   0.336   1.170
13988TIP3   OH241906   2.529   1.756   0.449
13988TIP3    H141907   2.561   1.667   0.437
13988TIP3    H241908   2.582   1.809   0.390
13989TIP3   OH241909   2.692   1.557   0.349
13989TIP3    H141910   2.677   1.481   0.292
13989TIP3    H241911   2.731   1.520   0.428
13990TIP3   OH241912   2.936   1.627   1.076
13990TIP3    H141913   2.925   1.585   0.991
13990TIP3    H241914   2.994   1.701   1.059
13991TIP3   OH241915   2.341   1.074   0.382
13991TIP3    H141916   2.258   1.118   0.365
13991TIP3    H241917   2.384   1.071   0.296
13992TIP3   OH241918   2.306   0.877   0.070
13992TIP3    H141919   2.372   0.926   0.119
13992TIP3    H241920   2.355   0.809   0.024
13993TIP3   OH241921   3.125   1.253   0.852
13993TIP3    H141922   3.057   1.319   0.866
13993TIP3    H241923   3.191   1.297   0.798
13994TIP3   OH241924   2.693   1.159   0.338
13994TIP3    H141925   2.640   1.189   0.412
13994TIP3    H241926   2.775   1.129   0.378
13995TIP3   OH241927   2.865   1.159   1.252
13995TIP3    H141928   2.903   1.235   1.209
13995TIP3    H241929   2.773   1.161   1.226
13996TIP3   OH241930   1.923   1.141   0.747
13996TIP3    H141931   1.886   1.081   0.682
13996TIP3    H241932   1.997   1.094   0.784
13997TIP3   OH241933   2.053   1.553   0.886
13997TIP3    H141934   2.029   1.535   0.796
13997TIP3    H241935   2.141   1.516   0.895
13998TIP3   OH241936   2.022   1.133   1.114
13998TIP3    H141937   2.061   1.099   1.034
13998TIP3    H241938   2.070   1.214   1.131
13999TIP3   OH241939   2.607   1.734   0.916
13999TIP3    H141940   2.594   1.805   0.979
13999TIP3    H241941   2.585   1.655   0.965
14000TIP3   OH241942   2.141   1.644   1.455
14000TIP3    H141943   2.076   1.702   1.496
14000TIP3    H241944   2.092   1.599   1.385
14001TIP3   OH241945   2.526   1.018   0.171
14001TIP3    H141946   2.585   1.077   0.219
14001TIP3    H241947   2.556   1.024   0.080
14002TIP3   OH241948   1.961   1.238   1.521
14002TIP3    H141949   1.966   1.326   1.559
14002TIP3    H241950   1.869   1.213   1.530
14003TIP3   OH241951   2.259   1.695   0.446
14003TIP3    H141952   2.350   1.726   0.450
14003TIP3    H241953   2.215   1.756   0.387
14004TIP3   OH241954   1.920   1.775   1.557
14004TIP3    H141955   1.915   1.861   1.516
14004TIP3    H241956   1.867   1.783   1.636
14005TIP3   OH241957   3.038   0.249   0.230
14005TIP3    H141958   2.960   0.268   0.282
14005TIP3    H241959   3.048   0.325   0.173
14006TIP3   OH241960   1.799   0.983   0.547
14006TIP3    H141961   1.722   1.031   0.516
14006TIP3    H241962   1.767   0.894   0.561
14007TIP3   OH241963   5.695   5.630   6.714
14007TIP3    H141964   5.689   5.723   6.692
14007TIP3    H241965   5.785   5.607   6.693
14008TIP3   OH241966   1.568   1.380   1.487
14008TIP3    H141967   1.500   1.359   1.423
14008TIP3    H241968   1.607   1.295   1.509
14009TIP3   OH241969   1.456   1.562   1.113
14009TIP3    H141970   1.549   1.552   1.093
14009TIP3    H241971   1.452   1.638   1.171
14010TIP3   OH241972   2.384   1.824   1.216
14010TIP3    H141973   2.367   1.901   1.270
14010TIP3    H241974   2.392   1.752   1.279
14011TIP3   OH241975   2.174   1.911   0.266
14011TIP3    H141976   2.132   1.889   0.183
14011TIP3    H241977   2.129   1.990   0.296
14012TIP3   OH241978   1.594   1.768   0.631
14012TIP3    H141979   1.636   1.761   0.717
14012TIP3    H241980   1.545   1.687   0.622
14013TIP3   OH241981   5.198   5.854   6.816
14013TIP3    H141982   5.250   5.782   6.782
14013TIP3    H241983   5.229   5.866   6.906
14014TIP3   OH241984   2.420   1.890   0.139
14014TIP3    H141985   2.344   1.886   0.197
14014TIP3    H241986   2.494   1.867   0.194
14015TIP3   OH241987   3.212   1.178   1.535
14015TIP3    H141988   3.127   1.195   1.577
14015TIP3    H241989   3.190   1.167   1.443
14016TIP3   OH241990   1.747   1.573   1.417
14016TIP3    H141991   1.800   1.591   1.494
14016TIP3    H241992   1.685   1.506   1.445
14017TIP3   OH241993   2.170   0.386   1.261
14017TIP3    H141994   2.088   0.352   1.226
14017TIP3    H241995   2.145   0.466   1.308
14018TIP3   OH241996   2.696   0.497   1.446
14018TIP3    H141997   2.769   0.487   1.507
14018TIP3    H241998   2.617   0.485   1.500
14019TIP3   OH241999   2.918   0.927   1.381
14019TIP3    H142000   2.865   0.940   1.460
14019TIP3    H242001   2.906   1.008   1.331
14020TIP3   OH242002   5.443   5.012   6.851
14020TIP3    H142003   5.395   5.014   6.769
14020TIP3    H242004   5.525   5.057   6.832
14021TIP3   OH242005   2.318   0.421   0.228
14021TIP3    H142006   2.279   0.429   0.315
14021TIP3    H242007   2.281   0.340   0.193
14022TIP3   OH242008   2.094   0.907   1.255
14022TIP3    H142009   2.059   0.918   1.343
14022TIP3    H242010   2.072   0.988   1.209
14023TIP3   OH242011   1.983   0.792   0.789
14023TIP3    H142012   1.894   0.768   0.815
14023TIP3    H242013   1.992   0.759   0.699
14024TIP3   OH242014   2.464   0.870   0.518
14024TIP3    H142015   2.417   0.942   0.477
14024TIP3    H242016   2.521   0.836   0.449
14025TIP3   OH242017   2.537   1.202   1.625
14025TIP3    H142018   2.531   1.132   1.690
14025TIP3    H242019   2.607   1.174   1.566
14026TIP3   OH242020   2.631   0.879   0.741
14026TIP3    H142021   2.560   0.901   0.681
14026TIP3    H242022   2.675   0.806   0.700
14027TIP3   OH242023   1.924   0.912   1.484
14027TIP3    H142024   1.955   0.963   1.558
14027TIP3    H242025   1.894   0.830   1.523
14028TIP3   OH242026   1.985   0.405   0.204
14028TIP3    H142027   1.974   0.408   0.300
14028TIP3    H242028   1.906   0.447   0.170
14029TIP3   OH242029   1.527   0.451   1.062
14029TIP3    H142030   1.605   0.485   1.105
14029TIP3    H242031   1.557   0.428   0.974
14030TIP3   OH242032   1.441   0.430   0.571
14030TIP3    H142033   1.486   0.465   0.494
14030TIP3    H242034   1.376   0.496   0.594
14031TIP3   OH242035   2.614   1.118   1.156
14031TIP3    H142036   2.654   1.051   1.100
14031TIP3    H242037   2.579   1.069   1.231
14032TIP3   OH242038   2.352   0.586   0.840
14032TIP3    H142039   2.273   0.584   0.894
14032TIP3    H242040   2.424   0.574   0.902
14033TIP3   OH242041   1.744   0.668   0.852
14033TIP3    H142042   1.657   0.674   0.814
14033TIP3    H242043   1.773   0.578   0.834
14034TIP3   OH242044   1.998   0.671   0.543
14034TIP3    H142045   2.093   0.681   0.531
14034TIP3    H242046   1.961   0.688   0.456
14035TIP3   OH242047   2.803   0.662   1.040
14035TIP3    H142048   2.790   0.679   1.133
14035TIP3    H242049   2.732   0.603   1.016
14036TIP3   OH242050   1.883   0.694   0.296
14036TIP3    H142051   1.820   0.643   0.244
14036TIP3    H242052   1.936   0.740   0.231
14037TIP3   OH242053   1.936   1.487   1.658
14037TIP3    H142054   1.971   1.576   1.664
14037TIP3    H242055   1.889   1.474   1.740
14038TIP3   OH242056   2.393   0.944   0.941
14038TIP3    H142057   2.457   0.889   0.896
14038TIP3    H242058   2.388   0.908   1.030
14039TIP3   OH242059   1.889   0.420   0.831
14039TIP3    H142060   1.860   0.344   0.882
14039TIP3    H242061   1.909   0.384   0.744
14040TIP3   OH242062   2.363   0.853   1.207
14040TIP3    H142063   2.274   0.881   1.228
14040TIP3    H242064   2.418   0.902   1.268
14041TIP3   OH242065   2.102   1.207   0.326
14041TIP3    H142066   2.027   1.153   0.302
14041TIP3    H242067   2.077   1.248   0.409
14042TIP3   OH242068   2.946   1.464   0.861
14042TIP3    H142069   2.984   1.513   0.787
14042TIP3    H242070   2.867   1.425   0.825
14043TIP3   OH242071   2.569   0.527   0.226
14043TIP3    H142072   2.476   0.503   0.224
14043TIP3    H242073   2.569   0.621   0.241
14044TIP3   OH242074   2.514   1.416   1.323
14044TIP3    H142075   2.595   1.409   1.373
14044TIP3    H242076   2.470   1.494   1.358
14045TIP3   OH242077   2.625   0.790   0.300
14045TIP3    H142078   2.720   0.794   0.307
14045TIP3    H242079   2.601   0.867   0.248
14046TIP3   OH242080   1.787   1.221   0.975
14046TIP3    H142081   1.827   1.204   0.889
14046TIP3    H242082   1.852   1.190   1.038
14047TIP3   OH242083   2.256   1.370   0.171
14047TIP3    H142084   2.208   1.453   0.167
14047TIP3    H242085   2.200   1.312   0.222
14048TIP3   OH242086   1.702   1.161   1.600
14048TIP3    H142087   1.743   1.150   1.685
14048TIP3    H242088   1.621   1.111   1.605
14049TIP3   OH242089   2.276   1.270   1.642
14049TIP3    H142090   2.220   1.204   1.600
14049TIP3    H242091   2.365   1.247   1.615
14050TIP3   OH242092   2.655   1.842   1.200
14050TIP3    H142093   2.561   1.840   1.182
14050TIP3    H242094   2.663   1.902   1.274
14051TIP3   OH242095   3.042   0.876   0.116
14051TIP3    H142096   2.986   0.832   0.053
14051TIP3    H242097   3.047   0.966   0.084
14052TIP3   OH242098   3.386   1.839   1.198
14052TIP3    H142099   3.333   1.766   1.231
14052TIP3    H242100   3.442   1.800   1.131
14053TIP3   OH242101   2.797   1.681   0.045
14053TIP3    H142102   2.762   1.618   0.107
14053TIP3    H242103   2.806   1.631  -0.037
14054TIP3   OH242104   2.719   1.311   0.814
14054TIP3    H142105   2.630   1.283   0.837
14054TIP3    H242106   2.761   1.232   0.780
14055TIP3   OH242107   1.915   1.563   0.643
14055TIP3    H142108   1.914   1.638   0.584
14055TIP3    H242109   1.823   1.550   0.668
14056TIP3   OH242110   1.484   0.852   0.356
14056TIP3    H142111   1.526   0.935   0.377
14056TIP3    H242112   1.402   0.853   0.405
14057TIP3   OH242113   2.009   1.320   0.552
14057TIP3    H142114   1.989   1.410   0.580
14057TIP3    H242115   1.980   1.266   0.625
14058TIP3   OH242116   2.167   1.876   1.068
14058TIP3    H142117   2.190   1.968   1.054
14058TIP3    H242118   2.244   1.838   1.110
14059TIP3   OH242119   1.829   1.781   0.489
14059TIP3    H142120   1.741   1.786   0.528
14059TIP3    H242121   1.860   1.871   0.487
14060TIP3   OH242122   2.556   1.504   1.060
14060TIP3    H142123   2.543   1.473   1.149
14060TIP3    H242124   2.605   1.434   1.017
14061TIP3   OH242125   5.384   5.438   6.874
14061TIP3    H142126   5.425   5.414   6.957
14061TIP3    H242127   5.299   5.394   6.876
14062TIP3   OH242128   2.843   1.962   1.035
14062TIP3    H142129   2.779   1.914   1.087
14062TIP3    H242130   2.813   2.053   1.038
14063TIP3   OH242131   5.690   5.904   6.671
14063TIP3    H142132   5.725   5.974   6.616
14063TIP3    H242133   5.607   5.940   6.705
14064TIP3   OH242134   1.840   0.663   1.597
14064TIP3    H142135   1.758   0.701   1.627
14064TIP3    H242136   1.826   0.568   1.602
14065TIP3   OH242137   2.707   1.357   0.150
14065TIP3    H142138   2.697   1.285   0.212
14065TIP3    H242139   2.800   1.359   0.130
14066TIP3   OH242140   1.611   1.762   1.254
14066TIP3    H142141   1.664   1.703   1.308
14066TIP3    H242142   1.625   1.848   1.293
14067TIP3   OH242143   4.734   5.403   6.892
14067TIP3    H142144   4.743   5.312   6.864
14067TIP3    H242145   4.717   5.397   6.986
14068TIP3   OH242146   1.840   1.412   0.223
14068TIP3    H142147   1.906   1.387   0.288
14068TIP3    H242148   1.839   1.508   0.226
14069TIP3   OH242149   1.575   1.104   0.436
14069TIP3    H142150   1.509   1.151   0.487
14069TIP3    H242151   1.594   1.162   0.361
14070TIP3   OH242152   2.745   0.723   1.300
14070TIP3    H142153   2.813   0.771   1.348
14070TIP3    H242154   2.727   0.647   1.354
14071TIP3   OH242155   2.623   0.474   0.494
14071TIP3    H142156   2.603   0.489   0.402
14071TIP3    H242157   2.663   0.555   0.524
14072TIP3   OH242158   2.114   1.600   0.165
14072TIP3    H142159   2.028   1.623   0.201
14072TIP3    H242160   2.135   1.671   0.104
14073TIP3   OH242161   2.280   0.677   0.587
14073TIP3    H142162   2.341   0.746   0.562
14073TIP3    H242163   2.303   0.657   0.678
14074TIP3   OH242164   2.578   0.939   1.364
14074TIP3    H142165   2.628   0.971   1.439
14074TIP3    H242166   2.622   0.859   1.338
14075TIP3   OH242167   2.440   0.373   0.675
14075TIP3    H142168   2.418   0.451   0.726
14075TIP3    H242169   2.508   0.401   0.615
14076TIP3   OH242170   1.862   1.685   0.235
14076TIP3    H142171   1.841   1.757   0.176
14076TIP3    H242172   1.848   1.721   0.323
14077TIP3   OH242173   1.953   0.397   0.484
14077TIP3    H142174   1.942   0.488   0.511
14077TIP3    H242175   2.048   0.382   0.489
14078TIP3   OH242176   3.138   0.782   1.331
14078TIP3    H142177   3.056   0.832   1.337
14078TIP3    H242178   3.131   0.735   1.249
14079TIP3   OH242179   2.836   1.068   0.729
14079TIP3    H142180   2.759   1.012   0.735
14079TIP3    H242181   2.907   1.015   0.764
14080TIP3   OH242182   1.595   1.280   0.218
14080TIP3    H142183   1.666   1.344   0.225
14080TIP3    H242184   1.626   1.217   0.153
14081TIP3   OH242185   1.507   0.574   0.349
14081TIP3    H142186   1.517   0.669   0.357
14081TIP3    H242187   1.451   0.562   0.272
14082TIP3   OH242188   2.757   1.984   0.567
14082TIP3    H142189   2.683   2.023   0.522
14082TIP3    H242190   2.831   1.995   0.507
14083TIP3   OH242191   1.912   0.297   1.210
14083TIP3    H142192   1.881   0.265   1.125
14083TIP3    H242193   1.900   0.223   1.269
14084TIP3   OH242194   1.422   1.546   0.611
14084TIP3    H142195   1.378   1.581   0.688
14084TIP3    H242196   1.379   1.589   0.537
14085TIP3   OH242197   1.606   2.030   1.571
14085TIP3    H142198   1.680   2.064   1.622
14085TIP3    H242199   1.579   1.951   1.617
14086TIP3   OH242200   4.885   5.608   6.787
14086TIP3    H142201   4.837   5.536   6.828
14086TIP3    H242202   4.959   5.566   6.743
14087TIP3   OH242203   2.647   2.004   1.423
14087TIP3    H142204   2.689   1.934   1.472
14087TIP3    H242205   2.716   2.067   1.405
14088TIP3   OH242206   5.334   5.647   6.703
14088TIP3    H142207   5.368   5.581   6.763
14088TIP3    H242208   5.387   5.637   6.624
14089TIP3   OH242209   1.719   1.090   0.066
14089TIP3    H142210   1.771   1.066   0.143
14089TIP3    H242211   1.784   1.104  -0.003
14090TIP3   OH242212   2.268   1.536   1.672
14090TIP3    H142213   2.220   1.574   1.598
14090TIP3    H242214   2.254   1.442   1.665
14091TIP3   OH242215   5.136   5.318   6.847
14091TIP3    H142216   5.110   5.330   6.938
14091TIP3    H242217   5.114   5.227   6.827
14092TIP3   OH242218   2.761   1.597   1.275
14092TIP3    H142219   2.824   1.598   1.204
14092TIP3    H242220   2.693   1.659   1.248
14093TIP3   OH242221   1.863   1.120   1.828
14093TIP3    H142222   1.950   1.087   1.805
14093TIP3    H242223   1.876   1.169   1.909
14094TIP3   OH242224   1.893   1.031   0.279
14094TIP3    H142225   1.872   0.999   0.366
14094TIP3    H242226   1.941   0.959   0.238
14095TIP3   OH242227   2.176   1.073   1.481
14095TIP3    H142228   2.097   1.126   1.484
14095TIP3    H242229   2.229   1.112   1.411
14096TIP3   OH242230   2.034   0.847   0.125
14096TIP3    H142231   2.004   0.851   0.034
14096TIP3    H242232   2.129   0.854   0.119
14097TIP3   OH242233   5.663   5.140   6.741
14097TIP3    H142234   5.649   5.099   6.656
14097TIP3    H242235   5.640   5.232   6.728
14098TIP3   OH242236   2.323   0.893   1.631
14098TIP3    H142237   2.330   0.812   1.581
14098TIP3    H242238   2.277   0.953   1.572
14099TIP3   OH242239   2.321   0.677   1.445
14099TIP3    H142240   2.349   0.712   1.360
14099TIP3    H242241   2.229   0.654   1.431
14100TIP3   OH242242   2.328   1.206   1.300
14100TIP3    H142243   2.406   1.262   1.308
14100TIP3    H242244   2.265   1.260   1.252
14101TIP3   OH242245   2.891   1.426   1.440
14101TIP3    H142246   2.837   1.479   1.381
14101TIP3    H242247   2.977   1.423   1.398
14102TIP3   OH242248   2.108   0.997   1.793
14102TIP3    H142249   2.088   0.919   1.845
14102TIP3    H242250   2.189   0.975   1.746
14103TIP3   OH242251   2.444   0.446   1.552
14103TIP3    H142252   2.402   0.526   1.520
14103TIP3    H242253   2.379   0.377   1.539
14104TIP3   OH242254   2.565   0.949   1.760
14104TIP3    H142255   2.547   0.949   1.854
14104TIP3    H242256   2.483   0.920   1.720
14105TIP3   OH242257   2.783   0.755   1.619
14105TIP3    H142258   2.704   0.767   1.670
14105TIP3    H242259   2.854   0.788   1.675
14106TIP3   OH242260   2.059   0.753   1.906
14106TIP3    H142261   2.033   0.695   1.835
14106TIP3    H242262   2.074   0.695   1.980
14107TIP3   OH242263   2.560   0.405   1.803
14107TIP3    H142264   2.637   0.352   1.784
14107TIP3    H242265   2.518   0.418   1.718
14108TIP3   OH242266   1.857   1.898   0.057
14108TIP3    H142267   1.947   1.879   0.032
14108TIP3    H242268   1.819   1.939  -0.020
14109TIP3   OH242269   1.322   1.274   0.241
14109TIP3    H142270   1.416   1.287   0.234
14109TIP3    H242271   1.305   1.190   0.199
14110TIP3   OH242272   1.224   1.858   0.698
14110TIP3    H142273   1.159   1.804   0.652
14110TIP3    H242274   1.268   1.798   0.757
14111TIP3   OH242275   1.367   1.690   0.865
14111TIP3    H142276   1.359   1.621   0.931
14111TIP3    H242277   1.417   1.759   0.909
14112TIP3   OH242278   3.039   2.069   0.571
14112TIP3    H142279   3.007   2.017   0.645
14112TIP3    H242280   3.017   2.160   0.594
14113TIP3   OH242281   3.094   2.126   1.009
14113TIP3    H142282   3.071   2.039   1.039
14113TIP3    H242283   3.142   2.165   1.082
14114TIP3   OH242284   2.980   1.350   0.118
14114TIP3    H142285   3.044   1.414   0.088
14114TIP3    H242286   3.022   1.306   0.192
14115TIP3   OH242287   3.092   1.188   0.306
14115TIP3    H142288   3.028   1.145   0.363
14115TIP3    H242289   3.160   1.220   0.366
14116TIP3   OH242290   3.109   1.598   0.684
14116TIP3    H142291   3.168   1.532   0.646
14116TIP3    H242292   3.134   1.679   0.640
14117TIP3   OH242293   3.086   1.841   1.012
14117TIP3    H142294   3.004   1.877   1.047
14117TIP3    H242295   3.075   1.844   0.917
14118TIP3   OH242296   5.871   5.124   6.919
14118TIP3    H142297   5.800   5.120   6.854
14118TIP3    H242298   5.851   5.202   6.970
14119TIP3   OH242299   5.726   4.773   6.856
14119TIP3    H142300   5.678   4.810   6.782
14119TIP3    H242301   5.717   4.678   6.845
14120TIP3   OH242302   2.915   1.052   0.465
14120TIP3    H142303   2.922   0.957   0.454
14120TIP3    H242304   2.893   1.064   0.557
14121TIP3   OH242305   1.544   1.131   1.237
14121TIP3    H142306   1.534   1.098   1.148
14121TIP3    H242307   1.637   1.123   1.256
14122TIP3   OH242308   3.147   1.418   1.347
14122TIP3    H142309   3.192   1.424   1.431
14122TIP3    H242310   3.186   1.487   1.293
14123TIP3   OH242311   3.420   1.279   1.375
14123TIP3    H142312   3.368   1.254   1.451
14123TIP3    H242313   3.504   1.234   1.387
14124TIP3   OH242314   5.686   4.501   6.826
14124TIP3    H142315   5.751   4.475   6.891
14124TIP3    H242316   5.604   4.464   6.857
14125TIP3   OH242317   2.919   0.782   0.357
14125TIP3    H142318   2.965   0.699   0.370
14125TIP3    H242319   2.961   0.820   0.280
14126TIP3   OH242320   3.041   0.900   0.812
14126TIP3    H142321   3.128   0.914   0.774
14126TIP3    H242322   3.046   0.939   0.899
14127TIP3   OH242323   3.040   1.054   1.036
14127TIP3    H142324   2.947   1.060   1.059
14127TIP3    H242325   3.057   1.132   0.984
14128TIP3   OH242326   3.031   0.532   0.409
14128TIP3    H142327   3.074   0.516   0.493
14128TIP3    H242328   2.968   0.460   0.401
14129TIP3   OH242329   1.746   0.514   1.223
14129TIP3    H142330   1.803   0.437   1.224
14129TIP3    H242331   1.805   0.587   1.204
14130TIP3   OH242332   1.528   0.791   1.314
14130TIP3    H142333   1.576   0.787   1.232
14130TIP3    H242334   1.538   0.882   1.343
14131TIP3   OH242335   3.397   0.729   1.463
14131TIP3    H142336   3.365   0.812   1.428
14131TIP3    H242337   3.371   0.663   1.398
14132TIP3   OH242338   3.081   0.448   0.044
14132TIP3    H142339   3.129   0.386  -0.011
14132TIP3    H242340   3.136   0.526   0.046
14133TIP3   OH242341   1.514   0.308   0.804
14133TIP3    H142342   1.427   0.292   0.841
14133TIP3    H242343   1.497   0.357   0.724
14134TIP3   OH242344   2.660   1.908   0.271
14134TIP3    H142345   2.722   1.916   0.199
14134TIP3    H242346   2.647   1.997   0.302
14135TIP3   OH242347   1.720   0.400   1.617
14135TIP3    H142348   1.657   0.386   1.688
14135TIP3    H242349   1.668   0.438   1.546
14136TIP3   OH242350   1.745   1.795   1.764
14136TIP3    H142351   1.652   1.785   1.745
14136TIP3    H242352   1.748   1.832   1.852
14137TIP3   OH242353   1.953   1.820   1.220
14137TIP3    H142354   1.885   1.877   1.185
14137TIP3    H242355   2.029   1.835   1.164
14138TIP3   OH242356   2.364   2.059   1.357
14138TIP3    H142357   2.411   2.104   1.428
14138TIP3    H242358   2.393   2.104   1.278
14139TIP3   OH242359   2.488   2.201   1.159
14139TIP3    H142360   2.506   2.128   1.100
14139TIP3    H242361   2.569   2.252   1.160
14140TIP3   OH242362   3.344   0.537   1.275
14140TIP3    H142363   3.252   0.510   1.283
14140TIP3    H242364   3.393   0.461   1.303
14141TIP3   OH242365   1.601   2.040   1.295
14141TIP3    H142366   1.523   2.090   1.274
14141TIP3    H242367   1.606   2.042   1.391
14142TIP3   OH242368   1.802   2.017   1.112
14142TIP3    H142369   1.726   2.034   1.168
14142TIP3    H242370   1.781   2.061   1.030
14143TIP3   OH242371   2.312   1.957   0.811
14143TIP3    H142372   2.245   1.892   0.794
14143TIP3    H242373   2.271   2.019   0.871
14144TIP3   OH242374   2.539   2.002   0.978
14144TIP3    H142375   2.466   1.969   0.925
14144TIP3    H242376   2.610   2.016   0.916
14145TIP3   OH242377   2.722   2.122   0.803
14145TIP3    H142378   2.716   2.215   0.783
14145TIP3    H242379   2.731   2.079   0.718
14146TIP3   OH242380   1.538   1.868   1.008
14146TIP3    H142381   1.562   1.841   1.097
14146TIP3    H242382   1.610   1.836   0.954
14147TIP3   OH242383   1.737   1.751   0.865
14147TIP3    H142384   1.749   1.668   0.910
14147TIP3    H242385   1.825   1.788   0.860
14148TIP3   OH242386   2.008   1.825   0.856
14148TIP3    H142387   2.022   1.731   0.846
14148TIP3    H242388   2.053   1.848   0.937
14149TIP3   OH242389   2.577   0.491   0.980
14149TIP3    H142390   2.534   0.421   1.030
14149TIP3    H242391   2.643   0.445   0.929
14150TIP3   OH242392   3.079   0.406   0.872
14150TIP3    H142393   3.116   0.454   0.798
14150TIP3    H242394   2.986   0.427   0.871
14151TIP3   OH242395   3.189   0.480   0.633
14151TIP3    H142396   3.261   0.423   0.604
14151TIP3    H242397   3.220   0.568   0.613
14152TIP3   OH242398   1.815   0.193   0.974
14152TIP3    H142399   1.725   0.161   0.981
14152TIP3    H242400   1.868   0.114   0.965
14153TIP3   OH242401   1.641   0.108   0.638
14153TIP3    H142402   1.664   0.154   0.557
14153TIP3    H242403   1.604   0.176   0.695
14154TIP3   OH242404   2.294   0.232   0.872
14154TIP3    H142405   2.342   0.277   0.802
14154TIP3    H242406   2.336   0.261   0.952
14155TIP3   OH242407   2.789   0.369   0.853
14155TIP3    H142408   2.810   0.335   0.765
14155TIP3    H242409   2.795   0.292   0.910
14156TIP3   OH242410   2.846   0.324   0.414
14156TIP3    H142411   2.765   0.369   0.438
14156TIP3    H242412   2.837   0.237   0.453
14157TIP3   OH242413   1.307   1.672   0.396
14157TIP3    H142414   1.224   1.638   0.361
14157TIP3    H242415   1.313   1.761   0.363
14158TIP3   OH242416   1.743   0.229   0.395
14158TIP3    H142417   1.788   0.167   0.337
14158TIP3    H242418   1.813   0.285   0.429
14159TIP3   OH242419   2.228   0.426   0.490
14159TIP3    H142420   2.286   0.372   0.544
14159TIP3    H242421   2.245   0.515   0.519
14160TIP3   OH242422   4.948   5.830   6.932
14160TIP3    H142423   5.029   5.859   6.890
14160TIP3    H242424   4.915   5.760   6.875
14161TIP3   OH242425   2.804   1.950   0.041
14161TIP3    H142426   2.806   1.854   0.035
14161TIP3    H242427   2.751   1.978  -0.034
14162TIP3   OH242428   1.423   1.667   0.042
14162TIP3    H142429   1.426   1.677   0.137
14162TIP3    H242430   1.503   1.618   0.021
14163TIP3   OH242431   4.262   1.543   0.352
14163TIP3    H142432   4.324   1.473   0.374
14163TIP3    H242433   4.229   1.519   0.265
14164TIP3   OH242434   3.572   1.415   0.753
14164TIP3    H142435   3.598   1.342   0.809
14164TIP3    H242436   3.627   1.488   0.780
14165TIP3   OH242437   3.591   1.883   0.533
14165TIP3    H142438   3.540   1.836   0.599
14165TIP3    H242439   3.678   1.892   0.572
14166TIP3   OH242440   3.279   0.970   0.248
14166TIP3    H142441   3.241   1.056   0.267
14166TIP3    H242442   3.206   0.919   0.211
14167TIP3   OH242443   3.311   1.246   0.453
14167TIP3    H142444   3.360   1.168   0.479
14167TIP3    H242445   3.372   1.297   0.401
14168TIP3   OH242446   4.228   1.810   0.375
14168TIP3    H142447   4.239   1.715   0.376
14168TIP3    H242448   4.173   1.829   0.451
14169TIP3   OH242449   4.597   1.159   0.446
14169TIP3    H142450   4.580   1.065   0.443
14169TIP3    H242451   4.535   1.197   0.384
14170TIP3   OH242452   3.874   0.816   0.383
14170TIP3    H142453   3.847   0.893   0.333
14170TIP3    H242454   3.820   0.745   0.348
14171TIP3   OH242455   4.573   0.919   0.040
14171TIP3    H142456   4.645   0.899   0.100
14171TIP3    H242457   4.616   0.948  -0.040
14172TIP3   OH242458   3.466   1.046   0.543
14172TIP3    H142459   3.539   1.063   0.602
14172TIP3    H242460   3.503   0.988   0.476
14173TIP3   OH242461   3.975   1.211   0.259
14173TIP3    H142462   4.062   1.182   0.283
14173TIP3    H242463   3.921   1.132   0.262
14174TIP3   OH242464   3.634   0.885   0.908
14174TIP3    H142465   3.577   0.827   0.856
14174TIP3    H242466   3.618   0.859   0.999
14175TIP3   OH242467   4.009   1.687   0.591
14175TIP3    H142468   3.918   1.659   0.582
14175TIP3    H242469   4.015   1.719   0.681
14176TIP3   OH242470   4.761   0.897   0.237
14176TIP3    H142471   4.700   0.884   0.311
14176TIP3    H242472   4.821   0.965   0.267
14177TIP3   OH242473   3.714   0.888   0.601
14177TIP3    H142474   3.771   0.952   0.643
14177TIP3    H242475   3.762   0.862   0.522
14178TIP3   OH242476   6.001   5.525   6.943
14178TIP3    H142477   5.968   5.541   6.855
14178TIP3    H242478   6.022   5.612   6.977
14179TIP3   OH242479   4.115   0.520   0.501
14179TIP3    H142480   4.186   0.467   0.537
14179TIP3    H242481   4.048   0.521   0.569
14180TIP3   OH242482   6.971   5.303   6.732
14180TIP3    H142483   6.900   5.367   6.732
14180TIP3    H242484   7.047   5.350   6.698
14181TIP3   OH242485   6.922   5.149   6.498
14181TIP3    H142486   6.959   5.191   6.575
14181TIP3    H242487   6.992   5.092   6.466
14182TIP3   OH242488   3.747   1.349   0.181
14182TIP3    H142489   3.696   1.299   0.117
14182TIP3    H242490   3.826   1.296   0.195
14183TIP3   OH242491   3.886   1.801   0.358
14183TIP3    H142492   3.812   1.754   0.320
14183TIP3    H242493   3.937   1.734   0.403
14184TIP3   OH242494   3.788   1.353   0.468
14184TIP3    H142495   3.749   1.296   0.403
14184TIP3    H242496   3.852   1.405   0.420
14185TIP3   OH242497   7.222   5.333   6.604
14185TIP3    H142498   7.259   5.420   6.616
14185TIP3    H242499   7.222   5.320   6.509
14186TIP3   OH242500   3.733   1.595   0.900
14186TIP3    H142501   3.668   1.654   0.936
14186TIP3    H242502   3.742   1.525   0.965
14187TIP3   OH242503   6.990   5.891   6.785
14187TIP3    H142504   6.954   5.895   6.873
14187TIP3    H242505   6.913   5.882   6.728
14188TIP3   OH242506   7.668   4.509   6.656
14188TIP3    H142507   7.590   4.527   6.708
14188TIP3    H242508   7.679   4.587   6.601
14189TIP3   OH242509   6.422   5.221   6.944
14189TIP3    H142510   6.345   5.274   6.921
14189TIP3    H242511   6.388   5.132   6.951
14190TIP3   OH242512   7.484   5.881   6.226
14190TIP3    H142513   7.481   5.976   6.215
14190TIP3    H242514   7.564   5.853   6.181
14191TIP3   OH242515   3.505   1.691   1.009
14191TIP3    H142516   3.430   1.643   0.974
14191TIP3    H242517   3.543   1.631   1.074
14192TIP3   OH242518   3.205   1.848   0.594
14192TIP3    H142519   3.238   1.870   0.681
14192TIP3    H242520   3.144   1.919   0.573
14193TIP3   OH242521   6.782   6.185   6.680
14193TIP3    H142522   6.737   6.163   6.598
14193TIP3    H242523   6.773   6.279   6.688
14194TIP3   OH242524   3.311   2.038   0.106
14194TIP3    H142525   3.294   2.057   0.199
14194TIP3    H242526   3.263   1.957   0.090
14195TIP3   OH242527   6.987   6.093   6.309
14195TIP3    H142528   7.040   6.021   6.273
14195TIP3    H242529   7.025   6.110   6.395
14196TIP3   OH242530   7.034   6.120   6.586
14196TIP3    H142531   6.951   6.146   6.626
14196TIP3    H242532   7.061   6.043   6.635
14197TIP3   OH242533   3.931   0.566   0.696
14197TIP3    H142534   3.836   0.561   0.693
14197TIP3    H242535   3.951   0.658   0.677
14198TIP3   OH242536   4.446   0.766   0.893
14198TIP3    H142537   4.511   0.833   0.916
14198TIP3    H242538   4.376   0.777   0.958
14199TIP3   OH242539   7.238   5.257   6.333
14199TIP3    H142540   7.189   5.260   6.251
14199TIP3    H242541   7.320   5.303   6.314
14200TIP3   OH242542   6.947   4.689   6.646
14200TIP3    H142543   6.907   4.696   6.733
14200TIP3    H242544   6.912   4.607   6.610
14201TIP3   OH242545   3.904   1.086   0.776
14201TIP3    H142546   3.918   1.138   0.855
14201TIP3    H242547   3.948   1.136   0.707
14202TIP3   OH242548   3.762   1.034   0.259
14202TIP3    H142549   3.676   1.008   0.292
14202TIP3    H242550   3.763   1.002   0.168
14203TIP3   OH242551   7.058   5.081   6.856
14203TIP3    H142552   7.013   5.150   6.808
14203TIP3    H242553   7.133   5.059   6.800
14204TIP3   OH242554   4.427   1.062   0.223
14204TIP3    H142555   4.377   1.117   0.163
14204TIP3    H242556   4.471   0.998   0.168
14205TIP3   OH242557   3.698   1.285   0.975
14205TIP3    H142558   3.780   1.334   0.985
14205TIP3    H242559   3.719   1.198   1.008
14206TIP3   OH242560   6.612   4.668   6.631
14206TIP3    H142561   6.600   4.665   6.726
14206TIP3    H242562   6.533   4.711   6.599
14207TIP3   OH242563   3.289   0.710   0.533
14207TIP3    H142564   3.369   0.737   0.578
14207TIP3    H242565   3.319   0.678   0.448
14208TIP3   OH242566   3.233   0.682   0.058
14208TIP3    H142567   3.279   0.717  -0.019
14208TIP3    H242568   3.168   0.749   0.080
14209TIP3   OH242569   4.140   0.887   0.311
14209TIP3    H142570   4.064   0.839   0.343
14209TIP3    H242571   4.215   0.833   0.337
14210TIP3   OH242572   3.536   0.894   0.325
14210TIP3    H142573   3.447   0.907   0.290
14210TIP3    H242574   3.559   0.805   0.299
14211TIP3   OH242575   6.608   4.921   6.957
14211TIP3    H142576   6.702   4.930   6.948
14211TIP3    H242577   6.573   4.941   6.870
14212TIP3   OH242578   4.599   0.876   0.458
14212TIP3    H142579   4.540   0.891   0.532
14212TIP3    H242580   4.570   0.794   0.420
14213TIP3   OH242581   6.499   4.962   6.711
14213TIP3    H142582   6.441   4.908   6.658
14213TIP3    H242583   6.554   5.008   6.648
14214TIP3   OH242584   4.234   1.165   0.397
14214TIP3    H142585   4.293   1.125   0.334
14214TIP3    H242586   4.205   1.093   0.452
14215TIP3   OH242587   3.680   0.647   0.283
14215TIP3    H142588   3.650   0.575   0.339
14215TIP3    H242589   3.702   0.605   0.200
14216TIP3   OH242590   4.194   1.002   0.608
14216TIP3    H142591   4.183   1.073   0.672
14216TIP3    H242592   4.284   0.973   0.620
14217TIP3   OH242593   6.751   5.472   6.742
14217TIP3    H142594   6.671   5.425   6.718
14217TIP3    H242595   6.735   5.505   6.830
14218TIP3   OH242596   7.198   4.793   6.640
14218TIP3    H142597   7.105   4.771   6.636
14218TIP3    H242598   7.201   4.888   6.636
14219TIP3   OH242599   7.263   5.065   6.678
14219TIP3    H142600   7.357   5.052   6.696
14219TIP3    H242601   7.257   5.156   6.649
14220TIP3   OH242602   3.524   1.372   0.349
14220TIP3    H142603   3.595   1.378   0.285
14220TIP3    H242604   3.562   1.408   0.429
14221TIP3   OH242605   6.876   5.632   6.555
14221TIP3    H142606   6.842   5.720   6.574
14221TIP3    H242607   6.834   5.575   6.619
14222TIP3   OH242608   3.354   1.363   1.125
14222TIP3    H142609   3.370   1.326   1.211
14222TIP3    H242610   3.364   1.290   1.064
14223TIP3   OH242611   7.702   5.190   6.554
14223TIP3    H142612   7.650   5.122   6.512
14223TIP3    H242613   7.710   5.258   6.488
14224TIP3   OH242614   7.426   5.909   6.500
14224TIP3    H142615   7.388   5.834   6.545
14224TIP3    H242616   7.421   5.887   6.407
14225TIP3   OH242617   3.783   1.894   0.024
14225TIP3    H142618   3.751   1.976  -0.014
14225TIP3    H242619   3.703   1.845   0.045
14226TIP3   OH242620   6.108   5.112   6.779
14226TIP3    H142621   6.149   5.197   6.798
14226TIP3    H242622   6.028   5.113   6.831
14227TIP3   OH242623   3.881   1.558   0.062
14227TIP3    H142624   3.815   1.620   0.032
14227TIP3    H242625   3.832   1.495   0.115
14228TIP3   OH242626   6.479   6.122   6.854
14228TIP3    H142627   6.404   6.134   6.913
14228TIP3    H242628   6.497   6.209   6.820
14229TIP3   OH242629   7.166   5.684   6.393
14229TIP3    H142630   7.213   5.670   6.475
14229TIP3    H242631   7.076   5.659   6.413
14230TIP3   OH242632   7.482   6.153   6.192
14230TIP3    H142633   7.508   6.150   6.100
14230TIP3    H242634   7.400   6.202   6.193
14231TIP3   OH242635   3.646   0.844   1.188
14231TIP3    H142636   3.601   0.927   1.174
14231TIP3    H242637   3.650   0.835   1.283
14232TIP3   OH242638   3.561   2.063   0.788
14232TIP3    H142639   3.554   1.970   0.765
14232TIP3    H242640   3.556   2.064   0.883
14233TIP3   OH242641   6.529   5.655   6.383
14233TIP3    H142642   6.541   5.564   6.354
14233TIP3    H242643   6.514   5.648   6.477
14234TIP3   OH242644   6.465   5.674   6.652
14234TIP3    H142645   6.481   5.649   6.743
14234TIP3    H242646   6.473   5.769   6.652
14235TIP3   OH242647   6.205   5.362   6.852
14235TIP3    H142648   6.138   5.407   6.905
14235TIP3    H242649   6.225   5.424   6.782
14236TIP3   OH242650   7.245   4.720   6.900
14236TIP3    H142651   7.226   4.740   6.808
14236TIP3    H242652   7.292   4.797   6.932
14237TIP3   OH242653   6.767   5.880   6.615
14237TIP3    H142654   6.674   5.886   6.639
14237TIP3    H242655   6.778   5.946   6.546
14238TIP3   OH242656   4.048   0.927   0.058
14238TIP3    H142657   4.112   0.978   0.008
14238TIP3    H242658   4.087   0.921   0.146
14239TIP3   OH242659   4.235   0.610   0.139
14239TIP3    H142660   4.266   0.646   0.222
14239TIP3    H242661   4.296   0.645   0.074
14240TIP3   OH242662   6.495   5.946   6.644
14240TIP3    H142663   6.470   6.003   6.572
14240TIP3    H242664   6.487   6.001   6.722
14241TIP3   OH242665   6.577   4.646   6.912
14241TIP3    H142666   6.567   4.738   6.939
14241TIP3    H242667   6.671   4.630   6.915
14242TIP3   OH242668   4.714   1.294   0.183
14242TIP3    H142669   4.620   1.273   0.190
14242TIP3    H242670   4.727   1.365   0.246
14243TIP3   OH242671   6.222   5.544   6.637
14243TIP3    H142672   6.293   5.608   6.643
14243TIP3    H242673   6.253   5.479   6.575
14244TIP3   OH242674   6.134   4.835   6.777
14244TIP3    H142675   6.146   4.930   6.785
14244TIP3    H242676   6.074   4.825   6.703
14245TIP3   OH242677   3.661   0.527   0.695
14245TIP3    H142678   3.642   0.492   0.608
14245TIP3    H242679   3.663   0.450   0.752
14246TIP3   OH242680   3.192   1.788   0.067
14246TIP3    H142681   3.125   1.802   0.134
14246TIP3    H242682   3.155   1.828  -0.012
14247TIP3   OH242683   6.682   5.856   6.275
14247TIP3    H142684   6.635   5.782   6.315
14247TIP3    H242685   6.755   5.816   6.229
14248TIP3   OH242686   7.125   5.884   6.204
14248TIP3    H142687   7.158   5.816   6.262
14248TIP3    H242688   7.177   5.875   6.124
14249TIP3   OH242689   6.350   5.353   6.491
14249TIP3    H142690   6.404   5.334   6.568
14249TIP3    H242691   6.414   5.366   6.421
14250TIP3   OH242692   6.877   5.571   6.291
14250TIP3    H142693   6.868   5.585   6.385
14250TIP3    H242694   6.877   5.475   6.281
14251TIP3   OH242695   6.533   5.303   6.699
14251TIP3    H142696   6.503   5.265   6.782
14251TIP3    H242697   6.576   5.230   6.654
14252TIP3   OH242698   3.935   1.403   1.024
14252TIP3    H142699   3.944   1.492   1.058
14252TIP3    H242700   3.960   1.410   0.932
14253TIP3   OH242701   6.654   5.111   6.542
14253TIP3    H142702   6.624   5.113   6.451
14253TIP3    H242703   6.749   5.119   6.536
14254TIP3   OH242704   7.453   5.393   6.229
14254TIP3    H142705   7.440   5.355   6.142
14254TIP3    H242706   7.425   5.484   6.220
14255TIP3   OH242707   2.008   0.236   3.192
14255TIP3    H142708   2.057   0.182   3.131
14255TIP3    H242709   1.988   0.316   3.143
14256TIP3   OH242710   4.160   0.913   0.912
14256TIP3    H142711   4.195   0.995   0.876
14256TIP3    H242712   4.073   0.906   0.873
14257TIP3   OH242713   4.176   0.644   0.986
14257TIP3    H142714   4.160   0.732   0.953
14257TIP3    H242715   4.092   0.599   0.974
14258TIP3   OH242716   3.895   1.053   1.396
14258TIP3    H142717   3.933   0.969   1.422
14258TIP3    H242718   3.945   1.118   1.444
14259TIP3   OH242719   4.433   0.634   1.329
14259TIP3    H142720   4.482   0.616   1.248
14259TIP3    H242721   4.341   0.621   1.305
14260TIP3   OH242722   6.473   6.153   6.461
14260TIP3    H142723   6.565   6.139   6.440
14260TIP3    H242724   6.440   6.207   6.389
14261TIP3   OH242725   5.950   5.538   6.660
14261TIP3    H142726   6.045   5.550   6.654
14261TIP3    H242727   5.934   5.453   6.621
14262TIP3   OH242728   3.010   2.095   0.135
14262TIP3    H142729   2.943   2.063   0.076
14262TIP3    H242730   3.031   2.020   0.191
14263TIP3   OH242731   3.056   1.879   0.293
14263TIP3    H142732   3.037   1.797   0.339
14263TIP3    H242733   3.126   1.919   0.344
14264TIP3   OH242734   7.619   5.575   6.569
14264TIP3    H142735   7.652   5.659   6.538
14264TIP3    H242736   7.530   5.593   6.599
14265TIP3   OH242737   7.778   5.478   6.769
14265TIP3    H142738   7.728   5.505   6.846
14265TIP3    H242739   7.758   5.544   6.703
14266TIP3   OH242740   7.675   5.389   6.382
14266TIP3    H142741   7.600   5.387   6.323
14266TIP3    H242742   7.657   5.464   6.440
14267TIP3   OH242743   7.543   5.033   6.399
14267TIP3    H142744   7.510   5.082   6.324
14267TIP3    H242745   7.527   4.941   6.376
14268TIP3   OH242746   7.637   5.239   6.869
14268TIP3    H142747   7.586   5.158   6.861
14268TIP3    H242748   7.612   5.274   6.954
14269TIP3   OH242749   3.303   1.392   0.680
14269TIP3    H142750   3.297   1.345   0.597
14269TIP3    H242751   3.397   1.397   0.699
14270TIP3   OH242752   7.481   4.775   6.332
14270TIP3    H142753   7.547   4.732   6.387
14270TIP3    H242754   7.401   4.725   6.348
14271TIP3   OH242755   7.538   5.007   6.747
14271TIP3    H142756   7.585   4.928   6.772
14271TIP3    H242757   7.562   5.022   6.655
14272TIP3   OH242758   3.624   1.102   1.409
14272TIP3    H142759   3.719   1.094   1.397
14272TIP3    H242760   3.603   1.036   1.475
14273TIP3   OH242761   7.663   4.785   6.840
14273TIP3    H142762   7.717   4.776   6.918
14273TIP3    H242763   7.605   4.709   6.843
14274TIP3   OH242764   3.505   0.749   0.704
14274TIP3    H142765   3.548   0.664   0.708
14274TIP3    H242766   3.568   0.806   0.660
14275TIP3   OH242767   3.274   1.018   0.734
14275TIP3    H142768   3.341   1.010   0.665
14275TIP3    H242769   3.219   1.091   0.705
14276TIP3   OH242770   7.714   4.714   6.479
14276TIP3    H142771   7.758   4.652   6.421
14276TIP3    H242772   7.771   4.791   6.478
14277TIP3   OH242773   3.298   0.559   0.291
14277TIP3    H142774   3.211   0.536   0.323
14277TIP3    H242775   3.282   0.607   0.210
14278TIP3   OH242776   3.477   0.593   1.041
14278TIP3    H142777   3.436   0.581   1.126
14278TIP3    H242778   3.407   0.629   0.986
14279TIP3   OH242779   3.450   2.169   0.554
14279TIP3    H142780   3.457   2.150   0.647
14279TIP3    H242781   3.382   2.111   0.522
14280TIP3   OH242782   3.486   1.890   0.286
14280TIP3    H142783   3.521   1.887   0.376
14280TIP3    H242784   3.490   1.982   0.262
14281TIP3   OH242785   3.806   2.060   0.303
14281TIP3    H142786   3.845   1.974   0.317
14281TIP3    H242787   3.857   2.118   0.360
14282TIP3   OH242788   4.343   0.708   0.377
14282TIP3    H142789   4.326   0.698   0.471
14282TIP3    H242790   4.426   0.662   0.363
14283TIP3   OH242791   4.912   0.653   0.313
14283TIP3    H142792   4.951   0.710   0.246
14283TIP3    H242793   4.824   0.688   0.325
14284TIP3   OH242794   5.033   0.769   0.090
14284TIP3    H142795   5.084   0.691   0.068
14284TIP3    H242796   5.083   0.842   0.053
14285TIP3   OH242797   3.605   0.433   0.443
14285TIP3    H142798   3.516   0.400   0.455
14285TIP3    H242799   3.659   0.354   0.438
14286TIP3   OH242800   3.431   0.362   0.124
14286TIP3    H142801   3.455   0.407   0.042
14286TIP3    H242802   3.396   0.431   0.180
14287TIP3   OH242803   4.011   0.493   0.256
14287TIP3    H142804   4.079   0.528   0.199
14287TIP3    H242805   4.042   0.510   0.345
14288TIP3   OH242806   4.605   0.624   0.315
14288TIP3    H142807   4.634   0.589   0.231
14288TIP3    H242808   4.603   0.548   0.374
14289TIP3   OH242809   7.478   4.580   6.845
14289TIP3    H142810   7.392   4.620   6.858
14289TIP3    H242811   7.469   4.492   6.882
14290TIP3   OH242812   5.940   5.927   6.788
14290TIP3    H142813   5.853   5.894   6.765
14290TIP3    H242814   5.940   6.017   6.755
14291TIP3   OH242815   6.366   4.489   6.819
14291TIP3    H142816   6.411   4.425   6.764
14291TIP3    H242817   6.436   4.542   6.856
14292TIP3   OH242818   6.851   4.680   6.905
14292TIP3    H142819   6.914   4.628   6.954
14292TIP3    H242820   6.862   4.769   6.940
14293TIP3   OH242821   6.735   6.082   6.415
14293TIP3    H142822   6.819   6.107   6.376
14293TIP3    H242823   6.705   6.008   6.363
14294TIP3   OH242824   7.478   6.189   6.496
14294TIP3    H142825   7.454   6.099   6.516
14294TIP3    H242826   7.484   6.192   6.401
14295TIP3   OH242827   3.924   0.781   1.465
14295TIP3    H142828   3.831   0.794   1.480
14295TIP3    H242829   3.930   0.757   1.372
14296TIP3   OH242830   4.222   0.845   1.398
14296TIP3    H142831   4.183   0.760   1.379
14296TIP3    H242832   4.190   0.867   1.486
14297TIP3   OH242833   6.051   5.927   6.462
14297TIP3    H142834   6.046   5.935   6.558
14297TIP3    H242835   6.132   5.879   6.446
14298TIP3   OH242836   7.714   5.788   6.415
14298TIP3    H142837   7.711   5.784   6.320
14298TIP3    H242838   7.649   5.854   6.438
14299TIP3   OH242839   0.238   4.915   6.167
14299TIP3    H142840   0.223   4.922   6.262
14299TIP3    H242841   0.184   4.840   6.141
14300TIP3   OH242842   8.400   4.935   6.113
14300TIP3    H142843   8.394   4.927   6.209
14300TIP3    H242844   8.318   4.978   6.089
14301TIP3   OH242845   7.873   4.947   6.492
14301TIP3    H142846   7.923   4.962   6.412
14301TIP3    H242847   7.830   5.031   6.509
14302TIP3   OH242848   8.438   5.154   6.423
14302TIP3    H142849   8.512   5.215   6.418
14302TIP3    H242850   8.377   5.184   6.357
14303TIP3   OH242851   8.284   5.225   6.207
14303TIP3    H142852   8.221   5.171   6.158
14303TIP3    H242853   8.345   5.256   6.141
14304TIP3   OH242854   8.383   4.910   6.729
14304TIP3    H142855   8.332   4.851   6.785
14304TIP3    H242856   8.343   4.900   6.642
14305TIP3   OH242857   7.910   5.362   6.248
14305TIP3    H142858   7.949   5.448   6.266
14305TIP3    H242859   7.824   5.365   6.290
14306TIP3   OH242860   8.402   5.888   5.738
14306TIP3    H142861   8.370   5.798   5.745
14306TIP3    H242862   8.415   5.916   5.829
14307TIP3   OH242863   7.948   5.626   6.324
14307TIP3    H142864   7.886   5.673   6.380
14307TIP3    H242865   7.978   5.692   6.261
14308TIP3   OH242866   8.388   4.888   6.389
14308TIP3    H142867   8.399   4.980   6.414
14308TIP3    H242868   8.474   4.849   6.400
14309TIP3   OH242869   7.998   5.821   6.127
14309TIP3    H142870   8.049   5.902   6.129
14309TIP3    H242871   8.044   5.765   6.065
14310TIP3   OH242872   7.937   5.085   6.263
14310TIP3    H142873   7.947   5.180   6.261
14310TIP3    H242874   7.904   5.064   6.175
14311TIP3   OH242875   8.148   5.656   5.972
14311TIP3    H142876   8.193   5.611   6.044
14311TIP3    H242877   8.210   5.652   5.899
14312TIP3   OH242878   8.297   5.523   6.159
14312TIP3    H142879   8.263   5.467   6.229
14312TIP3    H242880   8.365   5.470   6.117
14313TIP3   OH242881   8.457   5.339   6.025
14313TIP3    H142882   8.414   5.344   5.940
14313TIP3    H242883   8.544   5.303   6.006
14314TIP3   OH242884   7.725   5.781   6.136
14314TIP3    H142885   7.819   5.801   6.129
14314TIP3    H242886   7.716   5.696   6.093
14315TIP3   OH242887   7.922   4.801   6.718
14315TIP3    H142888   7.833   4.783   6.745
14315TIP3    H242889   7.913   4.859   6.642
14316TIP3   OH242890   8.238   4.717   6.867
14316TIP3    H142891   8.150   4.682   6.880
14316TIP3    H242892   8.296   4.641   6.877
14317TIP3   OH242893   8.054   4.618   6.544
14317TIP3    H142894   8.084   4.670   6.469
14317TIP3    H242895   8.023   4.684   6.607
14318TIP3   OH242896   8.159   4.752   6.310
14318TIP3    H142897   8.199   4.684   6.255
14318TIP3    H242898   8.233   4.801   6.345
14319TIP3   OH242899   0.169   4.906   6.444
14319TIP3    H142900   0.210   4.828   6.482
14319TIP3    H242901   0.142   4.959   6.519
14320TIP3   OH242902   7.796   6.151   5.993
14320TIP3    H142903   7.847   6.163   6.073
14320TIP3    H242904   7.861   6.128   5.926
14321TIP3   OH242905   7.789   2.140   1.611
14321TIP3    H142906   7.853   2.143   1.682
14321TIP3    H242907   7.824   2.200   1.545
14322TIP3   OH242908   7.365   1.915   1.212
14322TIP3    H142909   7.361   1.901   1.307
14322TIP3    H242910   7.386   2.007   1.201
14323TIP3   OH242911   7.657   1.941   1.479
14323TIP3    H142912   7.706   2.000   1.536
14323TIP3    H242913   7.714   1.928   1.404
14324TIP3   OH242914   6.724   2.300   0.889
14324TIP3    H142915   6.764   2.228   0.939
14324TIP3    H242916   6.787   2.372   0.896
14325TIP3   OH242917   6.899   2.106   0.738
14325TIP3    H142918   6.946   2.136   0.816
14325TIP3    H242919   6.822   2.060   0.772
14326TIP3   OH242920   7.364   2.363   1.034
14326TIP3    H142921   7.363   2.435   0.970
14326TIP3    H242922   7.444   2.315   1.013
14327TIP3   OH242923   7.132   2.329   0.835
14327TIP3    H142924   7.178   2.298   0.913
14327TIP3    H242925   7.200   2.372   0.782
14328TIP3   OH242926   7.593   1.569   0.883
14328TIP3    H142927   7.499   1.576   0.897
14328TIP3    H242928   7.615   1.645   0.829
14329TIP3   OH242929   7.474   2.892   0.308
14329TIP3    H142930   7.493   2.986   0.309
14329TIP3    H242931   7.546   2.851   0.355
14330TIP3   OH242932   7.248   2.234   0.528
14330TIP3    H142933   7.248   2.209   0.436
14330TIP3    H242934   7.225   2.327   0.528
14331TIP3   OH242935   6.912   1.676   0.807
14331TIP3    H142936   6.942   1.642   0.891
14331TIP3    H242937   6.856   1.606   0.772
14332TIP3   OH242938   7.115   2.196   1.197
14332TIP3    H142939   7.055   2.270   1.184
14332TIP3    H242940   7.134   2.166   1.108
14333TIP3   OH242941   7.187   1.777   0.820
14333TIP3    H142942   7.094   1.773   0.843
14333TIP3    H242943   7.205   1.870   0.808
14334TIP3   OH242944   7.217   2.072   0.971
14334TIP3    H142945   7.305   2.034   0.976
14334TIP3    H242946   7.198   2.077   0.878
14335TIP3   OH242947   7.662   2.110   0.743
14335TIP3    H142948   7.672   2.099   0.649
14335TIP3    H242949   7.657   2.205   0.756
14336TIP3   OH242950   7.114   2.727   0.640
14336TIP3    H142951   7.114   2.733   0.735
14336TIP3    H242952   7.023   2.741   0.615
14337TIP3   OH242953   7.448   3.361   0.401
14337TIP3    H142954   7.447   3.413   0.320
14337TIP3    H242955   7.413   3.419   0.468
14338TIP3   OH242956   7.142   2.628   0.906
14338TIP3    H142957   7.180   2.711   0.933
14338TIP3    H242958   7.212   2.583   0.859
14339TIP3   OH242959   7.181   1.721   1.157
14339TIP3    H142960   7.235   1.675   1.092
14339TIP3    H242961   7.233   1.796   1.183
14340TIP3   OH242962   6.775   2.019   1.303
14340TIP3    H142963   6.709   2.005   1.235
14340TIP3    H242964   6.728   2.070   1.371
14341TIP3   OH242965   7.000   1.657   1.377
14341TIP3    H142966   6.993   1.719   1.449
14341TIP3    H242967   7.074   1.687   1.325
14342TIP3   OH242968   7.005   2.942   0.476
14342TIP3    H142969   7.045   2.950   0.562
14342TIP3    H242970   7.079   2.943   0.415
14343TIP3   OH242971   6.850   2.694   0.560
14343TIP3    H142972   6.795   2.660   0.631
14343TIP3    H242973   6.870   2.617   0.507
14344TIP3   OH242974   6.494   2.161   0.830
14344TIP3    H142975   6.500   2.137   0.738
14344TIP3    H242976   6.572   2.213   0.847
14345TIP3   OH242977   7.467   2.399   0.330
14345TIP3    H142978   7.434   2.314   0.300
14345TIP3    H242979   7.394   2.460   0.312
14346TIP3   OH242980   7.558   2.691   0.837
14346TIP3    H142981   7.609   2.737   0.770
14346TIP3    H242982   7.614   2.693   0.915
14347TIP3   OH242983   7.685   2.484   1.021
14347TIP3    H142984   7.638   2.449   1.096
14347TIP3    H242985   7.768   2.515   1.057
14348TIP3   OH242986   7.693   2.386   0.764
14348TIP3    H142987   7.641   2.437   0.702
14348TIP3    H242988   7.677   2.428   0.849
14349TIP3   OH242989   7.650   2.350   1.274
14349TIP3    H142990   7.614   2.276   1.224
14349TIP3    H242991   7.590   2.360   1.348
14350TIP3   OH242992   7.476   1.985   0.908
14350TIP3    H142993   7.513   1.912   0.957
14350TIP3    H242994   7.536   1.999   0.835
14351TIP3   OH242995   7.650   1.816   1.043
14351TIP3    H142996   7.691   1.833   1.128
14351TIP3    H242997   7.626   1.724   1.046
14352TIP3   OH242998   7.680   1.767   0.712
14352TIP3    H142999   7.692   1.701   0.644
14352TIP3    H243000   7.756   1.825   0.704
14353TIP3   OH243001   7.644   1.656   1.448
14353TIP3    H143002   7.667   1.746   1.472
14353TIP3    H243003   7.584   1.627   1.516
14354TIP3   OH243004   7.818   1.864   1.261
14354TIP3    H143005   7.853   1.776   1.247
14354TIP3    H243006   7.885   1.923   1.226
14355TIP3   OH243007   7.437   1.561   1.607
14355TIP3    H143008   7.367   1.559   1.542
14355TIP3    H243009   7.406   1.502   1.676
14356TIP3   OH243010   7.346   1.565   1.007
14356TIP3    H143011   7.401   1.570   1.086
14356TIP3    H243012   7.331   1.472   0.995
14357TIP3   OH243013   6.766   1.746   1.267
14357TIP3    H143014   6.846   1.704   1.297
14357TIP3    H243015   6.769   1.834   1.304
14358TIP3   OH243016   0.355   2.788   0.682
14358TIP3    H143017   0.324   2.874   0.653
14358TIP3    H243018   0.284   2.728   0.657
14359TIP3   OH243019   0.350   2.761   1.076
14359TIP3    H143020   0.388   2.741   1.162
14359TIP3    H243021   0.303   2.682   1.052
14360TIP3   OH243022   0.626   3.070   0.758
14360TIP3    H143023   0.600   3.010   0.829
14360TIP3    H243024   0.649   3.151   0.802
14361TIP3   OH243025   7.856   2.253   0.985
14361TIP3    H143026   7.875   2.335   1.031
14361TIP3    H243027   7.832   2.281   0.897
14362TIP3   OH243028   7.943   2.505   1.109
14362TIP3    H143029   8.006   2.451   1.157
14362TIP3    H243030   7.977   2.594   1.115
14363TIP3   OH243031   0.283   3.509   0.779
14363TIP3    H143032   0.314   3.452   0.708
14363TIP3    H243033   0.303   3.460   0.859
14364TIP3   OH243034   0.184   2.986   1.118
14364TIP3    H143035   0.219   2.905   1.082
14364TIP3    H243036   0.261   3.035   1.146
14365TIP3   OH243037   1.181   2.324   1.115
14365TIP3    H143038   1.199   2.408   1.157
14365TIP3    H243039   1.212   2.335   1.026
14366TIP3   OH243040   0.550   2.481   1.149
14366TIP3    H143041   0.600   2.402   1.171
14366TIP3    H243042   0.532   2.473   1.055
14367TIP3   OH243043   8.398   2.144   1.157
14367TIP3    H143044   8.364   2.231   1.177
14367TIP3    H243045   8.447   2.155   1.076
14368TIP3   OH243046   0.616   2.252   0.732
14368TIP3    H143047   0.681   2.243   0.801
14368TIP3    H243048   0.665   2.284   0.656
14369TIP3   OH243049  -0.001   2.561   0.989
14369TIP3    H143050   0.086   2.540   1.024
14369TIP3    H243051  -0.043   2.475   0.979
14370TIP3   OH243052   1.243   2.535   1.292
14370TIP3    H143053   1.155   2.573   1.292
14370TIP3    H243054   1.288   2.578   1.365
14371TIP3   OH243055   8.388   2.205   1.482
14371TIP3    H143056   8.336   2.246   1.414
14371TIP3    H243057   8.345   2.231   1.564
14372TIP3   OH243058   0.248   2.999   0.540
14372TIP3    H143059   0.211   2.976   0.455
14372TIP3    H243060   0.201   3.079   0.565
14373TIP3   OH243061   0.781   2.268   0.945
14373TIP3    H143062   0.743   2.245   1.030
14373TIP3    H243063   0.838   2.342   0.965
14374TIP3   OH243064   7.697   2.874   0.667
14374TIP3    H143065   7.684   2.845   0.577
14374TIP3    H243066   7.792   2.875   0.679
14375TIP3   OH243067   0.665   3.312   0.893
14375TIP3    H143068   0.585   3.305   0.944
14375TIP3    H243069   0.659   3.397   0.849
14376TIP3   OH243070   0.978   2.221   1.279
14376TIP3    H143071   0.894   2.239   1.237
14376TIP3    H243072   1.044   2.247   1.214
14377TIP3   OH243073   0.249   1.851   1.277
14377TIP3    H143074   0.240   1.759   1.302
14377TIP3    H243075   0.176   1.895   1.319
14378TIP3   OH243076   0.376   3.369   0.558
14378TIP3    H143077   0.428   3.289   0.548
14378TIP3    H243078   0.438   3.440   0.538
14379TIP3   OH243079   0.519   3.142   0.514
14379TIP3    H143080   0.468   3.065   0.487
14379TIP3    H243081   0.565   3.114   0.593
14380TIP3   OH243082   0.801   3.241   1.208
14380TIP3    H143083   0.818   3.163   1.157
14380TIP3    H243084   0.835   3.313   1.155
14381TIP3   OH243085   0.185   2.623   0.530
14381TIP3    H143086   0.104   2.668   0.506
14381TIP3    H243087   0.236   2.621   0.448
14382TIP3   OH243088   0.150   2.436   0.219
14382TIP3    H143089   0.216   2.485   0.269
14382TIP3    H243090   0.201   2.369   0.173
14383TIP3   OH243091   1.034   2.829   1.061
14383TIP3    H143092   0.951   2.876   1.062
14383TIP3    H243093   1.081   2.866   0.986
14384TIP3   OH243094   0.537   2.719   0.490
14384TIP3    H143095   0.483   2.746   0.565
14384TIP3    H243096   0.619   2.690   0.530
14385TIP3   OH243097   0.739   2.710   1.368
14385TIP3    H143098   0.741   2.778   1.435
14385TIP3    H243099   0.651   2.714   1.331
14386TIP3   OH243100   8.279   2.695   0.901
14386TIP3    H143101   8.244   2.634   0.836
14386TIP3    H243102   8.360   2.654   0.931
14387TIP3   OH243103   8.425   3.054   1.017
14387TIP3    H143104   8.385   2.978   1.059
14387TIP3    H243105   8.517   3.050   1.042
14388TIP3   OH243106   0.433   3.308   1.038
14388TIP3    H143107   0.421   3.369   1.111
14388TIP3    H243108   0.427   3.221   1.078
14389TIP3   OH243109   0.371   2.579   0.322
14389TIP3    H143110   0.431   2.636   0.370
14389TIP3    H243111   0.398   2.585   0.231
14390TIP3   OH243112   0.125   3.249   0.568
14390TIP3    H143113   0.209   3.295   0.576
14390TIP3    H243114   0.068   3.311   0.524
14391TIP3   OH243115   0.882   1.806   0.381
14391TIP3    H143116   0.805   1.827   0.433
14391TIP3    H243117   0.893   1.882   0.323
14392TIP3   OH243118   8.166   2.527   0.697
14392TIP3    H143119   8.086   2.567   0.664
14392TIP3    H243120   8.146   2.433   0.702
14393TIP3   OH243121   3.536   7.182   6.877
14393TIP3    H143122   3.530   7.275   6.852
14393TIP3    H243123   3.626   7.157   6.853
14394TIP3   OH243124   8.503   3.461   0.397
14394TIP3    H143125   8.471   3.442   0.309
14394TIP3    H243126   8.467   3.547   0.417
14395TIP3   OH243127   0.210   3.401   0.036
14395TIP3    H143128   0.260   3.328  -0.000
14395TIP3    H243129   0.247   3.414   0.124
14396TIP3   OH243130   0.263   3.441   0.307
14396TIP3    H143131   0.176   3.443   0.346
14396TIP3    H243132   0.319   3.404   0.376
14397TIP3   OH243133   0.882   2.673   1.677
14397TIP3    H143134   0.858   2.761   1.648
14397TIP3    H243135   0.977   2.668   1.663
14398TIP3   OH243136   8.505   1.957   1.391
14398TIP3    H143137   8.437   1.930   1.329
14398TIP3    H243138   8.481   2.047   1.414
14399TIP3   OH243139   0.568   2.062   1.595
14399TIP3    H143140   0.634   2.029   1.656
14399TIP3    H243141   0.484   2.045   1.639
14400TIP3   OH243142   0.785   2.474   1.512
14400TIP3    H143143   0.797   2.527   1.591
14400TIP3    H243144   0.768   2.538   1.443
14401TIP3   OH243145   0.447   2.571   0.061
14401TIP3    H143146   0.404   2.569  -0.024
14401TIP3    H243147   0.531   2.614   0.044
14402TIP3   OH243148   0.152   1.985   0.378
14402TIP3    H143149   0.117   1.990   0.466
14402TIP3    H243150   0.120   1.901   0.344
14403TIP3   OH243151   8.347   2.336   0.953
14403TIP3    H143152   8.264   2.350   0.999
14403TIP3    H243153   8.322   2.299   0.869
14404TIP3   OH243154   0.304   2.417   0.669
14404TIP3    H143155   0.257   2.491   0.629
14404TIP3    H243156   0.363   2.386   0.601
14405TIP3   OH243157   0.482   2.441   0.887
14405TIP3    H143158   0.408   2.461   0.830
14405TIP3    H243159   0.526   2.367   0.845
14406TIP3   OH243160   8.320   1.958   0.352
14406TIP3    H143161   8.313   1.963   0.447
14406TIP3    H243162   8.240   1.999   0.319
14407TIP3   OH243163   7.888   1.965   0.719
14407TIP3    H143164   7.914   2.001   0.634
14407TIP3    H243165   7.817   2.022   0.748
14408TIP3   OH243166   0.461   2.673   1.318
14408TIP3    H143167   0.493   2.605   1.259
14408TIP3    H243168   0.455   2.629   1.403
14409TIP3   OH243169   0.193   2.167   1.003
14409TIP3    H143170   0.161   2.233   1.065
14409TIP3    H243171   0.269   2.129   1.045
14410TIP3   OH243172   8.044   2.068   1.092
14410TIP3    H143173   7.997   2.151   1.093
14410TIP3    H243174   8.019   2.027   1.010
14411TIP3   OH243175   8.325   2.224   0.698
14411TIP3    H143176   8.419   2.238   0.696
14411TIP3    H243177   8.295   2.241   0.609
14412TIP3   OH243178   0.656   2.222   1.186
14412TIP3    H143179   0.635   2.238   1.278
14412TIP3    H243180   0.595   2.154   1.159
14413TIP3   OH243181   8.222   2.249   0.444
14413TIP3    H143182   8.162   2.199   0.388
14413TIP3    H243183   8.279   2.294   0.382
14414TIP3   OH243184   0.245   2.485   1.096
14414TIP3    H143185   0.328   2.448   1.064
14414TIP3    H243186   0.244   2.465   1.189
14415TIP3   OH243187   8.275   1.941   0.986
14415TIP3    H143188   8.238   1.855   1.005
14415TIP3    H243189   8.319   1.930   0.902
14416TIP3   OH243190   0.222   2.444   1.377
14416TIP3    H143191   0.174   2.527   1.380
14416TIP3    H243192   0.298   2.459   1.432
14417TIP3   OH243193   8.452   2.759   0.458
14417TIP3    H143194   8.377   2.706   0.433
14417TIP3    H243195   8.429   2.796   0.543
14418TIP3   OH243196   0.823   3.005   1.060
14418TIP3    H143197   0.860   3.055   0.987
14418TIP3    H243198   0.740   2.971   1.027
14419TIP3   OH243199   0.408   2.083   0.381
14419TIP3    H143200   0.314   2.064   0.376
14419TIP3    H243201   0.412   2.178   0.392
14420TIP3   OH243202   0.469   2.347   0.450
14420TIP3    H143203   0.564   2.350   0.459
14420TIP3    H243204   0.447   2.425   0.398
14421TIP3   OH243205   8.124   2.712   1.134
14421TIP3    H143206   8.175   2.720   1.053
14421TIP3    H243207   8.178   2.657   1.191
14422TIP3   OH243208   0.104   2.928   0.307
14422TIP3    H143209   0.054   3.009   0.307
14422TIP3    H243210   0.052   2.867   0.358
14423TIP3   OH243211   0.883   2.437   0.268
14423TIP3    H143212   0.825   2.393   0.206
14423TIP3    H243213   0.890   2.527   0.234
14424TIP3   OH243214   1.216   3.347   1.276
14424TIP3    H143215   1.157   3.302   1.337
14424TIP3    H243216   1.211   3.295   1.196
14425TIP3   OH243217   0.620   3.248   0.199
14425TIP3    H143218   0.600   3.180   0.263
14425TIP3    H243219   0.642   3.201   0.119
14426TIP3   OH243220   0.586   2.880   0.975
14426TIP3    H143221   0.497   2.849   0.988
14426TIP3    H243222   0.633   2.805   0.940
14427TIP3   OH243223   8.262   3.101   0.782
14427TIP3    H143224   8.336   3.117   0.841
14427TIP3    H243225   8.187   3.088   0.841
14428TIP3   OH243226   7.818   2.402   0.469
14428TIP3    H143227   7.877   2.475   0.486
14428TIP3    H243228   7.745   2.415   0.529
14429TIP3   OH243229   8.354   2.860   0.687
14429TIP3    H143230   8.330   2.949   0.712
14429TIP3    H243231   8.339   2.808   0.766
14430TIP3   OH243232   0.450   3.067   1.176
14430TIP3    H143233   0.503   3.079   1.255
14430TIP3    H243234   0.499   3.003   1.124
14431TIP3   OH243235   0.383   2.989   0.098
14431TIP3    H143236   0.437   2.968   0.174
14431TIP3    H243237   0.297   2.951   0.118
14432TIP3   OH243238   3.533   7.452   6.820
14432TIP3    H143239   3.554   7.514   6.750
14432TIP3    H243240   3.463   7.495   6.869
14433TIP3   OH243241   0.554   2.917   0.298
14433TIP3    H143242   0.542   2.851   0.367
14433TIP3    H243243   0.649   2.920   0.285
14434TIP3   OH243244   8.247   2.950   0.110
14434TIP3    H143245   8.258   2.859   0.085
14434TIP3    H243246   8.241   2.948   0.206
14435TIP3   OH243247   8.202   2.979   0.386
14435TIP3    H143248   8.269   2.956   0.450
14435TIP3    H243249   8.197   3.075   0.389
14436TIP3   OH243250   7.938   2.631   0.582
14436TIP3    H143251   7.904   2.664   0.666
14436TIP3    H243252   7.951   2.710   0.529
14437TIP3   OH243253   0.593   2.286   1.442
14437TIP3    H143254   0.666   2.335   1.480
14437TIP3    H243255   0.583   2.210   1.499
14438TIP3   OH243256   0.468   2.032   0.648
14438TIP3    H143257   0.448   2.049   0.556
14438TIP3    H243258   0.512   2.112   0.678
14439TIP3   OH243259   8.452   3.152   0.305
14439TIP3    H143260   8.372   3.183   0.348
14439TIP3    H243261   8.478   3.224   0.248
14440TIP3   OH243262   0.109   2.234   0.744
14440TIP3    H143263   0.172   2.300   0.714
14440TIP3    H243264   0.131   2.219   0.836
14441TIP3   OH243265   0.444   2.497   1.531
14441TIP3    H143266   0.476   2.499   1.621
14441TIP3    H243267   0.487   2.422   1.492
14442TIP3   OH243268   0.281   1.933   0.825
14442TIP3    H143269   0.265   2.012   0.877
14442TIP3    H243270   0.351   1.958   0.764
14443TIP3   OH243271   8.207   3.256   0.393
14443TIP3    H143272   8.190   3.322   0.326
14443TIP3    H243273   8.206   3.304   0.476
14444TIP3   OH243274   8.294   1.951   0.629
14444TIP3    H143275   8.281   2.039   0.662
14444TIP3    H243276   8.389   1.937   0.635
14445TIP3   OH243277   1.050   2.391   1.503
14445TIP3    H143278   0.959   2.419   1.513
14445TIP3    H243279   1.048   2.333   1.427
14446TIP3   OH243280   0.698   2.631   0.894
14446TIP3    H143281   0.624   2.572   0.898
14446TIP3    H243282   0.767   2.588   0.945
14447TIP3   OH243283   7.968   2.836   0.391
14447TIP3    H143284   8.040   2.899   0.397
14447TIP3    H243285   7.994   2.775   0.322
14448TIP3   OH243286   7.841   2.126   0.499
14448TIP3    H143287   7.849   2.221   0.491
14448TIP3    H243288   7.861   2.092   0.411
14449TIP3   OH243289   0.652   3.574   0.816
14449TIP3    H143290   0.598   3.649   0.791
14449TIP3    H243291   0.737   3.592   0.776
14450TIP3   OH243292   8.237   1.897   1.286
14450TIP3    H143293   8.215   1.825   1.227
14450TIP3    H243294   8.225   1.861   1.373
14451TIP3   OH243295   2.729   7.159   6.932
14451TIP3    H143296   2.686   7.088   6.979
14451TIP3    H243297   2.804   7.118   6.889
14452TIP3   OH243298   3.171   7.198   6.857
14452TIP3    H143299   3.203   7.134   6.920
14452TIP3    H243300   3.231   7.190   6.782
14453TIP3   OH243301   8.061   2.646   0.219
14453TIP3    H143302   8.113   2.617   0.294
14453TIP3    H243303   8.125   2.660   0.150
14454TIP3   OH243304   0.108   2.869   0.039
14454TIP3    H143305   0.097   2.879   0.133
14454TIP3    H243306   0.101   2.775   0.023
14455TIP3   OH243307   0.625   3.127   1.384
14455TIP3    H143308   0.690   3.166   1.325
14455TIP3    H243309   0.602   3.198   1.444
14456TIP3   OH243310   8.239   2.584   0.424
14456TIP3    H143311   8.229   2.558   0.516
14456TIP3    H243312   8.288   2.513   0.384
14457TIP3   OH243313   8.379   2.399   0.275
14457TIP3    H143314   8.350   2.404   0.184
14457TIP3    H243315   8.474   2.407   0.270
14458TIP3   OH243316   3.503   6.702   6.892
14458TIP3    H143317   3.491   6.661   6.807
14458TIP3    H243318   3.476   6.793   6.879
14459TIP3   OH243319   0.120   2.408   1.754
14459TIP3    H143320   0.149   2.333   1.702
14459TIP3    H243321   0.155   2.484   1.707
14460TIP3   OH243322   0.161   2.221   1.545
14460TIP3    H143323   0.192   2.283   1.478
14460TIP3    H243324   0.067   2.213   1.528
14461TIP3   OH243325   0.185   2.719   1.395
14461TIP3    H143326   0.277   2.734   1.374
14461TIP3    H243327   0.140   2.799   1.370
14462TIP3   OH243328   0.726   2.930   1.559
14462TIP3    H143329   0.682   2.994   1.503
14462TIP3    H243330   0.818   2.934   1.533
14463TIP3   OH243331   0.307   2.006   1.654
14463TIP3    H143332   0.259   2.083   1.623
14463TIP3    H243333   0.239   1.939   1.666
14464TIP3   OH243334   0.595   2.417   1.752
14464TIP3    H143335   0.610   2.450   1.840
14464TIP3    H243336   0.665   2.353   1.738
14465TIP3   OH243337   8.199   3.455   0.203
14465TIP3    H143338   8.287   3.435   0.174
14465TIP3    H243339   8.159   3.502   0.130
14466TIP3   OH243340   7.703   2.787   0.403
14466TIP3    H143341   7.795   2.811   0.393
14466TIP3    H243342   7.692   2.708   0.350
14467TIP3   OH243343   0.898   3.650   0.738
14467TIP3    H143344   0.898   3.712   0.811
14467TIP3    H243345   0.987   3.656   0.702
14468TIP3   OH243346   0.828   2.902   0.279
14468TIP3    H143347   0.891   2.967   0.247
14468TIP3    H243348   0.872   2.862   0.354
14469TIP3   OH243349   0.948   2.751   0.474
14469TIP3    H143350   0.881   2.710   0.529
14469TIP3    H243351   1.015   2.781   0.536
14470TIP3   OH243352   0.986   3.142   0.888
14470TIP3    H143353   1.048   3.081   0.849
14470TIP3    H243354   0.981   3.215   0.825
14471TIP3   OH243355   0.884   3.442   1.020
14471TIP3    H143356   0.833   3.523   1.019
14471TIP3    H243357   0.835   3.383   0.963
14472TIP3   OH243358   0.879   2.676   0.129
14472TIP3    H143359   0.808   2.674   0.065
14472TIP3    H243360   0.860   2.754   0.182
14473TIP3   OH243361   0.725   2.333   0.072
14473TIP3    H143362   0.684   2.366  -0.008
14473TIP3    H243363   0.716   2.238   0.066
14474TIP3   OH243364   0.758   2.614   0.622
14474TIP3    H143365   0.767   2.520   0.610
14474TIP3    H243366   0.745   2.626   0.716
14475TIP3   OH243367   0.976   2.893   1.471
14475TIP3    H143368   1.059   2.849   1.489
14475TIP3    H243369   0.996   2.950   1.396
14476TIP3   OH243370   1.260   2.825   1.446
14476TIP3    H143371   1.225   2.759   1.506
14476TIP3    H243372   1.353   2.803   1.439
14477TIP3   OH243373   0.688   2.064   0.051
14477TIP3    H143374   0.757   2.031   0.108
14477TIP3    H243375   0.609   2.016   0.078
14478TIP3   OH243376   0.760   2.342   0.506
14478TIP3    H143377   0.806   2.259   0.519
14478TIP3    H243378   0.802   2.381   0.430
14479TIP3   OH243379   0.907   2.498   1.028
14479TIP3    H143380   0.989   2.511   0.981
14479TIP3    H243381   0.925   2.529   1.117
14480TIP3   OH243382   0.988   2.639   1.257
14480TIP3    H143383   0.909   2.670   1.303
14480TIP3    H243384   1.006   2.707   1.193
14481TIP3   OH243385   0.875   2.093   0.559
14481TIP3    H143386   0.920   2.078   0.643
14481TIP3    H243387   0.813   2.020   0.552
14482TIP3   OH243388   7.895   2.304   1.420
14482TIP3    H143389   7.831   2.339   1.358
14482TIP3    H243390   7.980   2.317   1.377
14483TIP3   OH243391   1.301   2.342   1.613
14483TIP3    H143392   1.211   2.358   1.582
14483TIP3    H243393   1.335   2.276   1.552
14484TIP3   OH243394   0.921   2.007   0.196
14484TIP3    H143395   0.967   1.946   0.138
14484TIP3    H243396   0.977   2.084   0.200
14485TIP3   OH243397   7.915   1.828   0.944
14485TIP3    H143398   7.823   1.821   0.971
14485TIP3    H243399   7.913   1.881   0.865
14486TIP3   OH243400   0.528   3.574   0.467
14486TIP3    H143401   0.572   3.551   0.385
14486TIP3    H243402   0.571   3.655   0.495
14487TIP3   OH243403   1.211   2.102   1.476
14487TIP3    H143404   1.124   2.081   1.443
14487TIP3    H243405   1.259   2.019   1.472
14488TIP3   OH243406   0.408   2.039   1.115
14488TIP3    H143407   0.372   1.969   1.171
14488TIP3    H243408   0.480   1.997   1.069
14489TIP3   OH243409   0.918   1.969   1.023
14489TIP3    H143410   0.957   2.015   0.948
14489TIP3    H243411   0.825   1.989   1.018
14490TIP3   OH243412   1.031   2.038   0.783
14490TIP3    H143413   1.101   1.978   0.756
14490TIP3    H243414   1.066   2.125   0.767
14491TIP3   OH243415   8.163   1.719   1.094
14491TIP3    H143416   8.069   1.697   1.092
14491TIP3    H243417   8.207   1.635   1.100
14492TIP3   OH243418   7.984   1.633   0.752
14492TIP3    H143419   8.013   1.684   0.676
14492TIP3    H243420   7.967   1.698   0.820
14493TIP3   OH243421   0.128   1.798   1.022
14493TIP3    H143422   0.179   1.839   0.952
14493TIP3    H243423   0.174   1.822   1.102
14494TIP3   OH243424   0.634   1.932   0.999
14494TIP3    H143425   0.654   1.899   0.911
14494TIP3    H243426   0.639   1.855   1.056
14495TIP3   OH243427   0.690   1.882   0.564
14495TIP3    H143428   0.610   1.929   0.589
14495TIP3    H243429   0.680   1.795   0.603
14496TIP3   OH243430   8.086   1.785   0.532
14496TIP3    H143431   8.131   1.727   0.471
14496TIP3    H243432   8.155   1.838   0.571
14497TIP3   OH243433   0.068   1.984   0.642
14497TIP3    H143434   0.130   1.932   0.694
14497TIP3    H243435   0.082   2.074   0.672
14498TIP3   OH243436   8.454   3.379   0.132
14498TIP3    H143437   8.538   3.404   0.095
14498TIP3    H243438   8.423   3.307   0.076
14499TIP3   OH243439   0.654   3.515   0.228
14499TIP3    H143440   0.647   3.420   0.223
14499TIP3    H243441   0.614   3.547   0.147
14500TIP3   OH243442   7.798   3.217   0.195
14500TIP3    H143443   7.844   3.274   0.256
14500TIP3    H243444   7.867   3.162   0.156
14501TIP3   OH243445   2.034   3.004   0.182
14501TIP3    H143446   2.016   3.088   0.139
14501TIP3    H243447   1.988   2.940   0.127
14502TIP3   OH243448   2.158   3.107   0.537
14502TIP3    H143449   2.208   3.073   0.612
14502TIP3    H243450   2.103   3.034   0.509
14503TIP3   OH243451   1.437   2.867   0.925
14503TIP3    H143452   1.486   2.795   0.966
14503TIP3    H243453   1.495   2.899   0.856
14504TIP3   OH243454   2.331   3.308   0.252
14504TIP3    H143455   2.382   3.278   0.327
14504TIP3    H243456   2.339   3.404   0.255
14505TIP3   OH243457   1.368   3.244   0.589
14505TIP3    H143458   1.355   3.151   0.573
14505TIP3    H243459   1.323   3.261   0.672
14506TIP3   OH243460   1.117   2.533   0.402
14506TIP3    H143461   1.076   2.617   0.425
14506TIP3    H243462   1.047   2.481   0.363
14507TIP3   OH243463   1.167   2.806   0.625
14507TIP3    H143464   1.219   2.731   0.654
14507TIP3    H243465   1.231   2.864   0.584
14508TIP3   OH243466   1.902   3.847   0.298
14508TIP3    H143467   1.847   3.794   0.240
14508TIP3    H243468   1.934   3.785   0.364
14509TIP3   OH243469   1.976   3.272   0.659
14509TIP3    H143470   2.037   3.219   0.608
14509TIP3    H243471   2.031   3.321   0.720
14510TIP3   OH243472   2.886   2.542   0.450
14510TIP3    H143473   2.936   2.486   0.510
14510TIP3    H243474   2.950   2.605   0.417
14511TIP3   OH243475   2.445   2.722   0.647
14511TIP3    H143476   2.399   2.648   0.687
14511TIP3    H243477   2.380   2.763   0.591
14512TIP3   OH243478   1.698   2.392   0.580
14512TIP3    H143479   1.682   2.470   0.528
14512TIP3    H243480   1.643   2.325   0.540
14513TIP3   OH243481   2.380   2.469   0.185
14513TIP3    H143482   2.444   2.455   0.255
14513TIP3    H243483   2.424   2.529   0.124
14514TIP3   OH243484   1.331   2.606   0.718
14514TIP3    H143485   1.414   2.585   0.761
14514TIP3    H243486   1.334   2.558   0.635
14515TIP3   OH243487   1.731   2.829   0.497
14515TIP3    H143488   1.827   2.821   0.496
14515TIP3    H243489   1.699   2.742   0.475
14516TIP3   OH243490   1.651   2.351   1.040
14516TIP3    H143491   1.594   2.379   0.969
14516TIP3    H243492   1.600   2.368   1.120
14517TIP3   OH243493   4.884   7.223   6.945
14517TIP3    H143494   4.843   7.197   6.863
14517TIP3    H243495   4.862   7.316   6.954
14518TIP3   OH243496   1.718   3.195   0.712
14518TIP3    H143497   1.661   3.243   0.772
14518TIP3    H243498   1.800   3.243   0.713
14519TIP3   OH243499   2.565   2.411   0.383
14519TIP3    H143500   2.527   2.446   0.464
14519TIP3    H243501   2.609   2.485   0.342
14520TIP3   OH243502   1.566   2.484   0.804
14520TIP3    H143503   1.632   2.536   0.849
14520TIP3    H243504   1.612   2.446   0.728
14521TIP3   OH243505   1.551   3.339   0.882
14521TIP3    H143506   1.534   3.416   0.937
14521TIP3    H243507   1.533   3.264   0.939
14522TIP3   OH243508   1.007   3.073   0.156
14522TIP3    H143509   0.974   3.092   0.068
14522TIP3    H243510   1.022   3.159   0.195
14523TIP3   OH243511   2.672   2.401   0.852
14523TIP3    H143512   2.582   2.382   0.879
14523TIP3    H243513   2.662   2.456   0.774
14524TIP3   OH243514   2.004   2.081   0.748
14524TIP3    H143515   2.004   1.990   0.778
14524TIP3    H243516   1.932   2.122   0.797
14525TIP3   OH243517   2.347   3.656   0.100
14525TIP3    H143518   2.325   3.569   0.067
14525TIP3    H243519   2.325   3.715   0.028
14526TIP3   OH243520   5.117   7.417   6.932
14526TIP3    H143521   5.117   7.362   6.853
14526TIP3    H243522   5.085   7.360   7.001
14527TIP3   OH243523   4.767   6.861   6.915
14527TIP3    H143524   4.689   6.912   6.892
14527TIP3    H243525   4.821   6.864   6.836
14528TIP3   OH243526   4.770   6.682   6.636
14528TIP3    H143527   4.837   6.731   6.683
14528TIP3    H243528   4.819   6.616   6.587
14529TIP3   OH243529   5.089   7.030   6.880
14529TIP3    H143530   5.035   7.069   6.949
14529TIP3    H243531   5.148   6.971   6.926
14530TIP3   OH243532   1.548   2.960   0.344
14530TIP3    H143533   1.515   2.893   0.284
14530TIP3    H243534   1.619   2.916   0.391
14531TIP3   OH243535   1.684   3.339   0.473
14531TIP3    H143536   1.618   3.305   0.413
14531TIP3    H243537   1.698   3.268   0.536
14532TIP3   OH243538   1.597   2.950   0.704
14532TIP3    H143539   1.646   2.905   0.634
14532TIP3    H243540   1.633   3.039   0.704
14533TIP3   OH243541   4.977   6.836   6.729
14533TIP3    H143542   5.020   6.908   6.777
14533TIP3    H243543   5.013   6.842   6.641
14534TIP3   OH243544   1.523   3.140   1.060
14534TIP3    H143545   1.532   3.193   1.139
14534TIP3    H243546   1.457   3.074   1.082
14535TIP3   OH243547   4.769   7.473   6.923
14535TIP3    H143548   4.715   7.457   7.000
14535TIP3    H243549   4.709   7.464   6.849
14536TIP3   OH243550   5.484   6.058   6.779
14536TIP3    H143551   5.412   6.083   6.837
14536TIP3    H243552   5.502   6.137   6.728
14537TIP3   OH243553   1.431   2.782   0.169
14537TIP3    H143554   1.351   2.827   0.141
14537TIP3    H243555   1.403   2.692   0.185
14538TIP3   OH243556   5.342   7.444   6.355
14538TIP3    H143557   5.334   7.535   6.325
14538TIP3    H243558   5.429   7.417   6.325
14539TIP3   OH243559   1.201   3.183   1.061
14539TIP3    H143560   1.120   3.169   1.012
14539TIP3    H243561   1.209   3.105   1.116
14540TIP3   OH243562   1.021   3.374   0.734
14540TIP3    H143563   1.113   3.373   0.761
14540TIP3    H243564   0.988   3.458   0.764
14541TIP3   OH243565   4.633   7.741   6.789
14541TIP3    H143566   4.602   7.713   6.703
14541TIP3    H243567   4.599   7.830   6.798
14542TIP3   OH243568   1.175   3.567   0.186
14542TIP3    H143569   1.200   3.573   0.279
14542TIP3    H243570   1.126   3.485   0.180
14543TIP3   OH243571   4.833   7.661   6.437
14543TIP3    H143572   4.883   7.589   6.400
14543TIP3    H243573   4.865   7.671   6.526
14544TIP3   OH243574   4.894   7.696   6.699
14544TIP3    H143575   4.818   7.687   6.756
14544TIP3    H243576   4.969   7.701   6.759
14545TIP3   OH243577   1.428   3.436   1.114
14545TIP3    H143578   1.451   3.376   1.185
14545TIP3    H243579   1.332   3.440   1.116
14546TIP3   OH243580   1.783   2.171   0.881
14546TIP3    H143581   1.699   2.146   0.844
14546TIP3    H243582   1.763   2.247   0.936
14547TIP3   OH243583   2.310   2.385   1.056
14547TIP3    H143584   2.377   2.331   1.098
14547TIP3    H243585   2.243   2.397   1.124
14548TIP3   OH243586   5.080   6.843   6.481
14548TIP3    H143587   5.036   6.833   6.397
14548TIP3    H243588   5.164   6.883   6.459
14549TIP3   OH243589   4.780   6.242   6.800
14549TIP3    H143590   4.743   6.249   6.888
14549TIP3    H243591   4.745   6.160   6.766
14550TIP3   OH243592   1.752   2.616   0.952
14550TIP3    H143593   1.691   2.626   1.026
14550TIP3    H243594   1.776   2.706   0.930
14551TIP3   OH243595   1.609   2.597   0.421
14551TIP3    H143596   1.521   2.570   0.447
14551TIP3    H243597   1.619   2.563   0.332
14552TIP3   OH243598   2.078   2.657   0.101
14552TIP3    H143599   2.025   2.725   0.060
14552TIP3    H243600   2.142   2.633   0.034
14553TIP3   OH243601   2.190   2.616   0.343
14553TIP3    H143602   2.148   2.637   0.260
14553TIP3    H243603   2.264   2.561   0.319
14554TIP3   OH243604   1.542   2.682   1.116
14554TIP3    H143605   1.572   2.730   1.194
14554TIP3    H243606   1.516   2.597   1.150
14555TIP3   OH243607   4.453   6.226   6.780
14555TIP3    H143608   4.442   6.226   6.875
14555TIP3    H243609   4.375   6.268   6.746
14556TIP3   OH243610   1.152   2.263   0.699
14556TIP3    H143611   1.221   2.295   0.756
14556TIP3    H243612   1.196   2.241   0.617
14557TIP3   OH243613   1.073   2.240   0.212
14557TIP3    H143614   1.120   2.276   0.136
14557TIP3    H243615   1.008   2.308   0.233
14558TIP3   OH243616   2.434   2.932   0.825
14558TIP3    H143617   2.431   2.852   0.772
14558TIP3    H243618   2.380   2.913   0.901
14559TIP3   OH243619   1.958   2.398   0.466
14559TIP3    H143620   1.877   2.400   0.517
14559TIP3    H243621   2.026   2.377   0.530
14560TIP3   OH243622   1.373   2.471   0.484
14560TIP3    H143623   1.286   2.479   0.445
14560TIP3    H243624   1.401   2.382   0.463
14561TIP3   OH243625   1.623   2.478   0.175
14561TIP3    H143626   1.718   2.487   0.166
14561TIP3    H243627   1.589   2.498   0.088
14562TIP3   OH243628   2.419   2.417   0.621
14562TIP3    H143629   2.427   2.371   0.704
14562TIP3    H243630   2.382   2.352   0.561
14563TIP3   OH243631   4.347   6.518   6.867
14563TIP3    H143632   4.286   6.465   6.816
14563TIP3    H243633   4.402   6.561   6.802
14564TIP3   OH243634   1.562   3.269   1.294
14564TIP3    H143635   1.656   3.281   1.306
14564TIP3    H243636   1.538   3.201   1.357
14565TIP3   OH243637   1.991   2.734   0.496
14565TIP3    H143638   2.051   2.677   0.449
14565TIP3    H243639   1.955   2.679   0.565
14566TIP3   OH243640   1.513   2.224   0.455
14566TIP3    H143641   1.487   2.149   0.509
14566TIP3    H243642   1.539   2.186   0.371
14567TIP3   OH243643   1.902   2.599   0.715
14567TIP3    H143644   1.856   2.593   0.798
14567TIP3    H243645   1.991   2.570   0.734
14568TIP3   OH243646   4.554   7.036   6.879
14568TIP3    H143647   4.479   6.978   6.864
14568TIP3    H243648   4.536   7.076   6.965
14569TIP3   OH243649   5.034   6.335   6.793
14569TIP3    H143650   4.939   6.318   6.789
14569TIP3    H243651   5.041   6.430   6.802
14570TIP3   OH243652   5.091   6.601   6.839
14570TIP3    H143653   5.186   6.598   6.850
14570TIP3    H243654   5.074   6.684   6.794
14571TIP3   OH243655   1.370   2.971   0.553
14571TIP3    H143656   1.416   2.973   0.469
14571TIP3    H243657   1.440   2.957   0.617
14572TIP3   OH243658   4.716   7.187   6.726
14572TIP3    H143659   4.671   7.271   6.721
14572TIP3    H243660   4.656   7.131   6.775
14573TIP3   OH243661   1.122   2.995   1.257
14573TIP3    H143662   1.203   2.959   1.293
14573TIP3    H243663   1.094   2.931   1.192
14574TIP3   OH243664   5.494   6.695   6.670
14574TIP3    H143665   5.441   6.642   6.611
14574TIP3    H243666   5.492   6.783   6.633
14575TIP3   OH243667   5.272   7.519   6.614
14575TIP3    H143668   5.235   7.444   6.661
14575TIP3    H243669   5.292   7.484   6.527
14576TIP3   OH243670   2.465   3.230   0.472
14576TIP3    H143671   2.443   3.210   0.563
14576TIP3    H243672   2.508   3.151   0.440
14577TIP3   OH243673   1.494   3.350   0.269
14577TIP3    H143674   1.479   3.420   0.204
14577TIP3    H243675   1.408   3.334   0.308
14578TIP3   OH243676   1.116   2.662  -0.012
14578TIP3    H143677   1.158   2.745   0.009
14578TIP3    H243678   1.035   2.662   0.039
14579TIP3   OH243679   1.641   3.145   0.167
14579TIP3    H143680   1.596   3.225   0.195
14579TIP3    H243681   1.617   3.080   0.233
14580TIP3   OH243682   1.419   3.544   0.076
14580TIP3    H143683   1.326   3.557   0.096
14580TIP3    H243684   1.464   3.604   0.135
14581TIP3   OH243685   2.196   3.382   0.783
14581TIP3    H143686   2.255   3.307   0.791
14581TIP3    H243687   2.216   3.418   0.696
14582TIP3   OH243688   5.012   7.253   6.503
14582TIP3    H143689   5.054   7.243   6.589
14582TIP3    H243690   4.932   7.202   6.510
14583TIP3   OH243691   5.332   7.714   6.307
14583TIP3    H143692   5.367   7.786   6.254
14583TIP3    H243693   5.257   7.752   6.352
14584TIP3   OH243694   1.496   2.443   1.243
14584TIP3    H143695   1.404   2.461   1.261
14584TIP3    H243696   1.528   2.399   1.322
14585TIP3   OH243697   5.179   7.236   6.727
14585TIP3    H143698   5.146   7.162   6.777
14585TIP3    H243699   5.271   7.215   6.711
14586TIP3   OH243700   1.396   3.608   0.875
14586TIP3    H143701   1.330   3.597   0.806
14586TIP3    H243702   1.351   3.584   0.956
14587TIP3   OH243703   4.370   7.211   6.526
14587TIP3    H143704   4.379   7.121   6.496
14587TIP3    H243705   4.349   7.204   6.619
14588TIP3   OH243706   4.310   7.223   6.797
14588TIP3    H143707   4.378   7.203   6.861
14588TIP3    H243708   4.309   7.318   6.791
14589TIP3   OH243709   1.211   2.911   0.066
14589TIP3    H143710   1.143   2.956   0.117
14589TIP3    H243711   1.230   2.971  -0.006
14590TIP3   OH243712   2.375   2.581   0.885
14590TIP3    H143713   2.453   2.628   0.912
14590TIP3    H243714   2.363   2.514   0.952
14591TIP3   OH243715   2.238   2.254   0.115
14591TIP3    H143716   2.215   2.267   0.023
14591TIP3    H243717   2.281   2.336   0.140
14592TIP3   OH243718   4.585   7.429   6.723
14592TIP3    H143719   4.493   7.443   6.745
14592TIP3    H243720   4.602   7.486   6.649
14593TIP3   OH243721   1.898   2.482   0.211
14593TIP3    H143722   1.961   2.546   0.176
14593TIP3    H243723   1.923   2.472   0.303
14594TIP3   OH243724   2.247   2.854   1.005
14594TIP3    H143725   2.195   2.909   1.062
14594TIP3    H243726   2.286   2.789   1.063
14595TIP3   OH243727   2.063   2.181   0.312
14595TIP3    H143728   2.041   2.263   0.356
14595TIP3    H243729   2.127   2.206   0.245
14596TIP3   OH243730   4.324   7.493   6.765
14596TIP3    H143731   4.305   7.568   6.708
14596TIP3    H243732   4.295   7.520   6.852
14597TIP3   OH243733   1.583   2.206   0.119
14597TIP3    H143734   1.574   2.297   0.147
14597TIP3    H243735   1.678   2.189   0.123
14598TIP3   OH243736   2.545   2.987   0.365
14598TIP3    H143737   2.452   2.966   0.353
14598TIP3    H243738   2.563   2.961   0.456
14599TIP3   OH243739   4.063   7.098   6.792
14599TIP3    H143740   4.136   7.159   6.803
14599TIP3    H243741   4.094   7.034   6.727
14600TIP3   OH243742   3.979   6.392   6.932
14600TIP3    H143743   3.987   6.488   6.936
14600TIP3    H243744   3.931   6.375   6.851
14601TIP3   OH243745   1.519   2.100   0.851
14601TIP3    H143746   1.493   2.065   0.765
14601TIP3    H243747   1.514   2.024   0.910
14602TIP3   OH243748   1.029   3.332   0.239
14602TIP3    H143749   1.007   3.374   0.322
14602TIP3    H243750   0.976   3.378   0.174
14603TIP3   OH243751   4.521   7.410   6.413
14603TIP3    H143752   4.473   7.338   6.455
14603TIP3    H243753   4.594   7.367   6.369
14604TIP3   OH243754   4.966   7.454   6.326
14604TIP3    H143755   4.999   7.389   6.387
14604TIP3    H243756   5.024   7.447   6.250
14605TIP3   OH243757   4.188   6.910   6.639
14605TIP3    H143758   4.238   6.884   6.716
14605TIP3    H243759   4.254   6.922   6.571
14606TIP3   OH243760   4.764   7.125   6.464
14606TIP3    H143761   4.736   7.136   6.556
14606TIP3    H243762   4.749   7.032   6.446
14607TIP3   OH243763   1.530   3.063   1.468
14607TIP3    H143764   1.566   2.974   1.461
14607TIP3    H243765   1.566   3.097   1.550
14608TIP3   OH243766   4.359   6.847   6.850
14608TIP3    H143767   4.336   6.813   6.937
14608TIP3    H243768   4.407   6.776   6.808
14609TIP3   OH243769   1.737   3.015   1.182
14609TIP3    H143770   1.663   3.049   1.131
14609TIP3    H243771   1.811   3.017   1.121
14610TIP3   OH243772   4.499   6.666   6.693
14610TIP3    H143773   4.470   6.669   6.602
14610TIP3    H243774   4.595   6.666   6.688
14611TIP3   OH243775   5.303   6.962   6.367
14611TIP3    H143776   5.288   6.918   6.283
14611TIP3    H243777   5.277   7.053   6.352
14612TIP3   OH243778   1.871   2.630   1.281
14612TIP3    H143779   1.953   2.616   1.327
14612TIP3    H243780   1.890   2.698   1.216
14613TIP3   OH243781   1.922   2.414   1.056
14613TIP3    H143782   1.967   2.486   1.013
14613TIP3    H243783   1.830   2.427   1.036
14614TIP3   OH243784   1.930   3.084   1.004
14614TIP3    H143785   2.004   3.093   0.945
14614TIP3    H243786   1.886   3.169   1.001
14615TIP3   OH243787   1.858   2.828   1.476
14615TIP3    H143788   1.830   2.800   1.563
14615TIP3    H243789   1.860   2.748   1.424
14616TIP3   OH243790   2.018   2.180   1.152
14616TIP3    H143791   1.977   2.256   1.110
14616TIP3    H243792   1.947   2.117   1.161
14617TIP3   OH243793   2.199   2.827   1.435
14617TIP3    H143794   2.221   2.856   1.523
14617TIP3    H243795   2.148   2.747   1.448
14618TIP3   OH243796   1.701   2.547   1.568
14618TIP3    H143797   1.673   2.462   1.535
14618TIP3    H243798   1.780   2.529   1.620
14619TIP3   OH243799   2.155   2.241   1.409
14619TIP3    H143800   2.233   2.185   1.414
14619TIP3    H243801   2.084   2.182   1.383
14620TIP3   OH243802   4.322   7.718   6.608
14620TIP3    H143803   4.412   7.702   6.580
14620TIP3    H243804   4.284   7.770   6.537
14621TIP3   OH243805   3.790   7.095   6.812
14621TIP3    H143806   3.885   7.106   6.807
14621TIP3    H243807   3.775   7.009   6.772
14622TIP3   OH243808   0.846   3.669   0.343
14622TIP3    H143809   0.787   3.612   0.295
14622TIP3    H243810   0.900   3.609   0.396
14623TIP3   OH243811   1.010   3.484   0.472
14623TIP3    H143812   0.999   3.436   0.554
14623TIP3    H243813   1.096   3.526   0.480
14624TIP3   OH243814   5.445   7.168   6.700
14624TIP3    H143815   5.505   7.231   6.660
14624TIP3    H243816   5.486   7.144   6.783
14625TIP3   OH243817   2.764   3.055  -0.026
14625TIP3    H143818   2.681   3.057   0.022
14625TIP3    H243819   2.822   3.113   0.022
14626TIP3   OH243820   5.501   6.941   6.553
14626TIP3    H143821   5.435   6.940   6.483
14626TIP3    H243822   5.480   7.018   6.606
14627TIP3   OH243823   5.341   6.581   6.477
14627TIP3    H143824   5.295   6.607   6.397
14627TIP3    H243825   5.342   6.485   6.474
14628TIP3   OH243826   2.426   2.832   0.032
14628TIP3    H143827   2.458   2.742   0.019
14628TIP3    H243828   2.500   2.877   0.072
14629TIP3   OH243829   1.178   2.941   0.860
14629TIP3    H143830   1.167   2.900   0.775
14629TIP3    H243831   1.270   2.928   0.882
14630TIP3   OH243832   5.323   6.310   6.458
14630TIP3    H143833   5.388   6.285   6.524
14630TIP3    H243834   5.242   6.270   6.488
14631TIP3   OH243835   5.371   6.587   6.904
14631TIP3    H143836   5.424   6.513   6.932
14631TIP3    H243837   5.419   6.626   6.831
14632TIP3   OH243838   2.707   2.781   0.487
14632TIP3    H143839   2.776   2.838   0.454
14632TIP3    H243840   2.669   2.829   0.561
14633TIP3   OH243841   1.427   2.590   1.504
14633TIP3    H143842   1.520   2.610   1.520
14633TIP3    H243843   1.411   2.508   1.551
14634TIP3   OH243844   2.687   2.330   0.041
14634TIP3    H143845   2.709   2.330   0.134
14634TIP3    H243846   2.618   2.264   0.032
14635TIP3   OH243847   1.355   2.319   0.879
14635TIP3    H143848   1.407   2.239   0.881
14635TIP3    H243849   1.416   2.386   0.849
14636TIP3   OH243850   1.152   2.578   0.934
14636TIP3    H143851   1.209   2.580   0.858
14636TIP3    H243852   1.157   2.666   0.971
14637TIP3   OH243853   5.547   6.271   6.619
14637TIP3    H143854   5.595   6.212   6.560
14637TIP3    H243855   5.604   6.347   6.629
14638TIP3   OH243856   1.146   2.109   0.439
14638TIP3    H143857   1.060   2.095   0.478
14638TIP3    H243858   1.129   2.162   0.361
14639TIP3   OH243859   5.115   7.807   6.822
14639TIP3    H143860   5.188   7.793   6.761
14639TIP3    H243861   5.100   7.902   6.818
14640TIP3   OH243862   1.364   2.167   1.253
14640TIP3    H143863   1.308   2.153   1.329
14640TIP3    H243864   1.309   2.215   1.191
14641TIP3   OH243865   1.668   3.579   0.990
14641TIP3    H143866   1.587   3.628   1.003
14641TIP3    H243867   1.737   3.637   1.023
14642TIP3   OH243868   3.162   2.430   0.973
14642TIP3    H143869   3.090   2.433   0.909
14642TIP3    H243870   3.191   2.339   0.971
14643TIP3   OH243871   1.479   3.966   0.812
14643TIP3    H143872   1.529   3.961   0.893
14643TIP3    H243873   1.516   3.898   0.757
14644TIP3   OH243874   1.171   3.645   0.716
14644TIP3    H143875   1.158   3.701   0.792
14644TIP3    H243876   1.215   3.700   0.651
14645TIP3   OH243877   1.472   3.493   0.568
14645TIP3    H143878   1.432   3.408   0.584
14645TIP3    H243879   1.547   3.476   0.511
14646TIP3   OH243880   1.718   3.641   0.481
14646TIP3    H143881   1.775   3.565   0.492
14646TIP3    H243882   1.681   3.655   0.568
14647TIP3   OH243883   2.145   2.282   0.628
14647TIP3    H143884   2.104   2.211   0.678
14647TIP3    H243885   2.209   2.238   0.572
14648TIP3   OH243886   2.630   2.150   0.377
14648TIP3    H143887   2.714   2.182   0.345
14648TIP3    H243888   2.580   2.230   0.396
14649TIP3   OH243889   2.865   2.252   0.301
14649TIP3    H143890   2.910   2.189   0.246
14649TIP3    H243891   2.905   2.336   0.280
14650TIP3   OH243892   1.446   2.000   0.605
14650TIP3    H143893   1.358   1.966   0.617
14650TIP3    H243894   1.501   1.923   0.598
14651TIP3   OH243895   1.273   1.914   0.270
14651TIP3    H143896   1.298   1.962   0.190
14651TIP3    H243897   1.238   1.981   0.328
14652TIP3   OH243898   1.908   2.039   0.491
14652TIP3    H143899   1.959   2.090   0.429
14652TIP3    H243900   1.941   2.065   0.577
14653TIP3   OH243901   2.349   2.194   0.470
14653TIP3    H143902   2.359   2.183   0.375
14653TIP3    H243903   2.397   2.120   0.507
14654TIP3   OH243904   2.483   2.139   0.042
14654TIP3    H143905   2.399   2.183   0.058
14654TIP3    H243906   2.470   2.050   0.076
14655TIP3   OH243907   0.930   3.476   0.030
14655TIP3    H143908   0.850   3.445  -0.012
14655TIP3    H243909   0.940   3.567   0.000
14656TIP3   OH243910   1.377   2.039   0.029
14656TIP3    H143911   1.423   1.978  -0.029
14656TIP3    H243912   1.446   2.095   0.064
14657TIP3   OH243913   1.857   2.229   0.121
14657TIP3    H143914   1.913   2.175   0.178
14657TIP3    H243915   1.872   2.319   0.151
14658TIP3   OH243916   4.577   7.645   6.533
14658TIP3    H143917   4.661   7.668   6.493
14658TIP3    H243918   4.545   7.572   6.481
14659TIP3   OH243919   5.318   7.790   6.640
14659TIP3    H143920   5.314   7.695   6.635
14659TIP3    H243921   5.277   7.821   6.559
14660TIP3   OH243922   1.590   2.302   1.486
14660TIP3    H143923   1.595   2.216   1.527
14660TIP3    H243924   1.666   2.305   1.427
14661TIP3   OH243925   1.971   2.365   1.576
14661TIP3    H143926   2.038   2.307   1.540
14661TIP3    H243927   1.997   2.377   1.667
14662TIP3   OH243928   3.890   7.486   6.623
14662TIP3    H143929   3.892   7.495   6.719
14662TIP3    H243930   3.971   7.439   6.602
14663TIP3   OH243931   5.707   6.842   6.785
14663TIP3    H143932   5.667   6.921   6.821
14663TIP3    H243933   5.635   6.797   6.741
14664TIP3   OH243934   3.010   3.123   0.121
14664TIP3    H143935   3.082   3.083   0.170
14664TIP3    H243936   3.041   3.126   0.031
14665TIP3   OH243937   3.543   2.668   0.073
14665TIP3    H143938   3.486   2.720   0.016
14665TIP3    H243939   3.513   2.578   0.063
14666TIP3   OH243940   3.219   2.923   0.140
14666TIP3    H143941   3.305   2.927   0.099
14666TIP3    H243942   3.175   2.849   0.097
14667TIP3   OH243943   5.629   7.322   6.561
14667TIP3    H143944   5.601   7.327   6.470
14667TIP3    H243945   5.631   7.413   6.590
14668TIP3   OH243946   6.612   6.895   6.237
14668TIP3    H143947   6.658   6.978   6.250
14668TIP3    H243948   6.657   6.853   6.164
14669TIP3   OH243949   7.258   6.311   6.200
14669TIP3    H143950   7.204   6.322   6.279
14669TIP3    H243951   7.293   6.398   6.183
14670TIP3   OH243952   6.085   7.043   6.562
14670TIP3    H143953   5.996   7.077   6.555
14670TIP3    H243954   6.075   6.951   6.587
14671TIP3   OH243955   6.869   7.045   5.947
14671TIP3    H143956   6.838   7.046   5.857
14671TIP3    H243957   6.938   7.111   5.949
14672TIP3   OH243958   6.567   6.522   6.304
14672TIP3    H143959   6.544   6.515   6.396
14672TIP3    H243960   6.528   6.443   6.264
14673TIP3   OH243961   6.242   6.859   6.835
14673TIP3    H143962   6.149   6.847   6.816
14673TIP3    H243963   6.287   6.839   6.753
14674TIP3   OH243964   6.238   6.512   6.251
14674TIP3    H143965   6.224   6.511   6.345
14674TIP3    H243966   6.158   6.549   6.215
14675TIP3   OH243967   3.012   2.447   0.191
14675TIP3    H143968   3.035   2.532   0.229
14675TIP3    H243969   2.996   2.466   0.098
14676TIP3   OH243970   5.700   6.501   6.640
14676TIP3    H143971   5.741   6.536   6.561
14676TIP3    H243972   5.635   6.568   6.665
14677TIP3   OH243973   5.978   6.827   6.759
14677TIP3    H143974   5.882   6.833   6.758
14677TIP3    H243975   5.996   6.733   6.752
14678TIP3   OH243976   6.181   6.497   6.817
14678TIP3    H143977   6.155   6.411   6.851
14678TIP3    H243978   6.191   6.484   6.723
14679TIP3   OH243979   6.318   7.323   6.442
14679TIP3    H143980   6.284   7.244   6.400
14679TIP3    H243981   6.262   7.335   6.519
14680TIP3   OH243982   6.817   6.623   6.273
14680TIP3    H143983   6.727   6.593   6.282
14680TIP3    H243984   6.812   6.694   6.209
14681TIP3   OH243985   5.742   6.919   6.415
14681TIP3    H143986   5.788   7.001   6.434
14681TIP3    H243987   5.662   6.925   6.466
14682TIP3   OH243988   6.171   7.467   6.001
14682TIP3    H143989   6.171   7.376   5.972
14682TIP3    H243990   6.158   7.462   6.096
14683TIP3   OH243991   6.152   7.480   6.276
14683TIP3    H143992   6.214   7.426   6.325
14683TIP3    H243993   6.169   7.569   6.305
14684TIP3   OH243994   5.845   7.167   6.484
14684TIP3    H143995   5.776   7.209   6.535
14684TIP3    H243996   5.868   7.231   6.417
14685TIP3   OH243997   6.929   6.566   6.518
14685TIP3    H143998   6.892   6.576   6.430
14685TIP3    H243999   6.939   6.656   6.550
14686TIP3   OH244000   6.604   6.858   6.519
14686TIP3    H144001   6.676   6.817   6.566
14686TIP3    H244002   6.528   6.846   6.576
14687TIP3   OH244003   6.794   6.452   6.731
14687TIP3    H144004   6.850   6.470   6.806
14687TIP3    H244005   6.839   6.495   6.658
14688TIP3   OH244006   6.208   6.483   6.530
14688TIP3    H144007   6.212   6.578   6.535
14688TIP3    H244008   6.299   6.454   6.534
14689TIP3   OH244009   5.867   7.363   6.281
14689TIP3    H144010   5.929   7.436   6.281
14689TIP3    H244011   5.905   7.300   6.220
14690TIP3   OH244012   5.762   6.643   6.416
14690TIP3    H144013   5.773   6.738   6.419
14690TIP3    H244014   5.713   6.627   6.335
14691TIP3   OH244015   3.403   2.408   0.426
14691TIP3    H144016   3.349   2.373   0.355
14691TIP3    H244017   3.418   2.334   0.484
14692TIP3   OH244018   5.634   7.591   6.617
14692TIP3    H144019   5.569   7.626   6.678
14692TIP3    H244020   5.627   7.647   6.540
14693TIP3   OH244021   6.328   7.669   5.897
14693TIP3    H144022   6.277   7.599   5.939
14693TIP3    H244023   6.405   7.625   5.861
14694TIP3   OH244024   5.996   7.172   6.138
14694TIP3    H144025   6.054   7.143   6.208
14694TIP3    H244026   6.054   7.183   6.062
14695TIP3   OH244027   6.493   7.360   5.960
14695TIP3    H144028   6.429   7.363   6.031
14695TIP3    H244029   6.509   7.267   5.946
14696TIP3   OH244030   6.197   7.101   6.325
14696TIP3    H144031   6.161   7.074   6.409
14696TIP3    H244032   6.244   7.024   6.293
14697TIP3   OH244033   6.336   6.879   6.212
14697TIP3    H144034   6.252   6.850   6.175
14697TIP3    H244035   6.390   6.900   6.136
14698TIP3   OH244036   5.592   7.345   6.282
14698TIP3    H144037   5.687   7.358   6.281
14698TIP3    H244038   5.579   7.258   6.243
14699TIP3   OH244039   7.084   6.833   6.004
14699TIP3    H144040   7.058   6.877   5.923
14699TIP3    H244041   7.101   6.743   5.978
14700TIP3   OH244042   7.124   6.563   5.955
14700TIP3    H144043   7.189   6.544   6.023
14700TIP3    H244044   7.042   6.525   5.988
14701TIP3   OH244045   3.157   2.513   0.539
14701TIP3    H144046   3.238   2.485   0.584
14701TIP3    H244047   3.187   2.541   0.453
14702TIP3   OH244048   2.901   2.949   0.400
14702TIP3    H144049   2.890   2.921   0.309
14702TIP3    H244050   2.996   2.954   0.412
14703TIP3   OH244051   7.379   6.532   6.086
14703TIP3    H144052   7.443   6.493   6.026
14703TIP3    H244053   7.416   6.618   6.107
14704TIP3   OH244054   5.774   6.326   6.845
14704TIP3    H144055   5.690   6.318   6.890
14704TIP3    H244056   5.765   6.405   6.792
14705TIP3   OH244057   6.055   6.268   6.903
14705TIP3    H144058   5.959   6.270   6.897
14705TIP3    H244059   6.075   6.182   6.940
14706TIP3   OH244060   5.875   6.155   6.651
14706TIP3    H144061   5.913   6.209   6.582
14706TIP3    H244062   5.839   6.217   6.714
14707TIP3   OH244063   6.543   6.394   6.807
14707TIP3    H144064   6.629   6.420   6.775
14707TIP3    H244065   6.554   6.385   6.902
14708TIP3   OH244066   7.106   6.358   6.433
14708TIP3    H144067   7.049   6.427   6.467
14708TIP3    H244068   7.097   6.286   6.495
14709TIP3   OH244069   5.596   7.732   6.387
14709TIP3    H144070   5.510   7.695   6.369
14709TIP3    H244071   5.584   7.827   6.376
14710TIP3   OH244072   6.004   6.305   6.449
14710TIP3    H144073   6.054   6.246   6.392
14710TIP3    H244074   6.070   6.366   6.484
14711TIP3   OH244075   6.482   6.506   6.564
14711TIP3    H144076   6.495   6.466   6.650
14711TIP3    H244077   6.445   6.593   6.583
14712TIP3   OH244078   5.685   7.721   6.117
14712TIP3    H144079   5.677   7.714   6.212
14712TIP3    H244080   5.767   7.676   6.096
14713TIP3   OH244081   5.490   0.254   6.779
14713TIP3    H144082   5.548   0.269   6.854
14713TIP3    H244083   5.526   0.177   6.736
14714TIP3   OH244084   0.521   3.610   0.003
14714TIP3    H144085   0.447   3.628   0.062
14714TIP3    H244086   0.531   3.690  -0.049
14715TIP3   OH244087   5.781   0.316   6.652
14715TIP3    H144088   5.730   0.326   6.571
14715TIP3    H244089   5.815   0.404   6.669
14716TIP3   OH244090   8.285   3.809   0.016
14716TIP3    H144091   8.222   3.837   0.082
14716TIP3    H244092   8.254   3.723  -0.012
14717TIP3   OH244093   2.276   7.792   6.929
14717TIP3    H144094   2.221   7.744   6.991
14717TIP3    H244095   2.215   7.851   6.884
14718TIP3   OH244096   2.877   7.900   6.925
14718TIP3    H144097   2.783   7.887   6.933
14718TIP3    H244098   2.888   7.994   6.910
14719TIP3   OH244099   5.793   0.148   6.885
14719TIP3    H144100   5.877   0.133   6.929
14719TIP3    H244101   5.813   0.208   6.814
14720TIP3   OH244102   6.199   0.250   6.817
14720TIP3    H144103   6.142   0.207   6.753
14720TIP3    H244104   6.201   0.342   6.791
14721TIP3   OH244105   0.138   3.851   0.238
14721TIP3    H144106   0.105   3.858   0.149
14721TIP3    H244107   0.155   3.941   0.265
14722TIP3   OH244108   6.030   0.520   6.515
14722TIP3    H144109   5.985   0.455   6.460
14722TIP3    H244110   6.100   0.553   6.459
14723TIP3   OH244111   6.199   0.513   6.729
14723TIP3    H144112   6.130   0.516   6.662
14723TIP3    H244113   6.197   0.600   6.769
14724TIP3   OH244114   6.040   0.135   6.629
14724TIP3    H144115   5.974   0.163   6.565
14724TIP3    H244116   6.035   0.039   6.628
14725TIP3   OH244117   3.166   7.877   6.619
14725TIP3    H144118   3.232   7.849   6.683
14725TIP3    H244119   3.086   7.831   6.645
14726TIP3   OH244120   0.375   4.104   0.065
14726TIP3    H144121   0.424   4.035   0.111
14726TIP3    H244122   0.442   4.152   0.016
14727TIP3   OH244123   0.522   3.891   0.197
14727TIP3    H144124   0.557   3.883   0.285
14727TIP3    H244125   0.461   3.817   0.189
14728TIP3   OH244126   3.395   7.827   6.772
14728TIP3    H144127   3.443   7.766   6.715
14728TIP3    H244128   3.452   7.905   6.776
14729TIP3   OH244129   0.558   3.819   0.706
14729TIP3    H144130   0.598   3.840   0.622
14729TIP3    H244131   0.465   3.804   0.686
14730TIP3   OH244132   0.665   3.849   0.444
14730TIP3    H144133   0.730   3.785   0.416
14730TIP3    H244134   0.707   3.934   0.427
14731TIP3   OH244135   0.303   3.743   0.634
14731TIP3    H144136   0.291   3.705   0.547
14731TIP3    H244137   0.286   3.671   0.695
14732TIP3   OH244138   0.343   3.679   0.197
14732TIP3    H144139   0.266   3.733   0.214
14732TIP3    H244140   0.325   3.596   0.241
14733TIP3   OH244141   7.758   3.620   0.121
14733TIP3    H144142   7.780   3.541   0.072
14733TIP3    H244143   7.712   3.588   0.199
14734TIP3   OH244144   0.729   4.343   0.055
14734TIP3    H144145   0.684   4.394   0.122
14734TIP3    H244146   0.659   4.307   0.002
14735TIP3   OH244147   1.385   4.147   0.220
14735TIP3    H144148   1.330   4.225   0.210
14735TIP3    H244149   1.342   4.080   0.167
14736TIP3   OH244150   7.672   0.358   6.729
14736TIP3    H144151   7.743   0.342   6.791
14736TIP3    H244152   7.594   0.371   6.784
14737TIP3   OH244153   1.437   4.639   0.044
14737TIP3    H144154   1.516   4.603   0.003
14737TIP3    H244155   1.375   4.567   0.044
14738TIP3   OH244156   1.234   4.467   0.333
14738TIP3    H144157   1.278   4.518   0.400
14738TIP3    H244158   1.212   4.384   0.376
14739TIP3   OH244159   1.628   3.944   0.318
14739TIP3    H144160   1.694   3.901   0.374
14739TIP3    H244161   1.561   3.974   0.380
14740TIP3   OH244162   7.310   0.709   6.626
14740TIP3    H144163   7.219   0.741   6.623
14740TIP3    H244164   7.348   0.739   6.544
14741TIP3   OH244165   7.247   0.456   6.294
14741TIP3    H144166   7.297   0.504   6.360
14741TIP3    H244167   7.313   0.404   6.247
14742TIP3   OH244168   6.921   0.814   6.863
14742TIP3    H144169   6.853   0.748   6.848
14742TIP3    H244170   6.979   0.774   6.927
14743TIP3   OH244171   7.491   0.683   6.384
14743TIP3    H144172   7.493   0.778   6.374
14743TIP3    H244173   7.505   0.649   6.296
14744TIP3   OH244174   5.158   7.887   6.433
14744TIP3    H144175   5.079   7.904   6.484
14744TIP3    H244176   5.164   7.962   6.373
14745TIP3   OH244177   6.756   0.584   6.791
14745TIP3    H144178   6.674   0.622   6.759
14745TIP3    H244179   6.730   0.503   6.833
14746TIP3   OH244180   1.438   4.056   0.478
14746TIP3    H144181   1.418   4.099   0.395
14746TIP3    H244182   1.432   4.126   0.543
14747TIP3   OH244183   7.546   0.612   6.127
14747TIP3    H144184   7.505   0.574   6.049
14747TIP3    H244185   7.564   0.703   6.103
14748TIP3   OH244186   7.250   0.045   6.421
14748TIP3    H144187   7.212   0.050   6.509
14748TIP3    H244188   7.214  -0.035   6.384
14749TIP3   OH244189   1.298   4.393   0.054
14749TIP3    H144190   1.221   4.386   0.110
14749TIP3    H244191   1.270   4.355  -0.030
14750TIP3   OH244192   7.368   0.444   6.639
14750TIP3    H144193   7.347   0.537   6.627
14750TIP3    H244194   7.440   0.427   6.579
14751TIP3   OH244195   6.909   0.028   6.414
14751TIP3    H144196   6.898   0.023   6.509
14751TIP3    H244197   6.831   0.076   6.384
14752TIP3   OH244198   0.836   4.035   0.322
14752TIP3    H144199   0.917   3.997   0.357
14752TIP3    H244200   0.828   3.998   0.234
14753TIP3   OH244201   6.385   0.043   6.785
14753TIP3    H144202   6.437   0.071   6.709
14753TIP3    H244203   6.326   0.116   6.803
14754TIP3   OH244204   1.594   4.208   0.039
14754TIP3    H144205   1.516   4.200   0.093
14754TIP3    H244206   1.666   4.178   0.095
14755TIP3   OH244207   0.993   4.383   0.001
14755TIP3    H144208   0.898   4.371   0.008
14755TIP3    H244209   1.029   4.311   0.053
14756TIP3   OH244210   6.900   0.268   6.751
14756TIP3    H144211   6.992   0.285   6.727
14756TIP3    H244212   6.851   0.291   6.672
14757TIP3   OH244213   6.785   0.310   6.506
14757TIP3    H144214   6.725   0.260   6.450
14757TIP3    H244215   6.852   0.342   6.446
14758TIP3   OH244216   1.203   3.989   0.082
14758TIP3    H144217   1.138   3.924   0.111
14758TIP3    H244218   1.232   3.957  -0.003
14759TIP3   OH244219   7.041   0.787   6.617
14759TIP3    H144220   6.975   0.728   6.582
14759TIP3    H244221   7.011   0.806   6.706
14760TIP3   OH244222   7.497   0.155   6.407
14760TIP3    H144223   7.404   0.134   6.409
14760TIP3    H244224   7.501   0.250   6.408
14761TIP3   OH244225   7.560   0.424   6.446
14761TIP3    H144226   7.651   0.417   6.476
14761TIP3    H244227   7.549   0.517   6.425
14762TIP3   OH244228   7.106   0.970   6.427
14762TIP3    H144229   7.172   1.030   6.461
14762TIP3    H244230   7.086   0.912   6.500
14763TIP3   OH244231   8.081   0.506   6.298
14763TIP3    H144232   8.127   0.422   6.297
14763TIP3    H244233   8.142   0.568   6.259
14764TIP3   OH244234   6.431   0.463   6.579
14764TIP3    H144235   6.485   0.536   6.609
14764TIP3    H244236   6.351   0.470   6.631
14765TIP3   OH244237   7.471   0.935   6.271
14765TIP3    H144238   7.519   0.923   6.189
14765TIP3    H244239   7.379   0.920   6.247
14766TIP3   OH244240   6.851   0.919   6.356
14766TIP3    H144241   6.840   0.929   6.261
14766TIP3    H244242   6.938   0.955   6.374
14767TIP3   OH244243   6.529   0.702   6.687
14767TIP3    H144244   6.492   0.760   6.753
14767TIP3    H244245   6.532   0.755   6.607
14768TIP3   OH244246   7.568   0.101   6.664
14768TIP3    H144247   7.542   0.110   6.572
14768TIP3    H244248   7.610   0.185   6.685
14769TIP3   OH244249   7.171   0.291   6.738
14769TIP3    H144250   7.239   0.346   6.699
14769TIP3    H244251   7.202   0.274   6.826
14770TIP3   OH244252   7.380  -0.015   6.826
14770TIP3    H144253   7.355   0.054   6.888
14770TIP3    H244254   7.449   0.025   6.773
14771TIP3   OH244255   6.881  -0.003   6.696
14771TIP3    H144256   6.868   0.086   6.729
14771TIP3    H244257   6.976  -0.015   6.694
14772TIP3   OH244258   6.502   0.866   6.465
14772TIP3    H144259   6.534   0.952   6.438
14772TIP3    H244260   6.546   0.804   6.406
14773TIP3   OH244261   6.459   0.184   6.563
14773TIP3    H144262   6.476   0.277   6.582
14773TIP3    H244263   6.392   0.186   6.494
14774TIP3   OH244264   1.073   3.938   0.451
14774TIP3    H144265   1.088   3.888   0.371
14774TIP3    H244266   1.139   3.907   0.512
14775TIP3   OH244267   6.656   0.683   6.323
14775TIP3    H144268   6.702   0.665   6.405
14775TIP3    H244269   6.722   0.675   6.255
14776TIP3   OH244270   7.219   0.906   6.183
14776TIP3    H144271   7.164   0.938   6.254
14776TIP3    H244272   7.189   0.817   6.167
14777TIP3   OH244273   6.846   0.617   6.522
14777TIP3    H144274   6.819   0.580   6.606
14777TIP3    H244275   6.885   0.543   6.475
14778TIP3   OH244276   6.969   0.425   6.343
14778TIP3    H144277   6.942   0.423   6.251
14778TIP3    H244278   7.063   0.443   6.341
14779TIP3   OH244279   7.828   0.770   6.002
14779TIP3    H144280   7.779   0.720   5.937
14779TIP3    H244281   7.904   0.805   5.953
14780TIP3   OH244282   6.226   0.808   6.476
14780TIP3    H144283   6.311   0.852   6.473
14780TIP3    H244284   6.242   0.722   6.436
14781TIP3   OH244285   7.871   0.714   6.263
14781TIP3    H144286   7.850   0.732   6.171
14781TIP3    H244287   7.900   0.798   6.297
14782TIP3   OH244288   7.808   0.431   6.152
14782TIP3    H144289   7.765   0.462   6.073
14782TIP3    H244290   7.797   0.335   6.150
14783TIP3   OH244291   7.773   0.164   6.152
14783TIP3    H144292   7.848   0.116   6.186
14783TIP3    H244293   7.702   0.100   6.151
14784TIP3   OH244294   7.855   0.440   6.479
14784TIP3    H144295   7.866   0.348   6.505
14784TIP3    H244296   7.884   0.490   6.555
14785TIP3   OH244297   7.947   0.177   6.613
14785TIP3    H144298   7.977   0.191   6.703
14785TIP3    H244299   7.892   0.099   6.618
14786TIP3   OH244300   0.932   4.133   0.603
14786TIP3    H144301   0.975   4.056   0.566
14786TIP3    H244302   0.931   4.197   0.532
14787TIP3   OH244303   8.023   0.073   6.242
14787TIP3    H144304   8.054   0.004   6.184
14787TIP3    H244305   8.087   0.144   6.230
14788TIP3   OH244306   0.774   3.917   0.076
14788TIP3    H144307   0.685   3.899   0.107
14788TIP3    H244308   0.763   3.971  -0.002
14789TIP3   OH244309   1.796   4.086   0.162
14789TIP3    H144310   1.740   4.056   0.233
14789TIP3    H244311   1.855   4.013   0.145
14790TIP3   OH244312   1.041   3.805   0.201
14790TIP3    H144313   0.957   3.773   0.232
14790TIP3    H244314   1.093   3.727   0.184
14791TIP3   OH244315   3.740   7.729   6.848
14791TIP3    H144316   3.765   7.776   6.769
14791TIP3    H244317   3.707   7.797   6.907
14792TIP3   OH244318   1.503   3.901   0.073
14792TIP3    H144319   1.574   3.888   0.011
14792TIP3    H244320   1.546   3.917   0.157
14793TIP3   OH244321   7.804   0.053   6.880
14793TIP3    H144322   7.872   0.063   6.947
14793TIP3    H244323   7.760  -0.028   6.902
14794TIP3   OH244324   4.949   7.950   6.599
14794TIP3    H144325   4.873   8.001   6.627
14794TIP3    H244326   4.930   7.861   6.628
14795TIP3   OH244327   3.841   7.851   6.608
14795TIP3    H144328   3.888   7.790   6.551
14795TIP3    H244329   3.909   7.907   6.645
14796TIP3   OH244330   7.150   0.028   6.677
14796TIP3    H144331   7.218  -0.014   6.730
14796TIP3    H244332   7.155   0.121   6.699
14797TIP3   OH244333   0.224   0.330   5.858
14797TIP3    H144334   0.212   0.292   5.945
14797TIP3    H244335   0.138   0.364   5.834
14798TIP3   OH244336   8.228   0.278   6.249
14798TIP3    H144337   8.229   0.320   6.163
14798TIP3    H244338   8.321   0.266   6.271
14799TIP3   OH244339   8.242   0.415   6.016
14799TIP3    H144340   8.317   0.412   5.956
14799TIP3    H244341   8.168   0.385   5.963
14800TIP3   OH244342   8.207   0.160   6.499
14800TIP3    H144343   8.123   0.146   6.542
14800TIP3    H244344   8.185   0.203   6.417
14801TIP3   OH244345   5.488   7.974   6.318
14801TIP3    H144346   5.523   8.029   6.248
14801TIP3    H244347   5.454   8.036   6.382
14802TIP3   OH244348   8.464   0.102   6.119
14802TIP3    H144349   8.487   0.032   6.058
14802TIP3    H244350   8.547   0.129   6.156
   8.50000   8.01388   6.94022   0.00000   0.00000  -2.83333   0.00000  -2.83333  -4.00694
