Title t= 237.00000 step= 118500
46055
    1GLY      N    1   3.117   2.984   1.037
    1GLY    HT1    2   3.209   3.030   1.022
    1GLY    HT2    3   3.052   2.998   0.957
    1GLY    HT3    4   3.132   2.881   1.039
    1GLY     CA    5   3.058   3.025   1.166
    1GLY    HA1    6   2.980   2.953   1.190
    1GLY    HA2    7   3.018   3.123   1.145
    1GLY      C    8   3.145   3.029   1.287
    1GLY      O    9   3.247   2.967   1.285
    2PRO      N   10   3.106   3.100   1.390
    2PRO     CD   11   2.980   3.185   1.398
    2PRO    HD1   12   2.890   3.120   1.392
    2PRO    HD2   13   2.969   3.267   1.324
    2PRO     CA   14   3.160   3.079   1.525
    2PRO     HA   15   3.260   3.119   1.528
    2PRO     CB   16   3.060   3.141   1.622
    2PRO    HB1   17   3.103   3.162   1.722
    2PRO    HB2   18   2.977   3.067   1.627
    2PRO     CG   19   2.998   3.253   1.543
    2PRO    HG1   20   2.905   3.293   1.590
    2PRO    HG2   21   3.071   3.336   1.530
    2PRO      C   22   3.203   2.936   1.569
    2PRO      O   23   3.131   2.835   1.557
    3GLY      N   24   3.319   2.929   1.636
    3GLY     HN   25   3.369   3.015   1.643
    3GLY     CA   26   3.375   2.814   1.699
    3GLY    HA1   27   3.477   2.833   1.729
    3GLY    HA2   28   3.351   2.731   1.634
    3GLY      C   29   3.315   2.780   1.832
    3GLY      O   30   3.198   2.807   1.860
    4ALA      N   31   3.387   2.705   1.922
    4ALA     HN   32   3.482   2.678   1.907
    4ALA     CA   33   3.360   2.661   2.061
    4ALA     HA   34   3.275   2.596   2.051
    4ALA     CB   35   3.463   2.583   2.130
    4ALA    HB1   36   3.423   2.562   2.231
    4ALA    HB2   37   3.563   2.632   2.131
    4ALA    HB3   38   3.461   2.485   2.078
    4ALA      C   39   3.323   2.779   2.148
    4ALA      O   40   3.397   2.880   2.147
    5PRO      N   41   3.207   2.787   2.212
    5PRO     CD   42   3.090   2.701   2.177
    5PRO    HD1   43   3.111   2.599   2.216
    5PRO    HD2   44   3.075   2.693   2.068
    5PRO     CA   45   3.170   2.894   2.305
    5PRO     HA   46   3.165   2.984   2.247
    5PRO     CB   47   3.036   2.846   2.360
    5PRO    HB1   48   2.975   2.925   2.408
    5PRO    HB2   49   3.055   2.768   2.438
    5PRO     CG   50   2.969   2.770   2.244
    5PRO    HG1   51   2.893   2.697   2.281
    5PRO    HG2   52   2.917   2.843   2.178
    5PRO      C   53   3.271   2.929   2.408
    5PRO      O   54   3.346   2.840   2.454
    6GLY      N   55   3.278   3.058   2.446
    6GLY     HN   56   3.217   3.124   2.403
    6GLY     CA   57   3.388   3.107   2.535
    6GLY    HA1   58   3.426   3.204   2.506
    6GLY    HA2   59   3.476   3.044   2.529
    6GLY      C   60   3.349   3.123   2.682
    6GLY      O   61   3.255   3.058   2.719
    7PRO      N   62   3.403   3.216   2.768
    7PRO     CD   63   3.527   3.279   2.732
    7PRO    HD1   64   3.505   3.349   2.649
    7PRO    HD2   65   3.600   3.201   2.702
    7PRO     CA   66   3.359   3.251   2.905
    7PRO     HA   67   3.380   3.165   2.966
    7PRO     CB   68   3.436   3.380   2.924
    7PRO    HB1   69   3.447   3.395   3.033
    7PRO    HB2   70   3.400   3.472   2.872
    7PRO     CG   71   3.577   3.351   2.857
    7PRO    HG1   72   3.647   3.433   2.831
    7PRO    HG2   73   3.631   3.277   2.920
    7PRO      C   74   3.209   3.272   2.921
    7PRO      O   75   3.137   3.307   2.825
    8GLY      N   76   3.161   3.251   3.047
    8GLY     HN   77   3.217   3.205   3.116
    8GLY     CA   78   3.025   3.279   3.080
    8GLY    HA1   79   3.002   3.230   3.173
    8GLY    HA2   80   2.957   3.261   2.998
    8GLY      C   81   3.015   3.433   3.113
    8GLY      O   82   3.116   3.504   3.129
    9ALA      N   83   2.895   3.481   3.122
    9ALA     HN   84   2.823   3.414   3.104
    9ALA     CA   85   2.856   3.623   3.156
    9ALA     HA   86   2.946   3.682   3.149
    9ALA     CB   87   2.767   3.667   3.045
    9ALA    HB1   88   2.798   3.633   2.943
    9ALA    HB2   89   2.767   3.778   3.046
    9ALA    HB3   90   2.663   3.633   3.059
    9ALA      C   91   2.803   3.639   3.300
    9ALA      O   92   2.688   3.605   3.317
   10PRO      N   93   2.882   3.694   3.402
   10PRO     CD   94   3.019   3.739   3.378
   10PRO    HD1   95   3.022   3.828   3.311
   10PRO    HD2   96   3.071   3.651   3.334
   10PRO     CA   97   2.838   3.724   3.542
   10PRO     HA   98   2.832   3.625   3.583
   10PRO     CB   99   2.952   3.808   3.601
   10PRO    HB1  100   2.970   3.787   3.709
   10PRO    HB2  101   2.923   3.915   3.591
   10PRO     CG  102   3.076   3.760   3.524
   10PRO    HG1  103   3.154   3.839   3.513
   10PRO    HG2  104   3.120   3.668   3.566
   10PRO      C  105   2.704   3.785   3.562
   10PRO      O  106   2.657   3.867   3.484
   11GLY      N  107   2.632   3.729   3.666
   11GLY     HN  108   2.678   3.648   3.699
   11GLY     CA  109   2.486   3.750   3.676
   11GLY    HA1  110   2.465   3.683   3.758
   11GLY    HA2  111   2.440   3.727   3.581
   11GLY      C  112   2.441   3.881   3.730
   11GLY      O  113   2.525   3.951   3.787
   12PRO      N  114   2.308   3.916   3.726
   12PRO     CD  115   2.203   3.844   3.655
   12PRO    HD1  116   2.189   3.747   3.707
   12PRO    HD2  117   2.232   3.826   3.549
   12PRO     CA  118   2.255   4.040   3.776
   12PRO     HA  119   2.265   4.121   3.705
   12PRO     CB  120   2.103   4.010   3.793
   12PRO    HB1  121   2.046   4.105   3.797
   12PRO    HB2  122   2.081   3.940   3.876
   12PRO     CG  123   2.075   3.925   3.673
   12PRO    HG1  124   1.988   3.859   3.692
   12PRO    HG2  125   2.052   3.995   3.590
   12PRO      C  126   2.317   4.093   3.902
   12PRO      O  127   2.325   4.026   4.010
   13GLY      N  128   2.361   4.216   3.892
   13GLY     HN  129   2.337   4.265   3.809
   13GLY     CA  130   2.425   4.289   4.008
   13GLY    HA1  131   2.481   4.374   3.971
   13GLY    HA2  132   2.483   4.222   4.070
   13GLY      C  133   2.330   4.352   4.105
   13GLY      O  134   2.212   4.323   4.096
   14ALA      N  135   2.386   4.414   4.209
   14ALA     HN  136   2.485   4.429   4.216
   14ALA     CA  137   2.303   4.473   4.312
   14ALA     HA  138   2.201   4.483   4.279
   14ALA     CB  139   2.304   4.374   4.439
   14ALA    HB1  140   2.407   4.343   4.467
   14ALA    HB2  141   2.250   4.281   4.411
   14ALA    HB3  142   2.251   4.420   4.525
   14ALA      C  143   2.359   4.620   4.345
   14ALA      O  144   2.476   4.643   4.312
   15PRO      N  145   2.285   4.710   4.404
   15PRO     CD  146   2.137   4.689   4.414
   15PRO    HD1  147   2.101   4.591   4.452
   15PRO    HD2  148   2.102   4.694   4.309
   15PRO     CA  149   2.317   4.848   4.438
   15PRO     HA  150   2.353   4.910   4.358
   15PRO     CB  151   2.189   4.912   4.485
   15PRO    HB1  152   2.147   4.975   4.404
   15PRO    HB2  153   2.200   4.976   4.575
   15PRO     CG  154   2.084   4.806   4.499
   15PRO    HG1  155   2.075   4.782   4.607
   15PRO    HG2  156   1.979   4.831   4.472
   15PRO      C  157   2.414   4.848   4.555
   15PRO    OT1  158   2.385   4.792   4.665
   15PRO    OT2  159   2.534   4.896   4.550
   16LIT    LIT  160   5.398   4.684   2.492
   17LIT    LIT  161   3.092   6.270   3.616
   18LIT    LIT  162   2.768   2.111   1.359
   19LIT    LIT  163   4.526   5.960   1.381
   20LIT    LIT  164   2.427   5.908   2.265
   21LIT    LIT  165   2.020   4.956   1.631
   22LIT    LIT  166   2.579   0.860   4.789
   23LIT    LIT  167   6.788   4.714   2.960
   24LIT    LIT  168   4.025   4.886   3.977
   25LIT    LIT  169   4.948   0.932   5.872
   26LIT    LIT  170   6.081   3.105   5.245
   27LIT    LIT  171   0.459   4.034   3.656
   28LIT    LIT  172   0.431   6.878   5.161
   29LIT    LIT  173   5.542   0.790   2.493
   30LIT    LIT  174   3.636   5.821   3.174
   31LIT    LIT  175   7.467   2.636   5.089
   32LIT    LIT  176   0.406   3.304   6.506
   33LIT    LIT  177   5.394   6.752   2.620
   34LIT    LIT  178   7.958   5.815   0.918
   35LIT    LIT  179   4.883   7.150   3.788
   36LIT    LIT  180   7.320   6.582   3.466
   37LIT    LIT  181   2.928   6.578   2.563
   38LIT    LIT  182   0.206   4.115   0.761
   39LIT    LIT  183   2.616   1.714   5.263
   40LIT    LIT  184   8.000   6.525   6.665
   41LIT    LIT  185   1.448   1.910   6.059
   42LIT    LIT  186   6.673   3.929   1.081
   43LIT    LIT  187   2.054   7.360   0.468
   44LIT    LIT  188   7.803   0.208   1.386
   45LIT    LIT  189   0.664   7.728   1.396
   46LIT    LIT  190   2.057   4.063   4.525
   47LIT    LIT  191   1.320   0.459   1.698
   48LIT    LIT  192   1.198   7.129   1.925
   49LIT    LIT  193   4.920   7.727   5.130
   50LIT    LIT  194   4.232   5.452   2.817
   51LIT    LIT  195   3.736   7.051   0.925
   52LIT    LIT  196   4.451   7.793   5.469
   53LIT    LIT  197   4.127   7.417   5.286
   54LIT    LIT  198   5.954   1.679   6.480
   55LIT    LIT  199   3.456   0.409   2.981
   56LIT    LIT  200   6.462   5.712   3.345
   57LIT    LIT  201   4.121   4.732   1.730
   58LIT    LIT  202   2.566   4.769   4.685
   59CLA    CLA  203   3.671   5.765   2.512
   60CLA    CLA  204   3.478   5.942   3.061
   61CLA    CLA  205   5.540   7.241   1.897
   62CLA    CLA  206   1.709   7.884   4.355
   63CLA    CLA  207   0.525   6.642   2.575
   64CLA    CLA  208   2.393   6.800   4.798
   65CLA    CLA  209   1.559   2.907   6.563
   66CLA    CLA  210   0.578   6.121   0.022
   67CLA    CLA  211   7.996   4.404   3.526
   68CLA    CLA  212   7.661   6.186   3.118
   69CLA    CLA  213   6.589   6.600   4.643
   70CLA    CLA  214   0.019   3.024   6.487
   71CLA    CLA  215   1.245   2.436   1.884
   72CLA    CLA  216   6.262   5.810   3.376
   73CLA    CLA  217   0.457   6.747   4.979
   74CLA    CLA  218   5.071   7.229   2.411
   75CLA    CLA  219   2.601   3.415   0.342
   76CLA    CLA  220   1.540   3.055   0.401
   77CLA    CLA  221   2.658   1.697   5.756
   78CLA    CLA  222   7.446   0.715   5.539
   79CLA    CLA  223   6.592   4.995   1.332
   80CLA    CLA  224   7.035   6.362   0.470
   81CLA    CLA  225   2.939   1.187   0.966
   82CLA    CLA  226   4.470   4.773   2.855
   83CLA    CLA  227   7.788   5.863   5.355
   84CLA    CLA  228   0.422   6.148   1.426
   85CLA    CLA  229   0.604   6.357   2.023
   86CLA    CLA  230   7.744   2.817   6.524
   87CLA    CLA  231   8.306   0.923   6.605
   88CLA    CLA  232   5.706   4.524   2.138
   89CLA    CLA  233   2.198   2.439   1.682
   90CLA    CLA  234   3.983   5.899   0.703
   91CLA    CLA  235   5.222   7.352   0.512
   92CLA    CLA  236   5.247   5.026   1.359
   93CLA    CLA  237   2.882   0.961   4.932
   94CLA    CLA  238   5.242   6.402   3.776
   95CLA    CLA  239   3.346   1.212   1.382
   96CLA    CLA  240   6.419   1.613   4.180
   97CLA    CLA  241   2.145   1.600   4.910
   98CLA    CLA  242   7.262   2.435   5.869
   99CLA    CLA  243   1.852   5.652   2.824
  100CLA    CLA  244   5.385   0.432   5.251
  101CLA    CLA  245   1.766   0.487   2.721
  102TIP3   OH2  246   2.891   3.423   0.172
  102TIP3    H1  247   2.861   3.356   0.111
  102TIP3    H2  248   2.817   3.436   0.231
  103TIP3   OH2  249   0.581   4.363   5.373
  103TIP3    H1  250   0.568   4.276   5.410
  103TIP3    H2  251   0.676   4.377   5.374
  104TIP3   OH2  252   3.118   0.873   3.500
  104TIP3    H1  253   3.035   0.866   3.454
  104TIP3    H2  254   3.124   0.792   3.550
  105TIP3   OH2  255   2.534   4.470   5.662
  105TIP3    H1  256   2.537   4.420   5.744
  105TIP3    H2  257   2.470   4.539   5.679
  106TIP3   OH2  258   5.412  -0.001   1.106
  106TIP3    H1  259   5.405   0.083   1.153
  106TIP3    H2  260   5.322  -0.025   1.087
  107TIP3   OH2  261   3.029   2.727   0.059
  107TIP3    H1  262   3.077   2.698  -0.019
  107TIP3    H2  263   3.086   2.702   0.132
  108TIP3   OH2  264   1.227   1.691   5.667
  108TIP3    H1  265   1.178   1.659   5.743
  108TIP3    H2  266   1.284   1.618   5.644
  109TIP3   OH2  267   6.395   5.507   3.706
  109TIP3    H1  268   6.316   5.554   3.732
  109TIP3    H2  269   6.397   5.514   3.611
  110TIP3   OH2  270   4.069   2.606   2.524
  110TIP3    H1  271   4.021   2.592   2.442
  110TIP3    H2  272   4.018   2.561   2.590
  111TIP3   OH2  273   2.625   0.946   6.109
  111TIP3    H1  274   2.670   0.867   6.079
  111TIP3    H2  275   2.673   0.974   6.187
  112TIP3   OH2  276   3.089   6.886   1.122
  112TIP3    H1  277   3.106   6.973   1.159
  112TIP3    H2  278   3.055   6.904   1.034
  113TIP3   OH2  279   7.137   3.768   5.855
  113TIP3    H1  280   7.060   3.801   5.807
  113TIP3    H2  281   7.205   3.761   5.788
  114TIP3   OH2  282   3.112   2.330   2.226
  114TIP3    H1  283   3.022   2.338   2.195
  114TIP3    H2  284   3.106   2.342   2.320
  115TIP3   OH2  285   2.047   5.301   0.407
  115TIP3    H1  286   2.026   5.376   0.463
  115TIP3    H2  287   1.968   5.248   0.407
  116TIP3   OH2  288   1.240   1.042   6.038
  116TIP3    H1  289   1.279   1.026   6.123
  116TIP3    H2  290   1.147   1.056   6.056
  117TIP3   OH2  291   1.883   0.104   1.393
  117TIP3    H1  292   1.976   0.113   1.413
  117TIP3    H2  293   1.842   0.079   1.476
  118TIP3   OH2  294   2.799   5.212   1.201
  118TIP3    H1  295   2.734   5.142   1.208
  118TIP3    H2  296   2.747   5.292   1.205
  119TIP3   OH2  297   6.053   5.040   6.201
  119TIP3    H1  298   6.083   4.981   6.270
  119TIP3    H2  299   6.099   5.122   6.217
  120TIP3   OH2  300   7.397   1.724   2.003
  120TIP3    H1  301   7.464   1.675   2.052
  120TIP3    H2  302   7.314   1.688   2.033
  121TIP3   OH2  303   1.249   7.374   5.255
  121TIP3    H1  304   1.270   7.426   5.178
  121TIP3    H2  305   1.249   7.284   5.223
  122TIP3   OH2  306   1.972   2.697   3.974
  122TIP3    H1  307   2.013   2.616   4.005
  122TIP3    H2  308   1.985   2.760   4.045
  123TIP3   OH2  309   6.347   6.127   2.545
  123TIP3    H1  310   6.293   6.140   2.467
  123TIP3    H2  311   6.287   6.139   2.618
  124TIP3   OH2  312   5.896   5.105   3.225
  124TIP3    H1  313   5.912   5.096   3.319
  124TIP3    H2  314   5.946   5.183   3.199
  125TIP3   OH2  315   2.313   4.941   6.567
  125TIP3    H1  316   2.311   5.033   6.595
  125TIP3    H2  317   2.321   4.892   6.649
  126TIP3   OH2  318   2.331   3.600   0.537
  126TIP3    H1  319   2.240   3.628   0.528
  126TIP3    H2  320   2.362   3.586   0.448
  127TIP3   OH2  321   6.081   6.628   4.817
  127TIP3    H1  322   6.140   6.615   4.891
  127TIP3    H2  323   5.994   6.607   4.852
  128TIP3   OH2  324   7.882   2.646   3.063
  128TIP3    H1  325   7.926   2.639   3.148
  128TIP3    H2  326   7.944   2.607   3.001
  129TIP3   OH2  327   5.130   7.748   1.537
  129TIP3    H1  328   5.216   7.733   1.577
  129TIP3    H2  329   5.140   7.717   1.446
  130TIP3   OH2  330   6.935   5.899   0.115
  130TIP3    H1  331   6.904   5.855   0.194
  130TIP3    H2  332   7.027   5.876   0.109
  131TIP3   OH2  333   5.201   2.961   5.483
  131TIP3    H1  334   5.210   3.036   5.541
  131TIP3    H2  335   5.129   2.984   5.424
  132TIP3   OH2  336   0.702   1.008   5.880
  132TIP3    H1  337   0.761   1.079   5.855
  132TIP3    H2  338   0.654   1.042   5.955
  133TIP3   OH2  339   3.019   7.732   4.495
  133TIP3    H1  340   2.995   7.818   4.462
  133TIP3    H2  341   3.109   7.743   4.527
  134TIP3   OH2  342   0.250   5.459   1.009
  134TIP3    H1  343   0.297   5.419   1.082
  134TIP3    H2  344   0.160   5.428   1.019
  135TIP3   OH2  345   7.389   6.879   5.414
  135TIP3    H1  346   7.463   6.878   5.355
  135TIP3    H2  347   7.375   6.972   5.434
  136TIP3   OH2  348   7.022   2.715   2.288
  136TIP3    H1  349   7.051   2.805   2.281
  136TIP3    H2  350   6.958   2.716   2.359
  137TIP3   OH2  351   7.672   4.051   3.442
  137TIP3    H1  352   7.759   4.082   3.466
  137TIP3    H2  353   7.618   4.130   3.441
  138TIP3   OH2  354   0.107   4.792   0.362
  138TIP3    H1  355   0.012   4.792   0.363
  138TIP3    H2  356   0.132   4.878   0.329
  139TIP3   OH2  357   3.658   4.174   2.092
  139TIP3    H1  358   3.615   4.260   2.088
  139TIP3    H2  359   3.674   4.160   2.185
  140TIP3   OH2  360   5.979   0.976   3.585
  140TIP3    H1  361   5.953   1.058   3.626
  140TIP3    H2  362   5.991   0.915   3.658
  141TIP3   OH2  363   7.322   7.800   0.823
  141TIP3    H1  364   7.415   7.814   0.808
  141TIP3    H2  365   7.318   7.721   0.878
  142TIP3   OH2  366   1.378   7.337   2.931
  142TIP3    H1  367   1.313   7.267   2.941
  142TIP3    H2  368   1.398   7.338   2.838
  143TIP3   OH2  369   5.020   1.399   5.503
  143TIP3    H1  370   4.988   1.345   5.431
  143TIP3    H2  371   4.954   1.389   5.572
  144TIP3   OH2  372   4.307   4.390   0.359
  144TIP3    H1  373   4.314   4.482   0.334
  144TIP3    H2  374   4.270   4.392   0.447
  145TIP3   OH2  375   2.548   6.095   4.193
  145TIP3    H1  376   2.497   6.017   4.172
  145TIP3    H2  377   2.543   6.150   4.115
  146TIP3   OH2  378   0.302   5.750   3.090
  146TIP3    H1  379   0.368   5.787   3.149
  146TIP3    H2  380   0.344   5.750   3.005
  147TIP3   OH2  381   4.888   3.285   1.191
  147TIP3    H1  382   4.968   3.335   1.173
  147TIP3    H2  383   4.900   3.253   1.281
  148TIP3   OH2  384   6.476   4.975   4.510
  148TIP3    H1  385   6.440   5.062   4.530
  148TIP3    H2  386   6.436   4.917   4.575
  149TIP3   OH2  387   4.736   4.142   3.336
  149TIP3    H1  388   4.657   4.088   3.328
  149TIP3    H2  389   4.801   4.084   3.375
  150TIP3   OH2  390   6.934   4.829   3.366
  150TIP3    H1  391   6.844   4.860   3.357
  150TIP3    H2  392   6.970   4.881   3.437
  151TIP3   OH2  393   3.555   4.766   1.125
  151TIP3    H1  394   3.600   4.682   1.133
  151TIP3    H2  395   3.623   4.828   1.096
  152TIP3   OH2  396   8.041   4.874   1.785
  152TIP3    H1  397   8.001   4.922   1.857
  152TIP3    H2  398   8.126   4.845   1.819
  153TIP3   OH2  399   5.927   3.170   0.823
  153TIP3    H1  400   5.850   3.226   0.832
  153TIP3    H2  401   5.896   3.096   0.771
  154TIP3   OH2  402   5.689   1.976   4.979
  154TIP3    H1  403   5.669   1.959   4.887
  154TIP3    H2  404   5.720   1.892   5.012
  155TIP3   OH2  405   1.088   2.584   4.665
  155TIP3    H1  406   1.136   2.531   4.602
  155TIP3    H2  407   0.999   2.548   4.664
  156TIP3   OH2  408   6.944   5.589   3.452
  156TIP3    H1  409   6.975   5.573   3.542
  156TIP3    H2  410   6.955   5.684   3.440
  157TIP3   OH2  411   5.569   7.583   1.791
  157TIP3    H1  412   5.558   7.657   1.850
  157TIP3    H2  413   5.592   7.510   1.848
  158TIP3   OH2  414   0.253   3.214   2.968
  158TIP3    H1  415   0.224   3.124   2.962
  158TIP3    H2  416   0.195   3.263   2.909
  159TIP3   OH2  417   4.979   7.501   3.939
  159TIP3    H1  418   4.977   7.441   3.864
  159TIP3    H2  419   5.056   7.556   3.924
  160TIP3   OH2  420   1.187   1.804   4.259
  160TIP3    H1  421   1.206   1.888   4.217
  160TIP3    H2  422   1.170   1.744   4.186
  161TIP3   OH2  423   3.019   4.679   2.686
  161TIP3    H1  424   2.930   4.648   2.669
  161TIP3    H2  425   3.010   4.773   2.698
  162TIP3   OH2  426   3.001   1.616   3.876
  162TIP3    H1  427   3.027   1.533   3.917
  162TIP3    H2  428   3.014   1.682   3.944
  163TIP3   OH2  429   4.596   5.030   0.136
  163TIP3    H1  430   4.668   5.001   0.081
  163TIP3    H2  431   4.632   5.104   0.186
  164TIP3   OH2  432   6.083   1.590   6.591
  164TIP3    H1  433   6.099   1.631   6.676
  164TIP3    H2  434   6.111   1.500   6.603
  165TIP3   OH2  435   0.661   2.300   2.694
  165TIP3    H1  436   0.621   2.364   2.753
  165TIP3    H2  437   0.699   2.352   2.623
  166TIP3   OH2  438   5.871   4.875   6.852
  166TIP3    H1  439   5.881   4.967   6.830
  166TIP3    H2  440   5.934   4.829   6.796
  167TIP3   OH2  441   6.045   3.852   2.950
  167TIP3    H1  442   6.050   3.840   2.855
  167TIP3    H2  443   6.087   3.937   2.966
  168TIP3   OH2  444   4.450   3.303   1.733
  168TIP3    H1  445   4.394   3.307   1.656
  168TIP3    H2  446   4.426   3.380   1.785
  169TIP3   OH2  447   0.983   5.304   3.312
  169TIP3    H1  448   0.987   5.215   3.278
  169TIP3    H2  449   0.964   5.294   3.405
  170TIP3   OH2  450   4.541   1.888   3.840
  170TIP3    H1  451   4.633   1.906   3.824
  170TIP3    H2  452   4.495   1.969   3.819
  171TIP3   OH2  453   7.249   5.704   4.033
  171TIP3    H1  454   7.238   5.630   4.093
  171TIP3    H2  455   7.164   5.748   4.033
  172TIP3   OH2  456   7.831   3.215   1.638
  172TIP3    H1  457   7.908   3.191   1.688
  172TIP3    H2  458   7.833   3.158   1.561
  173TIP3   OH2  459   3.978   0.793   4.200
  173TIP3    H1  460   3.892   0.835   4.194
  173TIP3    H2  461   4.039   0.856   4.160
  174TIP3   OH2  462   5.404   7.068   0.151
  174TIP3    H1  463   5.312   7.055   0.129
  174TIP3    H2  464   5.407   7.155   0.191
  175TIP3   OH2  465   7.506   1.080   0.864
  175TIP3    H1  466   7.598   1.054   0.868
  175TIP3    H2  467   7.505   1.154   0.803
  176TIP3   OH2  468   0.500   2.120   0.748
  176TIP3    H1  469   0.564   2.179   0.788
  176TIP3    H2  470   0.514   2.130   0.654
  177TIP3   OH2  471   3.101   0.002   2.857
  177TIP3    H1  472   3.040  -0.007   2.931
  177TIP3    H2  473   3.187   0.011   2.898
  178TIP3   OH2  474   6.018   0.156   4.438
  178TIP3    H1  475   6.076   0.115   4.373
  178TIP3    H2  476   6.077   0.198   4.500
  179TIP3   OH2  477   6.566   1.729   1.294
  179TIP3    H1  478   6.471   1.739   1.286
  179TIP3    H2  479   6.583   1.640   1.264
  180TIP3   OH2  480   4.244   5.033   0.727
  180TIP3    H1  481   4.282   5.014   0.813
  180TIP3    H2  482   4.286   4.970   0.668
  181TIP3   OH2  483   7.057   3.627   5.117
  181TIP3    H1  484   7.143   3.601   5.085
  181TIP3    H2  485   7.025   3.551   5.165
  182TIP3   OH2  486   7.771   4.570   4.546
  182TIP3    H1  487   7.816   4.586   4.464
  182TIP3    H2  488   7.837   4.587   4.614
  183TIP3   OH2  489   0.360   6.902   2.452
  183TIP3    H1  490   0.399   6.825   2.492
  183TIP3    H2  491   0.372   6.888   2.358
  184TIP3   OH2  492   7.640   2.121   0.323
  184TIP3    H1  493   7.722   2.162   0.349
  184TIP3    H2  494   7.614   2.168   0.243
  185TIP3   OH2  495   2.504   0.510   5.052
  185TIP3    H1  496   2.430   0.503   4.992
  185TIP3    H2  497   2.474   0.469   5.133
  186TIP3   OH2  498   2.040   2.739   1.977
  186TIP3    H1  499   2.059   2.723   1.884
  186TIP3    H2  500   1.944   2.735   1.982
  187TIP3   OH2  501   4.894   3.841   2.054
  187TIP3    H1  502   4.881   3.897   1.977
  187TIP3    H2  503   4.842   3.762   2.035
  188TIP3   OH2  504   1.683   7.855   0.562
  188TIP3    H1  505   1.678   7.946   0.590
  188TIP3    H2  506   1.675   7.804   0.643
  189TIP3   OH2  507   3.840   3.042   3.089
  189TIP3    H1  508   3.817   3.018   3.178
  189TIP3    H2  509   3.835   2.960   3.040
  190TIP3   OH2  510   1.992   1.778   4.199
  190TIP3    H1  511   2.054   1.801   4.129
  190TIP3    H2  512   2.028   1.697   4.236
  191TIP3   OH2  513   1.761   3.610   4.279
  191TIP3    H1  514   1.778   3.519   4.253
  191TIP3    H2  515   1.843   3.656   4.259
  192TIP3   OH2  516   2.429   3.229   3.898
  192TIP3    H1  517   2.376   3.150   3.896
  192TIP3    H2  518   2.514   3.201   3.931
  193TIP3   OH2  519   6.001   0.755   3.796
  193TIP3    H1  520   5.920   0.794   3.829
  193TIP3    H2  521   6.043   0.719   3.875
  194TIP3   OH2  522   1.044   2.605   1.705
  194TIP3    H1  523   1.114   2.670   1.701
  194TIP3    H2  524   1.084   2.531   1.751
  195TIP3   OH2  525   1.494   5.472   3.154
  195TIP3    H1  526   1.442   5.488   3.232
  195TIP3    H2  527   1.473   5.545   3.096
  196TIP3   OH2  528   4.939   5.775   0.093
  196TIP3    H1  529   4.860   5.784   0.147
  196TIP3    H2  530   4.982   5.860   0.099
  197TIP3   OH2  531   2.700   2.478   2.771
  197TIP3    H1  532   2.629   2.420   2.743
  197TIP3    H2  533   2.748   2.499   2.691
  198TIP3   OH2  534   5.280   3.019   0.464
  198TIP3    H1  535   5.263   3.025   0.558
  198TIP3    H2  536   5.249   3.102   0.428
  199TIP3   OH2  537   2.820   5.709   5.239
  199TIP3    H1  538   2.840   5.658   5.161
  199TIP3    H2  539   2.849   5.653   5.312
  200TIP3   OH2  540   0.371   7.064   2.952
  200TIP3    H1  541   0.427   7.000   2.997
  200TIP3    H2  542   0.429   7.109   2.891
  201TIP3   OH2  543   2.590   7.889   2.734
  201TIP3    H1  544   2.604   7.900   2.828
  201TIP3    H2  545   2.568   7.796   2.724
  202TIP3   OH2  546   6.199   7.644   5.174
  202TIP3    H1  547   6.274   7.690   5.211
  202TIP3    H2  548   6.233   7.559   5.148
  203TIP3   OH2  549   7.180   0.397   2.436
  203TIP3    H1  550   7.115   0.462   2.463
  203TIP3    H2  551   7.264   0.440   2.448
  204TIP3   OH2  552   3.322   1.337   4.437
  204TIP3    H1  553   3.277   1.308   4.516
  204TIP3    H2  554   3.411   1.302   4.446
  205TIP3   OH2  555   6.852   4.001   5.981
  205TIP3    H1  556   6.864   3.914   5.945
  205TIP3    H2  557   6.903   4.058   5.923
  206TIP3   OH2  558   0.213   2.328   4.411
  206TIP3    H1  559   0.215   2.368   4.498
  206TIP3    H2  560   0.262   2.247   4.421
  207TIP3   OH2  561   3.337   0.696   2.686
  207TIP3    H1  562   3.334   0.737   2.772
  207TIP3    H2  563   3.324   0.603   2.703
  208TIP3   OH2  564   7.815   0.725   1.513
  208TIP3    H1  565   7.886   0.786   1.493
  208TIP3    H2  566   7.818   0.660   1.443
  209TIP3   OH2  567   3.728   2.838   0.183
  209TIP3    H1  568   3.767   2.767   0.233
  209TIP3    H2  569   3.729   2.808   0.092
  210TIP3   OH2  570   1.871   5.742   6.369
  210TIP3    H1  571   1.837   5.677   6.307
  210TIP3    H2  572   1.799   5.758   6.429
  211TIP3   OH2  573   4.683   6.652   2.765
  211TIP3    H1  574   4.643   6.652   2.852
  211TIP3    H2  575   4.690   6.744   2.742
  212TIP3   OH2  576   8.275   2.519   6.603
  212TIP3    H1  577   8.262   2.589   6.539
  212TIP3    H2  578   8.190   2.511   6.646
  213TIP3   OH2  579   5.105   1.004   0.188
  213TIP3    H1  580   5.141   0.967   0.107
  213TIP3    H2  581   5.011   0.989   0.182
  214TIP3   OH2  582   2.751   5.552   4.918
  214TIP3    H1  583   2.682   5.597   4.967
  214TIP3    H2  584   2.804   5.623   4.882
  215TIP3   OH2  585   1.029   5.418   3.960
  215TIP3    H1  586   0.963   5.425   3.891
  215TIP3    H2  587   1.095   5.358   3.925
  216TIP3   OH2  588   4.865   6.841   4.447
  216TIP3    H1  589   4.886   6.755   4.483
  216TIP3    H2  590   4.797   6.875   4.505
  217TIP3   OH2  591   3.141   5.586   2.068
  217TIP3    H1  592   3.134   5.492   2.050
  217TIP3    H2  593   3.202   5.592   2.141
  218TIP3   OH2  594   0.872   5.103   6.451
  218TIP3    H1  595   0.833   5.184   6.484
  218TIP3    H2  596   0.798   5.047   6.429
  219TIP3   OH2  597   5.129   3.113   4.263
  219TIP3    H1  598   5.188   3.184   4.290
  219TIP3    H2  599   5.188   3.047   4.226
  220TIP3   OH2  600   7.762   0.631   5.051
  220TIP3    H1  601   7.734   0.656   5.139
  220TIP3    H2  602   7.791   0.540   5.059
  221TIP3   OH2  603   0.164   2.104   0.752
  221TIP3    H1  604   0.159   2.061   0.837
  221TIP3    H2  605   0.142   2.036   0.689
  222TIP3   OH2  606   6.809   3.331   2.955
  222TIP3    H1  607   6.748   3.400   2.930
  222TIP3    H2  608   6.869   3.373   3.016
  223TIP3   OH2  609   7.366   6.459   0.406
  223TIP3    H1  610   7.359   6.553   0.391
  223TIP3    H2  611   7.288   6.438   0.457
  224TIP3   OH2  612   7.939   4.888   1.113
  224TIP3    H1  613   8.014   4.912   1.167
  224TIP3    H2  614   7.870   4.948   1.140
  225TIP3   OH2  615   3.340   1.303   5.115
  225TIP3    H1  616   3.259   1.276   5.072
  225TIP3    H2  617   3.316   1.379   5.168
  226TIP3   OH2  618   2.314   6.736   3.606
  226TIP3    H1  619   2.259   6.811   3.584
  226TIP3    H2  620   2.315   6.683   3.526
  227TIP3   OH2  621   6.114   6.179   1.847
  227TIP3    H1  622   6.131   6.087   1.829
  227TIP3    H2  623   6.148   6.225   1.771
  228TIP3   OH2  624   0.484   6.647   2.080
  228TIP3    H1  625   0.487   6.692   1.996
  228TIP3    H2  626   0.497   6.555   2.059
  229TIP3   OH2  627   2.648   6.062   0.173
  229TIP3    H1  628   2.555   6.040   0.163
  229TIP3    H2  629   2.650   6.157   0.181
  230TIP3   OH2  630   4.396   4.232   1.985
  230TIP3    H1  631   4.396   4.143   2.019
  230TIP3    H2  632   4.456   4.230   1.911
  231TIP3   OH2  633   7.115   2.185   4.953
  231TIP3    H1  634   7.160   2.164   4.871
  231TIP3    H2  635   7.168   2.142   5.021
  232TIP3   OH2  636   8.275   7.581   5.588
  232TIP3    H1  637   8.240   7.664   5.556
  232TIP3    H2  638   8.358   7.604   5.630
  233TIP3   OH2  639   6.604   7.247   1.312
  233TIP3    H1  640   6.668   7.314   1.335
  233TIP3    H2  641   6.540   7.249   1.383
  234TIP3   OH2  642   8.347   6.662   3.567
  234TIP3    H1  643   8.412   6.675   3.499
  234TIP3    H2  644   8.279   6.609   3.526
  235TIP3   OH2  645   7.006   0.373   2.186
  235TIP3    H1  646   6.980   0.283   2.171
  235TIP3    H2  647   7.081   0.367   2.245
  236TIP3   OH2  648   5.530   3.323   2.342
  236TIP3    H1  649   5.575   3.376   2.407
  236TIP3    H2  650   5.568   3.235   2.352
  237TIP3   OH2  651   3.512   0.192   3.782
  237TIP3    H1  652   3.527   0.101   3.757
  237TIP3    H2  653   3.512   0.241   3.700
  238TIP3   OH2  654   7.908   4.122   6.652
  238TIP3    H1  655   7.814   4.105   6.657
  238TIP3    H2  656   7.929   4.120   6.559
  239TIP3   OH2  657   2.658   7.853   3.554
  239TIP3    H1  658   2.606   7.776   3.577
  239TIP3    H2  659   2.668   7.849   3.459
  240TIP3   OH2  660   6.560   5.860   0.256
  240TIP3    H1  661   6.553   5.953   0.235
  240TIP3    H2  662   6.502   5.847   0.331
  241TIP3   OH2  663   1.634   6.964   1.113
  241TIP3    H1  664   1.705   6.931   1.058
  241TIP3    H2  665   1.674   6.977   1.199
  242TIP3   OH2  666   6.209   5.726   1.557
  242TIP3    H1  667   6.170   5.675   1.628
  242TIP3    H2  668   6.201   5.670   1.480
  243TIP3   OH2  669   0.282   4.125   6.402
  243TIP3    H1  670   0.263   4.081   6.485
  243TIP3    H2  671   0.260   4.217   6.419
  244TIP3   OH2  672   4.415   5.661   0.477
  244TIP3    H1  673   4.349   5.605   0.435
  244TIP3    H2  674   4.366   5.735   0.512
  245TIP3   OH2  675   0.688   2.803   5.185
  245TIP3    H1  676   0.770   2.808   5.233
  245TIP3    H2  677   0.631   2.868   5.226
  246TIP3   OH2  678   5.891   3.788   0.326
  246TIP3    H1  679   5.900   3.693   0.318
  246TIP3    H2  680   5.955   3.813   0.393
  247TIP3   OH2  681   4.708   3.588   0.821
  247TIP3    H1  682   4.794   3.550   0.836
  247TIP3    H2  683   4.725   3.673   0.781
  248TIP3   OH2  684   2.571   5.351   1.997
  248TIP3    H1  685   2.651   5.306   1.972
  248TIP3    H2  686   2.536   5.300   2.070
  249TIP3   OH2  687   5.189   0.723   3.796
  249TIP3    H1  688   5.275   0.716   3.837
  249TIP3    H2  689   5.133   0.663   3.846
  250TIP3   OH2  690   6.846   5.928   5.488
  250TIP3    H1  691   6.916   5.932   5.554
  250TIP3    H2  692   6.878   5.982   5.416
  251TIP3   OH2  693   4.264   4.626   3.910
  251TIP3    H1  694   4.253   4.533   3.930
  251TIP3    H2  695   4.359   4.639   3.911
  252TIP3   OH2  696   5.196   5.034   5.267
  252TIP3    H1  697   5.150   5.012   5.348
  252TIP3    H2  698   5.135   5.010   5.197
  253TIP3   OH2  699   4.260   0.250   0.404
  253TIP3    H1  700   4.320   0.221   0.335
  253TIP3    H2  701   4.311   0.248   0.484
  254TIP3   OH2  702   6.769   4.689   4.817
  254TIP3    H1  703   6.801   4.697   4.907
  254TIP3    H2  704   6.818   4.614   4.781
  255TIP3   OH2  705   4.400   1.997   2.707
  255TIP3    H1  706   4.342   1.978   2.633
  255TIP3    H2  707   4.357   2.069   2.753
  256TIP3   OH2  708   1.775   6.375   6.167
  256TIP3    H1  709   1.801   6.285   6.182
  256TIP3    H2  710   1.762   6.412   6.254
  257TIP3   OH2  711   8.422   0.941   6.270
  257TIP3    H1  712   8.415   0.957   6.364
  257TIP3    H2  713   8.336   0.910   6.244
  258TIP3   OH2  714   6.618   3.769   3.743
  258TIP3    H1  715   6.622   3.855   3.784
  258TIP3    H2  716   6.526   3.755   3.725
  259TIP3   OH2  717   5.710   5.322   4.701
  259TIP3    H1  718   5.760   5.259   4.752
  259TIP3    H2  719   5.714   5.403   4.752
  260TIP3   OH2  720   4.912   7.573   2.591
  260TIP3    H1  721   4.928   7.643   2.654
  260TIP3    H2  722   4.847   7.517   2.634
  261TIP3   OH2  723   3.232   0.749   4.826
  261TIP3    H1  724   3.235   0.784   4.915
  261TIP3    H2  725   3.306   0.688   4.821
  262TIP3   OH2  726   6.064   1.093   5.164
  262TIP3    H1  727   5.996   1.075   5.099
  262TIP3    H2  728   6.136   1.131   5.115
  263TIP3   OH2  729   3.722   5.824   3.563
  263TIP3    H1  730   3.760   5.809   3.649
  263TIP3    H2  731   3.638   5.867   3.582
  264TIP3   OH2  732   2.583   3.215   0.758
  264TIP3    H1  733   2.615   3.139   0.807
  264TIP3    H2  734   2.661   3.250   0.715
  265TIP3   OH2  735   2.897   4.454   2.212
  265TIP3    H1  736   2.904   4.392   2.140
  265TIP3    H2  737   2.810   4.492   2.202
  266TIP3   OH2  738   0.242   1.678   0.770
  266TIP3    H1  739   0.284   1.759   0.741
  266TIP3    H2  740   0.301   1.609   0.740
  267TIP3   OH2  741   2.865   2.252   2.156
  267TIP3    H1  742   2.773   2.256   2.181
  267TIP3    H2  743   2.880   2.160   2.134
  268TIP3   OH2  744   5.114   0.971   4.158
  268TIP3    H1  745   5.178   1.041   4.155
  268TIP3    H2  746   5.043   1.005   4.213
  269TIP3   OH2  747   7.305   0.161   0.344
  269TIP3    H1  748   7.378   0.181   0.286
  269TIP3    H2  749   7.317   0.069   0.367
  270TIP3   OH2  750   0.113   7.292   5.623
  270TIP3    H1  751   0.092   7.314   5.532
  270TIP3    H2  752   0.151   7.373   5.658
  271TIP3   OH2  753   0.922   7.773   3.575
  271TIP3    H1  754   0.953   7.725   3.651
  271TIP3    H2  755   0.827   7.757   3.573
  272TIP3   OH2  756   4.278   5.629   1.587
  272TIP3    H1  757   4.245   5.659   1.672
  272TIP3    H2  758   4.362   5.589   1.607
  273TIP3   OH2  759   4.148   7.013   2.030
  273TIP3    H1  760   4.101   6.930   2.025
  273TIP3    H2  761   4.116   7.054   2.110
  274TIP3   OH2  762   1.150   0.070   0.024
  274TIP3    H1  763   1.213   0.020  -0.028
  274TIP3    H2  764   1.124   0.010   0.094
  275TIP3   OH2  765   0.703   6.976   1.597
  275TIP3    H1  766   0.797   6.960   1.609
  275TIP3    H2  767   0.664   6.889   1.600
  276TIP3   OH2  768   5.961   0.620   3.012
  276TIP3    H1  769   5.902   0.606   3.086
  276TIP3    H2  770   6.018   0.543   3.012
  277TIP3   OH2  771   1.123   5.842   2.670
  277TIP3    H1  772   1.119   5.746   2.676
  277TIP3    H2  773   1.041   5.866   2.626
  278TIP3   OH2  774   6.943   4.512   4.685
  278TIP3    H1  775   6.912   4.473   4.603
  278TIP3    H2  776   7.016   4.568   4.658
  279TIP3   OH2  777   2.835   6.614   6.159
  279TIP3    H1  778   2.799   6.528   6.140
  279TIP3    H2  779   2.760   6.673   6.160
  280TIP3   OH2  780   7.508   3.829   3.420
  280TIP3    H1  781   7.553   3.759   3.373
  280TIP3    H2  782   7.572   3.900   3.426
  281TIP3   OH2  783   0.734   3.577   2.140
  281TIP3    H1  784   0.748   3.524   2.219
  281TIP3    H2  785   0.791   3.537   2.074
  282TIP3   OH2  786   5.940   2.586   6.456
  282TIP3    H1  787   5.972   2.611   6.542
  282TIP3    H2  788   6.017   2.592   6.399
  283TIP3   OH2  789   0.607   5.714   4.999
  283TIP3    H1  790   0.685   5.703   4.944
  283TIP3    H2  791   0.534   5.719   4.937
  284TIP3   OH2  792   5.555   6.612   4.293
  284TIP3    H1  793   5.462   6.588   4.300
  284TIP3    H2  794   5.570   6.674   4.363
  285TIP3   OH2  795   1.173   5.674   5.443
  285TIP3    H1  796   1.264   5.699   5.429
  285TIP3    H2  797   1.122   5.748   5.412
  286TIP3   OH2  798   1.782   4.665   5.833
  286TIP3    H1  799   1.821   4.578   5.825
  286TIP3    H2  800   1.752   4.670   5.924
  287TIP3   OH2  801   4.557   4.360   1.577
  287TIP3    H1  802   4.606   4.433   1.616
  287TIP3    H2  803   4.620   4.316   1.521
  288TIP3   OH2  804   7.534   4.268   4.196
  288TIP3    H1  805   7.627   4.263   4.216
  288TIP3    H2  806   7.495   4.315   4.270
  289TIP3   OH2  807   4.456   0.854   4.938
  289TIP3    H1  808   4.390   0.911   4.898
  289TIP3    H2  809   4.536   0.907   4.940
  290TIP3   OH2  810   5.436   5.057   2.290
  290TIP3    H1  811   5.493   5.121   2.333
  290TIP3    H2  812   5.489   5.022   2.218
  291TIP3   OH2  813   6.844   5.063   2.001
  291TIP3    H1  814   6.835   4.971   2.024
  291TIP3    H2  815   6.755   5.096   1.997
  292TIP3   OH2  816   6.288   3.800   0.989
  292TIP3    H1  817   6.234   3.727   0.960
  292TIP3    H2  818   6.231   3.853   1.044
  293TIP3   OH2  819   6.220   1.082   1.418
  293TIP3    H1  820   6.257   1.023   1.483
  293TIP3    H2  821   6.273   1.162   1.423
  294TIP3   OH2  822   3.693   6.937   4.746
  294TIP3    H1  823   3.618   6.983   4.783
  294TIP3    H2  824   3.705   6.861   4.803
  295TIP3   OH2  825   2.755   6.170   3.010
  295TIP3    H1  826   2.678   6.170   2.953
  295TIP3    H2  827   2.812   6.103   2.972
  296TIP3   OH2  828   4.887   7.833   6.389
  296TIP3    H1  829   4.802   7.873   6.405
  296TIP3    H2  830   4.945   7.907   6.370
  297TIP3   OH2  831   0.691   2.564   3.853
  297TIP3    H1  832   0.624   2.602   3.796
  297TIP3    H2  833   0.694   2.624   3.928
  298TIP3   OH2  834   3.907   1.047   0.331
  298TIP3    H1  835   3.823   1.002   0.320
  298TIP3    H2  836   3.951   1.038   0.246
  299TIP3   OH2  837   5.982   0.370   4.770
  299TIP3    H1  838   6.023   0.441   4.721
  299TIP3    H2  839   6.012   0.382   4.860
  300TIP3   OH2  840   2.302   5.944   1.238
  300TIP3    H1  841   2.302   6.037   1.257
  300TIP3    H2  842   2.318   5.902   1.322
  301TIP3   OH2  843   5.423   5.465   3.588
  301TIP3    H1  844   5.407   5.383   3.541
  301TIP3    H2  845   5.492   5.508   3.538
  302TIP3   OH2  846   3.148   7.241   6.369
  302TIP3    H1  847   3.056   7.244   6.344
  302TIP3    H2  848   3.148   7.211   6.460
  303TIP3   OH2  849   4.910   0.056   6.449
  303TIP3    H1  850   4.925   0.083   6.540
  303TIP3    H2  851   4.823   0.090   6.428
  304TIP3   OH2  852   1.064   6.194   3.820
  304TIP3    H1  853   0.982   6.151   3.842
  304TIP3    H2  854   1.114   6.195   3.901
  305TIP3   OH2  855   6.928   0.311   5.060
  305TIP3    H1  856   7.012   0.352   5.082
  305TIP3    H2  857   6.865   0.384   5.059
  306TIP3   OH2  858   4.416   2.268   5.884
  306TIP3    H1  859   4.401   2.205   5.955
  306TIP3    H2  860   4.508   2.258   5.862
  307TIP3   OH2  861   1.822   5.496   2.200
  307TIP3    H1  862   1.779   5.523   2.281
  307TIP3    H2  863   1.831   5.401   2.208
  308TIP3   OH2  864   6.369   6.074   5.793
  308TIP3    H1  865   6.369   6.046   5.701
  308TIP3    H2  866   6.405   5.999   5.841
  309TIP3   OH2  867   4.659   2.278   2.351
  309TIP3    H1  868   4.654   2.218   2.426
  309TIP3    H2  869   4.568   2.297   2.329
  310TIP3   OH2  870   5.975   5.901   3.362
  310TIP3    H1  871   5.980   5.946   3.278
  310TIP3    H2  872   6.065   5.877   3.382
  311TIP3   OH2  873   1.102   5.315   5.672
  311TIP3    H1  874   1.075   5.361   5.752
  311TIP3    H2  875   1.060   5.229   5.679
  312TIP3   OH2  876   6.118   0.637   4.030
  312TIP3    H1  877   6.130   0.563   4.089
  312TIP3    H2  878   6.200   0.686   4.037
  313TIP3   OH2  879   5.419   2.680   3.998
  313TIP3    H1  880   5.462   2.623   3.934
  313TIP3    H2  881   5.326   2.668   3.983
  314TIP3   OH2  882   5.582   0.321   5.459
  314TIP3    H1  883   5.510   0.356   5.407
  314TIP3    H2  884   5.650   0.299   5.394
  315TIP3   OH2  885   4.531   6.518   5.109
  315TIP3    H1  886   4.622   6.502   5.082
  315TIP3    H2  887   4.520   6.465   5.188
  316TIP3   OH2  888   4.045   7.098   2.518
  316TIP3    H1  889   4.137   7.091   2.543
  316TIP3    H2  890   4.004   7.021   2.555
  317TIP3   OH2  891   5.851   7.006   6.679
  317TIP3    H1  892   5.801   6.999   6.760
  317TIP3    H2  893   5.814   6.938   6.622
  318TIP3   OH2  894   0.057   1.578   5.344
  318TIP3    H1  895  -0.034   1.571   5.372
  318TIP3    H2  896   0.080   1.670   5.355
  319TIP3   OH2  897   2.513   7.294   1.498
  319TIP3    H1  898   2.586   7.315   1.557
  319TIP3    H2  899   2.507   7.371   1.441
  320TIP3   OH2  900   5.811   4.969   0.671
  320TIP3    H1  901   5.748   4.981   0.600
  320TIP3    H2  902   5.765   4.915   0.735
  321TIP3   OH2  903   6.203   7.170   6.319
  321TIP3    H1  904   6.126   7.162   6.262
  321TIP3    H2  905   6.202   7.261   6.347
  322TIP3   OH2  906   5.179   6.345   0.280
  322TIP3    H1  907   5.099   6.396   0.293
  322TIP3    H2  908   5.239   6.377   0.348
  323TIP3   OH2  909   7.933   5.195   1.548
  323TIP3    H1  910   7.989   5.260   1.591
  323TIP3    H2  911   7.988   5.117   1.540
  324TIP3   OH2  912   2.738   4.088   3.304
  324TIP3    H1  913   2.708   4.014   3.357
  324TIP3    H2  914   2.745   4.054   3.215
  325TIP3   OH2  915   1.564   5.477   0.754
  325TIP3    H1  916   1.559   5.438   0.841
  325TIP3    H2  917   1.614   5.414   0.702
  326TIP3   OH2  918   1.177   0.139   5.779
  326TIP3    H1  919   1.114   0.072   5.753
  326TIP3    H2  920   1.166   0.147   5.873
  327TIP3   OH2  921   2.335   7.482   1.096
  327TIP3    H1  922   2.380   7.493   1.013
  327TIP3    H2  923   2.249   7.520   1.082
  328TIP3   OH2  924   3.562   4.186   6.864
  328TIP3    H1  925   3.549   4.198   6.770
  328TIP3    H2  926   3.552   4.092   6.879
  329TIP3   OH2  927   2.737   5.883   3.630
  329TIP3    H1  928   2.685   5.964   3.627
  329TIP3    H2  929   2.673   5.814   3.649
  330TIP3   OH2  930   4.522   2.744   0.767
  330TIP3    H1  931   4.491   2.762   0.855
  330TIP3    H2  932   4.591   2.808   0.752
  331TIP3   OH2  933   1.571   6.537   2.389
  331TIP3    H1  934   1.601   6.540   2.480
  331TIP3    H2  935   1.603   6.453   2.356
  332TIP3   OH2  936   5.118   2.027   6.071
  332TIP3    H1  937   5.155   2.103   6.025
  332TIP3    H2  938   5.146   1.952   6.019
  333TIP3   OH2  939   4.354   5.828   2.217
  333TIP3    H1  940   4.297   5.755   2.193
  333TIP3    H2  941   4.312   5.868   2.293
  334TIP3   OH2  942   0.448   5.340   1.707
  334TIP3    H1  943   0.488   5.265   1.750
  334TIP3    H2  944   0.414   5.394   1.779
  335TIP3   OH2  945   7.651   1.708   6.859
  335TIP3    H1  946   7.698   1.625   6.858
  335TIP3    H2  947   7.628   1.724   6.767
  336TIP3   OH2  948   6.433   4.534   2.880
  336TIP3    H1  949   6.370   4.479   2.927
  336TIP3    H2  950   6.394   4.545   2.793
  337TIP3   OH2  951   7.161   2.746   3.830
  337TIP3    H1  952   7.106   2.700   3.893
  337TIP3    H2  953   7.119   2.729   3.745
  338TIP3   OH2  954   6.527   1.490   1.117
  338TIP3    H1  955   6.591   1.420   1.113
  338TIP3    H2  956   6.445   1.450   1.088
  339TIP3   OH2  957   5.099   4.512   4.635
  339TIP3    H1  958   5.086   4.600   4.602
  339TIP3    H2  959   5.101   4.456   4.557
  340TIP3   OH2  960   6.099   3.559   4.703
  340TIP3    H1  961   6.119   3.575   4.610
  340TIP3    H2  962   6.146   3.479   4.724
  341TIP3   OH2  963   0.139   0.575   0.632
  341TIP3    H1  964   0.233   0.576   0.650
  341TIP3    H2  965   0.102   0.640   0.692
  342TIP3   OH2  966   6.798   6.072   1.057
  342TIP3    H1  967   6.750   6.143   1.101
  342TIP3    H2  968   6.780   5.994   1.111
  343TIP3   OH2  969   5.352   5.758   0.343
  343TIP3    H1  970   5.283   5.820   0.366
  343TIP3    H2  971   5.319   5.673   0.375
  344TIP3   OH2  972   1.032   5.156   1.451
  344TIP3    H1  973   1.087   5.215   1.502
  344TIP3    H2  974   1.067   5.069   1.470
  345TIP3   OH2  975   7.396   5.947   4.645
  345TIP3    H1  976   7.358   5.915   4.727
  345TIP3    H2  977   7.427   6.035   4.666
  346TIP3   OH2  978   6.517   3.282   5.085
  346TIP3    H1  979   6.556   3.354   5.135
  346TIP3    H2  980   6.549   3.203   5.129
  347TIP3   OH2  981   5.682   3.495   0.608
  347TIP3    H1  982   5.776   3.479   0.609
  347TIP3    H2  983   5.642   3.409   0.620
  348TIP3   OH2  984   3.871   2.212   0.326
  348TIP3    H1  985   3.818   2.285   0.358
  348TIP3    H2  986   3.845   2.138   0.380
  349TIP3   OH2  987   0.191   2.843   6.708
  349TIP3    H1  988   0.115   2.893   6.677
  349TIP3    H2  989   0.242   2.906   6.759
  350TIP3   OH2  990   1.753   4.049   5.069
  350TIP3    H1  991   1.739   3.965   5.024
  350TIP3    H2  992   1.738   4.030   5.161
  351TIP3   OH2  993   7.544   5.187   1.032
  351TIP3    H1  994   7.545   5.151   0.944
  351TIP3    H2  995   7.527   5.280   1.020
  352TIP3   OH2  996   4.577   7.114   3.210
  352TIP3    H1  997   4.595   7.203   3.239
  352TIP3    H2  998   4.643   7.096   3.143
  353TIP3   OH2  999   1.719   0.866   2.715
  353TIP3    H1 1000   1.770   0.899   2.641
  353TIP3    H2 1001   1.773   0.798   2.753
  354TIP3   OH2 1002   5.443   1.722   4.956
  354TIP3    H1 1003   5.379   1.672   4.905
  354TIP3    H2 1004   5.398   1.740   5.039
  355TIP3   OH2 1005   1.547   1.172   4.382
  355TIP3    H1 1006   1.604   1.176   4.306
  355TIP3    H2 1007   1.491   1.249   4.374
  356TIP3   OH2 1008   2.134   0.948   0.416
  356TIP3    H1 1009   2.191   0.871   0.421
  356TIP3    H2 1010   2.182   1.009   0.359
  357TIP3   OH2 1011   7.731   7.859   6.478
  357TIP3    H1 1012   7.810   7.871   6.531
  357TIP3    H2 1013   7.671   7.927   6.508
  358TIP3   OH2 1014   1.035   6.219   1.094
  358TIP3    H1 1015   1.058   6.240   1.003
  358TIP3    H2 1016   0.967   6.282   1.117
  359TIP3   OH2 1017   0.282   6.606   6.078
  359TIP3    H1 1018   0.363   6.616   6.027
  359TIP3    H2 1019   0.279   6.513   6.101
  360TIP3   OH2 1020   2.751   0.928   3.938
  360TIP3    H1 1021   2.805   0.939   4.016
  360TIP3    H2 1022   2.809   0.951   3.866
  361TIP3   OH2 1023   2.496   2.428   4.902
  361TIP3    H1 1024   2.543   2.393   4.826
  361TIP3    H2 1025   2.443   2.355   4.933
  362TIP3   OH2 1026   3.921   6.945   0.557
  362TIP3    H1 1027   3.914   6.851   0.571
  362TIP3    H2 1028   4.014   6.959   0.535
  363TIP3   OH2 1029   8.176   1.566   3.300
  363TIP3    H1 1030   8.081   1.574   3.311
  363TIP3    H2 1031   8.213   1.629   3.363
  364TIP3   OH2 1032   2.627   3.896   6.572
  364TIP3    H1 1033   2.630   3.940   6.487
  364TIP3    H2 1034   2.571   3.819   6.557
  365TIP3   OH2 1035   3.029   1.988   5.224
  365TIP3    H1 1036   3.028   2.027   5.311
  365TIP3    H2 1037   3.028   1.893   5.239
  366TIP3   OH2 1038   6.247   0.622   1.875
  366TIP3    H1 1039   6.315   0.583   1.930
  366TIP3    H2 1040   6.183   0.656   1.938
  367TIP3   OH2 1041   1.841   4.577   2.169
  367TIP3    H1 1042   1.771   4.523   2.134
  367TIP3    H2 1043   1.840   4.559   2.263
  368TIP3   OH2 1044   1.391   6.355   1.572
  368TIP3    H1 1045   1.301   6.335   1.544
  368TIP3    H2 1046   1.398   6.312   1.657
  369TIP3   OH2 1047   7.300   6.586   2.930
  369TIP3    H1 1048   7.205   6.590   2.922
  369TIP3    H2 1049   7.329   6.546   2.848
  370TIP3   OH2 1050   3.380   6.226   2.381
  370TIP3    H1 1051   3.355   6.168   2.453
  370TIP3    H2 1052   3.459   6.269   2.411
  371TIP3   OH2 1053   1.509   7.097   3.516
  371TIP3    H1 1054   1.426   7.102   3.468
  371TIP3    H2 1055   1.577   7.103   3.449
  372TIP3   OH2 1056   1.883   4.766   4.219
  372TIP3    H1 1057   1.833   4.783   4.139
  372TIP3    H2 1058   1.894   4.852   4.259
  373TIP3   OH2 1059   3.808   3.730   1.574
  373TIP3    H1 1060   3.831   3.809   1.622
  373TIP3    H2 1061   3.800   3.758   1.483
  374TIP3   OH2 1062   3.226   7.701   0.771
  374TIP3    H1 1063   3.167   7.676   0.842
  374TIP3    H2 1064   3.180   7.673   0.691
  375TIP3   OH2 1065   0.904   4.744   2.042
  375TIP3    H1 1066   0.975   4.792   2.085
  375TIP3    H2 1067   0.948   4.687   1.979
  376TIP3   OH2 1068   4.404   6.330   1.442
  376TIP3    H1 1069   4.470   6.270   1.406
  376TIP3    H2 1070   4.324   6.277   1.448
  377TIP3   OH2 1071   4.899   3.906   6.589
  377TIP3    H1 1072   4.945   3.932   6.669
  377TIP3    H2 1073   4.955   3.938   6.518
  378TIP3   OH2 1074   2.763   0.796   2.190
  378TIP3    H1 1075   2.801   0.862   2.132
  378TIP3    H2 1076   2.838   0.754   2.232
  379TIP3   OH2 1077   5.160   0.095   2.631
  379TIP3    H1 1078   5.240   0.060   2.671
  379TIP3    H2 1079   5.177   0.094   2.537
  380TIP3   OH2 1080   0.210   1.283   6.348
  380TIP3    H1 1081   0.187   1.268   6.440
  380TIP3    H2 1082   0.127   1.303   6.305
  381TIP3   OH2 1083   4.957   5.813   1.407
  381TIP3    H1 1084   5.037   5.760   1.413
  381TIP3    H2 1085   4.888   5.756   1.443
  382TIP3   OH2 1086   1.321   3.797   0.550
  382TIP3    H1 1087   1.258   3.840   0.607
  382TIP3    H2 1088   1.304   3.834   0.463
  383TIP3   OH2 1089   0.167   7.037   4.359
  383TIP3    H1 1090   0.098   7.013   4.421
  383TIP3    H2 1091   0.240   7.065   4.414
  384TIP3   OH2 1092   3.827   4.292   5.245
  384TIP3    H1 1093   3.802   4.255   5.329
  384TIP3    H2 1094   3.840   4.386   5.262
  385TIP3   OH2 1095   5.907   2.379   2.590
  385TIP3    H1 1096   5.932   2.301   2.640
  385TIP3    H2 1097   5.904   2.349   2.499
  386TIP3   OH2 1098   0.336   3.410   4.017
  386TIP3    H1 1099   0.243   3.403   4.036
  386TIP3    H2 1100   0.345   3.377   3.927
  387TIP3   OH2 1101   3.468   3.197   1.217
  387TIP3    H1 1102   3.403   3.196   1.287
  387TIP3    H2 1103   3.540   3.251   1.252
  388TIP3   OH2 1104   3.430   1.214   6.561
  388TIP3    H1 1105   3.345   1.220   6.606
  388TIP3    H2 1106   3.494   1.243   6.626
  389TIP3   OH2 1107   3.405   4.636   3.707
  389TIP3    H1 1108   3.384   4.709   3.766
  389TIP3    H2 1109   3.483   4.666   3.660
  390TIP3   OH2 1110   1.192   3.146   2.643
  390TIP3    H1 1111   1.218   3.069   2.593
  390TIP3    H2 1112   1.164   3.112   2.728
  391TIP3   OH2 1113   6.753   2.139   0.515
  391TIP3    H1 1114   6.790   2.212   0.564
  391TIP3    H2 1115   6.809   2.130   0.438
  392TIP3   OH2 1116   4.481   6.661   5.500
  392TIP3    H1 1117   4.511   6.579   5.460
  392TIP3    H2 1118   4.388   6.647   5.516
  393TIP3   OH2 1119   2.074   4.499   5.842
  393TIP3    H1 1120   2.045   4.415   5.879
  393TIP3    H2 1121   2.149   4.524   5.896
  394TIP3   OH2 1122   2.436   6.419   3.772
  394TIP3    H1 1123   2.342   6.421   3.789
  394TIP3    H2 1124   2.469   6.499   3.813
  395TIP3   OH2 1125   7.619   1.330   1.794
  395TIP3    H1 1126   7.625   1.325   1.699
  395TIP3    H2 1127   7.678   1.402   1.818
  396TIP3   OH2 1128   4.880   1.058   0.449
  396TIP3    H1 1129   4.823   1.090   0.518
  396TIP3    H2 1130   4.824   1.003   0.394
  397TIP3   OH2 1131   6.555   4.488   0.041
  397TIP3    H1 1132   6.543   4.572   0.085
  397TIP3    H2 1133   6.592   4.431   0.109
  398TIP3   OH2 1134   2.318   0.747   0.308
  398TIP3    H1 1135   2.259   0.673   0.320
  398TIP3    H2 1136   2.406   0.709   0.311
  399TIP3   OH2 1137   4.919   1.242   2.957
  399TIP3    H1 1138   4.902   1.197   3.040
  399TIP3    H2 1139   4.895   1.333   2.974
  400TIP3   OH2 1140   0.459   4.769   4.554
  400TIP3    H1 1141   0.421   4.716   4.484
  400TIP3    H2 1142   0.418   4.855   4.545
  401TIP3   OH2 1143   7.817   4.732   5.421
  401TIP3    H1 1144   7.761   4.723   5.344
  401TIP3    H2 1145   7.800   4.653   5.472
  402TIP3   OH2 1146   4.507   3.921   1.042
  402TIP3    H1 1147   4.459   3.878   0.972
  402TIP3    H2 1148   4.562   3.852   1.080
  403TIP3   OH2 1149   3.524   6.863   6.315
  403TIP3    H1 1150   3.433   6.890   6.305
  403TIP3    H2 1151   3.519   6.774   6.351
  404TIP3   OH2 1152   1.627   5.717   6.504
  404TIP3    H1 1153   1.606   5.625   6.488
  404TIP3    H2 1154   1.568   5.766   6.447
  405TIP3   OH2 1155   0.780   7.584   1.322
  405TIP3    H1 1156   0.858   7.532   1.339
  405TIP3    H2 1157   0.762   7.570   1.229
  406TIP3   OH2 1158   4.191   4.708   3.026
  406TIP3    H1 1159   4.212   4.627   2.980
  406TIP3    H2 1160   4.228   4.777   2.972
  407TIP3   OH2 1161   3.719   2.175   0.775
  407TIP3    H1 1162   3.738   2.269   0.783
  407TIP3    H2 1163   3.641   2.172   0.719
  408TIP3   OH2 1164   5.331   1.659   5.293
  408TIP3    H1 1165   5.301   1.654   5.384
  408TIP3    H2 1166   5.387   1.582   5.282
  409TIP3   OH2 1167   7.902   0.449   0.087
  409TIP3    H1 1168   7.861   0.475   0.005
  409TIP3    H2 1169   7.894   0.354   0.090
  410TIP3   OH2 1170   2.507   6.577   6.755
  410TIP3    H1 1171   2.557   6.518   6.811
  410TIP3    H2 1172   2.566   6.599   6.683
  411TIP3   OH2 1173   6.911   6.129  -0.067
  411TIP3    H1 1174   6.966   6.189  -0.017
  411TIP3    H2 1175   6.917   6.046  -0.020
  412TIP3   OH2 1176   7.833   0.202   1.199
  412TIP3    H1 1177   7.835   0.243   1.112
  412TIP3    H2 1178   7.874   0.116   1.185
  413TIP3   OH2 1179   3.896   7.751   2.527
  413TIP3    H1 1180   3.850   7.765   2.444
  413TIP3    H2 1181   3.985   7.781   2.510
  414TIP3   OH2 1182   5.928   1.187   3.780
  414TIP3    H1 1183   5.852   1.236   3.747
  414TIP3    H2 1184   5.977   1.252   3.831
  415TIP3   OH2 1185   5.142   4.304   6.364
  415TIP3    H1 1186   5.139   4.277   6.456
  415TIP3    H2 1187   5.169   4.395   6.366
  416TIP3   OH2 1188   1.136   4.006   5.461
  416TIP3    H1 1189   1.128   4.099   5.484
  416TIP3    H2 1190   1.212   4.003   5.403
  417TIP3   OH2 1191   5.134   5.490   0.949
  417TIP3    H1 1192   5.087   5.569   0.921
  417TIP3    H2 1193   5.225   5.518   0.957
  418TIP3   OH2 1194   1.173   2.499   0.307
  418TIP3    H1 1195   1.195   2.444   0.383
  418TIP3    H2 1196   1.166   2.587   0.342
  419TIP3   OH2 1197   5.058   2.746   1.958
  419TIP3    H1 1198   4.973   2.751   1.913
  419TIP3    H2 1199   5.118   2.711   1.893
  420TIP3   OH2 1200   1.661   6.742   2.225
  420TIP3    H1 1201   1.702   6.817   2.268
  420TIP3    H2 1202   1.649   6.678   2.296
  421TIP3   OH2 1203   1.969   0.337   1.696
  421TIP3    H1 1204   1.963   0.244   1.720
  421TIP3    H2 1205   1.955   0.383   1.778
  422TIP3   OH2 1206   0.374   5.786   0.635
  422TIP3    H1 1207   0.333   5.704   0.662
  422TIP3    H2 1208   0.468   5.770   0.640
  423TIP3   OH2 1209   1.954   5.356   6.089
  423TIP3    H1 1210   1.978   5.266   6.112
  423TIP3    H2 1211   2.036   5.405   6.094
  424TIP3   OH2 1212   3.516   1.340   1.608
  424TIP3    H1 1213   3.533   1.413   1.549
  424TIP3    H2 1214   3.457   1.283   1.559
  425TIP3   OH2 1215   0.649   4.445   6.388
  425TIP3    H1 1216   0.686   4.374   6.337
  425TIP3    H2 1217   0.583   4.404   6.444
  426TIP3   OH2 1218   1.245   6.654   5.994
  426TIP3    H1 1219   1.340   6.644   5.999
  426TIP3    H2 1220   1.211   6.567   6.011
  427TIP3   OH2 1221   3.040   5.646   6.270
  427TIP3    H1 1222   3.097   5.598   6.329
  427TIP3    H2 1223   3.018   5.584   6.200
  428TIP3   OH2 1224   7.586   3.377   1.912
  428TIP3    H1 1225   7.500   3.399   1.878
  428TIP3    H2 1226   7.621   3.312   1.851
  429TIP3   OH2 1227   7.755   5.422   6.381
  429TIP3    H1 1228   7.698   5.363   6.332
  429TIP3    H2 1229   7.750   5.505   6.333
  430TIP3   OH2 1230   7.010   0.523   1.294
  430TIP3    H1 1231   7.028   0.478   1.376
  430TIP3    H2 1232   7.097   0.538   1.255
  431TIP3   OH2 1233   6.779   6.892   0.885
  431TIP3    H1 1234   6.813   6.969   0.931
  431TIP3    H2 1235   6.848   6.866   0.825
  432TIP3   OH2 1236   1.053   2.998   3.695
  432TIP3    H1 1237   1.078   3.087   3.721
  432TIP3    H2 1238   1.111   2.941   3.746
  433TIP3   OH2 1239   5.944   7.151   6.181
  433TIP3    H1 1240   5.933   7.135   6.087
  433TIP3    H2 1241   5.861   7.189   6.209
  434TIP3   OH2 1242   2.949   5.123   1.412
  434TIP3    H1 1243   2.877   5.133   1.475
  434TIP3    H2 1244   2.928   5.183   1.341
  435TIP3   OH2 1245   4.098   6.000   3.825
  435TIP3    H1 1246   4.089   6.073   3.764
  435TIP3    H2 1247   4.086   6.039   3.912
  436TIP3   OH2 1248   7.159   0.321   2.755
  436TIP3    H1 1249   7.206   0.246   2.719
  436TIP3    H2 1250   7.067   0.295   2.753
  437TIP3   OH2 1251   2.264   2.343   1.961
  437TIP3    H1 1252   2.246   2.372   1.871
  437TIP3    H2 1253   2.202   2.393   2.015
  438TIP3   OH2 1254   3.475   3.831   0.220
  438TIP3    H1 1255   3.466   3.760   0.284
  438TIP3    H2 1256   3.385   3.853   0.197
  439TIP3   OH2 1257   5.593   0.054   0.914
  439TIP3    H1 1258   5.536   0.023   0.984
  439TIP3    H2 1259   5.670  -0.003   0.919
  440TIP3   OH2 1260   0.833   7.049   3.136
  440TIP3    H1 1261   0.792   6.992   3.071
  440TIP3    H2 1262   0.819   7.004   3.219
  441TIP3   OH2 1263   3.945   4.296   3.458
  441TIP3    H1 1264   3.990   4.223   3.500
  441TIP3    H2 1265   3.866   4.257   3.420
  442TIP3   OH2 1266   3.277   5.115   3.400
  442TIP3    H1 1267   3.218   5.122   3.476
  442TIP3    H2 1268   3.243   5.040   3.351
  443TIP3   OH2 1269   2.346   7.037   5.003
  443TIP3    H1 1270   2.353   6.992   4.918
  443TIP3    H2 1271   2.256   7.021   5.031
  444TIP3   OH2 1272   6.191   1.601   3.736
  444TIP3    H1 1273   6.145   1.582   3.818
  444TIP3    H2 1274   6.266   1.654   3.761
  445TIP3   OH2 1275   3.384   2.242   4.044
  445TIP3    H1 1276   3.420   2.153   4.048
  445TIP3    H2 1277   3.433   2.291   4.110
  446TIP3   OH2 1278   4.599   0.900   2.814
  446TIP3    H1 1279   4.571   0.963   2.881
  446TIP3    H2 1280   4.532   0.832   2.814
  447TIP3   OH2 1281   5.180   2.557   3.968
  447TIP3    H1 1282   5.088   2.584   3.972
  447TIP3    H2 1283   5.201   2.532   4.058
  448TIP3   OH2 1284   3.482   3.758   1.691
  448TIP3    H1 1285   3.428   3.801   1.757
  448TIP3    H2 1286   3.564   3.807   1.692
  449TIP3   OH2 1287   3.491   7.219   0.462
  449TIP3    H1 1288   3.461   7.302   0.498
  449TIP3    H2 1289   3.582   7.212   0.491
  450TIP3   OH2 1290   4.484   1.203   4.013
  450TIP3    H1 1291   4.578   1.188   4.023
  450TIP3    H2 1292   4.446   1.116   4.004
  451TIP3   OH2 1293   3.608   2.971   3.678
  451TIP3    H1 1294   3.648   3.037   3.623
  451TIP3    H2 1295   3.633   2.888   3.639
  452TIP3   OH2 1296   0.103   4.944   3.036
  452TIP3    H1 1297   0.083   5.008   3.105
  452TIP3    H2 1298   0.070   4.985   2.956
  453TIP3   OH2 1299   6.484   2.450   0.169
  453TIP3    H1 1300   6.536   2.380   0.208
  453TIP3    H2 1301   6.521   2.461   0.081
  454TIP3   OH2 1302   0.302   1.545   5.511
  454TIP3    H1 1303   0.230   1.579   5.458
  454TIP3    H2 1304   0.365   1.618   5.516
  455TIP3   OH2 1305   8.151   0.366   4.016
  455TIP3    H1 1306   8.103   0.288   4.046
  455TIP3    H2 1307   8.230   0.368   4.071
  456TIP3   OH2 1308   0.774   2.150   6.554
  456TIP3    H1 1309   0.733   2.236   6.562
  456TIP3    H2 1310   0.868   2.169   6.545
  457TIP3   OH2 1311   0.673   3.558   3.329
  457TIP3    H1 1312   0.633   3.642   3.307
  457TIP3    H2 1313   0.734   3.542   3.257
  458TIP3   OH2 1314   0.785   0.797   2.580
  458TIP3    H1 1315   0.843   0.741   2.529
  458TIP3    H2 1316   0.805   0.777   2.671
  459TIP3   OH2 1317   6.941   3.439   5.561
  459TIP3    H1 1318   6.855   3.445   5.602
  459TIP3    H2 1319   6.997   3.397   5.626
  460TIP3   OH2 1320   8.381   2.026   5.588
  460TIP3    H1 1321   8.317   2.026   5.660
  460TIP3    H2 1322   8.374   2.115   5.551
  461TIP3   OH2 1323   5.720   0.027   1.707
  461TIP3    H1 1324   5.669  -0.051   1.727
  461TIP3    H2 1325   5.803   0.013   1.752
  462TIP3   OH2 1326   7.084   4.128   2.387
  462TIP3    H1 1327   7.058   4.051   2.336
  462TIP3    H2 1328   7.048   4.113   2.474
  463TIP3   OH2 1329   1.781   2.362   2.700
  463TIP3    H1 1330   1.754   2.334   2.788
  463TIP3    H2 1331   1.734   2.304   2.641
  464TIP3   OH2 1332   1.516   3.093   6.149
  464TIP3    H1 1333   1.517   3.135   6.235
  464TIP3    H2 1334   1.542   3.163   6.089
  465TIP3   OH2 1335   0.792   0.131   1.285
  465TIP3    H1 1336   0.780   0.036   1.297
  465TIP3    H2 1337   0.769   0.146   1.193
  466TIP3   OH2 1338   5.726   1.268   4.428
  466TIP3    H1 1339   5.680   1.309   4.354
  466TIP3    H2 1340   5.769   1.340   4.473
  467TIP3   OH2 1341   4.040   4.561   5.731
  467TIP3    H1 1342   3.951   4.581   5.756
  467TIP3    H2 1343   4.094   4.623   5.780
  468TIP3   OH2 1344   7.804   3.689   1.456
  468TIP3    H1 1345   7.870   3.692   1.386
  468TIP3    H2 1346   7.830   3.615   1.511
  469TIP3   OH2 1347   4.342   4.594   3.249
  469TIP3    H1 1348   4.318   4.542   3.326
  469TIP3    H2 1349   4.259   4.628   3.216
  470TIP3   OH2 1350   4.540   1.148   6.768
  470TIP3    H1 1351   4.606   1.087   6.801
  470TIP3    H2 1352   4.526   1.209   6.840
  471TIP3   OH2 1353   7.142   4.680   1.565
  471TIP3    H1 1354   7.166   4.632   1.486
  471TIP3    H2 1355   7.186   4.764   1.557
  472TIP3   OH2 1356   1.625   0.207   2.770
  472TIP3    H1 1357   1.590   0.197   2.682
  472TIP3    H2 1358   1.657   0.297   2.773
  473TIP3   OH2 1359   5.782   5.588   1.293
  473TIP3    H1 1360   5.807   5.515   1.236
  473TIP3    H2 1361   5.824   5.664   1.253
  474TIP3   OH2 1362   3.989   1.778   0.045
  474TIP3    H1 1363   3.945   1.693   0.040
  474TIP3    H2 1364   4.036   1.776   0.128
  475TIP3   OH2 1365   4.971   2.008   5.742
  475TIP3    H1 1366   4.905   1.939   5.745
  475TIP3    H2 1367   5.054   1.962   5.758
  476TIP3   OH2 1368   5.473   6.247   4.309
  476TIP3    H1 1369   5.413   6.311   4.271
  476TIP3    H2 1370   5.416   6.174   4.334
  477TIP3   OH2 1371   6.058   7.605   4.410
  477TIP3    H1 1372   5.991   7.630   4.475
  477TIP3    H2 1373   6.124   7.557   4.461
  478TIP3   OH2 1374   6.757   2.285   5.396
  478TIP3    H1 1375   6.840   2.328   5.414
  478TIP3    H2 1376   6.762   2.261   5.304
  479TIP3   OH2 1377   4.590   7.435   1.549
  479TIP3    H1 1378   4.581   7.476   1.463
  479TIP3    H2 1379   4.678   7.460   1.578
  480TIP3   OH2 1380   0.341   5.906   2.785
  480TIP3    H1 1381   0.339   5.811   2.799
  480TIP3    H2 1382   0.407   5.937   2.846
  481TIP3   OH2 1383   8.368   6.683   4.930
  481TIP3    H1 1384   8.326   6.711   5.012
  481TIP3    H2 1385   8.362   6.760   4.874
  482TIP3   OH2 1386   5.241   7.128   6.819
  482TIP3    H1 1387   5.153   7.133   6.855
  482TIP3    H2 1388   5.276   7.217   6.826
  483TIP3   OH2 1389   4.273   7.746   5.784
  483TIP3    H1 1390   4.293   7.824   5.835
  483TIP3    H2 1391   4.227   7.688   5.845
  484TIP3   OH2 1392   3.632   7.875   4.415
  484TIP3    H1 1393   3.596   7.956   4.380
  484TIP3    H2 1394   3.582   7.806   4.371
  485TIP3   OH2 1395   7.685   6.914   2.144
  485TIP3    H1 1396   7.640   6.886   2.064
  485TIP3    H2 1397   7.614   6.942   2.202
  486TIP3   OH2 1398   1.664   6.299   3.109
  486TIP3    H1 1399   1.680   6.217   3.062
  486TIP3    H2 1400   1.694   6.282   3.198
  487TIP3   OH2 1401   6.422   7.671   2.560
  487TIP3    H1 1402   6.357   7.601   2.560
  487TIP3    H2 1403   6.462   7.667   2.473
  488TIP3   OH2 1404   0.022   6.033   2.369
  488TIP3    H1 1405   0.100   6.009   2.419
  488TIP3    H2 1406  -0.051   6.015   2.428
  489TIP3   OH2 1407   5.433   3.244   1.400
  489TIP3    H1 1408   5.465   3.260   1.311
  489TIP3    H2 1409   5.418   3.150   1.404
  490TIP3   OH2 1410   1.206   1.565   6.756
  490TIP3    H1 1411   1.201   1.533   6.846
  490TIP3    H2 1412   1.299   1.583   6.742
  491TIP3   OH2 1413   1.853   6.471   6.887
  491TIP3    H1 1414   1.777   6.447   6.834
  491TIP3    H2 1415   1.919   6.500   6.823
  492TIP3   OH2 1416   4.193   2.678   2.819
  492TIP3    H1 1417   4.188   2.718   2.732
  492TIP3    H2 1418   4.279   2.635   2.820
  493TIP3   OH2 1419   1.749   6.093   0.949
  493TIP3    H1 1420   1.767   6.012   0.901
  493TIP3    H2 1421   1.654   6.104   0.944
  494TIP3   OH2 1422   2.082   1.157   5.294
  494TIP3    H1 1423   2.161   1.210   5.282
  494TIP3    H2 1424   2.099   1.077   5.243
  495TIP3   OH2 1425   6.476   0.177   6.182
  495TIP3    H1 1426   6.387   0.197   6.153
  495TIP3    H2 1427   6.468   0.165   6.277
  496TIP3   OH2 1428   3.559   2.486   3.950
  496TIP3    H1 1429   3.568   2.579   3.972
  496TIP3    H2 1430   3.551   2.442   4.034
  497TIP3   OH2 1431   1.372   7.163   4.861
  497TIP3    H1 1432   1.288   7.142   4.820
  497TIP3    H2 1433   1.381   7.102   4.933
  498TIP3   OH2 1434   2.836   0.667   1.701
  498TIP3    H1 1435   2.760   0.612   1.679
  498TIP3    H2 1436   2.887   0.672   1.620
  499TIP3   OH2 1437   2.143   3.240   2.610
  499TIP3    H1 1438   2.127   3.146   2.614
  499TIP3    H2 1439   2.061   3.278   2.579
  500TIP3   OH2 1440   8.393   2.462   5.699
  500TIP3    H1 1441   8.386   2.410   5.779
  500TIP3    H2 1442   8.307   2.505   5.691
  501TIP3   OH2 1443   2.617   5.116   4.768
  501TIP3    H1 1444   2.619   5.020   4.760
  501TIP3    H2 1445   2.689   5.136   4.827
  502TIP3   OH2 1446   4.436   4.938   1.933
  502TIP3    H1 1447   4.464   5.003   1.868
  502TIP3    H2 1448   4.445   4.854   1.888
  503TIP3   OH2 1449   3.473   6.560   4.840
  503TIP3    H1 1450   3.456   6.466   4.845
  503TIP3    H2 1451   3.394   6.600   4.876
  504TIP3   OH2 1452   5.254   1.190   2.199
  504TIP3    H1 1453   5.281   1.276   2.168
  504TIP3    H2 1454   5.336   1.145   2.221
  505TIP3   OH2 1455   7.076   0.146   3.491
  505TIP3    H1 1456   7.044   0.097   3.567
  505TIP3    H2 1457   7.015   0.220   3.483
  506TIP3   OH2 1458   1.965   0.946   4.919
  506TIP3    H1 1459   2.044   0.928   4.867
  506TIP3    H2 1460   1.957   0.871   4.977
  507TIP3   OH2 1461   2.908   4.165   6.785
  507TIP3    H1 1462   2.830   4.110   6.786
  507TIP3    H2 1463   2.937   4.165   6.694
  508TIP3   OH2 1464   1.504   6.568   4.612
  508TIP3    H1 1465   1.441   6.565   4.540
  508TIP3    H2 1466   1.516   6.661   4.630
  509TIP3   OH2 1467   2.543   4.379   2.751
  509TIP3    H1 1468   2.610   4.317   2.725
  509TIP3    H2 1469   2.565   4.403   2.841
  510TIP3   OH2 1470   1.675   7.747   0.812
  510TIP3    H1 1471   1.689   7.727   0.905
  510TIP3    H2 1472   1.646   7.664   0.774
  511TIP3   OH2 1473   7.994   0.218   1.428
  511TIP3    H1 1474   8.005   0.261   1.513
  511TIP3    H2 1475   8.082   0.194   1.402
  512TIP3   OH2 1476   2.353   0.298   2.043
  512TIP3    H1 1477   2.447   0.292   2.063
  512TIP3    H2 1478   2.332   0.390   2.057
  513TIP3   OH2 1479   6.579   5.437   0.551
  513TIP3    H1 1480   6.580   5.346   0.580
  513TIP3    H2 1481   6.652   5.478   0.598
  514TIP3   OH2 1482   8.120   2.876   1.398
  514TIP3    H1 1483   8.158   2.948   1.448
  514TIP3    H2 1484   8.195   2.835   1.354
  515TIP3   OH2 1485   1.413   3.505   0.541
  515TIP3    H1 1486   1.497   3.489   0.584
  515TIP3    H2 1487   1.390   3.595   0.566
  516TIP3   OH2 1488   1.992   0.899   3.904
  516TIP3    H1 1489   1.921   0.839   3.928
  516TIP3    H2 1490   2.033   0.923   3.987
  517TIP3   OH2 1491   1.239   5.563   6.524
  517TIP3    H1 1492   1.210   5.614   6.600
  517TIP3    H2 1493   1.160   5.549   6.472
  518TIP3   OH2 1494   0.617   4.659   2.521
  518TIP3    H1 1495   0.639   4.580   2.471
  518TIP3    H2 1496   0.699   4.710   2.522
  519TIP3   OH2 1497   4.363   4.246   4.229
  519TIP3    H1 1498   4.382   4.210   4.316
  519TIP3    H2 1499   4.315   4.176   4.184
  520TIP3   OH2 1500   4.743   6.613   2.000
  520TIP3    H1 1501   4.812   6.656   1.950
  520TIP3    H2 1502   4.673   6.597   1.936
  521TIP3   OH2 1503   1.713   1.336   0.248
  521TIP3    H1 1504   1.646   1.370   0.190
  521TIP3    H2 1505   1.796   1.352   0.202
  522TIP3   OH2 1506   1.567   3.921   0.649
  522TIP3    H1 1507   1.486   3.902   0.602
  522TIP3    H2 1508   1.543   3.913   0.742
  523TIP3   OH2 1509   8.202   5.484   2.639
  523TIP3    H1 1510   8.136   5.415   2.648
  523TIP3    H2 1511   8.270   5.461   2.702
  524TIP3   OH2 1512   5.679   1.837   1.810
  524TIP3    H1 1513   5.613   1.768   1.796
  524TIP3    H2 1514   5.670   1.893   1.733
  525TIP3   OH2 1515   2.390   6.487   1.871
  525TIP3    H1 1516   2.346   6.566   1.902
  525TIP3    H2 1517   2.324   6.442   1.819
  526TIP3   OH2 1518   0.021   6.500   2.855
  526TIP3    H1 1519   0.070   6.427   2.818
  526TIP3    H2 1520  -0.039   6.460   2.917
  527TIP3   OH2 1521   0.804   1.233   2.641
  527TIP3    H1 1522   0.806   1.167   2.572
  527TIP3    H2 1523   0.817   1.185   2.722
  528TIP3   OH2 1524   6.683   4.015   1.583
  528TIP3    H1 1525   6.699   3.924   1.558
  528TIP3    H2 1526   6.599   4.013   1.630
  529TIP3   OH2 1527   0.698   0.322   3.301
  529TIP3    H1 1528   0.603   0.322   3.314
  529TIP3    H2 1529   0.710   0.298   3.209
  530TIP3   OH2 1530   1.300   3.324   2.449
  530TIP3    H1 1531   1.265   3.260   2.511
  530TIP3    H2 1532   1.278   3.409   2.487
  531TIP3   OH2 1533   5.747   2.990   0.664
  531TIP3    H1 1534   5.788   2.915   0.620
  531TIP3    H2 1535   5.701   2.952   0.739
  532TIP3   OH2 1536   6.700   5.455   4.814
  532TIP3    H1 1537   6.792   5.480   4.825
  532TIP3    H2 1538   6.677   5.490   4.728
  533TIP3   OH2 1539   5.983   0.312   5.454
  533TIP3    H1 1540   5.917   0.325   5.521
  533TIP3    H2 1541   6.059   0.277   5.501
  534TIP3   OH2 1542   6.270   3.212   3.135
  534TIP3    H1 1543   6.297   3.279   3.197
  534TIP3    H2 1544   6.320   3.135   3.160
  535TIP3   OH2 1545   4.651   2.961   4.292
  535TIP3    H1 1546   4.593   2.953   4.368
  535TIP3    H2 1547   4.739   2.967   4.330
  536TIP3   OH2 1548   4.163   1.094   5.629
  536TIP3    H1 1549   4.236   1.154   5.647
  536TIP3    H2 1550   4.163   1.035   5.704
  537TIP3   OH2 1551   7.821   0.002   4.506
  537TIP3    H1 1552   7.808   0.074   4.444
  537TIP3    H2 1553   7.914  -0.019   4.501
  538TIP3   OH2 1554   5.074   7.094   0.539
  538TIP3    H1 1555   5.004   7.159   0.551
  538TIP3    H2 1556   5.147   7.145   0.505
  539TIP3   OH2 1557   6.781   2.501   2.804
  539TIP3    H1 1558   6.746   2.528   2.889
  539TIP3    H2 1559   6.847   2.435   2.825
  540TIP3   OH2 1560   6.644   6.393   3.858
  540TIP3    H1 1561   6.611   6.482   3.871
  540TIP3    H2 1562   6.610   6.366   3.773
  541TIP3   OH2 1563   6.962   5.298   5.336
  541TIP3    H1 1564   6.868   5.311   5.324
  541TIP3    H2 1565   6.971   5.263   5.425
  542TIP3   OH2 1566   0.517   6.408   0.367
  542TIP3    H1 1567   0.572   6.343   0.410
  542TIP3    H2 1568   0.502   6.475   0.434
  543TIP3   OH2 1569   5.401   7.054   3.167
  543TIP3    H1 1570   5.397   7.035   3.073
  543TIP3    H2 1571   5.436   7.143   3.172
  544TIP3   OH2 1572   7.112   2.808   4.612
  544TIP3    H1 1573   7.039   2.794   4.673
  544TIP3    H2 1574   7.153   2.722   4.603
  545TIP3   OH2 1575   3.238   6.344   0.025
  545TIP3    H1 1576   3.163   6.322   0.080
  545TIP3    H2 1577   3.203   6.345  -0.064
  546TIP3   OH2 1578   0.744   6.487   5.407
  546TIP3    H1 1579   0.661   6.439   5.414
  546TIP3    H2 1580   0.806   6.422   5.375
  547TIP3   OH2 1581   2.313   2.943   3.244
  547TIP3    H1 1582   2.363   2.901   3.173
  547TIP3    H2 1583   2.255   2.875   3.276
  548TIP3   OH2 1584   4.479   1.678   4.785
  548TIP3    H1 1585   4.399   1.640   4.748
  548TIP3    H2 1586   4.480   1.767   4.750
  549TIP3   OH2 1587   7.661   3.949   4.964
  549TIP3    H1 1588   7.704   3.912   4.887
  549TIP3    H2 1589   7.585   3.997   4.929
  550TIP3   OH2 1590   2.896   6.939   2.899
  550TIP3    H1 1591   2.970   6.999   2.901
  550TIP3    H2 1592   2.850   6.959   2.818
  551TIP3   OH2 1593   2.040   5.435   6.404
  551TIP3    H1 1594   2.044   5.529   6.418
  551TIP3    H2 1595   2.089   5.420   6.323
  552TIP3   OH2 1596   7.747   2.933   5.559
  552TIP3    H1 1597   7.692   2.942   5.480
  552TIP3    H2 1598   7.786   2.846   5.550
  553TIP3   OH2 1599   1.284   6.100   1.760
  553TIP3    H1 1600   1.322   6.012   1.762
  553TIP3    H2 1601   1.268   6.118   1.668
  554TIP3   OH2 1602   0.101   2.924   5.200
  554TIP3    H1 1603   0.148   2.870   5.263
  554TIP3    H2 1604   0.009   2.901   5.212
  555TIP3   OH2 1605   0.085   0.519   5.561
  555TIP3    H1 1606   0.178   0.542   5.563
  555TIP3    H2 1607   0.080   0.437   5.609
  556TIP3   OH2 1608   6.714   1.100   1.651
  556TIP3    H1 1609   6.721   1.140   1.565
  556TIP3    H2 1610   6.626   1.121   1.681
  557TIP3   OH2 1611   2.510   0.836   3.527
  557TIP3    H1 1612   2.561   0.891   3.468
  557TIP3    H2 1613   2.576   0.783   3.572
  558TIP3   OH2 1614   7.071   7.458   1.036
  558TIP3    H1 1615   7.038   7.432   0.950
  558TIP3    H2 1616   7.002   7.515   1.071
  559TIP3   OH2 1617   2.682   1.589   5.457
  559TIP3    H1 1618   2.756   1.529   5.459
  559TIP3    H2 1619   2.690   1.638   5.539
  560TIP3   OH2 1620   5.572   0.734   1.812
  560TIP3    H1 1621   5.574   0.799   1.742
  560TIP3    H2 1622   5.664   0.716   1.830
  561TIP3   OH2 1623   2.619   0.715   3.099
  561TIP3    H1 1624   2.541   0.660   3.093
  561TIP3    H2 1625   2.691   0.655   3.079
  562TIP3   OH2 1626   3.004   1.779   5.475
  562TIP3    H1 1627   3.012   1.718   5.548
  562TIP3    H2 1628   3.051   1.857   5.504
  563TIP3   OH2 1629   3.211   7.678   5.414
  563TIP3    H1 1630   3.119   7.652   5.426
  563TIP3    H2 1631   3.220   7.689   5.320
  564TIP3   OH2 1632   5.873   0.479   3.755
  564TIP3    H1 1633   5.897   0.424   3.829
  564TIP3    H2 1634   5.906   0.566   3.778
  565TIP3   OH2 1635   5.615   0.376   2.783
  565TIP3    H1 1636   5.556   0.350   2.854
  565TIP3    H2 1637   5.586   0.325   2.708
  566TIP3   OH2 1638   6.629   2.203   6.572
  566TIP3    H1 1639   6.620   2.108   6.571
  566TIP3    H2 1640   6.539   2.236   6.579
  567TIP3   OH2 1641   6.071   3.287   1.203
  567TIP3    H1 1642   6.054   3.340   1.281
  567TIP3    H2 1643   6.007   3.216   1.208
  568TIP3   OH2 1644   7.909   7.824   0.888
  568TIP3    H1 1645   7.917   7.857   0.798
  568TIP3    H2 1646   7.818   7.839   0.911
  569TIP3   OH2 1647   1.534   4.498   6.080
  569TIP3    H1 1648   1.524   4.471   5.989
  569TIP3    H2 1649   1.445   4.523   6.107
  570TIP3   OH2 1650   3.204   2.314   3.784
  570TIP3    H1 1651   3.197   2.365   3.703
  570TIP3    H2 1652   3.298   2.310   3.802
  571TIP3   OH2 1653   1.466   1.595   5.853
  571TIP3    H1 1654   1.478   1.584   5.759
  571TIP3    H2 1655   1.538   1.652   5.880
  572TIP3   OH2 1656   1.063   7.270   6.011
  572TIP3    H1 1657   0.978   7.257   5.968
  572TIP3    H2 1658   1.125   7.277   5.939
  573TIP3   OH2 1659   6.546   3.303   3.592
  573TIP3    H1 1660   6.616   3.239   3.574
  573TIP3    H2 1661   6.592   3.382   3.620
  574TIP3   OH2 1662   6.429   5.871   0.491
  574TIP3    H1 1663   6.336   5.857   0.474
  574TIP3    H2 1664   6.432   5.939   0.558
  575TIP3   OH2 1665   5.047   1.399   6.337
  575TIP3    H1 1666   5.071   1.474   6.283
  575TIP3    H2 1667   5.107   1.329   6.309
  576TIP3   OH2 1668   4.501   3.599   4.722
  576TIP3    H1 1669   4.499   3.663   4.793
  576TIP3    H2 1670   4.413   3.603   4.683
  577TIP3   OH2 1671   5.591   4.675   0.967
  577TIP3    H1 1672   5.511   4.656   1.016
  577TIP3    H2 1673   5.639   4.592   0.967
  578TIP3   OH2 1674   0.932   4.549   5.176
  578TIP3    H1 1675   0.968   4.638   5.180
  578TIP3    H2 1676   0.856   4.556   5.119
  579TIP3   OH2 1677   4.206   1.018   6.722
  579TIP3    H1 1678   4.239   1.035   6.811
  579TIP3    H2 1679   4.151   1.094   6.702
  580TIP3   OH2 1680   3.986   2.032   2.659
  580TIP3    H1 1681   4.029   2.045   2.744
  580TIP3    H2 1682   3.910   1.978   2.680
  581TIP3   OH2 1683   4.870   3.459   2.943
  581TIP3    H1 1684   4.883   3.543   2.899
  581TIP3    H2 1685   4.836   3.482   3.030
  582TIP3   OH2 1686   2.278   5.002   3.522
  582TIP3    H1 1687   2.267   5.023   3.430
  582TIP3    H2 1688   2.291   4.907   3.524
  583TIP3   OH2 1689   8.025   3.923   1.256
  583TIP3    H1 1690   8.038   3.832   1.284
  583TIP3    H2 1691   8.101   3.970   1.292
  584TIP3   OH2 1692   5.954   1.572   0.051
  584TIP3    H1 1693   5.944   1.649  -0.004
  584TIP3    H2 1694   5.920   1.598   0.137
  585TIP3   OH2 1695   7.948   6.749   4.214
  585TIP3    H1 1696   8.020   6.801   4.250
  585TIP3    H2 1697   7.966   6.745   4.120
  586TIP3   OH2 1698   7.576   0.829   6.569
  586TIP3    H1 1699   7.636   0.891   6.611
  586TIP3    H2 1700   7.587   0.748   6.618
  587TIP3   OH2 1701   1.476   7.340   5.996
  587TIP3    H1 1702   1.444   7.269   5.941
  587TIP3    H2 1703   1.534   7.297   6.060
  588TIP3   OH2 1704   1.167   3.411   0.744
  588TIP3    H1 1705   1.181   3.321   0.713
  588TIP3    H2 1706   1.126   3.456   0.671
  589TIP3   OH2 1707   1.267   0.110   4.461
  589TIP3    H1 1708   1.353   0.134   4.427
  589TIP3    H2 1709   1.281   0.097   4.555
  590TIP3   OH2 1710   0.402   3.662   2.123
  590TIP3    H1 1711   0.321   3.618   2.096
  590TIP3    H2 1712   0.468   3.631   2.060
  591TIP3   OH2 1713   4.311   2.880   4.251
  591TIP3    H1 1714   4.366   2.855   4.177
  591TIP3    H2 1715   4.221   2.861   4.222
  592TIP3   OH2 1716   0.508   4.867   1.673
  592TIP3    H1 1717   0.586   4.831   1.716
  592TIP3    H2 1718   0.438   4.853   1.737
  593TIP3   OH2 1719   2.060   5.900   2.067
  593TIP3    H1 1720   1.969   5.930   2.063
  593TIP3    H2 1721   2.054   5.810   2.097
  594TIP3   OH2 1722   8.261   7.059   5.652
  594TIP3    H1 1723   8.210   7.085   5.575
  594TIP3    H2 1724   8.341   7.021   5.616
  595TIP3   OH2 1725   1.806   6.386   2.038
  595TIP3    H1 1726   1.857   6.467   2.042
  595TIP3    H2 1727   1.866   6.322   1.999
  596TIP3   OH2 1728   6.513   0.867   5.607
  596TIP3    H1 1729   6.447   0.800   5.592
  596TIP3    H2 1730   6.579   0.824   5.661
  597TIP3   OH2 1731   6.688   7.846   6.839
  597TIP3    H1 1732   6.617   7.882   6.786
  597TIP3    H2 1733   6.763   7.842   6.779
  598TIP3   OH2 1734   1.878   1.121   3.792
  598TIP3    H1 1735   1.906   1.050   3.849
  598TIP3    H2 1736   1.958   1.150   3.749
  599TIP3   OH2 1737   5.908   6.229   5.039
  599TIP3    H1 1738   5.976   6.289   5.011
  599TIP3    H2 1739   5.948   6.142   5.029
  600TIP3   OH2 1740   1.191   3.667   1.117
  600TIP3    H1 1741   1.128   3.725   1.072
  600TIP3    H2 1742   1.151   3.650   1.202
  601TIP3   OH2 1743   1.436   5.700   6.133
  601TIP3    H1 1744   1.432   5.757   6.210
  601TIP3    H2 1745   1.361   5.642   6.143
  602TIP3   OH2 1746   7.097   4.801   5.656
  602TIP3    H1 1747   7.092   4.729   5.719
  602TIP3    H2 1748   7.090   4.758   5.570
  603TIP3   OH2 1749   3.152   3.611   6.274
  603TIP3    H1 1750   3.066   3.607   6.315
  603TIP3    H2 1751   3.145   3.554   6.197
  604TIP3   OH2 1752   5.151   6.929   3.583
  604TIP3    H1 1753   5.139   6.838   3.612
  604TIP3    H2 1754   5.161   6.923   3.488
  605TIP3   OH2 1755   7.438   2.761   4.428
  605TIP3    H1 1756   7.487   2.699   4.482
  605TIP3    H2 1757   7.465   2.847   4.460
  606TIP3   OH2 1758   0.870   6.965   4.465
  606TIP3    H1 1759   0.932   6.908   4.419
  606TIP3    H2 1760   0.784   6.931   4.442
  607TIP3   OH2 1761   6.109   2.505   5.582
  607TIP3    H1 1762   6.191   2.480   5.538
  607TIP3    H2 1763   6.043   2.499   5.512
  608TIP3   OH2 1764   2.360   6.648   0.611
  608TIP3    H1 1765   2.367   6.743   0.618
  608TIP3    H2 1766   2.286   6.634   0.552
  609TIP3   OH2 1767   4.141   0.982   3.927
  609TIP3    H1 1768   4.177   1.002   4.013
  609TIP3    H2 1769   4.111   1.066   3.893
  610TIP3   OH2 1770   6.082   4.079   6.130
  610TIP3    H1 1771   6.100   3.987   6.146
  610TIP3    H2 1772   5.990   4.090   6.154
  611TIP3   OH2 1773   4.132   6.298   4.690
  611TIP3    H1 1774   4.105   6.381   4.652
  611TIP3    H2 1775   4.226   6.294   4.674
  612TIP3   OH2 1776   6.247   2.174   0.896
  612TIP3    H1 1777   6.250   2.240   0.964
  612TIP3    H2 1778   6.208   2.097   0.938
  613TIP3   OH2 1779   7.365   5.157   5.488
  613TIP3    H1 1780   7.371   5.068   5.523
  613TIP3    H2 1781   7.455   5.188   5.487
  614TIP3   OH2 1782   1.902   7.188   6.049
  614TIP3    H1 1783   1.946   7.198   6.133
  614TIP3    H2 1784   1.946   7.113   6.008
  615TIP3   OH2 1785   0.129   0.565   3.419
  615TIP3    H1 1786   0.049   0.546   3.370
  615TIP3    H2 1787   0.130   0.499   3.488
  616TIP3   OH2 1788   5.907   2.041   2.470
  616TIP3    H1 1789   5.813   2.038   2.454
  616TIP3    H2 1790   5.915   2.053   2.565
  617TIP3   OH2 1791   1.225   5.648   3.653
  617TIP3    H1 1792   1.191   5.646   3.743
  617TIP3    H2 1793   1.284   5.723   3.651
  618TIP3   OH2 1794   2.417   7.320   4.347
  618TIP3    H1 1795   2.409   7.274   4.431
  618TIP3    H2 1796   2.327   7.341   4.323
  619TIP3   OH2 1797   1.597   6.127   6.228
  619TIP3    H1 1798   1.660   6.116   6.299
  619TIP3    H2 1799   1.602   6.046   6.179
  620TIP3   OH2 1800   4.453   6.191   4.206
  620TIP3    H1 1801   4.524   6.147   4.160
  620TIP3    H2 1802   4.382   6.195   4.143
  621TIP3   OH2 1803   3.985   5.937   3.523
  621TIP3    H1 1804   3.950   6.013   3.570
  621TIP3    H2 1805   3.908   5.882   3.506
  622TIP3   OH2 1806   5.906   5.502   5.110
  622TIP3    H1 1807   5.925   5.411   5.132
  622TIP3    H2 1808   5.978   5.551   5.150
  623TIP3   OH2 1809   5.394   3.184   5.046
  623TIP3    H1 1810   5.458   3.251   5.024
  623TIP3    H2 1811   5.349   3.218   5.123
  624TIP3   OH2 1812   4.700   3.623   3.597
  624TIP3    H1 1813   4.635   3.641   3.666
  624TIP3    H2 1814   4.774   3.585   3.644
  625TIP3   OH2 1815   1.801   5.887   5.853
  625TIP3    H1 1816   1.774   5.900   5.762
  625TIP3    H2 1817   1.895   5.874   5.849
  626TIP3   OH2 1818   6.308   6.647   5.926
  626TIP3    H1 1819   6.308   6.671   6.019
  626TIP3    H2 1820   6.400   6.625   5.908
  627TIP3   OH2 1821   8.287   4.163   4.459
  627TIP3    H1 1822   8.266   4.070   4.446
  627TIP3    H2 1823   8.375   4.172   4.424
  628TIP3   OH2 1824   2.916   1.524   1.111
  628TIP3    H1 1825   2.972   1.453   1.143
  628TIP3    H2 1826   2.940   1.533   1.018
  629TIP3   OH2 1827   1.479   5.995   4.436
  629TIP3    H1 1828   1.538   5.938   4.386
  629TIP3    H2 1829   1.514   6.083   4.423
  630TIP3   OH2 1830   4.263   1.674   2.017
  630TIP3    H1 1831   4.283   1.708   2.104
  630TIP3    H2 1832   4.230   1.751   1.969
  631TIP3   OH2 1833   5.485   3.662   6.266
  631TIP3    H1 1834   5.532   3.706   6.337
  631TIP3    H2 1835   5.504   3.569   6.279
  632TIP3   OH2 1836   3.184   2.745   4.566
  632TIP3    H1 1837   3.097   2.723   4.533
  632TIP3    H2 1838   3.181   2.721   4.658
  633TIP3   OH2 1839   3.682   6.994   1.844
  633TIP3    H1 1840   3.696   6.930   1.774
  633TIP3    H2 1841   3.691   7.079   1.801
  634TIP3   OH2 1842   8.030   1.869   2.462
  634TIP3    H1 1843   7.945   1.839   2.432
  634TIP3    H2 1844   8.028   1.857   2.557
  635TIP3   OH2 1845   7.878   1.889   2.901
  635TIP3    H1 1846   7.851   1.922   2.816
  635TIP3    H2 1847   7.928   1.810   2.882
  636TIP3   OH2 1848   5.655   4.262   4.163
  636TIP3    H1 1849   5.728   4.262   4.225
  636TIP3    H2 1850   5.598   4.333   4.193
  637TIP3   OH2 1851   1.008   5.905   3.883
  637TIP3    H1 1852   1.032   5.894   3.791
  637TIP3    H2 1853   0.915   5.925   3.881
  638TIP3   OH2 1854   2.801   6.891   0.295
  638TIP3    H1 1855   2.831   6.980   0.312
  638TIP3    H2 1856   2.876   6.835   0.313
  639TIP3   OH2 1857   6.671   1.999   5.339
  639TIP3    H1 1858   6.722   2.055   5.397
  639TIP3    H2 1859   6.607   1.957   5.397
  640TIP3   OH2 1860   1.489   3.488   4.540
  640TIP3    H1 1861   1.399   3.501   4.568
  640TIP3    H2 1862   1.492   3.524   4.451
  641TIP3   OH2 1863   4.038   3.045   4.899
  641TIP3    H1 1864   4.075   3.060   4.812
  641TIP3    H2 1865   4.008   3.131   4.928
  642TIP3   OH2 1866   5.353   7.209   3.458
  642TIP3    H1 1867   5.320   7.135   3.408
  642TIP3    H2 1868   5.445   7.187   3.474
  643TIP3   OH2 1869   6.885   4.806   4.575
  643TIP3    H1 1870   6.850   4.754   4.648
  643TIP3    H2 1871   6.977   4.781   4.570
  644TIP3   OH2 1872   0.897   1.301   4.865
  644TIP3    H1 1873   0.815   1.276   4.824
  644TIP3    H2 1874   0.892   1.397   4.873
  645TIP3   OH2 1875   3.893   5.455   5.798
  645TIP3    H1 1876   3.871   5.493   5.883
  645TIP3    H2 1877   3.984   5.429   5.806
  646TIP3   OH2 1878   1.000   3.808   3.125
  646TIP3    H1 1879   1.093   3.790   3.136
  646TIP3    H2 1880   0.961   3.787   3.211
  647TIP3   OH2 1881   0.809   5.677   4.821
  647TIP3    H1 1882   0.851   5.634   4.895
  647TIP3    H2 1883   0.788   5.606   4.760
  648TIP3   OH2 1884   2.763   1.860   6.482
  648TIP3    H1 1885   2.708   1.781   6.478
  648TIP3    H2 1886   2.771   1.888   6.392
  649TIP3   OH2 1887   5.528   6.600   5.507
  649TIP3    H1 1888   5.485   6.516   5.491
  649TIP3    H2 1889   5.617   6.589   5.474
  650TIP3   OH2 1890   1.838   5.684   1.041
  650TIP3    H1 1891   1.895   5.758   1.063
  650TIP3    H2 1892   1.752   5.708   1.074
  651TIP3   OH2 1893   3.982   0.140   5.255
  651TIP3    H1 1894   3.999   0.207   5.189
  651TIP3    H2 1895   4.064   0.132   5.303
  652TIP3   OH2 1896   2.163   3.801   5.089
  652TIP3    H1 1897   2.184   3.774   5.000
  652TIP3    H2 1898   2.222   3.748   5.145
  653TIP3   OH2 1899   7.827   1.181   4.976
  653TIP3    H1 1900   7.808   1.110   5.038
  653TIP3    H2 1901   7.831   1.138   4.891
  654TIP3   OH2 1902   1.918   7.498   1.831
  654TIP3    H1 1903   1.940   7.573   1.775
  654TIP3    H2 1904   1.823   7.504   1.843
  655TIP3   OH2 1905   6.464   2.463   3.689
  655TIP3    H1 1906   6.448   2.500   3.776
  655TIP3    H2 1907   6.448   2.535   3.628
  656TIP3   OH2 1908   4.547   0.510   0.254
  656TIP3    H1 1909   4.623   0.560   0.223
  656TIP3    H2 1910   4.474   0.544   0.203
  657TIP3   OH2 1911   1.520   2.236   2.604
  657TIP3    H1 1912   1.514   2.250   2.699
  657TIP3    H2 1913   1.511   2.324   2.567
  658TIP3   OH2 1914   2.953   7.483   4.411
  658TIP3    H1 1915   2.945   7.481   4.316
  658TIP3    H2 1916   2.976   7.574   4.431
  659TIP3   OH2 1917   1.200   0.768   6.329
  659TIP3    H1 1918   1.225   0.692   6.277
  659TIP3    H2 1919   1.114   0.792   6.296
  660TIP3   OH2 1920   4.328   1.347   4.267
  660TIP3    H1 1921   4.366   1.291   4.199
  660TIP3    H2 1922   4.240   1.312   4.280
  661TIP3   OH2 1923   6.591   7.873   1.582
  661TIP3    H1 1924   6.611   7.935   1.651
  661TIP3    H2 1925   6.513   7.909   1.540
  662TIP3   OH2 1926   5.620   1.978   2.508
  662TIP3    H1 1927   5.533   1.989   2.547
  662TIP3    H2 1928   5.602   1.954   2.417
  663TIP3   OH2 1929   1.027   6.841   5.131
  663TIP3    H1 1930   1.062   6.836   5.041
  663TIP3    H2 1931   1.010   6.750   5.154
  664TIP3   OH2 1932   4.669   4.237   3.044
  664TIP3    H1 1933   4.716   4.244   3.127
  664TIP3    H2 1934   4.726   4.280   2.980
  665TIP3   OH2 1935   6.817   2.423   3.444
  665TIP3    H1 1936   6.819   2.519   3.448
  665TIP3    H2 1937   6.904   2.398   3.413
  666TIP3   OH2 1938   6.575   0.902   6.052
  666TIP3    H1 1939   6.669   0.887   6.044
  666TIP3    H2 1940   6.564   0.995   6.032
  667TIP3   OH2 1941   5.505   4.492   4.217
  667TIP3    H1 1942   5.476   4.540   4.139
  667TIP3    H2 1943   5.518   4.561   4.283
  668TIP3   OH2 1944   6.639   2.606   1.851
  668TIP3    H1 1945   6.706   2.544   1.879
  668TIP3    H2 1946   6.582   2.555   1.793
  669TIP3   OH2 1947   7.893   3.373   0.071
  669TIP3    H1 1948   7.953   3.344   0.140
  669TIP3    H2 1949   7.826   3.424   0.116
  670TIP3   OH2 1950   3.675   5.439   3.557
  670TIP3    H1 1951   3.733   5.396   3.621
  670TIP3    H2 1952   3.733   5.487   3.499
  671TIP3   OH2 1953   6.428   5.761   1.825
  671TIP3    H1 1954   6.470   5.845   1.807
  671TIP3    H2 1955   6.499   5.703   1.851
  672TIP3   OH2 1956   8.192   3.494   4.978
  672TIP3    H1 1957   8.201   3.458   5.066
  672TIP3    H2 1958   8.131   3.567   4.988
  673TIP3   OH2 1959   5.693   4.319   3.293
  673TIP3    H1 1960   5.618   4.303   3.350
  673TIP3    H2 1961   5.697   4.242   3.236
  674TIP3   OH2 1962   3.845   6.115   1.286
  674TIP3    H1 1963   3.888   6.159   1.360
  674TIP3    H2 1964   3.783   6.179   1.253
  675TIP3   OH2 1965   5.923   5.747   6.305
  675TIP3    H1 1966   5.827   5.743   6.303
  675TIP3    H2 1967   5.943   5.834   6.338
  676TIP3   OH2 1968   1.160   0.047   1.821
  676TIP3    H1 1969   1.238   0.006   1.784
  676TIP3    H2 1970   1.102  -0.026   1.842
  677TIP3   OH2 1971   0.169   7.338   6.406
  677TIP3    H1 1972   0.178   7.327   6.500
  677TIP3    H2 1973   0.092   7.393   6.395
  678TIP3   OH2 1974   7.233   3.671   0.217
  678TIP3    H1 1975   7.249   3.743   0.278
  678TIP3    H2 1976   7.231   3.713   0.131
  679TIP3   OH2 1977   0.732   5.371   5.640
  679TIP3    H1 1978   0.651   5.373   5.589
  679TIP3    H2 1979   0.798   5.410   5.582
  680TIP3   OH2 1980   1.385   7.912   3.209
  680TIP3    H1 1981   1.398   7.829   3.255
  680TIP3    H2 1982   1.421   7.978   3.269
  681TIP3   OH2 1983   0.853   6.741   5.992
  681TIP3    H1 1984   0.878   6.829   5.965
  681TIP3    H2 1985   0.760   6.735   5.968
  682TIP3   OH2 1986   4.318   6.380   3.679
  682TIP3    H1 1987   4.399   6.343   3.644
  682TIP3    H2 1988   4.320   6.472   3.651
  683TIP3   OH2 1989   6.085   7.865   5.914
  683TIP3    H1 1990   6.150   7.831   5.853
  683TIP3    H2 1991   6.136   7.903   5.985
  684TIP3   OH2 1992   0.618   0.570   1.732
  684TIP3    H1 1993   0.540   0.587   1.678
  684TIP3    H2 1994   0.671   0.649   1.722
  685TIP3   OH2 1995   5.028   4.184   5.205
  685TIP3    H1 1996   5.123   4.185   5.194
  685TIP3    H2 1997   5.005   4.277   5.216
  686TIP3   OH2 1998   0.446   0.465   2.937
  686TIP3    H1 1999   0.525   0.426   2.901
  686TIP3    H2 2000   0.469   0.486   3.028
  687TIP3   OH2 2001   0.273   7.739   1.593
  687TIP3    H1 2002   0.307   7.807   1.652
  687TIP3    H2 2003   0.196   7.780   1.553
  688TIP3   OH2 2004   5.864   5.084   6.480
  688TIP3    H1 2005   5.886   5.161   6.532
  688TIP3    H2 2006   5.827   5.119   6.399
  689TIP3   OH2 2007   5.769   6.836   1.592
  689TIP3    H1 2008   5.758   6.931   1.604
  689TIP3    H2 2009   5.796   6.827   1.501
  690TIP3   OH2 2010   1.525   1.885   4.988
  690TIP3    H1 2011   1.511   1.795   5.017
  690TIP3    H2 2012   1.437   1.921   4.976
  691TIP3   OH2 2013   4.733   4.865   2.088
  691TIP3    H1 2014   4.813   4.826   2.123
  691TIP3    H2 2015   4.723   4.947   2.137
  692TIP3   OH2 2016   7.456   1.412   3.874
  692TIP3    H1 2017   7.463   1.318   3.858
  692TIP3    H2 2018   7.497   1.452   3.798
  693TIP3   OH2 2019   1.177   1.836   1.513
  693TIP3    H1 2020   1.100   1.788   1.544
  693TIP3    H2 2021   1.142   1.905   1.458
  694TIP3   OH2 2022   6.162   3.693   5.772
  694TIP3    H1 2023   6.205   3.691   5.687
  694TIP3    H2 2024   6.078   3.735   5.755
  695TIP3   OH2 2025   3.325   7.506   3.413
  695TIP3    H1 2026   3.239   7.497   3.372
  695TIP3    H2 2027   3.359   7.417   3.417
  696TIP3   OH2 2028   3.565   2.794   5.556
  696TIP3    H1 2029   3.612   2.838   5.627
  696TIP3    H2 2030   3.551   2.705   5.587
  697TIP3   OH2 2031   8.001   6.355   2.119
  697TIP3    H1 2032   8.051   6.429   2.154
  697TIP3    H2 2033   8.047   6.278   2.152
  698TIP3   OH2 2034   0.261   7.183   1.373
  698TIP3    H1 2035   0.193   7.207   1.437
  698TIP3    H2 2036   0.304   7.107   1.412
  699TIP3   OH2 2037   7.537   5.201   2.547
  699TIP3    H1 2038   7.614   5.150   2.522
  699TIP3    H2 2039   7.570   5.290   2.559
  700TIP3   OH2 2040   6.458   2.297   2.189
  700TIP3    H1 2041   6.479   2.341   2.271
  700TIP3    H2 2042   6.539   2.253   2.164
  701TIP3   OH2 2043   2.211   3.964   4.458
  701TIP3    H1 2044   2.295   3.939   4.496
  701TIP3    H2 2045   2.225   3.957   4.363
  702TIP3   OH2 2046   5.932   4.338   2.802
  702TIP3    H1 2047   5.859   4.398   2.816
  702TIP3    H2 2048   5.942   4.292   2.886
  703TIP3   OH2 2049   0.472   6.859   3.144
  703TIP3    H1 2050   0.399   6.821   3.095
  703TIP3    H2 2051   0.446   6.851   3.236
  704TIP3   OH2 2052   7.047   3.985   4.320
  704TIP3    H1 2053   7.097   4.053   4.273
  704TIP3    H2 2054   7.075   3.903   4.280
  705TIP3   OH2 2055   7.322   3.198   4.049
  705TIP3    H1 2056   7.346   3.288   4.070
  705TIP3    H2 2057   7.290   3.202   3.958
  706TIP3   OH2 2058   7.671   0.955   5.012
  706TIP3    H1 2059   7.626   0.894   4.953
  706TIP3    H2 2060   7.730   0.900   5.064
  707TIP3   OH2 2061   0.121   1.706   3.654
  707TIP3    H1 2062   0.160   1.793   3.659
  707TIP3    H2 2063   0.195   1.646   3.648
  708TIP3   OH2 2064   5.422   5.552   1.000
  708TIP3    H1 2065   5.463   5.613   0.938
  708TIP3    H2 2066   5.479   5.475   0.997
  709TIP3   OH2 2067   6.937   1.130   0.421
  709TIP3    H1 2068   6.926   1.055   0.479
  709TIP3    H2 2069   6.978   1.197   0.476
  710TIP3   OH2 2070   0.277   4.259   5.752
  710TIP3    H1 2071   0.343   4.322   5.724
  710TIP3    H2 2072   0.256   4.284   5.842
  711TIP3   OH2 2073   8.215   6.338   6.085
  711TIP3    H1 2074   8.255   6.395   6.151
  711TIP3    H2 2075   8.268   6.258   6.087
  712TIP3   OH2 2076   4.844   3.997   4.693
  712TIP3    H1 2077   4.776   4.017   4.757
  712TIP3    H2 2078   4.898   3.930   4.737
  713TIP3   OH2 2079   5.363   3.832   0.321
  713TIP3    H1 2080   5.444   3.781   0.328
  713TIP3    H2 2081   5.316   3.813   0.402
  714TIP3   OH2 2082   0.814   3.365   4.676
  714TIP3    H1 2083   0.765   3.406   4.605
  714TIP3    H2 2084   0.763   3.385   4.755
  715TIP3   OH2 2085   2.319   3.567   5.171
  715TIP3    H1 2086   2.257   3.520   5.115
  715TIP3    H2 2087   2.392   3.506   5.183
  716TIP3   OH2 2088   8.437   1.764   6.562
  716TIP3    H1 2089   8.355   1.806   6.587
  716TIP3    H2 2090   8.495   1.837   6.541
  717TIP3   OH2 2091   5.115   5.265   4.502
  717TIP3    H1 2092   5.173   5.330   4.542
  717TIP3    H2 2093   5.126   5.278   4.408
  718TIP3   OH2 2094   4.160   4.014   6.598
  718TIP3    H1 2095   4.106   3.936   6.581
  718TIP3    H2 2096   4.205   3.994   6.680
  719TIP3   OH2 2097   7.331   4.711   3.296
  719TIP3    H1 2098   7.270   4.744   3.361
  719TIP3    H2 2099   7.334   4.779   3.229
  720TIP3   OH2 2100   2.761   2.097   3.666
  720TIP3    H1 2101   2.822   2.151   3.616
  720TIP3    H2 2102   2.815   2.027   3.703
  721TIP3   OH2 2103   2.052   0.904   6.705
  721TIP3    H1 2104   1.980   0.968   6.700
  721TIP3    H2 2105   2.113   0.931   6.636
  722TIP3   OH2 2106   5.275   2.632   2.611
  722TIP3    H1 2107   5.335   2.558   2.621
  722TIP3    H2 2108   5.325   2.697   2.562
  723TIP3   OH2 2109   0.426   1.938   5.258
  723TIP3    H1 2110   0.375   1.931   5.177
  723TIP3    H2 2111   0.495   2.001   5.238
  724TIP3   OH2 2112   0.326   1.001   1.641
  724TIP3    H1 2113   0.259   0.933   1.643
  724TIP3    H2 2114   0.387   0.975   1.572
  725TIP3   OH2 2115   0.983   3.075   4.760
  725TIP3    H1 2116   0.895   3.111   4.747
  725TIP3    H2 2117   1.028   3.090   4.677
  726TIP3   OH2 2118   3.677   3.808   5.722
  726TIP3    H1 2119   3.773   3.799   5.719
  726TIP3    H2 2120   3.645   3.720   5.704
  727TIP3   OH2 2121   3.081   0.028   5.431
  727TIP3    H1 2122   2.992  -0.004   5.415
  727TIP3    H2 2123   3.106   0.069   5.348
  728TIP3   OH2 2124   2.653   0.064   2.344
  728TIP3    H1 2125   2.729   0.019   2.307
  728TIP3    H2 2126   2.651   0.035   2.436
  729TIP3   OH2 2127   1.058   4.422   1.229
  729TIP3    H1 2128   1.005   4.388   1.157
  729TIP3    H2 2129   1.145   4.434   1.191
  730TIP3   OH2 2130   3.487   4.765   4.132
  730TIP3    H1 2131   3.510   4.798   4.218
  730TIP3    H2 2132   3.552   4.697   4.113
  731TIP3   OH2 2133   8.224   4.531   1.815
  731TIP3    H1 2134   8.214   4.589   1.740
  731TIP3    H2 2135   8.142   4.481   1.819
  732TIP3   OH2 2136   1.161   2.907   2.494
  732TIP3    H1 2137   1.242   2.894   2.445
  732TIP3    H2 2138   1.116   2.823   2.488
  733TIP3   OH2 2139   0.393   1.066   1.080
  733TIP3    H1 2140   0.378   1.133   1.014
  733TIP3    H2 2141   0.337   0.993   1.054
  734TIP3   OH2 2142   3.385   7.246   3.365
  734TIP3    H1 2143   3.413   7.215   3.451
  734TIP3    H2 2144   3.454   7.217   3.305
  735TIP3   OH2 2145   3.419   4.429   1.217
  735TIP3    H1 2146   3.466   4.355   1.256
  735TIP3    H2 2147   3.425   4.499   1.282
  736TIP3   OH2 2148   6.790   4.585   5.099
  736TIP3    H1 2149   6.849   4.549   5.033
  736TIP3    H2 2150   6.808   4.534   5.178
  737TIP3   OH2 2151   5.153   3.374   2.751
  737TIP3    H1 2152   5.098   3.444   2.716
  737TIP3    H2 2153   5.203   3.342   2.676
  738TIP3   OH2 2154   1.642   5.934   3.270
  738TIP3    H1 2155   1.626   5.911   3.178
  738TIP3    H2 2156   1.554   5.942   3.308
  739TIP3   OH2 2157   4.940   0.577   5.561
  739TIP3    H1 2158   4.938   0.655   5.506
  739TIP3    H2 2159   4.866   0.525   5.531
  740TIP3   OH2 2160   1.280   0.476   5.986
  740TIP3    H1 2161   1.335   0.458   5.909
  740TIP3    H2 2162   1.268   0.571   5.985
  741TIP3   OH2 2163   6.529   2.661   6.527
  741TIP3    H1 2164   6.459   2.599   6.546
  741TIP3    H2 2165   6.488   2.747   6.535
  742TIP3   OH2 2166   0.160   5.652   4.947
  742TIP3    H1 2167   0.074   5.616   4.968
  742TIP3    H2 2168   0.141   5.734   4.901
  743TIP3   OH2 2169   6.866   7.888   0.928
  743TIP3    H1 2170   6.941   7.940   0.899
  743TIP3    H2 2171   6.806   7.889   0.853
  744TIP3   OH2 2172   6.908   0.751   0.813
  744TIP3    H1 2173   6.822   0.789   0.794
  744TIP3    H2 2174   6.911   0.745   0.908
  745TIP3   OH2 2175   4.177   1.805   1.622
  745TIP3    H1 2176   4.263   1.847   1.616
  745TIP3    H2 2177   4.167   1.758   1.539
  746TIP3   OH2 2178   6.843   4.448   4.178
  746TIP3    H1 2179   6.778   4.394   4.133
  746TIP3    H2 2180   6.880   4.503   4.109
  747TIP3   OH2 2181   3.600   4.278   2.371
  747TIP3    H1 2182   3.573   4.348   2.431
  747TIP3    H2 2183   3.674   4.236   2.416
  748TIP3   OH2 2184   8.191   0.119   2.755
  748TIP3    H1 2185   8.276   0.151   2.785
  748TIP3    H2 2186   8.161   0.185   2.692
  749TIP3   OH2 2187   2.461   1.696   2.900
  749TIP3    H1 2188   2.533   1.633   2.902
  749TIP3    H2 2189   2.493   1.770   2.951
  750TIP3   OH2 2190   6.341   2.466   0.523
  750TIP3    H1 2191   6.408   2.514   0.572
  750TIP3    H2 2192   6.380   2.380   0.506
  751TIP3   OH2 2193   0.898   0.069   2.009
  751TIP3    H1 2194   0.911   0.133   1.939
  751TIP3    H2 2195   0.811   0.032   1.993
  752TIP3   OH2 2196   4.111   3.397   2.404
  752TIP3    H1 2197   4.062   3.430   2.329
  752TIP3    H2 2198   4.065   3.433   2.480
  753TIP3   OH2 2199   6.810   1.457   4.307
  753TIP3    H1 2200   6.837   1.457   4.398
  753TIP3    H2 2201   6.844   1.539   4.271
  754TIP3   OH2 2202   6.303   0.034   5.740
  754TIP3    H1 2203   6.385   0.073   5.771
  754TIP3    H2 2204   6.308   0.041   5.644
  755TIP3   OH2 2205   7.534   2.274   3.994
  755TIP3    H1 2206   7.483   2.346   3.956
  755TIP3    H2 2207   7.605   2.317   4.041
  756TIP3   OH2 2208   8.020   7.837   3.049
  756TIP3    H1 2209   8.003   7.929   3.028
  756TIP3    H2 2210   7.948   7.812   3.107
  757TIP3   OH2 2211   4.333   4.553   5.647
  757TIP3    H1 2212   4.264   4.618   5.633
  757TIP3    H2 2213   4.334   4.539   5.742
  758TIP3   OH2 2214   0.698   1.903   4.103
  758TIP3    H1 2215   0.608   1.887   4.074
  758TIP3    H2 2216   0.728   1.975   4.048
  759TIP3   OH2 2217   2.098   2.754   2.899
  759TIP3    H1 2218   2.104   2.671   2.852
  759TIP3    H2 2219   2.055   2.732   2.981
  760TIP3   OH2 2220   5.312   6.287   3.486
  760TIP3    H1 2221   5.407   6.301   3.486
  760TIP3    H2 2222   5.286   6.300   3.577
  761TIP3   OH2 2223   3.641   3.289   2.396
  761TIP3    H1 2224   3.663   3.374   2.433
  761TIP3    H2 2225   3.564   3.306   2.341
  762TIP3   OH2 2226   2.451   4.094   5.253
  762TIP3    H1 2227   2.444   4.007   5.213
  762TIP3    H2 2228   2.542   4.119   5.239
  763TIP3   OH2 2229   2.350   4.632   0.489
  763TIP3    H1 2230   2.273   4.656   0.436
  763TIP3    H2 2231   2.323   4.651   0.579
  764TIP3   OH2 2232   7.739   7.624   5.372
  764TIP3    H1 2233   7.661   7.670   5.404
  764TIP3    H2 2234   7.792   7.609   5.451
  765TIP3   OH2 2235   1.920   7.474   4.519
  765TIP3    H1 2236   2.002   7.478   4.568
  765TIP3    H2 2237   1.934   7.530   4.443
  766TIP3   OH2 2238   5.240   6.732   2.167
  766TIP3    H1 2239   5.165   6.689   2.125
  766TIP3    H2 2240   5.201   6.791   2.231
  767TIP3   OH2 2241   1.778   2.614   2.971
  767TIP3    H1 2242   1.818   2.530   2.994
  767TIP3    H2 2243   1.727   2.595   2.892
  768TIP3   OH2 2244   4.838   1.274   3.621
  768TIP3    H1 2245   4.828   1.178   3.621
  768TIP3    H2 2246   4.749   1.307   3.603
  769TIP3   OH2 2247   0.709   0.796   4.627
  769TIP3    H1 2248   0.738   0.706   4.613
  769TIP3    H2 2249   0.626   0.802   4.580
  770TIP3   OH2 2250   5.362   3.007   3.863
  770TIP3    H1 2251   5.354   3.088   3.912
  770TIP3    H2 2252   5.371   3.035   3.772
  771TIP3   OH2 2253   7.272   0.675   4.979
  771TIP3    H1 2254   7.294   0.650   5.069
  771TIP3    H2 2255   7.188   0.721   4.986
  772TIP3   OH2 2256   1.624   1.031   3.802
  772TIP3    H1 2257   1.708   1.073   3.784
  772TIP3    H2 2258   1.559   1.089   3.760
  773TIP3   OH2 2259   1.832   7.630   0.157
  773TIP3    H1 2260   1.757   7.652   0.212
  773TIP3    H2 2261   1.822   7.536   0.140
  774TIP3   OH2 2262   3.979   3.939   1.659
  774TIP3    H1 2263   4.024   3.986   1.729
  774TIP3    H2 2264   4.046   3.924   1.592
  775TIP3   OH2 2265   1.287   6.311   1.131
  775TIP3    H1 2266   1.231   6.234   1.123
  775TIP3    H2 2267   1.247   6.364   1.200
  776TIP3   OH2 2268   7.679   6.442   0.151
  776TIP3    H1 2269   7.673   6.532   0.121
  776TIP3    H2 2270   7.771   6.420   0.144
  777TIP3   OH2 2271   4.742   3.759   5.515
  777TIP3    H1 2272   4.686   3.779   5.590
  777TIP3    H2 2273   4.822   3.809   5.531
  778TIP3   OH2 2274   2.116   5.669   1.653
  778TIP3    H1 2275   2.139   5.755   1.687
  778TIP3    H2 2276   2.087   5.685   1.563
  779TIP3   OH2 2277   8.195   4.748   2.235
  779TIP3    H1 2278   8.237   4.686   2.175
  779TIP3    H2 2279   8.209   4.834   2.194
  780TIP3   OH2 2280   5.896   5.120   1.964
  780TIP3    H1 2281   5.829   5.172   2.010
  780TIP3    H2 2282   5.884   5.142   1.872
  781TIP3   OH2 2283   0.362   0.515   5.507
  781TIP3    H1 2284   0.327   0.469   5.430
  781TIP3    H2 2285   0.406   0.447   5.557
  782TIP3   OH2 2286   8.313   0.748   3.027
  782TIP3    H1 2287   8.259   0.702   2.962
  782TIP3    H2 2288   8.270   0.731   3.110
  783TIP3   OH2 2289   1.213   2.636   6.161
  783TIP3    H1 2290   1.151   2.696   6.119
  783TIP3    H2 2291   1.281   2.693   6.197
  784TIP3   OH2 2292   7.811   5.051   3.304
  784TIP3    H1 2293   7.832   5.050   3.397
  784TIP3    H2 2294   7.735   4.993   3.296
  785TIP3   OH2 2295   1.085   4.760   6.490
  785TIP3    H1 2296   1.104   4.853   6.482
  785TIP3    H2 2297   0.990   4.754   6.481
  786TIP3   OH2 2298   4.241   7.358   2.660
  786TIP3    H1 2299   4.154   7.361   2.699
  786TIP3    H2 2300   4.295   7.314   2.725
  787TIP3   OH2 2301   2.952   1.632   2.632
  787TIP3    H1 2302   2.921   1.717   2.661
  787TIP3    H2 2303   2.873   1.585   2.606
  788TIP3   OH2 2304   0.578   5.974   5.155
  788TIP3    H1 2305   0.500   6.031   5.160
  788TIP3    H2 2306   0.558   5.911   5.086
  789TIP3   OH2 2307   2.146   2.309   5.588
  789TIP3    H1 2308   2.139   2.404   5.590
  789TIP3    H2 2309   2.234   2.290   5.619
  790TIP3   OH2 2310   2.663   5.212   5.418
  790TIP3    H1 2311   2.732   5.148   5.432
  790TIP3    H2 2312   2.602   5.199   5.490
  791TIP3   OH2 2313   5.538   6.713   2.027
  791TIP3    H1 2314   5.555   6.805   2.046
  791TIP3    H2 2315   5.580   6.697   1.943
  792TIP3   OH2 2316   6.418   4.865   2.088
  792TIP3    H1 2317   6.354   4.933   2.108
  792TIP3    H2 2318   6.416   4.858   1.992
  793TIP3   OH2 2319   4.830   4.609   3.305
  793TIP3    H1 2320   4.873   4.686   3.343
  793TIP3    H2 2321   4.752   4.644   3.262
  794TIP3   OH2 2322   0.733   4.550   3.022
  794TIP3    H1 2323   0.756   4.518   2.935
  794TIP3    H2 2324   0.733   4.645   3.014
  795TIP3   OH2 2325   5.886   5.052   2.284
  795TIP3    H1 2326   5.846   4.967   2.266
  795TIP3    H2 2327   5.826   5.115   2.243
  796TIP3   OH2 2328   8.091   1.275   3.090
  796TIP3    H1 2329   8.118   1.242   3.005
  796TIP3    H2 2330   8.009   1.321   3.073
  797TIP3   OH2 2331   5.035   2.339   0.415
  797TIP3    H1 2332   5.000   2.276   0.353
  797TIP3    H2 2333   5.107   2.382   0.369
  798TIP3   OH2 2334   7.762   5.023   5.747
  798TIP3    H1 2335   7.810   5.105   5.758
  798TIP3    H2 2336   7.814   4.959   5.795
  799TIP3   OH2 2337   5.065   6.769   5.920
  799TIP3    H1 2338   5.013   6.848   5.936
  799TIP3    H2 2339   5.001   6.702   5.899
  800TIP3   OH2 2340   1.002   3.761   5.478
  800TIP3    H1 2341   0.957   3.748   5.561
  800TIP3    H2 2342   1.022   3.854   5.475
  801TIP3   OH2 2343   2.794   2.526   6.434
  801TIP3    H1 2344   2.784   2.500   6.525
  801TIP3    H2 2345   2.877   2.486   6.407
  802TIP3   OH2 2346   4.167   5.413   5.526
  802TIP3    H1 2347   4.230   5.485   5.526
  802TIP3    H2 2348   4.213   5.342   5.571
  803TIP3   OH2 2349   4.296   1.134   0.571
  803TIP3    H1 2350   4.290   1.228   0.553
  803TIP3    H2 2351   4.206   1.107   0.586
  804TIP3   OH2 2352   6.950   2.648   0.807
  804TIP3    H1 2353   6.873   2.620   0.857
  804TIP3    H2 2354   7.018   2.586   0.833
  805TIP3   OH2 2355   3.543   5.764   2.213
  805TIP3    H1 2356   3.563   5.769   2.306
  805TIP3    H2 2357   3.501   5.847   2.192
  806TIP3   OH2 2358   6.414   7.368   0.439
  806TIP3    H1 2359   6.404   7.332   0.351
  806TIP3    H2 2360   6.413   7.463   0.426
  807TIP3   OH2 2361   2.971   0.491   2.077
  807TIP3    H1 2362   3.065   0.506   2.090
  807TIP3    H2 2363   2.940   0.571   2.035
  808TIP3   OH2 2364   6.426   3.229   6.684
  808TIP3    H1 2365   6.479   3.214   6.605
  808TIP3    H2 2366   6.419   3.142   6.725
  809TIP3   OH2 2367   5.226   5.994   3.000
  809TIP3    H1 2368   5.254   5.907   3.029
  809TIP3    H2 2369   5.304   6.049   3.009
  810TIP3   OH2 2370   8.239   3.237   5.435
  810TIP3    H1 2371   8.226   3.145   5.414
  810TIP3    H2 2372   8.243   3.239   5.531
  811TIP3   OH2 2373   4.439   0.748   6.192
  811TIP3    H1 2374   4.441   0.656   6.164
  811TIP3    H2 2375   4.480   0.747   6.279
  812TIP3   OH2 2376   3.358   3.143   5.144
  812TIP3    H1 2377   3.418   3.088   5.195
  812TIP3    H2 2378   3.375   3.232   5.174
  813TIP3   OH2 2379   2.009   1.756   2.755
  813TIP3    H1 2380   2.008   1.698   2.679
  813TIP3    H2 2381   1.929   1.808   2.746
  814TIP3   OH2 2382   7.495   5.650   4.850
  814TIP3    H1 2383   7.566   5.593   4.822
  814TIP3    H2 2384   7.497   5.646   4.946
  815TIP3   OH2 2385   3.708   6.456   6.550
  815TIP3    H1 2386   3.654   6.411   6.615
  815TIP3    H2 2387   3.740   6.534   6.596
  816TIP3   OH2 2388   7.986   5.613   3.570
  816TIP3    H1 2389   7.941   5.694   3.547
  816TIP3    H2 2390   7.925   5.543   3.546
  817TIP3   OH2 2391   3.014   2.455   2.471
  817TIP3    H1 2392   2.937   2.399   2.463
  817TIP3    H2 2393   3.081   2.398   2.508
  818TIP3   OH2 2394   5.846   5.750   2.892
  818TIP3    H1 2395   5.840   5.832   2.941
  818TIP3    H2 2396   5.785   5.762   2.819
  819TIP3   OH2 2397   3.606   1.361   5.003
  819TIP3    H1 2398   3.583   1.324   4.918
  819TIP3    H2 2399   3.524   1.359   5.053
  820TIP3   OH2 2400   3.679   2.320   1.393
  820TIP3    H1 2401   3.598   2.335   1.344
  820TIP3    H2 2402   3.736   2.394   1.368
  821TIP3   OH2 2403   6.401   4.817   6.823
  821TIP3    H1 2404   6.429   4.894   6.773
  821TIP3    H2 2405   6.306   4.828   6.833
  822TIP3   OH2 2406   1.668   2.390   6.732
  822TIP3    H1 2407   1.629   2.318   6.682
  822TIP3    H2 2408   1.643   2.469   6.683
  823TIP3   OH2 2409   7.708   1.841   0.896
  823TIP3    H1 2410   7.654   1.764   0.880
  823TIP3    H2 2411   7.798   1.810   0.885
  824TIP3   OH2 2412   4.692   6.906   3.567
  824TIP3    H1 2413   4.759   6.966   3.599
  824TIP3    H2 2414   4.739   6.823   3.553
  825TIP3   OH2 2415   7.492   7.376   3.770
  825TIP3    H1 2416   7.513   7.303   3.711
  825TIP3    H2 2417   7.396   7.371   3.779
  826TIP3   OH2 2418   5.695   5.870   4.440
  826TIP3    H1 2419   5.654   5.921   4.370
  826TIP3    H2 2420   5.778   5.840   4.403
  827TIP3   OH2 2421   1.684   1.223   4.894
  827TIP3    H1 2422   1.777   1.215   4.913
  827TIP3    H2 2423   1.669   1.317   4.886
  828TIP3   OH2 2424   7.579   6.595   4.504
  828TIP3    H1 2425   7.561   6.687   4.487
  828TIP3    H2 2426   7.579   6.587   4.599
  829TIP3   OH2 2427   4.971   1.855   1.258
  829TIP3    H1 2428   4.879   1.861   1.232
  829TIP3    H2 2429   5.017   1.838   1.176
  830TIP3   OH2 2430   8.301   1.074   5.011
  830TIP3    H1 2431   8.350   1.032   4.940
  830TIP3    H2 2432   8.259   1.001   5.057
  831TIP3   OH2 2433   7.157   0.868   1.611
  831TIP3    H1 2434   7.226   0.929   1.636
  831TIP3    H2 2435   7.115   0.907   1.535
  832TIP3   OH2 2436   4.967   5.639   2.666
  832TIP3    H1 2437   4.972   5.568   2.729
  832TIP3    H2 2438   4.975   5.719   2.719
  833TIP3   OH2 2439   3.105   3.960   5.655
  833TIP3    H1 2440   3.033   3.992   5.601
  833TIP3    H2 2441   3.065   3.939   5.739
  834TIP3   OH2 2442   8.304   7.815   0.248
  834TIP3    H1 2443   8.296   7.727   0.287
  834TIP3    H2 2444   8.397   7.835   0.254
  835TIP3   OH2 2445   2.681   4.656   4.566
  835TIP3    H1 2446   2.709   4.683   4.479
  835TIP3    H2 2447   2.682   4.561   4.564
  836TIP3   OH2 2448   0.715   5.237   2.088
  836TIP3    H1 2449   0.758   5.192   2.161
  836TIP3    H2 2450   0.724   5.330   2.108
  837TIP3   OH2 2451   5.760   0.432   6.735
  837TIP3    H1 2452   5.694   0.451   6.668
  837TIP3    H2 2453   5.832   0.492   6.714
  838TIP3   OH2 2454   5.905   5.588   5.740
  838TIP3    H1 2455   5.982   5.644   5.745
  838TIP3    H2 2456   5.864   5.611   5.656
  839TIP3   OH2 2457   7.748   1.993   2.685
  839TIP3    H1 2458   7.667   1.963   2.724
  839TIP3    H2 2459   7.724   2.070   2.634
  840TIP3   OH2 2460   7.562   7.157   6.632
  840TIP3    H1 2461   7.567   7.099   6.555
  840TIP3    H2 2462   7.543   7.099   6.705
  841TIP3   OH2 2463   5.541   1.819   2.283
  841TIP3    H1 2464   5.616   1.799   2.227
  841TIP3    H2 2465   5.474   1.853   2.223
  842TIP3   OH2 2466   3.667   5.073   4.275
  842TIP3    H1 2467   3.676   5.159   4.318
  842TIP3    H2 2468   3.614   5.090   4.198
  843TIP3   OH2 2469   4.119   4.787   0.893
  843TIP3    H1 2470   4.066   4.710   0.910
  843TIP3    H2 2471   4.083   4.855   0.949
  844TIP3   OH2 2472   6.813   3.672   0.593
  844TIP3    H1 2473   6.837   3.727   0.518
  844TIP3    H2 2474   6.727   3.705   0.620
  845TIP3   OH2 2475   6.992   5.397   1.330
  845TIP3    H1 2476   7.045   5.390   1.410
  845TIP3    H2 2477   6.986   5.306   1.298
  846TIP3   OH2 2478   4.455   0.510   5.752
  846TIP3    H1 2479   4.491   0.582   5.699
  846TIP3    H2 2480   4.391   0.468   5.695
  847TIP3   OH2 2481   2.852   3.196   4.505
  847TIP3    H1 2482   2.915   3.221   4.438
  847TIP3    H2 2483   2.901   3.140   4.565
  848TIP3   OH2 2484   2.756   0.620   5.460
  848TIP3    H1 2485   2.766   0.558   5.388
  848TIP3    H2 2486   2.845   0.630   5.495
  849TIP3   OH2 2487   5.380   1.684   6.690
  849TIP3    H1 2488   5.363   1.776   6.710
  849TIP3    H2 2489   5.460   1.685   6.637
  850TIP3   OH2 2490   1.751   6.201   0.588
  850TIP3    H1 2491   1.800   6.253   0.526
  850TIP3    H2 2492   1.774   6.238   0.674
  851TIP3   OH2 2493   0.850   6.750   5.393
  851TIP3    H1 2494   0.914   6.729   5.461
  851TIP3    H2 2495   0.828   6.666   5.353
  852TIP3   OH2 2496   6.399   6.320   2.802
  852TIP3    H1 2497   6.327   6.281   2.753
  852TIP3    H2 2498   6.478   6.297   2.752
  853TIP3   OH2 2499   2.868   5.760   0.336
  853TIP3    H1 2500   2.872   5.838   0.392
  853TIP3    H2 2501   2.871   5.794   0.247
  854TIP3   OH2 2502   1.094   7.372   4.739
  854TIP3    H1 2503   1.186   7.395   4.753
  854TIP3    H2 2504   1.093   7.328   4.654
  855TIP3   OH2 2505   6.237   2.602   4.675
  855TIP3    H1 2506   6.267   2.559   4.755
  855TIP3    H2 2507   6.257   2.538   4.606
  856TIP3   OH2 2508   8.194   5.153   5.985
  856TIP3    H1 2509   8.260   5.196   6.040
  856TIP3    H2 2510   8.114   5.201   6.003
  857TIP3   OH2 2511   2.742   5.124   0.396
  857TIP3    H1 2512   2.715   5.142   0.306
  857TIP3    H2 2513   2.715   5.034   0.412
  858TIP3   OH2 2514   6.450   2.182   3.815
  858TIP3    H1 2515   6.513   2.234   3.765
  858TIP3    H2 2516   6.487   2.094   3.816
  859TIP3   OH2 2517   2.545   0.940   1.548
  859TIP3    H1 2518   2.564   0.916   1.639
  859TIP3    H2 2519   2.468   0.996   1.553
  860TIP3   OH2 2520   5.602   2.250   0.352
  860TIP3    H1 2521   5.522   2.203   0.377
  860TIP3    H2 2522   5.570   2.324   0.300
  861TIP3   OH2 2523   0.056   2.328   3.907
  861TIP3    H1 2524   0.145   2.323   3.874
  861TIP3    H2 2525   0.062   2.299   3.998
  862TIP3   OH2 2526   1.478   7.876   4.654
  862TIP3    H1 2527   1.388   7.895   4.680
  862TIP3    H2 2528   1.490   7.923   4.571
  863TIP3   OH2 2529   1.626   2.111   1.793
  863TIP3    H1 2530   1.614   2.139   1.702
  863TIP3    H2 2531   1.631   2.192   1.843
  864TIP3   OH2 2532   7.911   0.394   4.450
  864TIP3    H1 2533   7.873   0.474   4.413
  864TIP3    H2 2534   7.879   0.324   4.394
  865TIP3   OH2 2535   1.683   7.053   3.310
  865TIP3    H1 2536   1.617   7.097   3.257
  865TIP3    H2 2537   1.765   7.099   3.291
  866TIP3   OH2 2538   4.431   4.699   1.456
  866TIP3    H1 2539   4.520   4.718   1.488
  866TIP3    H2 2540   4.413   4.767   1.392
  867TIP3   OH2 2541   4.380   2.027   2.168
  867TIP3    H1 2542   4.293   2.013   2.130
  867TIP3    H2 2543   4.428   1.946   2.148
  868TIP3   OH2 2544   3.009   4.415   4.581
  868TIP3    H1 2545   3.015   4.503   4.544
  868TIP3    H2 2546   3.095   4.376   4.565
  869TIP3   OH2 2547   8.068   6.267   0.558
  869TIP3    H1 2548   8.021   6.227   0.486
  869TIP3    H2 2549   8.027   6.232   0.637
  870TIP3   OH2 2550   6.257   5.084   0.102
  870TIP3    H1 2551   6.312   5.071   0.179
  870TIP3    H2 2552   6.215   5.168   0.117
  871TIP3   OH2 2553   5.568   5.998   2.490
  871TIP3    H1 2554   5.474   5.980   2.486
  871TIP3    H2 2555   5.595   6.007   2.398
  872TIP3   OH2 2556   4.627   1.179   2.457
  872TIP3    H1 2557   4.717   1.183   2.490
  872TIP3    H2 2558   4.625   1.242   2.386
  873TIP3   OH2 2559   6.339   5.892   0.036
  873TIP3    H1 2560   6.420   5.882  -0.014
  873TIP3    H2 2561   6.310   5.981   0.019
  874TIP3   OH2 2562   2.049   6.911   2.121
  874TIP3    H1 2563   1.992   6.860   2.177
  874TIP3    H2 2564   2.137   6.879   2.141
  875TIP3   OH2 2565   1.737   7.175   0.867
  875TIP3    H1 2566   1.692   7.198   0.786
  875TIP3    H2 2567   1.688   7.220   0.935
  876TIP3   OH2 2568   6.602   0.457   3.040
  876TIP3    H1 2569   6.577   0.539   3.082
  876TIP3    H2 2570   6.558   0.459   2.955
  877TIP3   OH2 2571   1.773   4.653   5.125
  877TIP3    H1 2572   1.855   4.703   5.127
  877TIP3    H2 2573   1.798   4.565   5.152
  878TIP3   OH2 2574   5.006   0.916   0.929
  878TIP3    H1 2575   4.974   0.890   0.843
  878TIP3    H2 2576   4.992   0.839   0.984
  879TIP3   OH2 2577   2.079   7.521   0.995
  879TIP3    H1 2578   2.031   7.451   0.951
  879TIP3    H2 2579   2.015   7.590   1.007
  880TIP3   OH2 2580   6.257   7.552   1.155
  880TIP3    H1 2581   6.324   7.509   1.102
  880TIP3    H2 2582   6.185   7.488   1.158
  881TIP3   OH2 2583   1.551   4.647   5.674
  881TIP3    H1 2584   1.497   4.690   5.740
  881TIP3    H2 2585   1.638   4.640   5.713
  882TIP3   OH2 2586   0.651   6.728   0.285
  882TIP3    H1 2587   0.618   6.713   0.373
  882TIP3    H2 2588   0.736   6.684   0.283
  883TIP3   OH2 2589   2.273   0.276   1.583
  883TIP3    H1 2590   2.283   0.216   1.657
  883TIP3    H2 2591   2.237   0.355   1.621
  884TIP3   OH2 2592   2.909   3.343   2.688
  884TIP3    H1 2593   2.997   3.305   2.684
  884TIP3    H2 2594   2.851   3.267   2.699
  885TIP3   OH2 2595   7.911   4.679   2.167
  885TIP3    H1 2596   7.930   4.591   2.134
  885TIP3    H2 2597   7.994   4.709   2.204
  886TIP3   OH2 2598   5.612   2.671   1.445
  886TIP3    H1 2599   5.672   2.735   1.408
  886TIP3    H2 2600   5.668   2.604   1.483
  887TIP3   OH2 2601   2.850   2.499   6.733
  887TIP3    H1 2602   2.813   2.493   6.821
  887TIP3    H2 2603   2.857   2.408   6.704
  888TIP3   OH2 2604   2.676   4.993   6.782
  888TIP3    H1 2605   2.741   5.027   6.844
  888TIP3    H2 2606   2.652   4.907   6.817
  889TIP3   OH2 2607   7.736   5.764   6.593
  889TIP3    H1 2608   7.769   5.680   6.562
  889TIP3    H2 2609   7.805   5.827   6.572
  890TIP3   OH2 2610   3.717   5.930   6.295
  890TIP3    H1 2611   3.638   5.959   6.248
  890TIP3    H2 2612   3.784   5.993   6.269
  891TIP3   OH2 2613   1.091   1.091   1.577
  891TIP3    H1 2614   1.077   1.179   1.544
  891TIP3    H2 2615   1.172   1.096   1.627
  892TIP3   OH2 2616   1.060   7.743   1.201
  892TIP3    H1 2617   1.021   7.672   1.150
  892TIP3    H2 2618   1.137   7.769   1.150
  893TIP3   OH2 2619   7.749   6.359   1.903
  893TIP3    H1 2620   7.708   6.400   1.826
  893TIP3    H2 2621   7.732   6.420   1.974
  894TIP3   OH2 2622   8.140   3.222   3.332
  894TIP3    H1 2623   8.068   3.195   3.275
  894TIP3    H2 2624   8.166   3.308   3.300
  895TIP3   OH2 2625   4.327   1.792   0.802
  895TIP3    H1 2626   4.301   1.704   0.831
  895TIP3    H2 2627   4.387   1.822   0.871
  896TIP3   OH2 2628   0.360   5.526   1.906
  896TIP3    H1 2629   0.315   5.594   1.956
  896TIP3    H2 2630   0.451   5.556   1.900
  897TIP3   OH2 2631   8.111   6.408   2.555
  897TIP3    H1 2632   8.053   6.467   2.507
  897TIP3    H2 2633   8.139   6.459   2.632
  898TIP3   OH2 2634   6.271   1.359   4.094
  898TIP3    H1 2635   6.326   1.433   4.117
  898TIP3    H2 2636   6.247   1.319   4.178
  899TIP3   OH2 2637   1.395   1.855   3.740
  899TIP3    H1 2638   1.366   1.778   3.691
  899TIP3    H2 2639   1.322   1.877   3.796
  900TIP3   OH2 2640   5.288   3.293   2.535
  900TIP3    H1 2641   5.264   3.353   2.465
  900TIP3    H2 2642   5.349   3.232   2.495
  901TIP3   OH2 2643   1.055   7.849   2.008
  901TIP3    H1 2644   1.069   7.840   1.914
  901TIP3    H2 2645   1.137   7.887   2.041
  902TIP3   OH2 2646   5.044   2.105   4.781
  902TIP3    H1 2647   5.071   2.173   4.719
  902TIP3    H2 2648   5.016   2.032   4.726
  903TIP3   OH2 2649   4.058   1.308   3.143
  903TIP3    H1 2650   3.973   1.351   3.130
  903TIP3    H2 2651   4.047   1.221   3.106
  904TIP3   OH2 2652   8.039   3.612   3.628
  904TIP3    H1 2653   8.074   3.676   3.566
  904TIP3    H2 2654   8.079   3.529   3.602
  905TIP3   OH2 2655   7.622   7.488   1.520
  905TIP3    H1 2656   7.539   7.496   1.475
  905TIP3    H2 2657   7.645   7.577   1.546
  906TIP3   OH2 2658   4.928   0.623   6.667
  906TIP3    H1 2659   4.835   0.619   6.689
  906TIP3    H2 2660   4.957   0.532   6.672
  907TIP3   OH2 2661   0.139   7.208   1.129
  907TIP3    H1 2662   0.161   7.209   1.222
  907TIP3    H2 2663   0.068   7.271   1.120
  908TIP3   OH2 2664   3.060   1.229   5.009
  908TIP3    H1 2665   3.015   1.154   4.971
  908TIP3    H2 2666   3.009   1.252   5.087
  909TIP3   OH2 2667   2.853   5.940   1.714
  909TIP3    H1 2668   2.812   5.968   1.633
  909TIP3    H2 2669   2.945   5.930   1.693
  910TIP3   OH2 2670   5.313   4.867   4.242
  910TIP3    H1 2671   5.222   4.844   4.256
  910TIP3    H2 2672   5.313   4.919   4.162
  911TIP3   OH2 2673   2.894   3.922   5.859
  911TIP3    H1 2674   2.870   3.872   5.937
  911TIP3    H2 2675   2.810   3.945   5.818
  912TIP3   OH2 2676   2.527   1.389   1.494
  912TIP3    H1 2677   2.463   1.458   1.511
  912TIP3    H2 2678   2.474   1.312   1.471
  913TIP3   OH2 2679   1.271   2.726   1.416
  913TIP3    H1 2680   1.354   2.765   1.444
  913TIP3    H2 2681   1.276   2.724   1.321
  914TIP3   OH2 2682   8.401   0.349   5.813
  914TIP3    H1 2683   8.393   0.440   5.841
  914TIP3    H2 2684   8.328   0.305   5.856
  915TIP3   OH2 2685   6.694   6.855   5.824
  915TIP3    H1 2686   6.648   6.775   5.796
  915TIP3    H2 2687   6.624   6.913   5.854
  916TIP3   OH2 2688   4.039   4.553   5.461
  916TIP3    H1 2689   4.122   4.524   5.422
  916TIP3    H2 2690   4.056   4.554   5.555
  917TIP3   OH2 2691   1.345   5.105   1.566
  917TIP3    H1 2692   1.373   5.145   1.483
  917TIP3    H2 2693   1.303   5.023   1.540
  918TIP3   OH2 2694   3.959   6.686   3.469
  918TIP3    H1 2695   3.912   6.750   3.522
  918TIP3    H2 2696   3.930   6.601   3.502
  919TIP3   OH2 2697   0.773   5.811   2.175
  919TIP3    H1 2698   0.695   5.794   2.124
  919TIP3    H2 2699   0.773   5.905   2.191
  920TIP3   OH2 2700   7.344   0.010   4.159
  920TIP3    H1 2701   7.419   0.058   4.197
  920TIP3    H2 2702   7.323  -0.056   4.225
  921TIP3   OH2 2703   6.136   5.829   2.437
  921TIP3    H1 2704   6.053   5.797   2.403
  921TIP3    H2 2705   6.181   5.864   2.361
  922TIP3   OH2 2706   0.283   1.939   6.480
  922TIP3    H1 2707   0.362   1.993   6.486
  922TIP3    H2 2708   0.239   1.950   6.565
  923TIP3   OH2 2709   4.925   1.433   0.264
  923TIP3    H1 2710   4.922   1.504   0.200
  923TIP3    H2 2711   4.886   1.471   0.343
  924TIP3   OH2 2712   6.701   5.562   2.614
  924TIP3    H1 2713   6.759   5.634   2.589
  924TIP3    H2 2714   6.754   5.483   2.599
  925TIP3   OH2 2715   1.964   7.273   2.300
  925TIP3    H1 2716   2.013   7.332   2.356
  925TIP3    H2 2717   1.982   7.304   2.211
  926TIP3   OH2 2718   7.360   6.917   1.148
  926TIP3    H1 2719   7.438   6.905   1.094
  926TIP3    H2 2720   7.373   7.002   1.190
  927TIP3   OH2 2721   5.698   1.508   1.083
  927TIP3    H1 2722   5.697   1.564   1.160
  927TIP3    H2 2723   5.605   1.498   1.060
  928TIP3   OH2 2724   3.000   3.686   4.920
  928TIP3    H1 2725   2.943   3.633   4.865
  928TIP3    H2 2726   3.052   3.623   4.969
  929TIP3   OH2 2727   0.825   5.212   5.337
  929TIP3    H1 2728   0.791   5.135   5.384
  929TIP3    H2 2729   0.890   5.177   5.277
  930TIP3   OH2 2730   5.521   4.929   3.418
  930TIP3    H1 2731   5.536   4.851   3.471
  930TIP3    H2 2732   5.572   4.998   3.461
  931TIP3   OH2 2733   7.643   6.522   0.880
  931TIP3    H1 2734   7.557   6.551   0.849
  931TIP3    H2 2735   7.692   6.502   0.801
  932TIP3   OH2 2736   3.663   5.124   1.642
  932TIP3    H1 2737   3.600   5.071   1.690
  932TIP3    H2 2738   3.622   5.210   1.635
  933TIP3   OH2 2739   4.620   3.956   4.286
  933TIP3    H1 2740   4.571   4.005   4.352
  933TIP3    H2 2741   4.691   4.015   4.260
  934TIP3   OH2 2742   0.923   4.191   1.075
  934TIP3    H1 2743   0.852   4.140   1.114
  934TIP3    H2 2744   0.924   4.164   0.983
  935TIP3   OH2 2745   1.633   4.599   4.429
  935TIP3    H1 2746   1.652   4.518   4.381
  935TIP3    H2 2747   1.542   4.590   4.456
  936TIP3   OH2 2748   3.920   3.752   4.944
  936TIP3    H1 2749   3.880   3.685   4.888
  936TIP3    H2 2750   4.008   3.718   4.961
  937TIP3   OH2 2751   0.720   3.707   6.549
  937TIP3    H1 2752   0.708   3.653   6.627
  937TIP3    H2 2753   0.640   3.759   6.543
  938TIP3   OH2 2754   8.000   3.115   3.108
  938TIP3    H1 2755   8.027   3.127   3.017
  938TIP3    H2 2756   7.934   3.046   3.105
  939TIP3   OH2 2757   1.262   5.355   2.455
  939TIP3    H1 2758   1.342   5.321   2.416
  939TIP3    H2 2759   1.234   5.286   2.516
  940TIP3   OH2 2760   5.739   1.373   5.970
  940TIP3    H1 2761   5.827   1.410   5.981
  940TIP3    H2 2762   5.680   1.448   5.982
  941TIP3   OH2 2763   3.912   7.568   1.322
  941TIP3    H1 2764   3.981   7.501   1.328
  941TIP3    H2 2765   3.959   7.651   1.332
  942TIP3   OH2 2766   1.544   7.593   4.343
  942TIP3    H1 2767   1.604   7.560   4.276
  942TIP3    H2 2768   1.581   7.677   4.370
  943TIP3   OH2 2769   0.857   5.785   4.258
  943TIP3    H1 2770   0.849   5.771   4.352
  943TIP3    H2 2771   0.831   5.702   4.219
  944TIP3   OH2 2772   5.726   6.345   2.401
  944TIP3    H1 2773   5.797   6.390   2.355
  944TIP3    H2 2774   5.673   6.308   2.331
  945TIP3   OH2 2775   7.737   1.991   0.073
  945TIP3    H1 2776   7.704   2.050   0.140
  945TIP3    H2 2777   7.720   1.903   0.108
  946TIP3   OH2 2778   1.748   7.297   6.725
  946TIP3    H1 2779   1.692   7.229   6.687
  946TIP3    H2 2780   1.700   7.325   6.803
  947TIP3   OH2 2781   6.724   5.222   6.682
  947TIP3    H1 2782   6.767   5.137   6.672
  947TIP3    H2 2783   6.706   5.251   6.593
  948TIP3   OH2 2784   4.143   4.108   6.157
  948TIP3    H1 2785   4.121   4.164   6.082
  948TIP3    H2 2786   4.086   4.138   6.227
  949TIP3   OH2 2787   7.067   3.033   3.869
  949TIP3    H1 2788   7.130   2.968   3.900
  949TIP3    H2 2789   7.059   3.016   3.775
  950TIP3   OH2 2790   4.247   7.857   3.105
  950TIP3    H1 2791   4.233   7.812   3.188
  950TIP3    H2 2792   4.165   7.847   3.058
  951TIP3   OH2 2793   2.651   5.757   4.632
  951TIP3    H1 2794   2.673   5.716   4.549
  951TIP3    H2 2795   2.707   5.835   4.636
  952TIP3   OH2 2796   6.604   5.475   2.909
  952TIP3    H1 2797   6.580   5.446   2.997
  952TIP3    H2 2798   6.648   5.399   2.870
  953TIP3   OH2 2799   8.037   3.684   0.997
  953TIP3    H1 2800   7.962   3.743   0.996
  953TIP3    H2 2801   7.999   3.597   1.006
  954TIP3   OH2 2802   6.067   3.930   4.182
  954TIP3    H1 2803   6.156   3.928   4.218
  954TIP3    H2 2804   6.066   4.008   4.127
  955TIP3   OH2 2805   5.463   6.035   0.949
  955TIP3    H1 2806   5.505   6.041   0.864
  955TIP3    H2 2807   5.396   6.104   0.949
  956TIP3   OH2 2808   3.477   4.186   0.023
  956TIP3    H1 2809   3.529   4.251   0.071
  956TIP3    H2 2810   3.394   4.183   0.071
  957TIP3   OH2 2811   5.708   0.610   5.247
  957TIP3    H1 2812   5.756   0.534   5.215
  957TIP3    H2 2813   5.716   0.604   5.343
  958TIP3   OH2 2814   8.108   3.791   3.414
  958TIP3    H1 2815   8.044   3.806   3.344
  958TIP3    H2 2816   8.156   3.873   3.421
  959TIP3   OH2 2817   5.563   2.835   2.956
  959TIP3    H1 2818   5.533   2.912   2.908
  959TIP3    H2 2819   5.659   2.843   2.957
  960TIP3   OH2 2820   0.795   4.264   1.462
  960TIP3    H1 2821   0.755   4.343   1.497
  960TIP3    H2 2822   0.786   4.273   1.367
  961TIP3   OH2 2823   0.883   5.749   5.549
  961TIP3    H1 2824   0.926   5.665   5.532
  961TIP3    H2 2825   0.815   5.729   5.612
  962TIP3   OH2 2826   2.824   0.922   3.391
  962TIP3    H1 2827   2.807   0.985   3.321
  962TIP3    H2 2828   2.812   0.972   3.472
  963TIP3   OH2 2829   4.252   2.978   5.819
  963TIP3    H1 2830   4.287   2.893   5.847
  963TIP3    H2 2831   4.317   3.012   5.757
  964TIP3   OH2 2832   5.052   0.029   0.420
  964TIP3    H1 2833   5.082   0.115   0.393
  964TIP3    H2 2834   4.960   0.026   0.392
  965TIP3   OH2 2835   0.404   7.751   4.998
  965TIP3    H1 2836   0.312   7.727   5.008
  965TIP3    H2 2837   0.452   7.671   5.018
  966TIP3   OH2 2838   8.395   6.997   1.476
  966TIP3    H1 2839   8.330   6.967   1.540
  966TIP3    H2 2840   8.374   7.089   1.460
  967TIP3   OH2 2841   3.971   1.032   2.447
  967TIP3    H1 2842   3.930   1.117   2.439
  967TIP3    H2 2843   4.065   1.050   2.449
  968TIP3   OH2 2844   1.154   2.234   5.645
  968TIP3    H1 2845   1.084   2.182   5.682
  968TIP3    H2 2846   1.202   2.267   5.721
  969TIP3   OH2 2847   2.747   2.077   5.199
  969TIP3    H1 2848   2.842   2.066   5.192
  969TIP3    H2 2849   2.713   2.048   5.114
  970TIP3   OH2 2850   8.352   7.020   2.178
  970TIP3    H1 2851   8.308   6.975   2.106
  970TIP3    H2 2852   8.350   7.113   2.153
  971TIP3   OH2 2853   5.453   4.040   4.918
  971TIP3    H1 2854   5.450   4.035   4.822
  971TIP3    H2 2855   5.386   3.978   4.947
  972TIP3   OH2 2856   6.162   4.096   3.536
  972TIP3    H1 2857   6.144   4.089   3.629
  972TIP3    H2 2858   6.209   4.179   3.527
  973TIP3   OH2 2859   3.893   6.747   5.497
  973TIP3    H1 2860   3.899   6.653   5.516
  973TIP3    H2 2861   3.950   6.788   5.562
  974TIP3   OH2 2862   2.741   4.501   1.021
  974TIP3    H1 2863   2.754   4.558   1.096
  974TIP3    H2 2864   2.794   4.423   1.040
  975TIP3   OH2 2865   2.951   7.166   3.434
  975TIP3    H1 2866   2.873   7.119   3.403
  975TIP3    H2 2867   3.024   7.125   3.386
  976TIP3   OH2 2868   3.418   0.131   4.673
  976TIP3    H1 2869   3.339   0.092   4.712
  976TIP3    H2 2870   3.428   0.086   4.589
  977TIP3   OH2 2871   3.578   3.588   2.573
  977TIP3    H1 2872   3.492   3.596   2.533
  977TIP3    H2 2873   3.639   3.613   2.503
  978TIP3   OH2 2874   0.578   5.476   6.550
  978TIP3    H1 2875   0.601   5.413   6.481
  978TIP3    H2 2876   0.490   5.505   6.528
  979TIP3   OH2 2877   2.117   2.858   5.706
  979TIP3    H1 2878   2.081   2.901   5.628
  979TIP3    H2 2879   2.046   2.802   5.737
  980TIP3   OH2 2880   7.869   7.878   1.244
  980TIP3    H1 2881   7.963   7.895   1.255
  980TIP3    H2 2882   7.853   7.893   1.151
  981TIP3   OH2 2883   4.484   2.147   0.018
  981TIP3    H1 2884   4.422   2.130  -0.053
  981TIP3    H2 2885   4.429   2.167   0.094
  982TIP3   OH2 2886   0.984   4.195   4.915
  982TIP3    H1 2887   1.068   4.204   4.870
  982TIP3    H2 2888   0.944   4.281   4.908
  983TIP3   OH2 2889   4.327   2.923   3.598
  983TIP3    H1 2890   4.395   2.898   3.536
  983TIP3    H2 2891   4.314   3.017   3.582
  984TIP3   OH2 2892   0.822   5.598   1.266
  984TIP3    H1 2893   0.736   5.558   1.278
  984TIP3    H2 2894   0.811   5.689   1.293
  985TIP3   OH2 2895   2.850   1.205   4.720
  985TIP3    H1 2896   2.838   1.149   4.797
  985TIP3    H2 2897   2.762   1.230   4.695
  986TIP3   OH2 2898   5.624   3.727   5.099
  986TIP3    H1 2899   5.644   3.706   5.008
  986TIP3    H2 2900   5.706   3.763   5.134
  987TIP3   OH2 2901   8.414   3.572   6.562
  987TIP3    H1 2902   8.387   3.638   6.625
  987TIP3    H2 2903   8.409   3.489   6.609
  988TIP3   OH2 2904   6.136   7.501   5.811
  988TIP3    H1 2905   6.150   7.505   5.717
  988TIP3    H2 2906   6.041   7.498   5.822
  989TIP3   OH2 2907   5.821   3.034   2.922
  989TIP3    H1 2908   5.892   3.061   2.862
  989TIP3    H2 2909   5.825   3.098   2.993
  990TIP3   OH2 2910   2.623   1.884   5.366
  990TIP3    H1 2911   2.684   1.950   5.332
  990TIP3    H2 2912   2.623   1.898   5.461
  991TIP3   OH2 2913   4.708   7.529   3.598
  991TIP3    H1 2914   4.697   7.616   3.636
  991TIP3    H2 2915   4.619   7.500   3.579
  992TIP3   OH2 2916   7.317   3.598   0.626
  992TIP3    H1 2917   7.406   3.574   0.598
  992TIP3    H2 2918   7.262   3.579   0.550
  993TIP3   OH2 2919   5.395   3.735   3.453
  993TIP3    H1 2920   5.433   3.709   3.537
  993TIP3    H2 2921   5.466   3.780   3.407
  994TIP3   OH2 2922   8.060   6.523   5.322
  994TIP3    H1 2923   8.153   6.524   5.344
  994TIP3    H2 2924   8.023   6.600   5.367
  995TIP3   OH2 2925   2.601   4.757   2.370
  995TIP3    H1 2926   2.510   4.735   2.351
  995TIP3    H2 2927   2.601   4.782   2.462
  996TIP3   OH2 2928   7.091   6.803   5.034
  996TIP3    H1 2929   7.177   6.812   4.994
  996TIP3    H2 2930   7.100   6.728   5.093
  997TIP3   OH2 2931   5.431   7.404   6.281
  997TIP3    H1 2932   5.380   7.360   6.349
  997TIP3    H2 2933   5.378   7.480   6.257
  998TIP3   OH2 2934   6.315   4.554   2.177
  998TIP3    H1 2935   6.266   4.560   2.095
  998TIP3    H2 2936   6.371   4.631   2.178
  999TIP3   OH2 2937   7.637   5.598   6.011
  999TIP3    H1 2938   7.684   5.514   6.015
  999TIP3    H2 2939   7.683   5.649   5.945
 1000TIP3   OH2 2940   7.932   5.945   3.380
 1000TIP3    H1 2941   7.975   5.938   3.295
 1000TIP3    H2 2942   7.996   5.913   3.443
 1001TIP3   OH2 2943   3.118   1.204   3.395
 1001TIP3    H1 2944   3.040   1.245   3.357
 1001TIP3    H2 2945   3.084   1.149   3.465
 1002TIP3   OH2 2946   4.793   1.455   6.214
 1002TIP3    H1 2947   4.739   1.410   6.278
 1002TIP3    H2 2948   4.857   1.390   6.186
 1003TIP3   OH2 2949   2.188   3.050   0.883
 1003TIP3    H1 2950   2.195   2.962   0.919
 1003TIP3    H2 2951   2.171   3.036   0.790
 1004TIP3   OH2 2952   4.292   2.755   5.011
 1004TIP3    H1 2953   4.284   2.661   5.024
 1004TIP3    H2 2954   4.350   2.764   4.935
 1005TIP3   OH2 2955   1.944   4.625   2.982
 1005TIP3    H1 2956   1.935   4.704   2.930
 1005TIP3    H2 2957   1.870   4.570   2.956
 1006TIP3   OH2 2958   7.565   7.865   1.157
 1006TIP3    H1 2959   7.476   7.892   1.182
 1006TIP3    H2 2960   7.620   7.939   1.182
 1007TIP3   OH2 2961   1.584   0.527   6.237
 1007TIP3    H1 2962   1.629   0.508   6.319
 1007TIP3    H2 2963   1.648   0.505   6.169
 1008TIP3   OH2 2964   7.491   2.559   0.397
 1008TIP3    H1 2965   7.521   2.511   0.320
 1008TIP3    H2 2966   7.570   2.580   0.445
 1009TIP3   OH2 2967   6.097   5.674   5.204
 1009TIP3    H1 2968   6.102   5.620   5.283
 1009TIP3    H2 2969   6.109   5.764   5.235
 1010TIP3   OH2 2970   5.907   0.847   4.476
 1010TIP3    H1 2971   5.816   0.820   4.478
 1010TIP3    H2 2972   5.930   0.863   4.567
 1011TIP3   OH2 2973   4.101   3.404   3.171
 1011TIP3    H1 2974   4.066   3.493   3.170
 1011TIP3    H2 2975   4.031   3.351   3.132
 1012TIP3   OH2 2976   5.943   7.683   5.342
 1012TIP3    H1 2977   5.879   7.720   5.282
 1012TIP3    H2 2978   6.027   7.695   5.298
 1013TIP3   OH2 2979   5.979   2.721   2.669
 1013TIP3    H1 2980   5.986   2.816   2.654
 1013TIP3    H2 2981   6.018   2.682   2.591
 1014TIP3   OH2 2982   4.220   1.041   4.561
 1014TIP3    H1 2983   4.210   1.084   4.646
 1014TIP3    H2 2984   4.314   1.022   4.555
 1015TIP3   OH2 2985   1.958   4.952   5.287
 1015TIP3    H1 2986   1.976   4.948   5.193
 1015TIP3    H2 2987   1.862   4.957   5.293
 1016TIP3   OH2 2988   0.416   3.308   2.393
 1016TIP3    H1 2989   0.504   3.281   2.419
 1016TIP3    H2 2990   0.365   3.227   2.389
 1017TIP3   OH2 2991   5.833   0.528   6.337
 1017TIP3    H1 2992   5.881   0.451   6.307
 1017TIP3    H2 2993   5.881   0.602   6.298
 1018TIP3   OH2 2994   3.584   2.533   5.668
 1018TIP3    H1 2995   3.535   2.543   5.749
 1018TIP3    H2 2996   3.665   2.489   5.694
 1019TIP3   OH2 2997   7.499   4.164   2.277
 1019TIP3    H1 2998   7.515   4.238   2.218
 1019TIP3    H2 2999   7.473   4.092   2.220
 1020TIP3   OH2 3000   7.360   7.028   3.296
 1020TIP3    H1 3001   7.363   6.963   3.226
 1020TIP3    H2 3002   7.301   7.096   3.264
 1021TIP3   OH2 3003   3.765   6.479   5.547
 1021TIP3    H1 3004   3.724   6.562   5.569
 1021TIP3    H2 3005   3.746   6.422   5.622
 1022TIP3   OH2 3006   4.554   2.431   1.916
 1022TIP3    H1 3007   4.469   2.435   1.958
 1022TIP3    H2 3008   4.616   2.455   1.985
 1023TIP3   OH2 3009   2.023   7.548   6.138
 1023TIP3    H1 3010   2.040   7.621   6.198
 1023TIP3    H2 3011   2.100   7.491   6.148
 1024TIP3   OH2 3012   5.455   4.326   5.893
 1024TIP3    H1 3013   5.399   4.254   5.863
 1024TIP3    H2 3014   5.502   4.290   5.968
 1025TIP3   OH2 3015   5.225   5.492   3.218
 1025TIP3    H1 3016   5.273   5.502   3.135
 1025TIP3    H2 3017   5.283   5.440   3.273
 1026TIP3   OH2 3018   6.043   4.911   2.072
 1026TIP3    H1 3019   5.996   4.861   2.139
 1026TIP3    H2 3020   5.982   4.980   2.046
 1027TIP3   OH2 3021   6.600   4.218   3.498
 1027TIP3    H1 3022   6.654   4.276   3.445
 1027TIP3    H2 3023   6.639   4.221   3.585
 1028TIP3   OH2 3024   5.128   2.139   0.844
 1028TIP3    H1 3025   5.050   2.165   0.893
 1028TIP3    H2 3026   5.109   2.050   0.815
 1029TIP3   OH2 3027   1.641   1.912   1.395
 1029TIP3    H1 3028   1.724   1.918   1.349
 1029TIP3    H2 3029   1.582   1.970   1.346
 1030TIP3   OH2 3030   0.707   4.814   4.633
 1030TIP3    H1 3031   0.682   4.817   4.725
 1030TIP3    H2 3032   0.624   4.820   4.585
 1031TIP3   OH2 3033   6.973   3.001   3.620
 1031TIP3    H1 3034   6.940   3.073   3.566
 1031TIP3    H2 3035   6.899   2.980   3.678
 1032TIP3   OH2 3036   1.771   3.555   6.083
 1032TIP3    H1 3037   1.681   3.543   6.053
 1032TIP3    H2 3038   1.818   3.481   6.046
 1033TIP3   OH2 3039   1.012   2.264   0.388
 1033TIP3    H1 3040   1.002   2.355   0.417
 1033TIP3    H2 3041   1.037   2.216   0.467
 1034TIP3   OH2 3042   0.284   2.851   1.129
 1034TIP3    H1 3043   0.242   2.801   1.199
 1034TIP3    H2 3044   0.367   2.879   1.166
 1035TIP3   OH2 3045   0.875   2.074   1.220
 1035TIP3    H1 3046   0.876   1.983   1.190
 1035TIP3    H2 3047   0.782   2.096   1.225
 1036TIP3   OH2 3048   7.785   1.798   6.218
 1036TIP3    H1 3049   7.718   1.844   6.269
 1036TIP3    H2 3050   7.771   1.706   6.236
 1037TIP3   OH2 3051   6.371   2.943   3.551
 1037TIP3    H1 3052   6.454   2.987   3.532
 1037TIP3    H2 3053   6.310   3.015   3.570
 1038TIP3   OH2 3054   1.361   7.754   0.362
 1038TIP3    H1 3055   1.322   7.799   0.437
 1038TIP3    H2 3056   1.319   7.668   0.361
 1039TIP3   OH2 3057   0.331   4.244   0.830
 1039TIP3    H1 3058   0.400   4.198   0.877
 1039TIP3    H2 3059   0.335   4.334   0.861
 1040TIP3   OH2 3060   3.324   4.775   3.119
 1040TIP3    H1 3061   3.295   4.751   3.031
 1040TIP3    H2 3062   3.415   4.746   3.122
 1041TIP3   OH2 3063   7.015   0.435   5.790
 1041TIP3    H1 3064   7.063   0.415   5.870
 1041TIP3    H2 3065   6.981   0.524   5.804
 1042TIP3   OH2 3066   5.308   5.138   3.186
 1042TIP3    H1 3067   5.313   5.192   3.107
 1042TIP3    H2 3068   5.353   5.056   3.163
 1043TIP3   OH2 3069   5.123   4.702   0.540
 1043TIP3    H1 3070   5.153   4.732   0.625
 1043TIP3    H2 3071   5.057   4.635   0.560
 1044TIP3   OH2 3072   6.589   2.347   4.689
 1044TIP3    H1 3073   6.534   2.370   4.614
 1044TIP3    H2 3074   6.676   2.378   4.666
 1045TIP3   OH2 3075   5.120   1.699   2.478
 1045TIP3    H1 3076   5.075   1.750   2.546
 1045TIP3    H2 3077   5.171   1.634   2.526
 1046TIP3   OH2 3078   0.904   6.539   2.369
 1046TIP3    H1 3079   0.869   6.626   2.386
 1046TIP3    H2 3080   0.998   6.553   2.355
 1047TIP3   OH2 3081   1.378   0.880   2.521
 1047TIP3    H1 3082   1.283   0.884   2.509
 1047TIP3    H2 3083   1.401   0.963   2.562
 1048TIP3   OH2 3084   1.821   5.847   3.745
 1048TIP3    H1 3085   1.732   5.834   3.712
 1048TIP3    H2 3086   1.855   5.758   3.758
 1049TIP3   OH2 3087   4.886   5.177   1.017
 1049TIP3    H1 3088   4.833   5.097   1.017
 1049TIP3    H2 3089   4.875   5.214   0.929
 1050TIP3   OH2 3090   2.987   1.233   1.639
 1050TIP3    H1 3091   2.954   1.299   1.700
 1050TIP3    H2 3092   2.944   1.253   1.556
 1051TIP3   OH2 3093   7.093   5.069   1.829
 1051TIP3    H1 3094   7.022   5.005   1.834
 1051TIP3    H2 3095   7.050   5.154   1.838
 1052TIP3   OH2 3096   1.975   4.107   3.006
 1052TIP3    H1 3097   2.060   4.148   2.996
 1052TIP3    H2 3098   1.918   4.177   3.038
 1053TIP3   OH2 3099   0.519   1.268   5.856
 1053TIP3    H1 3100   0.453   1.202   5.836
 1053TIP3    H2 3101   0.531   1.262   5.951
 1054TIP3   OH2 3102   6.173   4.290   1.685
 1054TIP3    H1 3103   6.100   4.334   1.728
 1054TIP3    H2 3104   6.132   4.221   1.633
 1055TIP3   OH2 3105   1.702   0.167   0.477
 1055TIP3    H1 3106   1.733   0.237   0.420
 1055TIP3    H2 3107   1.634   0.209   0.530
 1056TIP3   OH2 3108   6.959   3.840   2.712
 1056TIP3    H1 3109   6.928   3.907   2.652
 1056TIP3    H2 3110   6.888   3.831   2.776
 1057TIP3   OH2 3111   6.289   3.532   3.033
 1057TIP3    H1 3112   6.260   3.595   2.967
 1057TIP3    H2 3113   6.379   3.558   3.052
 1058TIP3   OH2 3114   4.715   1.312   1.899
 1058TIP3    H1 3115   4.796   1.342   1.940
 1058TIP3    H2 3116   4.732   1.221   1.875
 1059TIP3   OH2 3117   5.060   2.763   3.672
 1059TIP3    H1 3118   5.155   2.766   3.678
 1059TIP3    H2 3119   5.035   2.850   3.642
 1060TIP3   OH2 3120   1.319   6.239   6.177
 1060TIP3    H1 3121   1.414   6.224   6.182
 1060TIP3    H2 3122   1.299   6.230   6.084
 1061TIP3   OH2 3123   2.336   4.289   1.352
 1061TIP3    H1 3124   2.351   4.198   1.326
 1061TIP3    H2 3125   2.372   4.340   1.279
 1062TIP3   OH2 3126   7.628   6.164   1.378
 1062TIP3    H1 3127   7.575   6.213   1.441
 1062TIP3    H2 3128   7.594   6.190   1.292
 1063TIP3   OH2 3129   3.324   6.701   5.935
 1063TIP3    H1 3130   3.340   6.653   6.016
 1063TIP3    H2 3131   3.230   6.721   5.937
 1064TIP3   OH2 3132   5.554   7.834   2.213
 1064TIP3    H1 3133   5.513   7.905   2.163
 1064TIP3    H2 3134   5.538   7.856   2.304
 1065TIP3   OH2 3135   5.635   2.722   6.202
 1065TIP3    H1 3136   5.719   2.675   6.205
 1065TIP3    H2 3137   5.593   2.689   6.123
 1066TIP3   OH2 3138   2.469   5.262   2.255
 1066TIP3    H1 3139   2.459   5.169   2.276
 1066TIP3    H2 3140   2.559   5.283   2.281
 1067TIP3   OH2 3141   7.469   2.148   0.543
 1067TIP3    H1 3142   7.506   2.082   0.602
 1067TIP3    H2 3143   7.500   2.122   0.456
 1068TIP3   OH2 3144   1.003   2.351   5.998
 1068TIP3    H1 3145   0.937   2.310   6.054
 1068TIP3    H2 3146   1.013   2.440   6.032
 1069TIP3   OH2 3147   7.135   5.688   0.099
 1069TIP3    H1 3148   7.216   5.714   0.057
 1069TIP3    H2 3149   7.152   5.697   0.193
 1070TIP3   OH2 3150   1.925   4.850   2.188
 1070TIP3    H1 3151   1.944   4.764   2.150
 1070TIP3    H2 3152   1.830   4.858   2.182
 1071TIP3   OH2 3153   7.840   4.646   4.296
 1071TIP3    H1 3154   7.842   4.740   4.314
 1071TIP3    H2 3155   7.754   4.632   4.255
 1072TIP3   OH2 3156   1.240   4.155   2.707
 1072TIP3    H1 3157   1.149   4.169   2.682
 1072TIP3    H2 3158   1.243   4.171   2.801
 1073TIP3   OH2 3159   2.762   2.926   5.018
 1073TIP3    H1 3160   2.839   2.895   5.066
 1073TIP3    H2 3161   2.701   2.954   5.087
 1074TIP3   OH2 3162   3.883   4.916   4.126
 1074TIP3    H1 3163   3.822   4.963   4.182
 1074TIP3    H2 3164   3.895   4.832   4.169
 1075TIP3   OH2 3165   0.489   2.394   3.591
 1075TIP3    H1 3166   0.438   2.313   3.596
 1075TIP3    H2 3167   0.426   2.464   3.605
 1076TIP3   OH2 3168   0.116   5.379   1.599
 1076TIP3    H1 3169   0.105   5.382   1.694
 1076TIP3    H2 3170   0.064   5.452   1.566
 1077TIP3   OH2 3171   0.645   4.966   1.411
 1077TIP3    H1 3172   0.695   4.891   1.379
 1077TIP3    H2 3173   0.587   4.929   1.478
 1078TIP3   OH2 3174   6.607   4.612   4.546
 1078TIP3    H1 3175   6.670   4.560   4.496
 1078TIP3    H2 3176   6.654   4.639   4.624
 1079TIP3   OH2 3177   0.595   6.835   5.858
 1079TIP3    H1 3178   0.607   6.803   5.769
 1079TIP3    H2 3179   0.502   6.821   5.876
 1080TIP3   OH2 3180   7.629   0.465   1.091
 1080TIP3    H1 3181   7.591   0.382   1.063
 1080TIP3    H2 3182   7.721   0.461   1.064
 1081TIP3   OH2 3183   8.365   0.212   2.156
 1081TIP3    H1 3184   8.439   0.259   2.117
 1081TIP3    H2 3185   8.292   0.274   2.150
 1082TIP3   OH2 3186   0.075   5.384   5.266
 1082TIP3    H1 3187   0.154   5.407   5.216
 1082TIP3    H2 3188   0.047   5.300   5.228
 1083TIP3   OH2 3189   8.102   2.350   5.769
 1083TIP3    H1 3190   8.150   2.372   5.849
 1083TIP3    H2 3191   8.122   2.258   5.753
 1084TIP3   OH2 3192   6.033   0.873   1.736
 1084TIP3    H1 3193   6.053   0.966   1.727
 1084TIP3    H2 3194   6.118   0.831   1.752
 1085TIP3   OH2 3195   4.667   0.407   3.747
 1085TIP3    H1 3196   4.680   0.477   3.682
 1085TIP3    H2 3197   4.661   0.453   3.831
 1086TIP3   OH2 3198   5.676   3.472   4.004
 1086TIP3    H1 3199   5.625   3.552   3.998
 1086TIP3    H2 3200   5.695   3.447   3.913
 1087TIP3   OH2 3201   6.208   5.620   4.121
 1087TIP3    H1 3202   6.255   5.626   4.204
 1087TIP3    H2 3203   6.199   5.526   4.105
 1088TIP3   OH2 3204   0.495   3.853   2.494
 1088TIP3    H1 3205   0.461   3.779   2.444
 1088TIP3    H2 3206   0.471   3.834   2.584
 1089TIP3   OH2 3207   7.665   4.604   5.757
 1089TIP3    H1 3208   7.706   4.683   5.792
 1089TIP3    H2 3209   7.738   4.544   5.741
 1090TIP3   OH2 3210   2.758   5.358   4.503
 1090TIP3    H1 3211   2.714   5.424   4.557
 1090TIP3    H2 3212   2.696   5.340   4.432
 1091TIP3   OH2 3213   7.687   6.962   6.260
 1091TIP3    H1 3214   7.723   7.039   6.216
 1091TIP3    H2 3215   7.762   6.905   6.275
 1092TIP3   OH2 3216   0.599   2.403   0.198
 1092TIP3    H1 3217   0.516   2.357   0.201
 1092TIP3    H2 3218   0.663   2.340   0.231
 1093TIP3   OH2 3219   5.550   1.884   4.738
 1093TIP3    H1 3220   5.586   1.836   4.663
 1093TIP3    H2 3221   5.533   1.817   4.804
 1094TIP3   OH2 3222   3.570   6.050   0.393
 1094TIP3    H1 3223   3.524   6.030   0.475
 1094TIP3    H2 3224   3.635   5.980   0.384
 1095TIP3   OH2 3225   1.138   1.668   6.214
 1095TIP3    H1 3226   1.157   1.702   6.301
 1095TIP3    H2 3227   1.203   1.599   6.200
 1096TIP3   OH2 3228   0.789   2.467   6.698
 1096TIP3    H1 3229   0.844   2.470   6.776
 1096TIP3    H2 3230   0.712   2.417   6.724
 1097TIP3   OH2 3231   4.881   6.657   5.504
 1097TIP3    H1 3232   4.801   6.708   5.495
 1097TIP3    H2 3233   4.868   6.608   5.586
 1098TIP3   OH2 3234   4.675   4.488   0.929
 1098TIP3    H1 3235   4.697   4.570   0.885
 1098TIP3    H2 3236   4.620   4.514   1.002
 1099TIP3   OH2 3237   1.013   0.773   3.114
 1099TIP3    H1 3238   1.035   0.705   3.178
 1099TIP3    H2 3239   1.092   0.827   3.109
 1100TIP3   OH2 3240   0.240   0.207   2.351
 1100TIP3    H1 3241   0.309   0.208   2.417
 1100TIP3    H2 3242   0.248   0.121   2.309
 1101TIP3   OH2 3243   5.760   5.056   1.312
 1101TIP3    H1 3244   5.768   5.111   1.389
 1101TIP3    H2 3245   5.730   4.971   1.345
 1102TIP3   OH2 3246   1.317   5.381   4.710
 1102TIP3    H1 3247   1.392   5.380   4.770
 1102TIP3    H2 3248   1.248   5.424   4.760
 1103TIP3   OH2 3249   2.646   2.926   6.301
 1103TIP3    H1 3250   2.716   2.887   6.353
 1103TIP3    H2 3251   2.654   3.020   6.316
 1104TIP3   OH2 3252   4.061   4.091   3.990
 1104TIP3    H1 3253   4.054   4.065   4.081
 1104TIP3    H2 3254   4.026   4.016   3.941
 1105TIP3   OH2 3255   1.945   1.460   2.925
 1105TIP3    H1 3256   1.866   1.514   2.938
 1105TIP3    H2 3257   1.991   1.464   3.008
 1106TIP3   OH2 3258   2.418   4.025   3.391
 1106TIP3    H1 3259   2.498   4.074   3.413
 1106TIP3    H2 3260   2.347   4.087   3.403
 1107TIP3   OH2 3261   6.340   0.386   2.586
 1107TIP3    H1 3262   6.378   0.347   2.664
 1107TIP3    H2 3263   6.387   0.468   2.574
 1108TIP3   OH2 3264   3.371   2.734   6.124
 1108TIP3    H1 3265   3.320   2.797   6.174
 1108TIP3    H2 3266   3.440   2.706   6.184
 1109TIP3   OH2 3267   3.212   2.075   1.288
 1109TIP3    H1 3268   3.229   1.981   1.282
 1109TIP3    H2 3269   3.186   2.101   1.200
 1110TIP3   OH2 3270   2.942   3.261   5.145
 1110TIP3    H1 3271   2.993   3.181   5.160
 1110TIP3    H2 3272   2.857   3.243   5.185
 1111TIP3   OH2 3273   4.549   1.797   0.962
 1111TIP3    H1 3274   4.591   1.826   1.043
 1111TIP3    H2 3275   4.603   1.723   0.933
 1112TIP3   OH2 3276   3.170   5.037   0.028
 1112TIP3    H1 3277   3.244   4.997   0.074
 1112TIP3    H2 3278   3.170   4.996  -0.058
 1113TIP3   OH2 3279   2.442   3.327   5.303
 1113TIP3    H1 3280   2.473   3.329   5.393
 1113TIP3    H2 3281   2.363   3.272   5.306
 1114TIP3   OH2 3282   4.267   3.927   5.929
 1114TIP3    H1 3283   4.243   3.983   6.003
 1114TIP3    H2 3284   4.254   3.982   5.852
 1115TIP3   OH2 3285   5.913   3.964   3.495
 1115TIP3    H1 3286   5.901   3.945   3.402
 1115TIP3    H2 3287   5.990   4.020   3.498
 1116TIP3   OH2 3288   6.086   5.494   2.466
 1116TIP3    H1 3289   6.052   5.583   2.453
 1116TIP3    H2 3290   6.087   5.483   2.561
 1117TIP3   OH2 3291   2.124   5.761   4.402
 1117TIP3    H1 3292   2.121   5.819   4.478
 1117TIP3    H2 3293   2.145   5.675   4.438
 1118TIP3   OH2 3294   5.589   1.433   0.775
 1118TIP3    H1 3295   5.504   1.464   0.808
 1118TIP3    H2 3296   5.642   1.512   0.767
 1119TIP3   OH2 3297   3.403   3.933   5.062
 1119TIP3    H1 3298   3.478   3.965   5.111
 1119TIP3    H2 3299   3.433   3.850   5.024
 1120TIP3   OH2 3300   1.180   7.493   5.013
 1120TIP3    H1 3301   1.100   7.480   4.962
 1120TIP3    H2 3302   1.246   7.518   4.949
 1121TIP3   OH2 3303   2.897   3.746   6.803
 1121TIP3    H1 3304   2.896   3.738   6.708
 1121TIP3    H2 3305   2.982   3.710   6.830
 1122TIP3   OH2 3306   5.605   1.053   0.809
 1122TIP3    H1 3307   5.657   0.978   0.781
 1122TIP3    H2 3308   5.668   1.114   0.847
 1123TIP3   OH2 3309   5.476   1.123   3.195
 1123TIP3    H1 3310   5.548   1.098   3.252
 1123TIP3    H2 3311   5.514   1.121   3.107
 1124TIP3   OH2 3312  -0.020   7.664   4.848
 1124TIP3    H1 3313  -0.063   7.744   4.819
 1124TIP3    H2 3314   0.022   7.628   4.770
 1125TIP3   OH2 3315   0.216   6.899   1.997
 1125TIP3    H1 3316   0.211   6.803   1.996
 1125TIP3    H2 3317   0.126   6.928   1.981
 1126TIP3   OH2 3318   3.296   3.259   4.137
 1126TIP3    H1 3319   3.303   3.170   4.174
 1126TIP3    H2 3320   3.214   3.259   4.089
 1127TIP3   OH2 3321   6.053   5.055   5.914
 1127TIP3    H1 3322   6.077   4.962   5.916
 1127TIP3    H2 3323   6.073   5.087   6.002
 1128TIP3   OH2 3324   6.207   4.361   2.359
 1128TIP3    H1 3325   6.239   4.407   2.281
 1128TIP3    H2 3326   6.184   4.430   2.421
 1129TIP3   OH2 3327   8.100   1.805   5.336
 1129TIP3    H1 3328   8.155   1.731   5.311
 1129TIP3    H2 3329   8.058   1.832   5.254
 1130TIP3   OH2 3330   5.832   5.193   0.446
 1130TIP3    H1 3331   5.907   5.153   0.491
 1130TIP3    H2 3332   5.825   5.281   0.484
 1131TIP3   OH2 3333   0.932   5.994   0.281
 1131TIP3    H1 3334   0.909   5.901   0.286
 1131TIP3    H2 3335   0.960   6.007   0.191
 1132TIP3   OH2 3336   2.481   2.352   2.698
 1132TIP3    H1 3337   2.399   2.398   2.679
 1132TIP3    H2 3338   2.458   2.260   2.693
 1133TIP3   OH2 3339   0.876   7.654   0.562
 1133TIP3    H1 3340   0.826   7.584   0.521
 1133TIP3    H2 3341   0.898   7.714   0.490
 1134TIP3   OH2 3342   4.808   2.551   4.440
 1134TIP3    H1 3343   4.804   2.471   4.492
 1134TIP3    H2 3344   4.829   2.620   4.503
 1135TIP3   OH2 3345   0.284   3.910   0.423
 1135TIP3    H1 3346   0.339   3.962   0.363
 1135TIP3    H2 3347   0.198   3.910   0.382
 1136TIP3   OH2 3348   7.913   6.910   1.040
 1136TIP3    H1 3349   7.924   6.951   1.126
 1136TIP3    H2 3350   7.930   6.817   1.054
 1137TIP3   OH2 3351   0.641   0.969   1.101
 1137TIP3    H1 3352   0.693   1.048   1.086
 1137TIP3    H2 3353   0.550   1.000   1.100
 1138TIP3   OH2 3354   4.346   0.811   4.413
 1138TIP3    H1 3355   4.415   0.869   4.446
 1138TIP3    H2 3356   4.335   0.746   4.482
 1139TIP3   OH2 3357   6.305   1.366   6.408
 1139TIP3    H1 3358   6.263   1.300   6.354
 1139TIP3    H2 3359   6.289   1.338   6.498
 1140TIP3   OH2 3360   4.001   2.655   4.742
 1140TIP3    H1 3361   4.014   2.714   4.816
 1140TIP3    H2 3362   4.075   2.671   4.684
 1141TIP3   OH2 3363   3.204   1.825   4.671
 1141TIP3    H1 3364   3.255   1.819   4.751
 1141TIP3    H2 3365   3.163   1.739   4.662
 1142TIP3   OH2 3366   4.653   7.607   0.274
 1142TIP3    H1 3367   4.690   7.519   0.285
 1142TIP3    H2 3368   4.565   7.592   0.239
 1143TIP3   OH2 3369   6.192   3.924   2.409
 1143TIP3    H1 3370   6.153   3.955   2.328
 1143TIP3    H2 3371   6.252   3.994   2.434
 1144TIP3   OH2 3372   5.617   4.727   0.198
 1144TIP3    H1 3373   5.591   4.797   0.259
 1144TIP3    H2 3374   5.635   4.773   0.116
 1145TIP3   OH2 3375   1.155   5.495   5.171
 1145TIP3    H1 3376   1.192   5.407   5.163
 1145TIP3    H2 3377   1.183   5.525   5.258
 1146TIP3   OH2 3378   6.214   6.399   0.174
 1146TIP3    H1 3379   6.168   6.386   0.257
 1146TIP3    H2 3380   6.189   6.487   0.146
 1147TIP3   OH2 3381   2.781   6.539   1.238
 1147TIP3    H1 3382   2.767   6.553   1.144
 1147TIP3    H2 3383   2.833   6.459   1.243
 1148TIP3   OH2 3384   2.072   1.605   6.791
 1148TIP3    H1 3385   2.118   1.687   6.809
 1148TIP3    H2 3386   2.001   1.603   6.856
 1149TIP3   OH2 3387   3.818   6.495   6.194
 1149TIP3    H1 3388   3.828   6.568   6.255
 1149TIP3    H2 3389   3.797   6.420   6.250
 1150TIP3   OH2 3390   5.899   4.757   3.460
 1150TIP3    H1 3391   5.875   4.827   3.400
 1150TIP3    H2 3392   5.840   4.685   3.439
 1151TIP3   OH2 3393   0.117   1.326   3.519
 1151TIP3    H1 3394   0.184   1.269   3.481
 1151TIP3    H2 3395   0.076   1.368   3.444
 1152TIP3   OH2 3396   1.301   4.876   3.705
 1152TIP3    H1 3397   1.346   4.820   3.640
 1152TIP3    H2 3398   1.224   4.909   3.658
 1153TIP3   OH2 3399   4.596   6.954   5.268
 1153TIP3    H1 3400   4.647   6.976   5.190
 1153TIP3    H2 3401   4.662   6.927   5.332
 1154TIP3   OH2 3402   0.321   7.028   4.833
 1154TIP3    H1 3403   0.382   7.084   4.784
 1154TIP3    H2 3404   0.362   6.942   4.835
 1155TIP3   OH2 3405   7.976   4.878   6.786
 1155TIP3    H1 3406   8.016   4.887   6.700
 1155TIP3    H2 3407   7.930   4.794   6.782
 1156TIP3   OH2 3408   6.315   1.017   6.453
 1156TIP3    H1 3409   6.262   0.957   6.505
 1156TIP3    H2 3410   6.358   1.073   6.517
 1157TIP3   OH2 3411   4.584   4.614   0.022
 1157TIP3    H1 3412   4.519   4.543   0.030
 1157TIP3    H2 3413   4.597   4.624  -0.072
 1158TIP3   OH2 3414   1.265   1.431   6.197
 1158TIP3    H1 3415   1.290   1.389   6.279
 1158TIP3    H2 3416   1.341   1.420   6.140
 1159TIP3   OH2 3417   2.911   3.954   2.803
 1159TIP3    H1 3418   2.870   3.886   2.749
 1159TIP3    H2 3419   2.997   3.918   2.826
 1160TIP3   OH2 3420   5.903   3.287   4.846
 1160TIP3    H1 3421   5.860   3.300   4.761
 1160TIP3    H2 3422   5.995   3.304   4.829
 1161TIP3   OH2 3423   4.137   2.370   1.179
 1161TIP3    H1 3424   4.171   2.381   1.268
 1161TIP3    H2 3425   4.045   2.349   1.191
 1162TIP3   OH2 3426   7.125   4.208   1.691
 1162TIP3    H1 3427   7.194   4.258   1.734
 1162TIP3    H2 3428   7.052   4.269   1.683
 1163TIP3   OH2 3429   5.362   1.353   1.575
 1163TIP3    H1 3430   5.411   1.313   1.647
 1163TIP3    H2 3431   5.320   1.429   1.615
 1164TIP3   OH2 3432   7.943   4.102   6.054
 1164TIP3    H1 3433   7.878   4.110   5.984
 1164TIP3    H2 3434   7.892   4.109   6.135
 1165TIP3   OH2 3435   2.627   4.462   3.031
 1165TIP3    H1 3436   2.643   4.553   3.006
 1165TIP3    H2 3437   2.715   4.424   3.040
 1166TIP3   OH2 3438   2.219   4.209   3.421
 1166TIP3    H1 3439   2.128   4.217   3.393
 1166TIP3    H2 3440   2.225   4.265   3.498
 1167TIP3   OH2 3441   4.867   3.609   0.464
 1167TIP3    H1 3442   4.842   3.529   0.417
 1167TIP3    H2 3443   4.787   3.661   0.468
 1168TIP3   OH2 3444   0.909   3.254   1.807
 1168TIP3    H1 3445   0.935   3.225   1.719
 1168TIP3    H2 3446   0.926   3.178   1.863
 1169TIP3   OH2 3447   2.570   2.038   5.605
 1169TIP3    H1 3448   2.511   2.104   5.569
 1169TIP3    H2 3449   2.511   1.974   5.646
 1170TIP3   OH2 3450   7.680   2.670   1.457
 1170TIP3    H1 3451   7.665   2.662   1.552
 1170TIP3    H2 3452   7.773   2.653   1.446
 1171TIP3   OH2 3453   1.377   6.769   1.788
 1171TIP3    H1 3454   1.424   6.799   1.866
 1171TIP3    H2 3455   1.300   6.725   1.823
 1172TIP3   OH2 3456   1.861   3.620   2.560
 1172TIP3    H1 3457   1.952   3.608   2.533
 1172TIP3    H2 3458   1.865   3.689   2.626
 1173TIP3   OH2 3459   2.443   3.675   6.550
 1173TIP3    H1 3460   2.399   3.596   6.582
 1173TIP3    H2 3461   2.399   3.696   6.468
 1174TIP3   OH2 3462   5.208   0.938   1.557
 1174TIP3    H1 3463   5.222   1.025   1.595
 1174TIP3    H2 3464   5.236   0.947   1.466
 1175TIP3   OH2 3465   5.628   1.085   4.154
 1175TIP3    H1 3466   5.634   1.021   4.225
 1175TIP3    H2 3467   5.706   1.069   4.101
 1176TIP3   OH2 3468   3.311   4.077   0.611
 1176TIP3    H1 3469   3.320   4.076   0.515
 1176TIP3    H2 3470   3.308   3.985   0.635
 1177TIP3   OH2 3471   0.026   4.074   3.020
 1177TIP3    H1 3472   0.052   4.060   2.929
 1177TIP3    H2 3473   0.099   4.041   3.072
 1178TIP3   OH2 3474   8.386   1.734   2.869
 1178TIP3    H1 3475   8.317   1.684   2.912
 1178TIP3    H2 3476   8.461   1.726   2.927
 1179TIP3   OH2 3477   6.040   2.021   5.851
 1179TIP3    H1 3478   6.085   2.067   5.779
 1179TIP3    H2 3479   5.960   2.072   5.866
 1180TIP3   OH2 3480   7.502   1.696   3.165
 1180TIP3    H1 3481   7.502   1.604   3.188
 1180TIP3    H2 3482   7.559   1.738   3.230
 1181TIP3   OH2 3483   3.863   5.717   6.416
 1181TIP3    H1 3484   3.815   5.706   6.498
 1181TIP3    H2 3485   3.814   5.784   6.368
 1182TIP3   OH2 3486   7.309   4.182   5.716
 1182TIP3    H1 3487   7.373   4.242   5.677
 1182TIP3    H2 3488   7.297   4.215   5.806
 1183TIP3   OH2 3489   1.059   0.126   6.088
 1183TIP3    H1 3490   0.989   0.158   6.145
 1183TIP3    H2 3491   1.077   0.038   6.119
 1184TIP3   OH2 3492   3.785   3.214   0.693
 1184TIP3    H1 3493   3.786   3.263   0.611
 1184TIP3    H2 3494   3.860   3.156   0.688
 1185TIP3   OH2 3495   7.368   4.931   3.098
 1185TIP3    H1 3496   7.337   5.022   3.092
 1185TIP3    H2 3497   7.395   4.909   3.009
 1186TIP3   OH2 3498   5.579   0.160   4.723
 1186TIP3    H1 3499   5.528   0.240   4.736
 1186TIP3    H2 3500   5.646   0.163   4.791
 1187TIP3   OH2 3501   2.584   7.414   4.125
 1187TIP3    H1 3502   2.533   7.381   4.199
 1187TIP3    H2 3503   2.519   7.456   4.068
 1188TIP3   OH2 3504   2.794   5.583   3.749
 1188TIP3    H1 3505   2.878   5.597   3.706
 1188TIP3    H2 3506   2.739   5.544   3.681
 1189TIP3   OH2 3507   0.209   0.281   1.249
 1189TIP3    H1 3508   0.251   0.312   1.169
 1189TIP3    H2 3509   0.256   0.200   1.271
 1190TIP3   OH2 3510   1.470   2.765   0.439
 1190TIP3    H1 3511   1.527   2.730   0.371
 1190TIP3    H2 3512   1.485   2.860   0.438
 1191TIP3   OH2 3513   0.914   6.968  -0.003
 1191TIP3    H1 3514   0.906   6.874   0.012
 1191TIP3    H2 3515   0.944   7.003   0.081
 1192TIP3   OH2 3516   2.577   2.464   3.587
 1192TIP3    H1 3517   2.542   2.390   3.637
 1192TIP3    H2 3518   2.502   2.519   3.569
 1193TIP3   OH2 3519   4.187   3.914   5.553
 1193TIP3    H1 3520   4.278   3.918   5.584
 1193TIP3    H2 3521   4.171   4.000   5.515
 1194TIP3   OH2 3522   1.591   6.719   4.913
 1194TIP3    H1 3523   1.503   6.717   4.952
 1194TIP3    H2 3524   1.584   6.783   4.842
 1195TIP3   OH2 3525   2.656   4.762   2.994
 1195TIP3    H1 3526   2.620   4.815   2.923
 1195TIP3    H2 3527   2.746   4.792   3.003
 1196TIP3   OH2 3528   3.619   5.447   2.970
 1196TIP3    H1 3529   3.665   5.412   2.894
 1196TIP3    H2 3530   3.527   5.442   2.947
 1197TIP3   OH2 3531   0.682   5.222   4.615
 1197TIP3    H1 3532   0.666   5.135   4.652
 1197TIP3    H2 3533   0.777   5.226   4.606
 1198TIP3   OH2 3534   3.377   2.292   2.886
 1198TIP3    H1 3535   3.401   2.384   2.882
 1198TIP3    H2 3536   3.287   2.289   2.854
 1199TIP3   OH2 3537   7.994   3.729   0.121
 1199TIP3    H1 3538   8.078   3.705   0.160
 1199TIP3    H2 3539   7.980   3.819   0.148
 1200TIP3   OH2 3540   4.925   4.650   2.185
 1200TIP3    H1 3541   4.991   4.698   2.134
 1200TIP3    H2 3542   4.966   4.634   2.269
 1201TIP3   OH2 3543   5.830   6.231   2.962
 1201TIP3    H1 3544   5.820   6.255   2.870
 1201TIP3    H2 3545   5.782   6.298   3.010
 1202TIP3   OH2 3546   4.081   4.562   6.781
 1202TIP3    H1 3547   4.023   4.614   6.836
 1202TIP3    H2 3548   4.049   4.578   6.692
 1203TIP3   OH2 3549   5.084   3.303   4.963
 1203TIP3    H1 3550   5.023   3.299   4.890
 1203TIP3    H2 3551   5.040   3.356   5.029
 1204TIP3   OH2 3552   3.253   4.739   5.241
 1204TIP3    H1 3553   3.181   4.763   5.183
 1204TIP3    H2 3554   3.245   4.800   5.315
 1205TIP3   OH2 3555   4.222   2.719   6.278
 1205TIP3    H1 3556   4.151   2.672   6.320
 1205TIP3    H2 3557   4.240   2.793   6.336
 1206TIP3   OH2 3558   0.229   6.343   6.094
 1206TIP3    H1 3559   0.236   6.291   6.014
 1206TIP3    H2 3560   0.165   6.296   6.148
 1207TIP3   OH2 3561   3.792   1.912   0.275
 1207TIP3    H1 3562   3.861   1.846   0.275
 1207TIP3    H2 3563   3.756   1.910   0.363
 1208TIP3   OH2 3564   1.895   1.009   0.584
 1208TIP3    H1 3565   1.934   1.056   0.658
 1208TIP3    H2 3566   1.968   0.992   0.524
 1209TIP3   OH2 3567   4.147   4.007   0.763
 1209TIP3    H1 3568   4.160   4.036   0.672
 1209TIP3    H2 3569   4.228   3.963   0.786
 1210TIP3   OH2 3570   4.538   0.012   5.342
 1210TIP3    H1 3571   4.469   0.006   5.276
 1210TIP3    H2 3572   4.500   0.063   5.413
 1211TIP3   OH2 3573   7.996   4.208   2.310
 1211TIP3    H1 3574   7.988   4.280   2.373
 1211TIP3    H2 3575   8.082   4.169   2.330
 1212TIP3   OH2 3576   1.296   0.366   4.654
 1212TIP3    H1 3577   1.293   0.280   4.695
 1212TIP3    H2 3578   1.382   0.372   4.614
 1213TIP3   OH2 3579   5.742   6.280   4.414
 1213TIP3    H1 3580   5.738   6.340   4.339
 1213TIP3    H2 3581   5.672   6.217   4.399
 1214TIP3   OH2 3582   0.126   7.285   5.045
 1214TIP3    H1 3583   0.199   7.322   5.095
 1214TIP3    H2 3584   0.153   7.293   4.954
 1215TIP3   OH2 3585   0.351   0.103   4.179
 1215TIP3    H1 3586   0.323   0.012   4.171
 1215TIP3    H2 3587   0.299   0.139   4.251
 1216TIP3   OH2 3588   1.586   5.225   3.229
 1216TIP3    H1 3589   1.580   5.313   3.192
 1216TIP3    H2 3590   1.523   5.224   3.301
 1217TIP3   OH2 3591   5.754   0.360   4.599
 1217TIP3    H1 3592   5.675   0.365   4.653
 1217TIP3    H2 3593   5.826   0.359   4.663
 1218TIP3   OH2 3594   6.097   4.909   6.487
 1218TIP3    H1 3595   6.029   4.970   6.514
 1218TIP3    H2 3596   6.083   4.831   6.540
 1219TIP3   OH2 3597   0.286   4.306   6.009
 1219TIP3    H1 3598   0.357   4.254   6.046
 1219TIP3    H2 3599   0.207   4.272   6.051
 1220TIP3   OH2 3600   8.392   7.358   6.845
 1220TIP3    H1 3601   8.345   7.419   6.787
 1220TIP3    H2 3602   8.336   7.350   6.922
 1221TIP3   OH2 3603   7.681   2.163   1.486
 1221TIP3    H1 3604   7.653   2.242   1.441
 1221TIP3    H2 3605   7.621   2.095   1.455
 1222TIP3   OH2 3606   2.357   7.421   3.758
 1222TIP3    H1 3607   2.416   7.350   3.733
 1222TIP3    H2 3608   2.321   7.394   3.842
 1223TIP3   OH2 3609   1.549   3.420   0.078
 1223TIP3    H1 3610   1.607   3.347   0.055
 1223TIP3    H2 3611   1.497   3.387   0.151
 1224TIP3   OH2 3612   2.928   4.385   4.259
 1224TIP3    H1 3613   2.913   4.435   4.179
 1224TIP3    H2 3614   2.982   4.442   4.314
 1225TIP3   OH2 3615   0.604   3.268   0.277
 1225TIP3    H1 3616   0.642   3.245   0.192
 1225TIP3    H2 3617   0.661   3.336   0.311
 1226TIP3   OH2 3618   2.594   2.119   0.955
 1226TIP3    H1 3619   2.542   2.065   0.895
 1226TIP3    H2 3620   2.678   2.131   0.910
 1227TIP3   OH2 3621   4.594   1.613   3.831
 1227TIP3    H1 3622   4.524   1.550   3.812
 1227TIP3    H2 3623   4.550   1.698   3.829
 1228TIP3   OH2 3624   4.289   5.902   2.489
 1228TIP3    H1 3625   4.201   5.882   2.522
 1228TIP3    H2 3626   4.344   5.902   2.566
 1229TIP3   OH2 3627   5.892   4.816   6.181
 1229TIP3    H1 3628   5.949   4.890   6.162
 1229TIP3    H2 3629   5.949   4.739   6.178
 1230TIP3   OH2 3630   3.313   3.043   3.178
 1230TIP3    H1 3631   3.376   2.987   3.223
 1230TIP3    H2 3632   3.314   3.012   3.087
 1231TIP3   OH2 3633   8.015   3.450   5.626
 1231TIP3    H1 3634   8.010   3.470   5.719
 1231TIP3    H2 3635   8.044   3.359   5.623
 1232TIP3   OH2 3636   5.953   2.635   0.096
 1232TIP3    H1 3637   6.006   2.707   0.061
 1232TIP3    H2 3638   5.937   2.659   0.187
 1233TIP3   OH2 3639   0.138   0.955   0.202
 1233TIP3    H1 3640   0.091   0.900   0.265
 1233TIP3    H2 3641   0.130   0.908   0.119
 1234TIP3   OH2 3642   1.555   1.982   2.487
 1234TIP3    H1 3643   1.552   2.059   2.543
 1234TIP3    H2 3644   1.465   1.951   2.483
 1235TIP3   OH2 3645   1.452   7.231   3.744
 1235TIP3    H1 3646   1.477   7.191   3.661
 1235TIP3    H2 3647   1.424   7.156   3.798
 1236TIP3   OH2 3648   6.038   1.755   5.775
 1236TIP3    H1 3649   6.129   1.739   5.752
 1236TIP3    H2 3650   6.035   1.847   5.801
 1237TIP3   OH2 3651   6.938   7.684   2.647
 1237TIP3    H1 3652   6.926   7.762   2.702
 1237TIP3    H2 3653   7.007   7.708   2.586
 1238TIP3   OH2 3654   7.947   2.085   0.923
 1238TIP3    H1 3655   7.863   2.043   0.942
 1238TIP3    H2 3656   8.000   2.068   1.001
 1239TIP3   OH2 3657   1.620   1.157   6.347
 1239TIP3    H1 3658   1.675   1.085   6.379
 1239TIP3    H2 3659   1.531   1.126   6.361
 1240TIP3   OH2 3660   6.861   5.694   4.594
 1240TIP3    H1 3661   6.870   5.668   4.686
 1240TIP3    H2 3662   6.769   5.675   4.573
 1241TIP3   OH2 3663   5.093   4.651   4.181
 1241TIP3    H1 3664   5.102   4.647   4.086
 1241TIP3    H2 3665   5.099   4.560   4.210
 1242TIP3   OH2 3666   4.534   1.721   6.407
 1242TIP3    H1 3667   4.469   1.768   6.354
 1242TIP3    H2 3668   4.594   1.790   6.437
 1243TIP3   OH2 3669   0.703   2.921   0.041
 1243TIP3    H1 3670   0.756   2.991   0.079
 1243TIP3    H2 3671   0.765   2.851   0.021
 1244TIP3   OH2 3672   0.797   1.032   2.433
 1244TIP3    H1 3673   0.743   1.029   2.354
 1244TIP3    H2 3674   0.777   0.951   2.480
 1245TIP3   OH2 3675   5.333   3.187   5.597
 1245TIP3    H1 3676   5.284   3.248   5.651
 1245TIP3    H2 3677   5.361   3.118   5.657
 1246TIP3   OH2 3678   7.813   1.618   6.558
 1246TIP3    H1 3679   7.866   1.541   6.581
 1246TIP3    H2 3680   7.873   1.673   6.507
 1247TIP3   OH2 3681   8.365   7.076   5.937
 1247TIP3    H1 3682   8.334   7.054   5.849
 1247TIP3    H2 3683   8.458   7.095   5.925
 1248TIP3   OH2 3684   5.339   0.297   5.636
 1248TIP3    H1 3685   5.415   0.273   5.582
 1248TIP3    H2 3686   5.344   0.393   5.642
 1249TIP3   OH2 3687   6.431   7.457   3.185
 1249TIP3    H1 3688   6.378   7.418   3.254
 1249TIP3    H2 3689   6.487   7.520   3.231
 1250TIP3   OH2 3690   0.957   3.278   2.272
 1250TIP3    H1 3691   0.941   3.225   2.351
 1250TIP3    H2 3692   0.962   3.214   2.201
 1251TIP3   OH2 3693   5.890   4.137   5.706
 1251TIP3    H1 3694   5.945   4.184   5.768
 1251TIP3    H2 3695   5.933   4.148   5.621
 1252TIP3   OH2 3696   0.021   6.442   3.729
 1252TIP3    H1 3697  -0.002   6.349   3.731
 1252TIP3    H2 3698  -0.007   6.471   3.642
 1253TIP3   OH2 3699   4.142   7.584   6.398
 1253TIP3    H1 3700   4.094   7.502   6.409
 1253TIP3    H2 3701   4.158   7.614   6.488
 1254TIP3   OH2 3702   7.064   3.125   2.474
 1254TIP3    H1 3703   7.005   3.142   2.547
 1254TIP3    H2 3704   7.079   3.212   2.435
 1255TIP3   OH2 3705   6.092   7.782   1.145
 1255TIP3    H1 3706   6.147   7.714   1.186
 1255TIP3    H2 3707   6.046   7.736   1.075
 1256TIP3   OH2 3708   0.730   6.455   4.188
 1256TIP3    H1 3709   0.648   6.505   4.183
 1256TIP3    H2 3710   0.734   6.425   4.279
 1257TIP3   OH2 3711   6.481   3.634   5.719
 1257TIP3    H1 3712   6.551   3.691   5.753
 1257TIP3    H2 3713   6.440   3.686   5.650
 1258TIP3   OH2 3714   5.512   7.006   3.996
 1258TIP3    H1 3715   5.452   7.020   3.923
 1258TIP3    H2 3716   5.554   6.923   3.977
 1259TIP3   OH2 3717   0.536   4.136   2.469
 1259TIP3    H1 3718   0.544   4.040   2.472
 1259TIP3    H2 3719   0.489   4.152   2.387
 1260TIP3   OH2 3720   0.069   0.179   2.591
 1260TIP3    H1 3721   0.122   0.180   2.672
 1260TIP3    H2 3722   0.120   0.125   2.530
 1261TIP3   OH2 3723   6.811   3.197   4.208
 1261TIP3    H1 3724   6.836   3.236   4.291
 1261TIP3    H2 3725   6.889   3.149   4.179
 1262TIP3   OH2 3726   0.014   4.148   5.213
 1262TIP3    H1 3727   0.110   4.151   5.205
 1262TIP3    H2 3728  -0.008   4.228   5.260
 1263TIP3   OH2 3729   1.745   6.461   5.848
 1263TIP3    H1 3730   1.741   6.433   5.939
 1263TIP3    H2 3731   1.654   6.464   5.820
 1264TIP3   OH2 3732   0.361   4.000   3.818
 1264TIP3    H1 3733   0.270   4.023   3.835
 1264TIP3    H2 3734   0.391   3.959   3.899
 1265TIP3   OH2 3735   4.228   6.990   2.876
 1265TIP3    H1 3736   4.185   6.906   2.859
 1265TIP3    H2 3737   4.271   6.978   2.961
 1266TIP3   OH2 3738   1.857   4.423   5.234
 1266TIP3    H1 3739   1.946   4.453   5.212
 1266TIP3    H2 3740   1.871   4.353   5.299
 1267TIP3   OH2 3741   6.252   2.752   1.572
 1267TIP3    H1 3742   6.291   2.665   1.584
 1267TIP3    H2 3743   6.277   2.801   1.650
 1268TIP3   OH2 3744   3.495   4.154   1.772
 1268TIP3    H1 3745   3.455   4.135   1.687
 1268TIP3    H2 3746   3.451   4.095   1.833
 1269TIP3   OH2 3747   7.896   0.869   5.737
 1269TIP3    H1 3748   7.891   0.922   5.817
 1269TIP3    H2 3749   7.925   0.782   5.767
 1270TIP3   OH2 3750   5.739   2.153   1.769
 1270TIP3    H1 3751   5.709   2.228   1.820
 1270TIP3    H2 3752   5.662   2.126   1.718
 1271TIP3   OH2 3753   3.262   0.068   5.125
 1271TIP3    H1 3754   3.319   0.115   5.064
 1271TIP3    H2 3755   3.240  -0.013   5.080
 1272TIP3   OH2 3756   3.564   2.405   4.820
 1272TIP3    H1 3757   3.510   2.362   4.887
 1272TIP3    H2 3758   3.506   2.470   4.781
 1273TIP3   OH2 3759   6.626   3.310   0.176
 1273TIP3    H1 3760   6.580   3.391   0.156
 1273TIP3    H2 3761   6.706   3.314   0.124
 1274TIP3   OH2 3762   2.679   2.313   4.739
 1274TIP3    H1 3763   2.763   2.332   4.781
 1274TIP3    H2 3764   2.685   2.221   4.713
 1275TIP3   OH2 3765   7.083   1.143   5.754
 1275TIP3    H1 3766   7.019   1.209   5.782
 1275TIP3    H2 3767   7.134   1.187   5.686
 1276TIP3   OH2 3768   4.621   6.593   2.264
 1276TIP3    H1 3769   4.539   6.574   2.217
 1276TIP3    H2 3770   4.684   6.612   2.195
 1277TIP3   OH2 3771   4.611   7.525   5.871
 1277TIP3    H1 3772   4.577   7.605   5.909
 1277TIP3    H2 3773   4.686   7.502   5.926
 1278TIP3   OH2 3774   4.849   5.192   6.070
 1278TIP3    H1 3775   4.787   5.264   6.056
 1278TIP3    H2 3776   4.933   5.235   6.083
 1279TIP3   OH2 3777   4.648   6.888   2.069
 1279TIP3    H1 3778   4.577   6.877   2.005
 1279TIP3    H2 3779   4.606   6.870   2.153
 1280TIP3   OH2 3780   8.203   1.402   2.263
 1280TIP3    H1 3781   8.256   1.372   2.337
 1280TIP3    H2 3782   8.211   1.497   2.266
 1281TIP3   OH2 3783   6.436   2.216   0.501
 1281TIP3    H1 3784   6.489   2.226   0.580
 1281TIP3    H2 3785   6.498   2.192   0.433
 1282TIP3   OH2 3786   1.485   1.017   6.657
 1282TIP3    H1 3787   1.534   0.978   6.730
 1282TIP3    H2 3788   1.405   0.964   6.651
 1283TIP3   OH2 3789   8.102   7.401   2.233
 1283TIP3    H1 3790   8.043   7.433   2.165
 1283TIP3    H2 3791   8.081   7.454   2.310
 1284TIP3   OH2 3792   2.739   4.714   3.267
 1284TIP3    H1 3793   2.763   4.805   3.256
 1284TIP3    H2 3794   2.675   4.697   3.197
 1285TIP3   OH2 3795   2.806   2.225   5.522
 1285TIP3    H1 3796   2.719   2.208   5.485
 1285TIP3    H2 3797   2.792   2.300   5.580
 1286TIP3   OH2 3798   4.287   2.096   4.034
 1286TIP3    H1 3799   4.198   2.116   4.062
 1286TIP3    H2 3800   4.277   2.022   3.974
 1287TIP3   OH2 3801   6.308   0.788   5.974
 1287TIP3    H1 3802   6.398   0.793   6.005
 1287TIP3    H2 3803   6.278   0.700   5.998
 1288TIP3   OH2 3804   3.420   5.410   5.600
 1288TIP3    H1 3805   3.477   5.487   5.602
 1288TIP3    H2 3806   3.459   5.350   5.664
 1289TIP3   OH2 3807   5.371   4.576   1.094
 1289TIP3    H1 3808   5.351   4.653   1.147
 1289TIP3    H2 3809   5.313   4.507   1.128
 1290TIP3   OH2 3810   3.781   3.232   0.156
 1290TIP3    H1 3811   3.807   3.315   0.117
 1290TIP3    H2 3812   3.801   3.167   0.089
 1291TIP3   OH2 3813   3.759   2.450   0.799
 1291TIP3    H1 3814   3.682   2.474   0.747
 1291TIP3    H2 3815   3.800   2.534   0.821
 1292TIP3   OH2 3816   0.768   4.465   6.664
 1292TIP3    H1 3817   0.815   4.382   6.647
 1292TIP3    H2 3818   0.696   4.465   6.601
 1293TIP3   OH2 3819   5.044   0.542   3.996
 1293TIP3    H1 3820   4.956   0.516   4.023
 1293TIP3    H2 3821   5.089   0.460   3.976
 1294TIP3   OH2 3822   4.778   5.014   2.532
 1294TIP3    H1 3823   4.840   4.978   2.594
 1294TIP3    H2 3824   4.699   4.961   2.543
 1295TIP3   OH2 3825   4.410   0.860   3.846
 1295TIP3    H1 3826   4.431   0.911   3.768
 1295TIP3    H2 3827   4.321   0.885   3.868
 1296TIP3   OH2 3828   6.233   3.081   0.593
 1296TIP3    H1 3829   6.188   2.996   0.588
 1296TIP3    H2 3830   6.312   3.070   0.541
 1297TIP3   OH2 3831   2.684   1.496   2.835
 1297TIP3    H1 3832   2.645   1.409   2.843
 1297TIP3    H2 3833   2.722   1.498   2.748
 1298TIP3   OH2 3834   6.477   4.750   6.006
 1298TIP3    H1 3835   6.502   4.783   5.920
 1298TIP3    H2 3836   6.560   4.737   6.051
 1299TIP3   OH2 3837   0.490   0.134   0.845
 1299TIP3    H1 3838   0.446   0.054   0.818
 1299TIP3    H2 3839   0.508   0.181   0.763
 1300TIP3   OH2 3840   0.121   0.911   2.945
 1300TIP3    H1 3841   0.061   0.848   2.983
 1300TIP3    H2 3842   0.203   0.862   2.932
 1301TIP3   OH2 3843   1.869   4.331   3.373
 1301TIP3    H1 3844   1.924   4.382   3.313
 1301TIP3    H2 3845   1.864   4.245   3.332
 1302TIP3   OH2 3846   4.567   3.585   2.983
 1302TIP3    H1 3847   4.552   3.511   2.924
 1302TIP3    H2 3848   4.511   3.567   3.059
 1303TIP3   OH2 3849   8.104   4.495   4.239
 1303TIP3    H1 3850   8.085   4.428   4.174
 1303TIP3    H2 3851   8.018   4.519   4.274
 1304TIP3   OH2 3852   0.176   1.414   3.134
 1304TIP3    H1 3853   0.114   1.400   3.206
 1304TIP3    H2 3854   0.175   1.332   3.085
 1305TIP3   OH2 3855   6.351   2.520   5.252
 1305TIP3    H1 3856   6.350   2.481   5.339
 1305TIP3    H2 3857   6.278   2.583   5.252
 1306TIP3   OH2 3858   1.918   4.240   5.425
 1306TIP3    H1 3859   1.927   4.152   5.461
 1306TIP3    H2 3860   1.969   4.295   5.485
 1307TIP3   OH2 3861   3.651   6.223   4.539
 1307TIP3    H1 3862   3.655   6.127   4.535
 1307TIP3    H2 3863   3.565   6.245   4.504
 1308TIP3   OH2 3864   0.505   3.589   4.152
 1308TIP3    H1 3865   0.452   3.513   4.127
 1308TIP3    H2 3866   0.484   3.604   4.244
 1309TIP3   OH2 3867   6.161   7.608   1.962
 1309TIP3    H1 3868   6.105   7.574   1.892
 1309TIP3    H2 3869   6.162   7.702   1.947
 1310TIP3   OH2 3870   1.884   0.701   2.906
 1310TIP3    H1 3871   1.850   0.635   2.846
 1310TIP3    H2 3872   1.929   0.651   2.973
 1311TIP3   OH2 3873   8.131   4.128   4.173
 1311TIP3    H1 3874   8.058   4.127   4.111
 1311TIP3    H2 3875   8.099   4.083   4.250
 1312TIP3   OH2 3876   6.908   5.372   0.852
 1312TIP3    H1 3877   6.858   5.429   0.794
 1312TIP3    H2 3878   6.980   5.427   0.884
 1313TIP3   OH2 3879   1.189   2.589   4.003
 1313TIP3    H1 3880   1.280   2.614   4.016
 1313TIP3    H2 3881   1.174   2.598   3.909
 1314TIP3   OH2 3882   3.377   4.666   4.915
 1314TIP3    H1 3883   3.443   4.626   4.859
 1314TIP3    H2 3884   3.298   4.613   4.901
 1315TIP3   OH2 3885   7.083   5.430   3.259
 1315TIP3    H1 3886   7.147   5.501   3.247
 1315TIP3    H2 3887   7.030   5.458   3.333
 1316TIP3   OH2 3888   0.631   0.173   6.628
 1316TIP3    H1 3889   0.658   0.199   6.716
 1316TIP3    H2 3890   0.650   0.079   6.624
 1317TIP3   OH2 3891   1.750   5.171   4.047
 1317TIP3    H1 3892   1.666   5.213   4.067
 1317TIP3    H2 3893   1.816   5.227   4.087
 1318TIP3   OH2 3894   3.710   6.344   1.189
 1318TIP3    H1 3895   3.755   6.422   1.155
 1318TIP3    H2 3896   3.647   6.379   1.252
 1319TIP3   OH2 3897   2.678   2.990   5.765
 1319TIP3    H1 3898   2.761   2.977   5.720
 1319TIP3    H2 3899   2.682   2.932   5.841
 1320TIP3   OH2 3900   3.056   0.518   1.181
 1320TIP3    H1 3901   3.021   0.511   1.092
 1320TIP3    H2 3902   3.120   0.447   1.187
 1321TIP3   OH2 3903   4.391   7.729   4.350
 1321TIP3    H1 3904   4.397   7.638   4.380
 1321TIP3    H2 3905   4.327   7.726   4.279
 1322TIP3   OH2 3906   6.549   7.286   5.378
 1322TIP3    H1 3907   6.638   7.258   5.399
 1322TIP3    H2 3908   6.534   7.254   5.289
 1323TIP3   OH2 3909   0.931   0.801   1.971
 1323TIP3    H1 3910   0.971   0.884   1.944
 1323TIP3    H2 3911   0.840   0.824   1.992
 1324TIP3   OH2 3912   3.189   3.690   5.285
 1324TIP3    H1 3913   3.147   3.606   5.302
 1324TIP3    H2 3914   3.118   3.754   5.292
 1325TIP3   OH2 3915   4.237   4.374   2.196
 1325TIP3    H1 3916   4.261   4.335   2.112
 1325TIP3    H2 3917   4.233   4.468   2.179
 1326TIP3   OH2 3918   7.833   7.521   6.419
 1326TIP3    H1 3919   7.803   7.556   6.335
 1326TIP3    H2 3920   7.893   7.587   6.453
 1327TIP3   OH2 3921   0.375   6.002   4.319
 1327TIP3    H1 3922   0.417   6.002   4.233
 1327TIP3    H2 3923   0.414   5.929   4.366
 1328TIP3   OH2 3924   7.000   7.865   3.213
 1328TIP3    H1 3925   6.920   7.909   3.241
 1328TIP3    H2 3926   7.009   7.886   3.120
 1329TIP3   OH2 3927   5.693   2.589   4.699
 1329TIP3    H1 3928   5.617   2.544   4.733
 1329TIP3    H2 3929   5.764   2.566   4.758
 1330TIP3   OH2 3930   4.562   3.432   5.406
 1330TIP3    H1 3931   4.531   3.472   5.487
 1330TIP3    H2 3932   4.483   3.397   5.365
 1331TIP3   OH2 3933   4.087   7.786   5.266
 1331TIP3    H1 3934   4.067   7.735   5.344
 1331TIP3    H2 3935   4.086   7.721   5.195
 1332TIP3   OH2 3936   1.928   6.516   1.004
 1332TIP3    H1 3937   1.914   6.565   1.084
 1332TIP3    H2 3938   2.007   6.553   0.966
 1333TIP3   OH2 3939   6.154   6.175   4.351
 1333TIP3    H1 3940   6.112   6.247   4.398
 1333TIP3    H2 3941   6.130   6.190   4.259
 1334TIP3   OH2 3942   3.073   3.090   0.329
 1334TIP3    H1 3943   3.107   3.172   0.363
 1334TIP3    H2 3944   3.149   3.032   0.323
 1335TIP3   OH2 3945   8.013   1.036   2.640
 1335TIP3    H1 3946   7.976   1.059   2.554
 1335TIP3    H2 3947   8.099   0.999   2.619
 1336TIP3   OH2 3948   1.483   5.907   0.799
 1336TIP3    H1 3949   1.456   5.834   0.854
 1336TIP3    H2 3950   1.401   5.951   0.776
 1337TIP3   OH2 3951   3.300   6.630   3.468
 1337TIP3    H1 3952   3.275   6.722   3.480
 1337TIP3    H2 3953   3.307   6.619   3.373
 1338TIP3   OH2 3954   0.967   0.436   4.936
 1338TIP3    H1 3955   0.973   0.502   4.867
 1338TIP3    H2 3956   1.055   0.435   4.975
 1339TIP3   OH2 3957   1.774   0.094   4.858
 1339TIP3    H1 3958   1.813   0.007   4.849
 1339TIP3    H2 3959   1.849   0.153   4.864
 1340TIP3   OH2 3960   7.128   3.369   2.411
 1340TIP3    H1 3961   7.102   3.440   2.470
 1340TIP3    H2 3962   7.220   3.386   2.392
 1341TIP3   OH2 3963   7.201   7.650   1.589
 1341TIP3    H1 3964   7.148   7.657   1.509
 1341TIP3    H2 3965   7.275   7.594   1.564
 1342TIP3   OH2 3966   1.631   6.829   5.574
 1342TIP3    H1 3967   1.688   6.883   5.520
 1342TIP3    H2 3968   1.681   6.748   5.588
 1343TIP3   OH2 3969   7.558   0.162   5.832
 1343TIP3    H1 3970   7.562   0.155   5.928
 1343TIP3    H2 3971   7.629   0.105   5.801
 1344TIP3   OH2 3972   3.548   5.676   0.522
 1344TIP3    H1 3973   3.577   5.724   0.600
 1344TIP3    H2 3974   3.573   5.585   0.539
 1345TIP3   OH2 3975   5.158   6.102   4.158
 1345TIP3    H1 3976   5.166   6.095   4.063
 1345TIP3    H2 3977   5.218   6.035   4.192
 1346TIP3   OH2 3978   0.683   2.114   3.346
 1346TIP3    H1 3979   0.619   2.043   3.353
 1346TIP3    H2 3980   0.630   2.193   3.336
 1347TIP3   OH2 3981   6.978   6.003   1.434
 1347TIP3    H1 3982   7.070   6.028   1.443
 1347TIP3    H2 3983   6.972   5.962   1.348
 1348TIP3   OH2 3984   2.791   7.505   2.239
 1348TIP3    H1 3985   2.722   7.568   2.262
 1348TIP3    H2 3986   2.830   7.480   2.323
 1349TIP3   OH2 3987   6.201   6.172   2.327
 1349TIP3    H1 3988   6.178   6.114   2.254
 1349TIP3    H2 3989   6.128   6.164   2.389
 1350TIP3   OH2 3990   6.173   3.316   4.798
 1350TIP3    H1 3991   6.252   3.367   4.817
 1350TIP3    H2 3992   6.186   3.233   4.843
 1351TIP3   OH2 3993   4.432   7.880   2.915
 1351TIP3    H1 3994   4.378   7.878   2.994
 1351TIP3    H2 3995   4.521   7.894   2.948
 1352TIP3   OH2 3996   0.481   2.298   5.101
 1352TIP3    H1 3997   0.538   2.374   5.090
 1352TIP3    H2 3998   0.533   2.236   5.152
 1353TIP3   OH2 3999   4.869   7.244   2.204
 1353TIP3    H1 4000   4.937   7.286   2.256
 1353TIP3    H2 4001   4.916   7.201   2.133
 1354TIP3   OH2 4002   7.155   7.667   4.609
 1354TIP3    H1 4003   7.094   7.613   4.559
 1354TIP3    H2 4004   7.241   7.643   4.575
 1355TIP3   OH2 4005   2.777   4.777   3.816
 1355TIP3    H1 4006   2.773   4.727   3.898
 1355TIP3    H2 4007   2.836   4.726   3.760
 1356TIP3   OH2 4008   6.405   0.022   1.388
 1356TIP3    H1 4009   6.341   0.092   1.403
 1356TIP3    H2 4010   6.488   0.061   1.414
 1357TIP3   OH2 4011   0.494   2.850   5.452
 1357TIP3    H1 4012   0.459   2.853   5.541
 1357TIP3    H2 4013   0.462   2.767   5.416
 1358TIP3   OH2 4014   0.301   5.666   6.495
 1358TIP3    H1 4015   0.250   5.586   6.496
 1358TIP3    H2 4016   0.338   5.670   6.407
 1359TIP3   OH2 4017   3.221   3.301   0.394
 1359TIP3    H1 4018   3.164   3.377   0.405
 1359TIP3    H2 4019   3.298   3.321   0.448
 1360TIP3   OH2 4020   2.566   1.395   6.333
 1360TIP3    H1 4021   2.529   1.317   6.375
 1360TIP3    H2 4022   2.589   1.453   6.405
 1361TIP3   OH2 4023   4.390   5.149   2.658
 1361TIP3    H1 4024   4.408   5.150   2.564
 1361TIP3    H2 4025   4.323   5.081   2.669
 1362TIP3   OH2 4026   7.587   6.699   0.227
 1362TIP3    H1 4027   7.559   6.730   0.313
 1362TIP3    H2 4028   7.577   6.776   0.170
 1363TIP3   OH2 4029   1.576   3.188   6.395
 1363TIP3    H1 4030   1.585   3.110   6.450
 1363TIP3    H2 4031   1.565   3.259   6.457
 1364TIP3   OH2 4032   7.447   6.759   4.933
 1364TIP3    H1 4033   7.468   6.708   5.012
 1364TIP3    H2 4034   7.506   6.724   4.866
 1365TIP3   OH2 4035   2.751   3.651   4.779
 1365TIP3    H1 4036   2.743   3.558   4.800
 1365TIP3    H2 4037   2.752   3.655   4.684
 1366TIP3   OH2 4038   2.950   5.976   3.912
 1366TIP3    H1 4039   2.977   5.990   4.003
 1366TIP3    H2 4040   2.858   5.950   3.918
 1367TIP3   OH2 4041   4.009   0.564   3.632
 1367TIP3    H1 4042   3.964   0.483   3.657
 1367TIP3    H2 4043   4.101   0.540   3.627
 1368TIP3   OH2 4044   0.037   1.383   4.197
 1368TIP3    H1 4045   0.064   1.292   4.186
 1368TIP3    H2 4046   0.039   1.398   4.291
 1369TIP3   OH2 4047   0.008   0.685   0.931
 1369TIP3    H1 4048   0.087   0.648   0.970
 1369TIP3    H2 4049   0.040   0.742   0.861
 1370TIP3   OH2 4050   4.760   4.272   1.971
 1370TIP3    H1 4051   4.692   4.305   2.029
 1370TIP3    H2 4052   4.796   4.350   1.929
 1371TIP3   OH2 4053   6.943   2.894   5.722
 1371TIP3    H1 4054   6.959   2.848   5.639
 1371TIP3    H2 4055   7.016   2.870   5.778
 1372TIP3   OH2 4056   3.558   0.990   1.910
 1372TIP3    H1 4057   3.640   1.031   1.885
 1372TIP3    H2 4058   3.580   0.898   1.924
 1373TIP3   OH2 4059   6.052   6.569   2.998
 1373TIP3    H1 4060   6.146   6.557   2.987
 1373TIP3    H2 4061   6.021   6.599   2.913
 1374TIP3   OH2 4062   5.143   1.500   4.549
 1374TIP3    H1 4063   5.199   1.551   4.491
 1374TIP3    H2 4064   5.160   1.409   4.525
 1375TIP3   OH2 4065   5.621   2.774   4.459
 1375TIP3    H1 4066   5.639   2.731   4.542
 1375TIP3    H2 4067   5.570   2.709   4.409
 1376TIP3   OH2 4068   3.835   7.171   2.919
 1376TIP3    H1 4069   3.786   7.232   2.864
 1376TIP3    H2 4070   3.835   7.213   3.005
 1377TIP3   OH2 4071   0.036   5.950   5.057
 1377TIP3    H1 4072   0.108   6.013   5.066
 1377TIP3    H2 4073   0.047   5.913   4.970
 1378TIP3   OH2 4074   0.661   4.539   0.904
 1378TIP3    H1 4075   0.644   4.453   0.865
 1378TIP3    H2 4076   0.745   4.566   0.868
 1379TIP3   OH2 4077   1.957   5.372   6.668
 1379TIP3    H1 4078   1.993   5.420   6.593
 1379TIP3    H2 4079   2.016   5.392   6.740
 1380TIP3   OH2 4080   2.537   3.686   2.331
 1380TIP3    H1 4081   2.595   3.744   2.280
 1380TIP3    H2 4082   2.457   3.682   2.279
 1381TIP3   OH2 4083   0.300   6.757   1.531
 1381TIP3    H1 4084   0.280   6.829   1.590
 1381TIP3    H2 4085   0.336   6.799   1.453
 1382TIP3   OH2 4086   1.330   1.621   3.619
 1382TIP3    H1 4087   1.269   1.592   3.687
 1382TIP3    H2 4088   1.352   1.542   3.570
 1383TIP3   OH2 4089   4.050   0.844   6.463
 1383TIP3    H1 4090   3.958   0.845   6.491
 1383TIP3    H2 4091   4.097   0.886   6.535
 1384TIP3   OH2 4092   6.117   4.085   4.901
 1384TIP3    H1 4093   6.195   4.034   4.878
 1384TIP3    H2 4094   6.046   4.044   4.851
 1385TIP3   OH2 4095   4.650   4.755   5.755
 1385TIP3    H1 4096   4.619   4.706   5.679
 1385TIP3    H2 4097   4.571   4.788   5.797
 1386TIP3   OH2 4098   8.245   2.470   4.090
 1386TIP3    H1 4099   8.297   2.421   4.026
 1386TIP3    H2 4100   8.301   2.544   4.115
 1387TIP3   OH2 4101   3.450   4.506   0.933
 1387TIP3    H1 4102   3.424   4.543   1.017
 1387TIP3    H2 4103   3.370   4.465   0.900
 1388TIP3   OH2 4104   0.072   2.233   6.474
 1388TIP3    H1 4105   0.156   2.234   6.519
 1388TIP3    H2 4106   0.009   2.205   6.541
 1389TIP3   OH2 4107   6.708   6.963   4.923
 1389TIP3    H1 4108   6.645   7.013   4.872
 1389TIP3    H2 4109   6.779   6.945   4.861
 1390TIP3   OH2 4110   2.573   4.723   1.651
 1390TIP3    H1 4111   2.594   4.662   1.580
 1390TIP3    H2 4112   2.576   4.810   1.610
 1391TIP3   OH2 4113   6.427   3.780   6.736
 1391TIP3    H1 4114   6.494   3.796   6.802
 1391TIP3    H2 4115   6.427   3.685   6.724
 1392TIP3   OH2 4116   8.282   3.754   6.892
 1392TIP3    H1 4117   8.195   3.770   6.855
 1392TIP3    H2 4118   8.331   3.834   6.874
 1393TIP3   OH2 4119   6.229   4.835   2.845
 1393TIP3    H1 4120   6.293   4.896   2.882
 1393TIP3    H2 4121   6.155   4.839   2.905
 1394TIP3   OH2 4122   0.300   0.294   0.580
 1394TIP3    H1 4123   0.395   0.288   0.567
 1394TIP3    H2 4124   0.273   0.369   0.527
 1395TIP3   OH2 4125   2.841   0.374   3.131
 1395TIP3    H1 4126   2.759   0.377   3.181
 1395TIP3    H2 4127   2.822   0.423   3.051
 1396TIP3   OH2 4128   8.146   1.527   1.927
 1396TIP3    H1 4129   8.091   1.530   2.005
 1396TIP3    H2 4130   8.235   1.515   1.959
 1397TIP3   OH2 4131   6.056   0.377   5.037
 1397TIP3    H1 4132   6.098   0.303   5.079
 1397TIP3    H2 4133   5.973   0.388   5.084
 1398TIP3   OH2 4134   2.207   6.854   6.743
 1398TIP3    H1 4135   2.269   6.879   6.811
 1398TIP3    H2 4136   2.199   6.759   6.751
 1399TIP3   OH2 4137   8.140   1.416   4.134
 1399TIP3    H1 4138   8.095   1.354   4.192
 1399TIP3    H2 4139   8.231   1.386   4.132
 1400TIP3   OH2 4140   1.701   4.620   0.215
 1400TIP3    H1 4141   1.769   4.679   0.184
 1400TIP3    H2 4142   1.628   4.633   0.155
 1401TIP3   OH2 4143   4.317   3.214   3.235
 1401TIP3    H1 4144   4.274   3.276   3.177
 1401TIP3    H2 4145   4.410   3.220   3.212
 1402TIP3   OH2 4146   2.169   0.549   0.907
 1402TIP3    H1 4147   2.119   0.631   0.918
 1402TIP3    H2 4148   2.182   0.541   0.812
 1403TIP3   OH2 4149   7.898   4.231   0.531
 1403TIP3    H1 4150   7.949   4.244   0.611
 1403TIP3    H2 4151   7.823   4.290   0.541
 1404TIP3   OH2 4152   6.842   6.533   3.570
 1404TIP3    H1 4153   6.840   6.575   3.656
 1404TIP3    H2 4154   6.796   6.595   3.512
 1405TIP3   OH2 4155   1.776   7.838   5.717
 1405TIP3    H1 4156   1.861   7.833   5.761
 1405TIP3    H2 4157   1.775   7.924   5.675
 1406TIP3   OH2 4158   1.467   6.268   5.632
 1406TIP3    H1 4159   1.426   6.183   5.614
 1406TIP3    H2 4160   1.559   6.248   5.649
 1407TIP3   OH2 4161   1.769   4.307   0.050
 1407TIP3    H1 4162   1.689   4.259   0.027
 1407TIP3    H2 4163   1.803   4.338  -0.034
 1408TIP3   OH2 4164   8.327   2.695   2.870
 1408TIP3    H1 4165   8.319   2.766   2.933
 1408TIP3    H2 4166   8.339   2.739   2.785
 1409TIP3   OH2 4167   7.567   5.386   3.064
 1409TIP3    H1 4168   7.529   5.391   2.977
 1409TIP3    H2 4169   7.643   5.444   3.061
 1410TIP3   OH2 4170   2.744   1.955   6.243
 1410TIP3    H1 4171   2.684   1.882   6.227
 1410TIP3    H2 4172   2.767   1.987   6.156
 1411TIP3   OH2 4173   2.248   5.500   0.531
 1411TIP3    H1 4174   2.191   5.501   0.608
 1411TIP3    H2 4175   2.336   5.506   0.566
 1412TIP3   OH2 4176   3.010   6.115   5.455
 1412TIP3    H1 4177   3.041   6.027   5.430
 1412TIP3    H2 4178   3.071   6.174   5.411
 1413TIP3   OH2 4179   3.416   0.478   0.791
 1413TIP3    H1 4180   3.368   0.512   0.867
 1413TIP3    H2 4181   3.475   0.412   0.828
 1414TIP3   OH2 4182   7.201   6.719   3.522
 1414TIP3    H1 4183   7.160   6.795   3.481
 1414TIP3    H2 4184   7.194   6.735   3.616
 1415TIP3   OH2 4185   3.469   2.183   6.778
 1415TIP3    H1 4186   3.383   2.222   6.789
 1415TIP3    H2 4187   3.529   2.247   6.816
 1416TIP3   OH2 4188   4.234   0.773   5.556
 1416TIP3    H1 4189   4.174   0.704   5.529
 1416TIP3    H2 4190   4.182   0.830   5.612
 1417TIP3   OH2 4191   2.783   5.706   1.971
 1417TIP3    H1 4192   2.825   5.742   2.050
 1417TIP3    H2 4193   2.700   5.670   2.002
 1418TIP3   OH2 4194   7.124   4.950   1.324
 1418TIP3    H1 4195   7.120   4.856   1.306
 1418TIP3    H2 4196   7.170   4.987   1.250
 1419TIP3   OH2 4197   5.773   2.131   2.224
 1419TIP3    H1 4198   5.850   2.096   2.269
 1419TIP3    H2 4199   5.784   2.101   2.134
 1420TIP3   OH2 4200   7.235   3.311   0.744
 1420TIP3    H1 4201   7.227   3.396   0.787
 1420TIP3    H2 4202   7.314   3.272   0.781
 1421TIP3   OH2 4203   0.227   1.154   3.037
 1421TIP3    H1 4204   0.270   1.192   2.960
 1421TIP3    H2 4205   0.196   1.069   3.006
 1422TIP3   OH2 4206   1.474   2.253   6.379
 1422TIP3    H1 4207   1.539   2.318   6.353
 1422TIP3    H2 4208   1.393   2.281   6.336
 1423TIP3   OH2 4209   3.520   4.716   6.086
 1423TIP3    H1 4210   3.581   4.789   6.074
 1423TIP3    H2 4211   3.560   4.643   6.038
 1424TIP3   OH2 4212   7.168   7.826   1.977
 1424TIP3    H1 4213   7.160   7.814   2.072
 1424TIP3    H2 4214   7.109   7.761   1.940
 1425TIP3   OH2 4215   4.281   0.504   3.605
 1425TIP3    H1 4216   4.341   0.432   3.585
 1425TIP3    H2 4217   4.323   0.582   3.570
 1426TIP3   OH2 4218   4.740   1.941   1.166
 1426TIP3    H1 4219   4.700   1.965   1.250
 1426TIP3    H2 4220   4.728   2.018   1.111
 1427TIP3   OH2 4221   3.604   1.405   2.490
 1427TIP3    H1 4222   3.531   1.353   2.523
 1427TIP3    H2 4223   3.572   1.444   2.409
 1428TIP3   OH2 4224   3.592   1.290   4.123
 1428TIP3    H1 4225   3.604   1.268   4.216
 1428TIP3    H2 4226   3.680   1.281   4.085
 1429TIP3   OH2 4227   7.500   6.414   6.719
 1429TIP3    H1 4228   7.515   6.339   6.776
 1429TIP3    H2 4229   7.506   6.379   6.630
 1430TIP3   OH2 4230   3.499   6.506   5.772
 1430TIP3    H1 4231   3.423   6.547   5.814
 1430TIP3    H2 4232   3.567   6.506   5.839
 1431TIP3   OH2 4233   4.644   6.512   0.027
 1431TIP3    H1 4234   4.636   6.438  -0.034
 1431TIP3    H2 4235   4.736   6.511   0.054
 1432TIP3   OH2 4236   0.075   1.776   2.316
 1432TIP3    H1 4237  -0.017   1.751   2.306
 1432TIP3    H2 4238   0.082   1.861   2.272
 1433TIP3   OH2 4239   5.484   6.083   0.471
 1433TIP3    H1 4240   5.536   6.028   0.413
 1433TIP3    H2 4241   5.400   6.094   0.425
 1434TIP3   OH2 4242   2.807   1.942   2.099
 1434TIP3    H1 4243   2.852   1.900   2.172
 1434TIP3    H2 4244   2.714   1.929   2.118
 1435TIP3   OH2 4245   7.871   7.791   4.575
 1435TIP3    H1 4246   7.964   7.807   4.591
 1435TIP3    H2 4247   7.861   7.697   4.585
 1436TIP3   OH2 4248   3.664   7.231   1.715
 1436TIP3    H1 4249   3.657   7.286   1.793
 1436TIP3    H2 4250   3.678   7.292   1.643
 1437TIP3   OH2 4251   7.499   4.409   3.690
 1437TIP3    H1 4252   7.560   4.366   3.630
 1437TIP3    H2 4253   7.548   4.419   3.771
 1438TIP3   OH2 4254   0.297   5.466   5.084
 1438TIP3    H1 4255   0.269   5.538   5.027
 1438TIP3    H2 4256   0.390   5.455   5.066
 1439TIP3   OH2 4257   0.164   3.585   2.005
 1439TIP3    H1 4258   0.174   3.496   2.039
 1439TIP3    H2 4259   0.074   3.609   2.026
 1440TIP3   OH2 4260   7.464   1.560   1.108
 1440TIP3    H1 4261   7.499   1.646   1.132
 1440TIP3    H2 4262   7.374   1.561   1.140
 1441TIP3   OH2 4263   6.596   2.859   4.724
 1441TIP3    H1 4264   6.620   2.869   4.632
 1441TIP3    H2 4265   6.679   2.867   4.772
 1442TIP3   OH2 4266   4.491   6.655   0.375
 1442TIP3    H1 4267   4.532   6.617   0.452
 1442TIP3    H2 4268   4.539   6.736   0.359
 1443TIP3   OH2 4269   5.523   1.063   5.211
 1443TIP3    H1 4270   5.576   0.982   5.209
 1443TIP3    H2 4271   5.518   1.090   5.119
 1444TIP3   OH2 4272   0.206   7.245   0.604
 1444TIP3    H1 4273   0.220   7.316   0.666
 1444TIP3    H2 4274   0.261   7.267   0.529
 1445TIP3   OH2 4275   2.502   4.362  -0.007
 1445TIP3    H1 4276   2.537   4.335   0.078
 1445TIP3    H2 4277   2.569   4.419  -0.044
 1446TIP3   OH2 4278   3.102   7.213   1.569
 1446TIP3    H1 4279   3.017   7.253   1.587
 1446TIP3    H2 4280   3.166   7.278   1.598
 1447TIP3   OH2 4281   0.483   6.021   2.280
 1447TIP3    H1 4282   0.428   6.060   2.212
 1447TIP3    H2 4283   0.475   5.926   2.265
 1448TIP3   OH2 4284   6.263   1.078   2.482
 1448TIP3    H1 4285   6.313   1.074   2.400
 1448TIP3    H2 4286   6.308   1.146   2.533
 1449TIP3   OH2 4287   4.614   6.878   4.907
 1449TIP3    H1 4288   4.677   6.832   4.853
 1449TIP3    H2 4289   4.529   6.846   4.877
 1450TIP3   OH2 4290   0.226   1.368   4.667
 1450TIP3    H1 4291   0.292   1.423   4.709
 1450TIP3    H2 4292   0.227   1.287   4.718
 1451TIP3   OH2 4293   5.895   2.890   3.629
 1451TIP3    H1 4294   5.916   2.983   3.622
 1451TIP3    H2 4295   5.918   2.866   3.719
 1452TIP3   OH2 4296   5.521   2.300   0.732
 1452TIP3    H1 4297   5.496   2.378   0.683
 1452TIP3    H2 4298   5.617   2.299   0.728
 1453TIP3   OH2 4299   6.813   2.581   5.805
 1453TIP3    H1 4300   6.810   2.512   5.872
 1453TIP3    H2 4301   6.900   2.620   5.814
 1454TIP3   OH2 4302   2.018   4.667   0.630
 1454TIP3    H1 4303   2.040   4.617   0.551
 1454TIP3    H2 4304   1.940   4.623   0.665
 1455TIP3   OH2 4305   3.201   3.300   4.786
 1455TIP3    H1 4306   3.202   3.351   4.705
 1455TIP3    H2 4307   3.234   3.360   4.853
 1456TIP3   OH2 4308   4.294   2.338   0.320
 1456TIP3    H1 4309   4.287   2.333   0.415
 1456TIP3    H2 4310   4.383   2.370   0.304
 1457TIP3   OH2 4311   6.953   7.172   6.731
 1457TIP3    H1 4312   7.003   7.248   6.761
 1457TIP3    H2 4313   6.935   7.191   6.639
 1458TIP3   OH2 4314   0.677   0.244   3.025
 1458TIP3    H1 4315   0.591   0.202   3.020
 1458TIP3    H2 4316   0.735   0.185   2.977
 1459TIP3   OH2 4317   5.744   6.529   2.853
 1459TIP3    H1 4318   5.747   6.459   2.788
 1459TIP3    H2 4319   5.708   6.487   2.931
 1460TIP3   OH2 4320   2.278   6.905   0.689
 1460TIP3    H1 4321   2.355   6.936   0.735
 1460TIP3    H2 4322   2.206   6.959   0.723
 1461TIP3   OH2 4323   6.070   4.593   2.805
 1461TIP3    H1 4324   6.068   4.498   2.789
 1461TIP3    H2 4325   6.160   4.611   2.833
 1462TIP3   OH2 4326   7.304   1.827   3.840
 1462TIP3    H1 4327   7.383   1.863   3.879
 1462TIP3    H2 4328   7.242   1.900   3.838
 1463TIP3   OH2 4329   3.151   4.424   6.050
 1463TIP3    H1 4330   3.069   4.375   6.052
 1463TIP3    H2 4331   3.218   4.358   6.031
 1464TIP3   OH2 4332   5.811   0.385   3.383
 1464TIP3    H1 4333   5.812   0.471   3.424
 1464TIP3    H2 4334   5.721   0.354   3.395
 1465TIP3   OH2 4335   7.736   4.896   4.606
 1465TIP3    H1 4336   7.652   4.911   4.650
 1465TIP3    H2 4337   7.783   4.835   4.663
 1466TIP3   OH2 4338   6.189   0.228   6.196
 1466TIP3    H1 4339   6.131   0.153   6.210
 1466TIP3    H2 4340   6.134   0.292   6.150
 1467TIP3   OH2 4341   2.143   3.336   0.684
 1467TIP3    H1 4342   2.094   3.272   0.633
 1467TIP3    H2 4343   2.229   3.339   0.642
 1468TIP3   OH2 4344   0.795   1.474   1.560
 1468TIP3    H1 4345   0.772   1.461   1.652
 1468TIP3    H2 4346   0.723   1.433   1.512
 1469TIP3   OH2 4347   4.156   2.096   5.166
 1469TIP3    H1 4348   4.167   2.003   5.187
 1469TIP3    H2 4349   4.131   2.098   5.074
 1470TIP3   OH2 4350   7.257   2.657   1.027
 1470TIP3    H1 4351   7.304   2.592   1.079
 1470TIP3    H2 4352   7.201   2.605   0.969
 1471TIP3   OH2 4353   5.696   5.030   5.411
 1471TIP3    H1 4354   5.618   5.044   5.358
 1471TIP3    H2 4355   5.742   4.957   5.370
 1472TIP3   OH2 4356   0.248   4.320   2.181
 1472TIP3    H1 4357   0.336   4.331   2.218
 1472TIP3    H2 4358   0.190   4.319   2.257
 1473TIP3   OH2 4359   7.272   1.943   0.211
 1473TIP3    H1 4360   7.183   1.913   0.227
 1473TIP3    H2 4361   7.309   1.957   0.298
 1474TIP3   OH2 4362   4.242   6.835   0.342
 1474TIP3    H1 4363   4.227   6.892   0.267
 1474TIP3    H2 4364   4.218   6.748   0.312
 1475TIP3   OH2 4365   7.356   1.331   1.544
 1475TIP3    H1 4366   7.264   1.346   1.525
 1475TIP3    H2 4367   7.397   1.417   1.530
 1476TIP3   OH2 4368   2.821   1.868   4.492
 1476TIP3    H1 4369   2.901   1.835   4.535
 1476TIP3    H2 4370   2.818   1.821   4.409
 1477TIP3   OH2 4371   7.052   5.883   3.413
 1477TIP3    H1 4372   7.113   5.867   3.485
 1477TIP3    H2 4373   7.108   5.898   3.337
 1478TIP3   OH2 4374   3.568   6.150   6.871
 1478TIP3    H1 4375   3.652   6.118   6.838
 1478TIP3    H2 4376   3.503   6.095   6.828
 1479TIP3   OH2 4377   4.945   3.250   1.459
 1479TIP3    H1 4378   4.987   3.318   1.512
 1479TIP3    H2 4379   4.851   3.261   1.476
 1480TIP3   OH2 4380   5.428   6.537   2.264
 1480TIP3    H1 4381   5.370   6.462   2.257
 1480TIP3    H2 4382   5.377   6.610   2.228
 1481TIP3   OH2 4383   1.145   3.810   4.913
 1481TIP3    H1 4384   1.087   3.766   4.851
 1481TIP3    H2 4385   1.086   3.848   4.978
 1482TIP3   OH2 4386   1.089   6.631   1.066
 1482TIP3    H1 4387   1.141   6.621   1.146
 1482TIP3    H2 4388   1.153   6.643   0.996
 1483TIP3   OH2 4389   5.861   2.386   3.258
 1483TIP3    H1 4390   5.901   2.473   3.262
 1483TIP3    H2 4391   5.790   2.389   3.323
 1484TIP3   OH2 4392   0.435   6.325   2.401
 1484TIP3    H1 4393   0.526   6.326   2.372
 1484TIP3    H2 4394   0.400   6.410   2.376
 1485TIP3   OH2 4395   6.438   2.932   6.511
 1485TIP3    H1 4396   6.401   2.978   6.436
 1485TIP3    H2 4397   6.519   2.979   6.531
 1486TIP3   OH2 4398   6.000   4.729   0.886
 1486TIP3    H1 4399   5.936   4.763   0.948
 1486TIP3    H2 4400   5.948   4.686   0.819
 1487TIP3   OH2 4401   3.354   5.482   0.734
 1487TIP3    H1 4402   3.427   5.467   0.673
 1487TIP3    H2 4403   3.397   5.504   0.817
 1488TIP3   OH2 4404   4.816   6.913   1.378
 1488TIP3    H1 4405   4.849   6.829   1.346
 1488TIP3    H2 4406   4.880   6.941   1.443
 1489TIP3   OH2 4407   6.031   2.232   6.223
 1489TIP3    H1 4408   6.123   2.212   6.242
 1489TIP3    H2 4409   6.018   2.319   6.261
 1490TIP3   OH2 4410   2.158   5.922   0.482
 1490TIP3    H1 4411   2.067   5.901   0.460
 1490TIP3    H2 4412   2.154   6.009   0.520
 1491TIP3   OH2 4413   6.787   0.551   6.842
 1491TIP3    H1 4414   6.758   0.642   6.835
 1491TIP3    H2 4415   6.875   0.551   6.805
 1492TIP3   OH2 4416   7.173   2.103   0.482
 1492TIP3    H1 4417   7.195   2.162   0.410
 1492TIP3    H2 4418   7.103   2.148   0.529
 1493TIP3   OH2 4419   2.108   3.318   1.474
 1493TIP3    H1 4420   2.157   3.398   1.456
 1493TIP3    H2 4421   2.171   3.247   1.460
 1494TIP3   OH2 4422   0.355   5.293   0.282
 1494TIP3    H1 4423   0.338   5.376   0.327
 1494TIP3    H2 4424   0.413   5.245   0.341
 1495TIP3   OH2 4425   4.557   3.303   3.809
 1495TIP3    H1 4426   4.571   3.389   3.848
 1495TIP3    H2 4427   4.519   3.321   3.723
 1496TIP3   OH2 4428   5.720   1.763   5.971
 1496TIP3    H1 4429   5.814   1.741   5.971
 1496TIP3    H2 4430   5.683   1.705   6.037
 1497TIP3   OH2 4431   0.473   1.549   2.414
 1497TIP3    H1 4432   0.391   1.505   2.438
 1497TIP3    H2 4433   0.488   1.613   2.483
 1498TIP3   OH2 4434  -0.010   5.401   2.825
 1498TIP3    H1 4435   0.053   5.334   2.798
 1498TIP3    H2 4436  -0.052   5.365   2.903
 1499TIP3   OH2 4437   2.162   7.014   2.406
 1499TIP3    H1 4438   2.146   6.968   2.323
 1499TIP3    H2 4439   2.082   7.064   2.421
 1500TIP3   OH2 4440   5.663   7.302   3.527
 1500TIP3    H1 4441   5.756   7.303   3.505
 1500TIP3    H2 4442   5.625   7.373   3.475
 1501TIP3   OH2 4443   6.713   2.806   5.029
 1501TIP3    H1 4444   6.718   2.902   5.028
 1501TIP3    H2 4445   6.777   2.780   5.095
 1502TIP3   OH2 4446   4.668   1.966   0.103
 1502TIP3    H1 4447   4.685   1.999   0.191
 1502TIP3    H2 4448   4.612   2.033   0.063
 1503TIP3   OH2 4449   5.187   0.003   4.800
 1503TIP3    H1 4450   5.215   0.083   4.844
 1503TIP3    H2 4451   5.099   0.021   4.768
 1504TIP3   OH2 4452   5.575   4.566   6.239
 1504TIP3    H1 4453   5.480   4.561   6.244
 1504TIP3    H2 4454   5.592   4.647   6.192
 1505TIP3   OH2 4455   2.969   4.369   2.816
 1505TIP3    H1 4456   2.936   4.355   2.904
 1505TIP3    H2 4457   2.967   4.464   2.803
 1506TIP3   OH2 4458   4.679   5.363   5.939
 1506TIP3    H1 4459   4.762   5.407   5.918
 1506TIP3    H2 4460   4.617   5.435   5.953
 1507TIP3   OH2 4461   6.895   4.961   4.846
 1507TIP3    H1 4462   6.933   5.018   4.779
 1507TIP3    H2 4463   6.961   4.893   4.861
 1508TIP3   OH2 4464   3.286   0.009   6.506
 1508TIP3    H1 4465   3.261  -0.020   6.594
 1508TIP3    H2 4466   3.345   0.083   6.520
 1509TIP3   OH2 4467   6.068   0.128   4.106
 1509TIP3    H1 4468   6.043   0.037   4.086
 1509TIP3    H2 4469   6.049   0.176   4.025
 1510TIP3   OH2 4470   5.835   1.362   1.618
 1510TIP3    H1 4471   5.904   1.367   1.553
 1510TIP3    H2 4472   5.853   1.282   1.667
 1511TIP3   OH2 4473   4.476   2.473   4.993
 1511TIP3    H1 4474   4.485   2.543   4.928
 1511TIP3    H2 4475   4.386   2.482   5.025
 1512TIP3   OH2 4476   5.356   3.581   2.678
 1512TIP3    H1 4477   5.312   3.590   2.594
 1512TIP3    H2 4478   5.290   3.543   2.736
 1513TIP3   OH2 4479   5.861   4.638   3.083
 1513TIP3    H1 4480   5.917   4.664   3.009
 1513TIP3    H2 4481   5.816   4.718   3.108
 1514TIP3   OH2 4482   1.460   7.604   5.108
 1514TIP3    H1 4483   1.517   7.615   5.184
 1514TIP3    H2 4484   1.491   7.522   5.067
 1515TIP3   OH2 4485   5.358   3.097   0.115
 1515TIP3    H1 4486   5.416   3.114   0.189
 1515TIP3    H2 4487   5.418   3.080   0.042
 1516TIP3   OH2 4488   3.218   4.494  -0.017
 1516TIP3    H1 4489   3.201   4.496   0.077
 1516TIP3    H2 4490   3.163   4.565  -0.052
 1517TIP3   OH2 4491   8.107   6.233   3.282
 1517TIP3    H1 4492   8.051   6.216   3.205
 1517TIP3    H2 4493   8.191   6.195   3.259
 1518TIP3   OH2 4494   3.332   3.927   1.847
 1518TIP3    H1 4495   3.237   3.934   1.848
 1518TIP3    H2 4496   3.355   3.902   1.937
 1519TIP3   OH2 4497   0.277   5.180   3.837
 1519TIP3    H1 4498   0.292   5.130   3.917
 1519TIP3    H2 4499   0.361   5.220   3.817
 1520TIP3   OH2 4500   6.331   4.270   6.229
 1520TIP3    H1 4501   6.255   4.221   6.197
 1520TIP3    H2 4502   6.387   4.203   6.270
 1521TIP3   OH2 4503   4.744   0.577   5.183
 1521TIP3    H1 4504   4.665   0.546   5.140
 1521TIP3    H2 4505   4.785   0.498   5.218
 1522TIP3   OH2 4506   7.237   2.171   2.999
 1522TIP3    H1 4507   7.273   2.085   3.022
 1522TIP3    H2 4508   7.187   2.197   3.077
 1523TIP3   OH2 4509   7.223   0.635   6.381
 1523TIP3    H1 4510   7.278   0.582   6.323
 1523TIP3    H2 4511   7.159   0.676   6.323
 1524TIP3   OH2 4512   2.982   3.268   4.257
 1524TIP3    H1 4513   3.000   3.231   4.170
 1524TIP3    H2 4514   2.948   3.355   4.239
 1525TIP3   OH2 4515   7.221   7.634   6.096
 1525TIP3    H1 4516   7.298   7.595   6.138
 1525TIP3    H2 4517   7.148   7.581   6.128
 1526TIP3   OH2 4518   4.059   4.167   2.288
 1526TIP3    H1 4519   4.122   4.235   2.264
 1526TIP3    H2 4520   3.981   4.188   2.237
 1527TIP3   OH2 4521   4.412   5.382   2.800
 1527TIP3    H1 4522   4.436   5.300   2.757
 1527TIP3    H2 4523   4.492   5.435   2.797
 1528TIP3   OH2 4524   6.986   5.027   3.557
 1528TIP3    H1 4525   7.001   5.109   3.510
 1528TIP3    H2 4526   7.022   5.043   3.645
 1529TIP3   OH2 4527   3.620   3.534   2.274
 1529TIP3    H1 4528   3.621   3.629   2.284
 1529TIP3    H2 4529   3.528   3.511   2.262
 1530TIP3   OH2 4530   0.570   0.358   0.228
 1530TIP3    H1 4531   0.619   0.287   0.186
 1530TIP3    H2 4532   0.533   0.408   0.156
 1531TIP3   OH2 4533   1.243   7.356   5.800
 1531TIP3    H1 4534   1.334   7.366   5.774
 1531TIP3    H2 4535   1.212   7.446   5.815
 1532TIP3   OH2 4536   3.323   7.024   0.408
 1532TIP3    H1 4537   3.392   7.088   0.423
 1532TIP3    H2 4538   3.252   7.074   0.368
 1533TIP3   OH2 4539   2.086   7.744   2.366
 1533TIP3    H1 4540   2.045   7.731   2.281
 1533TIP3    H2 4541   2.034   7.815   2.406
 1534TIP3   OH2 4542   3.202   1.679   2.935
 1534TIP3    H1 4543   3.218   1.595   2.978
 1534TIP3    H2 4544   3.234   1.668   2.846
 1535TIP3   OH2 4545   1.169   1.028   4.326
 1535TIP3    H1 4546   1.193   0.965   4.257
 1535TIP3    H2 4547   1.106   0.980   4.380
 1536TIP3   OH2 4548   0.561   3.880   3.035
 1536TIP3    H1 4549   0.580   3.947   3.100
 1536TIP3    H2 4550   0.552   3.799   3.086
 1537TIP3   OH2 4551   0.504   7.487   3.986
 1537TIP3    H1 4552   0.598   7.470   3.982
 1537TIP3    H2 4553   0.465   7.410   3.946
 1538TIP3   OH2 4554   8.036   6.507   0.805
 1538TIP3    H1 4555   7.984   6.586   0.791
 1538TIP3    H2 4556   8.098   6.506   0.732
 1539TIP3   OH2 4557   7.192   3.205   0.249
 1539TIP3    H1 4558   7.237   3.154   0.317
 1539TIP3    H2 4559   7.124   3.146   0.217
 1540TIP3   OH2 4560   1.598   0.889   1.355
 1540TIP3    H1 4561   1.512   0.910   1.392
 1540TIP3    H2 4562   1.578   0.842   1.274
 1541TIP3   OH2 4563   5.764   0.382   1.780
 1541TIP3    H1 4564   5.773   0.417   1.691
 1541TIP3    H2 4565   5.765   0.287   1.769
 1542TIP3   OH2 4566   5.861   6.500   1.937
 1542TIP3    H1 4567   5.812   6.533   2.012
 1542TIP3    H2 4568   5.822   6.544   1.861
 1543TIP3   OH2 4569   0.535   1.856   2.690
 1543TIP3    H1 4570   0.508   1.779   2.739
 1543TIP3    H2 4571   0.595   1.822   2.624
 1544TIP3   OH2 4572   2.536   4.981   4.145
 1544TIP3    H1 4573   2.583   4.993   4.062
 1544TIP3    H2 4574   2.583   4.909   4.188
 1545TIP3   OH2 4575   5.635   3.042   4.514
 1545TIP3    H1 4576   5.583   3.056   4.435
 1545TIP3    H2 4577   5.656   2.948   4.512
 1546TIP3   OH2 4578   1.964   2.443   6.495
 1546TIP3    H1 4579   1.930   2.530   6.515
 1546TIP3    H2 4580   1.898   2.383   6.529
 1547TIP3   OH2 4581   4.930   2.207   1.933
 1547TIP3    H1 4582   4.950   2.231   1.843
 1547TIP3    H2 4583   4.835   2.200   1.936
 1548TIP3   OH2 4584   3.961   2.497   0.514
 1548TIP3    H1 4585   3.967   2.405   0.537
 1548TIP3    H2 4586   3.974   2.499   0.419
 1549TIP3   OH2 4587   6.799   6.766   0.372
 1549TIP3    H1 4588   6.772   6.752   0.281
 1549TIP3    H2 4589   6.851   6.846   0.368
 1550TIP3   OH2 4590   3.226   0.376   4.975
 1550TIP3    H1 4591   3.183   0.378   4.890
 1550TIP3    H2 4592   3.295   0.311   4.966
 1551TIP3   OH2 4593   4.383   1.261   1.850
 1551TIP3    H1 4594   4.414   1.341   1.892
 1551TIP3    H2 4595   4.429   1.190   1.896
 1552TIP3   OH2 4596   1.114   0.284   3.457
 1552TIP3    H1 4597   1.090   0.219   3.391
 1552TIP3    H2 4598   1.053   0.357   3.442
 1553TIP3   OH2 4599   5.148   3.605   4.099
 1553TIP3    H1 4600   5.080   3.613   4.165
 1553TIP3    H2 4601   5.158   3.510   4.086
 1554TIP3   OH2 4602   6.362   0.974   4.403
 1554TIP3    H1 4603   6.394   0.978   4.494
 1554TIP3    H2 4604   6.424   0.917   4.358
 1555TIP3   OH2 4605   2.496   0.276   5.236
 1555TIP3    H1 4606   2.492   0.217   5.160
 1555TIP3    H2 4607   2.451   0.228   5.305
 1556TIP3   OH2 4608   5.326   6.571   1.897
 1556TIP3    H1 4609   5.350   6.640   1.959
 1556TIP3    H2 4610   5.373   6.595   1.817
 1557TIP3   OH2 4611   7.205   0.116   3.248
 1557TIP3    H1 4612   7.145   0.086   3.179
 1557TIP3    H2 4613   7.153   0.112   3.328
 1558TIP3   OH2 4614   4.386   0.414   2.260
 1558TIP3    H1 4615   4.406   0.445   2.348
 1558TIP3    H2 4616   4.463   0.364   2.234
 1559TIP3   OH2 4617   2.517   2.388   3.321
 1559TIP3    H1 4618   2.560   2.465   3.282
 1559TIP3    H2 4619   2.541   2.392   3.413
 1560TIP3   OH2 4620   1.546   4.898   1.384
 1560TIP3    H1 4621   1.626   4.899   1.332
 1560TIP3    H2 4622   1.499   4.976   1.356
 1561TIP3   OH2 4623   7.937   4.093   3.503
 1561TIP3    H1 4624   7.976   4.037   3.570
 1561TIP3    H2 4625   7.971   4.180   3.521
 1562TIP3   OH2 4626   1.793   2.958   1.706
 1562TIP3    H1 4627   1.830   2.986   1.623
 1562TIP3    H2 4628   1.815   2.865   1.712
 1563TIP3   OH2 4629   2.911   5.704   5.561
 1563TIP3    H1 4630   2.969   5.686   5.636
 1563TIP3    H2 4631   2.967   5.750   5.498
 1564TIP3   OH2 4632   7.022   2.758   1.771
 1564TIP3    H1 4633   7.044   2.750   1.864
 1564TIP3    H2 4634   6.932   2.791   1.771
 1565TIP3   OH2 4635   5.650   7.362   4.487
 1565TIP3    H1 4636   5.727   7.324   4.529
 1565TIP3    H2 4637   5.576   7.314   4.523
 1566TIP3   OH2 4638   0.481   7.126   5.329
 1566TIP3    H1 4639   0.516   7.214   5.315
 1566TIP3    H2 4640   0.387   7.134   5.313
 1567TIP3   OH2 4641   3.250   4.665   1.951
 1567TIP3    H1 4642   3.296   4.582   1.951
 1567TIP3    H2 4643   3.160   4.643   1.976
 1568TIP3   OH2 4644   5.617   7.837   5.634
 1568TIP3    H1 4645   5.688   7.785   5.596
 1568TIP3    H2 4646   5.650   7.863   5.720
 1569TIP3   OH2 4647   6.668   0.527   2.634
 1569TIP3    H1 4648   6.615   0.584   2.690
 1569TIP3    H2 4649   6.658   0.440   2.673
 1570TIP3   OH2 4650   6.848   6.990   3.757
 1570TIP3    H1 4651   6.791   7.030   3.691
 1570TIP3    H2 4652   6.922   6.955   3.707
 1571TIP3   OH2 4653   2.509   3.738   0.058
 1571TIP3    H1 4654   2.540   3.774   0.141
 1571TIP3    H2 4655   2.430   3.689   0.081
 1572TIP3   OH2 4656   7.115   1.638   2.397
 1572TIP3    H1 4657   7.190   1.681   2.356
 1572TIP3    H2 4658   7.086   1.574   2.332
 1573TIP3   OH2 4659   0.829   6.132   2.020
 1573TIP3    H1 4660   0.756   6.193   2.009
 1573TIP3    H2 4661   0.853   6.107   1.931
 1574TIP3   OH2 4662   4.852   7.494   0.801
 1574TIP3    H1 4663   4.857   7.589   0.788
 1574TIP3    H2 4664   4.943   7.465   0.806
 1575TIP3   OH2 4665   4.275   6.612   4.392
 1575TIP3    H1 4666   4.334   6.590   4.320
 1575TIP3    H2 4667   4.318   6.685   4.437
 1576TIP3   OH2 4668   0.472   1.174   1.779
 1576TIP3    H1 4669   0.518   1.230   1.717
 1576TIP3    H2 4670   0.424   1.112   1.724
 1577TIP3   OH2 4671   7.293   2.116   1.759
 1577TIP3    H1 4672   7.343   2.193   1.787
 1577TIP3    H2 4673   7.232   2.149   1.693
 1578TIP3   OH2 4674   1.617   7.486   0.470
 1578TIP3    H1 4675   1.647   7.568   0.430
 1578TIP3    H2 4676   1.604   7.427   0.395
 1579TIP3   OH2 4677   6.421   5.089   5.278
 1579TIP3    H1 4678   6.398   5.182   5.281
 1579TIP3    H2 4679   6.414   5.066   5.185
 1580TIP3   OH2 4680   1.609   0.034   5.129
 1580TIP3    H1 4681   1.701   0.017   5.108
 1580TIP3    H2 4682   1.565   0.035   5.044
 1581TIP3   OH2 4683   5.600   0.638   0.446
 1581TIP3    H1 4684   5.686   0.626   0.485
 1581TIP3    H2 4685   5.578   0.730   0.463
 1582TIP3   OH2 4686   7.238   4.633   0.874
 1582TIP3    H1 4687   7.211   4.723   0.856
 1582TIP3    H2 4688   7.269   4.634   0.964
 1583TIP3   OH2 4689   0.578   3.340   5.294
 1583TIP3    H1 4690   0.565   3.397   5.370
 1583TIP3    H2 4691   0.594   3.253   5.331
 1584TIP3   OH2 4692   2.763   4.080   4.922
 1584TIP3    H1 4693   2.820   4.124   4.860
 1584TIP3    H2 4694   2.747   4.146   4.990
 1585TIP3   OH2 4695   0.663   6.997   1.278
 1585TIP3    H1 4696   0.737   6.942   1.253
 1585TIP3    H2 4697   0.702   7.069   1.328
 1586TIP3   OH2 4698   2.301   1.286   1.130
 1586TIP3    H1 4699   2.346   1.351   1.077
 1586TIP3    H2 4700   2.227   1.332   1.169
 1587TIP3   OH2 4701   2.325   4.033   1.240
 1587TIP3    H1 4702   2.245   3.986   1.217
 1587TIP3    H2 4703   2.381   4.024   1.163
 1588TIP3   OH2 4704   3.547   5.565   0.890
 1588TIP3    H1 4705   3.612   5.627   0.858
 1588TIP3    H2 4706   3.500   5.613   0.959
 1589TIP3   OH2 4707   5.134   6.395   6.053
 1589TIP3    H1 4708   5.125   6.457   6.125
 1589TIP3    H2 4709   5.167   6.315   6.093
 1590TIP3   OH2 4710   7.590   4.804   0.183
 1590TIP3    H1 4711   7.608   4.894   0.211
 1590TIP3    H2 4712   7.535   4.813   0.105
 1591TIP3   OH2 4713   0.430   6.757   3.936
 1591TIP3    H1 4714   0.464   6.787   3.852
 1591TIP3    H2 4715   0.353   6.811   3.952
 1592TIP3   OH2 4716   0.118   7.153   5.276
 1592TIP3    H1 4717   0.100   7.189   5.190
 1592TIP3    H2 4718   0.128   7.230   5.333
 1593TIP3   OH2 4719   3.555   2.874   1.310
 1593TIP3    H1 4720   3.584   2.805   1.370
 1593TIP3    H2 4721   3.461   2.858   1.298
 1594TIP3   OH2 4722   6.398   5.338   5.386
 1594TIP3    H1 4723   6.355   5.309   5.466
 1594TIP3    H2 4724   6.333   5.392   5.342
 1595TIP3   OH2 4725   6.452   4.019   6.246
 1595TIP3    H1 4726   6.525   3.974   6.288
 1595TIP3    H2 4727   6.488   4.053   6.164
 1596TIP3   OH2 4728   4.138   4.260   2.933
 1596TIP3    H1 4729   4.062   4.315   2.954
 1596TIP3    H2 4730   4.200   4.320   2.893
 1597TIP3   OH2 4731   4.195   3.233   0.180
 1597TIP3    H1 4732   4.215   3.150   0.137
 1597TIP3    H2 4733   4.173   3.293   0.108
 1598TIP3   OH2 4734   5.278   7.405   4.281
 1598TIP3    H1 4735   5.343   7.358   4.228
 1598TIP3    H2 4736   5.193   7.379   4.244
 1599TIP3   OH2 4737   7.442   4.489   5.909
 1599TIP3    H1 4738   7.442   4.584   5.919
 1599TIP3    H2 4739   7.528   4.470   5.871
 1600TIP3   OH2 4740   8.005   4.639   1.483
 1600TIP3    H1 4741   8.077   4.648   1.545
 1600TIP3    H2 4742   8.000   4.723   1.439
 1601TIP3   OH2 4743   3.846   2.512   5.483
 1601TIP3    H1 4744   3.784   2.582   5.505
 1601TIP3    H2 4745   3.861   2.467   5.566
 1602TIP3   OH2 4746   5.800   2.532   2.825
 1602TIP3    H1 4747   5.810   2.578   2.741
 1602TIP3    H2 4748   5.889   2.503   2.847
 1603TIP3   OH2 4749   4.407   7.659   1.830
 1603TIP3    H1 4750   4.345   7.589   1.852
 1603TIP3    H2 4751   4.429   7.699   1.914
 1604TIP3   OH2 4752   6.042   4.415   3.205
 1604TIP3    H1 4753   6.074   4.440   3.292
 1604TIP3    H2 4754   5.974   4.479   3.186
 1605TIP3   OH2 4755   3.557   6.684   2.709
 1605TIP3    H1 4756   3.553   6.741   2.632
 1605TIP3    H2 4757   3.647   6.651   2.709
 1606TIP3   OH2 4758   0.373   4.318   1.303
 1606TIP3    H1 4759   0.289   4.307   1.258
 1606TIP3    H2 4760   0.362   4.272   1.386
 1607TIP3   OH2 4761   6.803   0.430   4.104
 1607TIP3    H1 4762   6.781   0.523   4.110
 1607TIP3    H2 4763   6.822   0.403   4.193
 1608TIP3   OH2 4764   4.672   1.124   3.206
 1608TIP3    H1 4765   4.641   1.130   3.116
 1608TIP3    H2 4766   4.767   1.130   3.199
 1609TIP3   OH2 4767   3.981   3.048   3.853
 1609TIP3    H1 4768   4.056   3.107   3.852
 1609TIP3    H2 4769   4.005   2.979   3.792
 1610TIP3   OH2 4770   5.568   4.183   3.071
 1610TIP3    H1 4771   5.541   4.234   2.995
 1610TIP3    H2 4772   5.486   4.146   3.105
 1611TIP3   OH2 4773   1.530   7.388   4.945
 1611TIP3    H1 4774   1.474   7.345   4.881
 1611TIP3    H2 4775   1.609   7.411   4.897
 1612TIP3   OH2 4776   2.358   0.503   3.839
 1612TIP3    H1 4777   2.364   0.585   3.889
 1612TIP3    H2 4778   2.264   0.489   3.827
 1613TIP3   OH2 4779   8.299   7.096   5.005
 1613TIP3    H1 4780   8.279   7.129   4.917
 1613TIP3    H2 4781   8.345   7.169   5.048
 1614TIP3   OH2 4782   2.755   1.065   5.632
 1614TIP3    H1 4783   2.665   1.089   5.610
 1614TIP3    H2 4784   2.749   0.976   5.665
 1615TIP3   OH2 4785   4.803   4.741   2.869
 1615TIP3    H1 4786   4.840   4.663   2.910
 1615TIP3    H2 4787   4.708   4.731   2.879
 1616TIP3   OH2 4788   2.225   6.579   6.764
 1616TIP3    H1 4789   2.310   6.588   6.720
 1616TIP3    H2 4790   2.234   6.500   6.817
 1617TIP3   OH2 4791   7.132   2.922   3.397
 1617TIP3    H1 4792   7.092   2.948   3.314
 1617TIP3    H2 4793   7.078   2.965   3.463
 1618TIP3   OH2 4794   4.062   3.562   5.645
 1618TIP3    H1 4795   4.021   3.489   5.692
 1618TIP3    H2 4796   4.140   3.524   5.605
 1619TIP3   OH2 4797   6.071   2.195   5.022
 1619TIP3    H1 4798   6.076   2.100   5.015
 1619TIP3    H2 4799   6.155   2.219   5.062
 1620TIP3   OH2 4800   6.219   7.890   2.045
 1620TIP3    H1 4801   6.189   7.918   2.132
 1620TIP3    H2 4802   6.152   7.924   1.985
 1621TIP3   OH2 4803   8.024   6.934   0.285
 1621TIP3    H1 4804   8.056   7.016   0.323
 1621TIP3    H2 4805   8.039   6.944   0.191
 1622TIP3   OH2 4806   4.735   5.568   2.920
 1622TIP3    H1 4807   4.795   5.582   2.994
 1622TIP3    H2 4808   4.783   5.509   2.862
 1623TIP3   OH2 4809   7.100   1.257   1.946
 1623TIP3    H1 4810   7.082   1.184   1.887
 1623TIP3    H2 4811   7.195   1.270   1.940
 1624TIP3   OH2 4812   6.061   7.751   4.961
 1624TIP3    H1 4813   6.084   7.843   4.954
 1624TIP3    H2 4814   6.090   7.725   5.048
 1625TIP3   OH2 4815   1.217   0.196   4.059
 1625TIP3    H1 4816   1.293   0.252   4.046
 1625TIP3    H2 4817   1.219   0.135   3.985
 1626TIP3   OH2 4818   5.640   2.238   4.761
 1626TIP3    H1 4819   5.546   2.239   4.778
 1626TIP3    H2 4820   5.680   2.264   4.845
 1627TIP3   OH2 4821   3.615   0.416   4.469
 1627TIP3    H1 4822   3.649   0.497   4.430
 1627TIP3    H2 4823   3.661   0.408   4.552
 1628TIP3   OH2 4824   0.529   0.823   5.775
 1628TIP3    H1 4825   0.570   0.905   5.800
 1628TIP3    H2 4826   0.544   0.764   5.849
 1629TIP3   OH2 4827   0.136   0.053   6.217
 1629TIP3    H1 4828   0.158   0.121   6.152
 1629TIP3    H2 4829   0.194   0.071   6.291
 1630TIP3   OH2 4830   3.295   5.419   3.417
 1630TIP3    H1 4831   3.375   5.424   3.365
 1630TIP3    H2 4832   3.279   5.325   3.428
 1631TIP3   OH2 4833   4.009   3.695   0.451
 1631TIP3    H1 4834   3.953   3.743   0.390
 1631TIP3    H2 4835   4.092   3.743   0.451
 1632TIP3   OH2 4836   3.829   5.031   2.307
 1632TIP3    H1 4837   3.920   5.057   2.288
 1632TIP3    H2 4838   3.791   5.109   2.347
 1633TIP3   OH2 4839   0.319   2.287   0.910
 1633TIP3    H1 4840   0.406   2.323   0.891
 1633TIP3    H2 4841   0.309   2.214   0.849
 1634TIP3   OH2 4842   4.125   2.675   6.013
 1634TIP3    H1 4843   4.153   2.692   6.103
 1634TIP3    H2 4844   4.202   2.695   5.960
 1635TIP3   OH2 4845   4.106   4.364   4.217
 1635TIP3    H1 4846   4.182   4.308   4.232
 1635TIP3    H2 4847   4.121   4.440   4.272
 1636TIP3   OH2 4848   3.306   0.469   0.259
 1636TIP3    H1 4849   3.266   0.503   0.179
 1636TIP3    H2 4850   3.233   0.440   0.313
 1637TIP3   OH2 4851   6.085   7.448   4.124
 1637TIP3    H1 4852   6.051   7.439   4.213
 1637TIP3    H2 4853   6.180   7.441   4.134
 1638TIP3   OH2 4854   4.544   5.086   3.868
 1638TIP3    H1 4855   4.521   5.173   3.837
 1638TIP3    H2 4856   4.494   5.026   3.813
 1639TIP3   OH2 4857   3.295   7.443   4.247
 1639TIP3    H1 4858   3.378   7.414   4.212
 1639TIP3    H2 4859   3.314   7.468   4.338
 1640TIP3   OH2 4860   2.041   4.747   3.199
 1640TIP3    H1 4861   2.049   4.843   3.198
 1640TIP3    H2 4862   2.022   4.725   3.108
 1641TIP3   OH2 4863   6.280  -0.008   6.805
 1641TIP3    H1 4864   6.337   0.067   6.788
 1641TIP3    H2 4865   6.211  -0.001   6.740
 1642TIP3   OH2 4866   5.267   6.072   6.610
 1642TIP3    H1 4867   5.192   6.071   6.670
 1642TIP3    H2 4868   5.230   6.051   6.525
 1643TIP3   OH2 4869   4.839   6.399   6.578
 1643TIP3    H1 4870   4.794   6.450   6.646
 1643TIP3    H2 4871   4.773   6.390   6.508
 1644TIP3   OH2 4872   4.310   5.289   3.888
 1644TIP3    H1 4873   4.377   5.357   3.880
 1644TIP3    H2 4874   4.237   5.321   3.836
 1645TIP3   OH2 4875   7.242   3.099   1.197
 1645TIP3    H1 4876   7.255   3.048   1.277
 1645TIP3    H2 4877   7.300   3.174   1.206
 1646TIP3   OH2 4878   1.696   2.545   4.225
 1646TIP3    H1 4879   1.786   2.519   4.246
 1646TIP3    H2 4880   1.666   2.591   4.304
 1647TIP3   OH2 4881   6.598   0.834   0.067
 1647TIP3    H1 4882   6.685   0.861   0.097
 1647TIP3    H2 4883   6.546   0.914   0.070
 1648TIP3   OH2 4884   6.550   0.972   5.226
 1648TIP3    H1 4885   6.635   1.017   5.221
 1648TIP3    H2 4886   6.512   1.003   5.308
 1649TIP3   OH2 4887   1.607   5.634   1.375
 1649TIP3    H1 4888   1.625   5.708   1.317
 1649TIP3    H2 4889   1.573   5.566   1.318
 1650TIP3   OH2 4890   6.918   7.133   0.999
 1650TIP3    H1 4891   6.926   7.190   1.076
 1650TIP3    H2 4892   7.001   7.145   0.952
 1651TIP3   OH2 4893   5.804   0.469   0.836
 1651TIP3    H1 4894   5.893   0.481   0.803
 1651TIP3    H2 4895   5.773   0.557   0.853
 1652TIP3   OH2 4896   7.540   1.312   6.122
 1652TIP3    H1 4897   7.510   1.246   6.185
 1652TIP3    H2 4898   7.514   1.278   6.037
 1653TIP3   OH2 4899   5.527   6.613   5.877
 1653TIP3    H1 4900   5.568   6.576   5.800
 1653TIP3    H2 4901   5.480   6.690   5.844
 1654TIP3   OH2 4902   7.759   4.554   1.549
 1654TIP3    H1 4903   7.848   4.585   1.536
 1654TIP3    H2 4904   7.756   4.526   1.641
 1655TIP3   OH2 4905   0.380   7.758   4.410
 1655TIP3    H1 4906   0.349   7.698   4.478
 1655TIP3    H2 4907   0.390   7.703   4.332
 1656TIP3   OH2 4908   2.422   3.889   2.025
 1656TIP3    H1 4909   2.473   3.817   2.062
 1656TIP3    H2 4910   2.394   3.939   2.101
 1657TIP3   OH2 4911   2.421   6.921   3.014
 1657TIP3    H1 4912   2.408   6.958   3.101
 1657TIP3    H2 4913   2.397   6.829   3.022
 1658TIP3   OH2 4914   6.981   2.175   1.821
 1658TIP3    H1 4915   6.959   2.128   1.901
 1658TIP3    H2 4916   6.900   2.175   1.770
 1659TIP3   OH2 4917   5.528   4.829   5.877
 1659TIP3    H1 4918   5.589   4.866   5.813
 1659TIP3    H2 4919   5.559   4.739   5.890
 1660TIP3   OH2 4920   3.258   1.921   3.020
 1660TIP3    H1 4921   3.201   1.993   2.995
 1660TIP3    H2 4922   3.218   1.844   2.980
 1661TIP3   OH2 4923   4.794   7.288   4.789
 1661TIP3    H1 4924   4.817   7.201   4.755
 1661TIP3    H2 4925   4.725   7.319   4.730
 1662TIP3   OH2 4926   7.434   6.412   4.302
 1662TIP3    H1 4927   7.501   6.441   4.364
 1662TIP3    H2 4928   7.464   6.445   4.217
 1663TIP3   OH2 4929   2.930   6.766   2.521
 1663TIP3    H1 4930   2.874   6.833   2.560
 1663TIP3    H2 4931   2.933   6.790   2.428
 1664TIP3   OH2 4932   5.008   1.672   5.945
 1664TIP3    H1 4933   4.948   1.744   5.966
 1664TIP3    H2 4934   5.034   1.688   5.854
 1665TIP3   OH2 4935   4.147   5.041   6.164
 1665TIP3    H1 4936   4.162   5.004   6.251
 1665TIP3    H2 4937   4.235   5.048   6.126
 1666TIP3   OH2 4938   8.279   0.115   2.399
 1666TIP3    H1 4939   8.337   0.157   2.335
 1666TIP3    H2 4940   8.320   0.133   2.484
 1667TIP3   OH2 4941   3.498   6.322   5.447
 1667TIP3    H1 4942   3.537   6.410   5.455
 1667TIP3    H2 4943   3.489   6.292   5.537
 1668TIP3   OH2 4944   7.614   2.325   0.144
 1668TIP3    H1 4945   7.701   2.362   0.131
 1668TIP3    H2 4946   7.557   2.377   0.087
 1669TIP3   OH2 4947   3.170   3.098   6.449
 1669TIP3    H1 4948   3.249   3.135   6.487
 1669TIP3    H2 4949   3.099   3.153   6.482
 1670TIP3   OH2 4950   5.147   2.345   5.274
 1670TIP3    H1 4951   5.147   2.323   5.181
 1670TIP3    H2 4952   5.054   2.344   5.299
 1671TIP3   OH2 4953   3.883   2.196   3.806
 1671TIP3    H1 4954   3.898   2.253   3.882
 1671TIP3    H2 4955   3.788   2.183   3.805
 1672TIP3   OH2 4956   3.518   1.534   5.605
 1672TIP3    H1 4957   3.581   1.573   5.665
 1672TIP3    H2 4958   3.489   1.454   5.649
 1673TIP3   OH2 4959   7.982   3.030   0.487
 1673TIP3    H1 4960   8.003   2.967   0.556
 1673TIP3    H2 4961   7.890   3.015   0.468
 1674TIP3   OH2 4962   7.699   1.741   3.835
 1674TIP3    H1 4963   7.789   1.767   3.852
 1674TIP3    H2 4964   7.658   1.739   3.922
 1675TIP3   OH2 4965   4.804   1.527   0.505
 1675TIP3    H1 4966   4.718   1.485   0.496
 1675TIP3    H2 4967   4.785   1.621   0.503
 1676TIP3   OH2 4968   4.954   0.865   5.196
 1676TIP3    H1 4969   4.951   0.845   5.290
 1676TIP3    H2 4970   4.989   0.786   5.156
 1677TIP3   OH2 4971   0.094   1.224   2.269
 1677TIP3    H1 4972   0.058   1.297   2.319
 1677TIP3    H2 4973   0.103   1.153   2.332
 1678TIP3   OH2 4974   6.970   5.792   3.779
 1678TIP3    H1 4975   6.920   5.711   3.788
 1678TIP3    H2 4976   6.904   5.859   3.764
 1679TIP3   OH2 4977   1.852   7.246   3.189
 1679TIP3    H1 4978   1.931   7.223   3.139
 1679TIP3    H2 4979   1.827   7.333   3.157
 1680TIP3   OH2 4980   3.950   1.125   1.405
 1680TIP3    H1 4981   3.980   1.207   1.446
 1680TIP3    H2 4982   3.864   1.145   1.371
 1681TIP3   OH2 4983   3.307   0.017   1.483
 1681TIP3    H1 4984   3.250   0.031   1.407
 1681TIP3    H2 4985   3.252   0.036   1.559
 1682TIP3   OH2 4986   5.003   1.266   4.839
 1682TIP3    H1 4987   4.960   1.191   4.880
 1682TIP3    H2 4988   4.951   1.341   4.867
 1683TIP3   OH2 4989   1.319   6.157   2.775
 1683TIP3    H1 4990   1.240   6.200   2.740
 1683TIP3    H2 4991   1.343   6.092   2.709
 1684TIP3   OH2 4992   7.473   2.467   2.025
 1684TIP3    H1 4993   7.507   2.543   2.071
 1684TIP3    H2 4994   7.452   2.405   2.094
 1685TIP3   OH2 4995   4.022   4.314   1.001
 1685TIP3    H1 4996   4.028   4.231   1.049
 1685TIP3    H2 4997   3.942   4.305   0.949
 1686TIP3   OH2 4998   3.830   0.324   3.731
 1686TIP3    H1 4999   3.817   0.259   3.800
 1686TIP3    H2 5000   3.889   0.281   3.669
 1687TIP3   OH2 5001   5.137   7.485   0.138
 1687TIP3    H1 5002   5.179   7.411   0.096
 1687TIP3    H2 5003   5.055   7.450   0.173
 1688TIP3   OH2 5004   5.195   0.501   2.844
 1688TIP3    H1 5005   5.163   0.564   2.909
 1688TIP3    H2 5006   5.185   0.547   2.761
 1689TIP3   OH2 5007   1.444   4.713   3.541
 1689TIP3    H1 5008   1.420   4.630   3.502
 1689TIP3    H2 5009   1.527   4.696   3.584
 1690TIP3   OH2 5010   1.897   2.086   5.947
 1690TIP3    H1 5011   1.814   2.127   5.970
 1690TIP3    H2 5012   1.962   2.135   5.996
 1691TIP3   OH2 5013   4.261   3.288   1.540
 1691TIP3    H1 5014   4.168   3.289   1.563
 1691TIP3    H2 5015   4.263   3.294   1.445
 1692TIP3   OH2 5016   4.305   7.201   4.707
 1692TIP3    H1 5017   4.261   7.254   4.774
 1692TIP3    H2 5018   4.272   7.112   4.721
 1693TIP3   OH2 5019   1.559   4.857   3.313
 1693TIP3    H1 5020   1.514   4.871   3.396
 1693TIP3    H2 5021   1.533   4.769   3.286
 1694TIP3   OH2 5022   7.749   5.869   0.815
 1694TIP3    H1 5023   7.737   5.946   0.759
 1694TIP3    H2 5024   7.662   5.829   0.821
 1695TIP3   OH2 5025   2.278   2.627   4.814
 1695TIP3    H1 5026   2.357   2.676   4.791
 1695TIP3    H2 5027   2.309   2.537   4.827
 1696TIP3   OH2 5028   2.261   6.565   1.318
 1696TIP3    H1 5029   2.196   6.512   1.273
 1696TIP3    H2 5030   2.336   6.566   1.259
 1697TIP3   OH2 5031   3.601   6.504   3.908
 1697TIP3    H1 5032   3.564   6.432   3.857
 1697TIP3    H2 5033   3.527   6.543   3.954
 1698TIP3   OH2 5034   1.842   0.979   6.397
 1698TIP3    H1 5035   1.862   1.060   6.444
 1698TIP3    H2 5036   1.924   0.954   6.356
 1699TIP3   OH2 5037   6.202   6.229   6.429
 1699TIP3    H1 5038   6.134   6.284   6.390
 1699TIP3    H2 5039   6.173   6.215   6.519
 1700TIP3   OH2 5040   4.538   1.044   4.282
 1700TIP3    H1 5041   4.552   0.991   4.360
 1700TIP3    H2 5042   4.587   1.125   4.298
 1701TIP3   OH2 5043   4.361   4.917   1.297
 1701TIP3    H1 5044   4.356   4.861   1.219
 1701TIP3    H2 5045   4.349   5.006   1.263
 1702TIP3   OH2 5046   2.093   5.699   3.885
 1702TIP3    H1 5047   2.080   5.690   3.979
 1702TIP3    H2 5048   2.011   5.669   3.846
 1703TIP3   OH2 5049   0.745   2.075   1.967
 1703TIP3    H1 5050   0.726   2.022   2.045
 1703TIP3    H2 5051   0.659   2.097   1.931
 1704TIP3   OH2 5052   1.202   6.978   2.047
 1704TIP3    H1 5053   1.288   6.981   2.090
 1704TIP3    H2 5054   1.172   6.888   2.059
 1705TIP3   OH2 5055   7.529   1.924   0.719
 1705TIP3    H1 5056   7.605   1.895   0.769
 1705TIP3    H2 5057   7.456   1.874   0.755
 1706TIP3   OH2 5058   6.178   5.278   6.197
 1706TIP3    H1 5059   6.212   5.313   6.114
 1706TIP3    H2 5060   6.118   5.346   6.228
 1707TIP3   OH2 5061   0.599   1.536   6.424
 1707TIP3    H1 5062   0.588   1.463   6.363
 1707TIP3    H2 5063   0.543   1.605   6.389
 1708TIP3   OH2 5064   6.123   6.047   0.350
 1708TIP3    H1 5065   6.060   6.017   0.285
 1708TIP3    H2 5066   6.205   6.057   0.302
 1709TIP3   OH2 5067   7.868   1.161   6.357
 1709TIP3    H1 5068   7.882   1.246   6.315
 1709TIP3    H2 5069   7.952   1.140   6.397
 1710TIP3   OH2 5070   7.537   3.026   6.626
 1710TIP3    H1 5071   7.612   2.967   6.623
 1710TIP3    H2 5072   7.461   2.968   6.616
 1711TIP3   OH2 5073   7.297   5.651   4.665
 1711TIP3    H1 5074   7.318   5.691   4.581
 1711TIP3    H2 5075   7.360   5.689   4.727
 1712TIP3   OH2 5076   4.523   1.707   6.727
 1712TIP3    H1 5077   4.438   1.723   6.686
 1712TIP3    H2 5078   4.568   1.648   6.667
 1713TIP3   OH2 5079   7.123   3.355   5.735
 1713TIP3    H1 5080   7.106   3.261   5.726
 1713TIP3    H2 5081   7.215   3.365   5.712
 1714TIP3   OH2 5082   3.094   3.424   4.018
 1714TIP3    H1 5083   3.133   3.495   4.070
 1714TIP3    H2 5084   3.000   3.436   4.028
 1715TIP3   OH2 5085   6.009   2.637   0.373
 1715TIP3    H1 5086   6.099   2.635   0.342
 1715TIP3    H2 5087   5.985   2.545   0.384
 1716TIP3   OH2 5088   3.314   7.535   4.773
 1716TIP3    H1 5089   3.259   7.611   4.755
 1716TIP3    H2 5090   3.263   7.485   4.837
 1717TIP3   OH2 5091   2.960   1.883   2.327
 1717TIP3    H1 5092   2.920   1.879   2.414
 1717TIP3    H2 5093   3.053   1.900   2.344
 1718TIP3   OH2 5094   5.926   4.143   1.846
 1718TIP3    H1 5095   5.853   4.163   1.788
 1718TIP3    H2 5096   5.915   4.202   1.920
 1719TIP3   OH2 5097   5.337   5.153   5.894
 1719TIP3    H1 5098   5.363   5.088   5.829
 1719TIP3    H2 5099   5.401   5.145   5.964
 1720TIP3   OH2 5100   2.470   5.241   3.619
 1720TIP3    H1 5101   2.442   5.151   3.607
 1720TIP3    H2 5102   2.529   5.239   3.694
 1721TIP3   OH2 5103   5.385   6.619   1.133
 1721TIP3    H1 5104   5.339   6.547   1.176
 1721TIP3    H2 5105   5.323   6.651   1.067
 1722TIP3   OH2 5106   5.623   5.071   2.822
 1722TIP3    H1 5107   5.628   5.040   2.731
 1722TIP3    H2 5108   5.713   5.091   2.845
 1723TIP3   OH2 5109   6.976   6.758   2.044
 1723TIP3    H1 5110   6.942   6.670   2.059
 1723TIP3    H2 5111   6.923   6.793   1.973
 1724TIP3   OH2 5112   2.044   7.922   4.510
 1724TIP3    H1 5113   2.034   7.892   4.600
 1724TIP3    H2 5114   1.957   7.914   4.471
 1725TIP3   OH2 5115   5.347   7.624   1.382
 1725TIP3    H1 5116   5.289   7.556   1.348
 1725TIP3    H2 5117   5.412   7.637   1.312
 1726TIP3   OH2 5118   1.988   3.513   0.915
 1726TIP3    H1 5119   2.019   3.444   0.973
 1726TIP3    H2 5120   2.006   3.480   0.827
 1727TIP3   OH2 5121   7.073   6.182   3.897
 1727TIP3    H1 5122   6.989   6.197   3.854
 1727TIP3    H2 5123   7.058   6.105   3.951
 1728TIP3   OH2 5124   5.688   2.377   5.475
 1728TIP3    H1 5125   5.760   2.325   5.439
 1728TIP3    H2 5126   5.626   2.386   5.402
 1729TIP3   OH2 5127   2.066   4.364   1.381
 1729TIP3    H1 5128   2.039   4.272   1.378
 1729TIP3    H2 5129   2.155   4.364   1.344
 1730TIP3   OH2 5130   1.529   3.604   2.277
 1730TIP3    H1 5131   1.606   3.551   2.297
 1730TIP3    H2 5132   1.488   3.559   2.203
 1731TIP3   OH2 5133   2.225   7.288   0.426
 1731TIP3    H1 5134   2.255   7.198   0.440
 1731TIP3    H2 5135   2.295   7.328   0.373
 1732TIP3   OH2 5136   0.824   6.982   2.278
 1732TIP3    H1 5137   0.792   6.893   2.294
 1732TIP3    H2 5138   0.813   6.994   2.184
 1733TIP3   OH2 5139   5.474   1.424   5.247
 1733TIP3    H1 5140   5.559   1.466   5.259
 1733TIP3    H2 5141   5.492   1.330   5.254
 1734TIP3   OH2 5142   0.342   5.156   3.437
 1734TIP3    H1 5143   0.285   5.115   3.502
 1734TIP3    H2 5144   0.403   5.088   3.411
 1735TIP3   OH2 5145   4.582   5.583   4.348
 1735TIP3    H1 5146   4.637   5.510   4.373
 1735TIP3    H2 5147   4.545   5.557   4.263
 1736TIP3   OH2 5148   7.340   0.941   6.445
 1736TIP3    H1 5149   7.401   0.894   6.502
 1736TIP3    H2 5150   7.283   0.873   6.409
 1737TIP3   OH2 5151   4.364   4.457   0.029
 1737TIP3    H1 5152   4.337   4.516  -0.042
 1737TIP3    H2 5153   4.284   4.440   0.078
 1738TIP3   OH2 5154   2.459   2.259   0.672
 1738TIP3    H1 5155   2.474   2.298   0.757
 1738TIP3    H2 5156   2.539   2.207   0.656
 1739TIP3   OH2 5157   0.733   3.655   1.761
 1739TIP3    H1 5158   0.792   3.721   1.723
 1739TIP3    H2 5159   0.786   3.612   1.828
 1740TIP3   OH2 5160   4.666   6.476   3.002
 1740TIP3    H1 5161   4.623   6.494   3.086
 1740TIP3    H2 5162   4.727   6.404   3.021
 1741TIP3   OH2 5163   7.258   4.135   0.352
 1741TIP3    H1 5164   7.166   4.113   0.340
 1741TIP3    H2 5165   7.258   4.230   0.365
 1742TIP3   OH2 5166   0.124   1.881   0.919
 1742TIP3    H1 5167   0.045   1.890   0.867
 1742TIP3    H2 5168   0.164   1.799   0.889
 1743TIP3   OH2 5169   0.469   3.891   6.745
 1743TIP3    H1 5170   0.432   3.893   6.657
 1743TIP3    H2 5171   0.436   3.971   6.787
 1744TIP3   OH2 5172   8.290   6.133   0.382
 1744TIP3    H1 5173   8.240   6.210   0.409
 1744TIP3    H2 5174   8.379   6.166   0.366
 1745TIP3   OH2 5175   6.466   5.585   5.601
 1745TIP3    H1 5176   6.487   5.528   5.527
 1745TIP3    H2 5177   6.513   5.667   5.583
 1746TIP3   OH2 5178   2.795   3.214  -0.003
 1746TIP3    H1 5179   2.842   3.139   0.032
 1746TIP3    H2 5180   2.703   3.187  -0.002
 1747TIP3   OH2 5181   2.260   6.206   4.099
 1747TIP3    H1 5182   2.192   6.190   4.033
 1747TIP3    H2 5183   2.256   6.129   4.157
 1748TIP3   OH2 5184   0.830   6.822   1.965
 1748TIP3    H1 5185   0.846   6.811   1.872
 1748TIP3    H2 5186   0.832   6.733   2.001
 1749TIP3   OH2 5187   8.031   2.242   1.254
 1749TIP3    H1 5188   8.080   2.284   1.325
 1749TIP3    H2 5189   7.963   2.305   1.230
 1750TIP3   OH2 5190   5.388   5.517   3.008
 1750TIP3    H1 5191   5.353   5.508   2.919
 1750TIP3    H2 5192   5.483   5.508   2.998
 1751TIP3   OH2 5193   6.968   5.923   5.879
 1751TIP3    H1 5194   6.975   5.942   5.973
 1751TIP3    H2 5195   6.898   5.980   5.848
 1752TIP3   OH2 5196   8.112   0.926   3.047
 1752TIP3    H1 5197   8.131   0.885   3.132
 1752TIP3    H2 5198   8.080   0.855   2.992
 1753TIP3   OH2 5199   2.539   3.703   2.727
 1753TIP3    H1 5200   2.562   3.615   2.696
 1753TIP3    H2 5201   2.536   3.694   2.822
 1754TIP3   OH2 5202   0.233   3.577   3.079
 1754TIP3    H1 5203   0.301   3.641   3.098
 1754TIP3    H2 5204   0.222   3.529   3.161
 1755TIP3   OH2 5205   4.770   7.643   4.073
 1755TIP3    H1 5206   4.834   7.700   4.117
 1755TIP3    H2 5207   4.823   7.576   4.031
 1756TIP3   OH2 5208   5.149   7.475   0.791
 1756TIP3    H1 5209   5.204   7.552   0.806
 1756TIP3    H2 5210   5.179   7.441   0.707
 1757TIP3   OH2 5211   7.637   3.005   3.222
 1757TIP3    H1 5212   7.612   2.912   3.217
 1757TIP3    H2 5213   7.601   3.034   3.306
 1758TIP3   OH2 5214   4.177   7.888   3.859
 1758TIP3    H1 5215   4.098   7.836   3.845
 1758TIP3    H2 5216   4.246   7.839   3.814
 1759TIP3   OH2 5217   7.260   0.036   5.348
 1759TIP3    H1 5218   7.317   0.111   5.370
 1759TIP3    H2 5219   7.244   0.045   5.254
 1760TIP3   OH2 5220   1.572   0.866   2.953
 1760TIP3    H1 5221   1.588   0.954   2.987
 1760TIP3    H2 5222   1.618   0.863   2.869
 1761TIP3   OH2 5223   0.502   3.620   5.006
 1761TIP3    H1 5224   0.475   3.702   4.965
 1761TIP3    H2 5225   0.534   3.645   5.092
 1762TIP3   OH2 5226   4.612   3.973   0.077
 1762TIP3    H1 5227   4.517   3.977   0.088
 1762TIP3    H2 5228   4.626   3.898   0.018
 1763TIP3   OH2 5229   1.153   1.880   0.199
 1763TIP3    H1 5230   1.194   1.895   0.114
 1763TIP3    H2 5231   1.206   1.811   0.240
 1764TIP3   OH2 5232   7.262   5.727   2.085
 1764TIP3    H1 5233   7.276   5.703   2.177
 1764TIP3    H2 5234   7.308   5.660   2.035
 1765TIP3   OH2 5235   6.359   7.724   5.427
 1765TIP3    H1 5236   6.444   7.680   5.418
 1765TIP3    H2 5237   6.301   7.658   5.465
 1766TIP3   OH2 5238   0.790   4.474   0.578
 1766TIP3    H1 5239   0.744   4.558   0.573
 1766TIP3    H2 5240   0.847   4.473   0.501
 1767TIP3   OH2 5241   5.449   5.869   1.835
 1767TIP3    H1 5242   5.422   5.781   1.861
 1767TIP3    H2 5243   5.380   5.926   1.868
 1768TIP3   OH2 5244   6.965   4.805   5.239
 1768TIP3    H1 5245   6.937   4.753   5.313
 1768TIP3    H2 5246   6.984   4.741   5.170
 1769TIP3   OH2 5247   5.260   7.261   6.513
 1769TIP3    H1 5248   5.184   7.214   6.478
 1769TIP3    H2 5249   5.319   7.192   6.543
 1770TIP3   OH2 5250   4.860   7.823   5.991
 1770TIP3    H1 5251   4.788   7.779   5.946
 1770TIP3    H2 5252   4.925   7.839   5.923
 1771TIP3   OH2 5253   2.389   3.497   1.707
 1771TIP3    H1 5254   2.379   3.407   1.738
 1771TIP3    H2 5255   2.476   3.498   1.667
 1772TIP3   OH2 5256   2.735   6.508   0.052
 1772TIP3    H1 5257   2.695   6.502  -0.034
 1772TIP3    H2 5258   2.768   6.420   0.070
 1773TIP3   OH2 5259   2.986   7.740   1.032
 1773TIP3    H1 5260   3.054   7.683   1.067
 1773TIP3    H2 5261   2.930   7.758   1.108
 1774TIP3   OH2 5262   5.847   3.532   4.991
 1774TIP3    H1 5263   5.929   3.579   5.006
 1774TIP3    H2 5264   5.873   3.452   4.946
 1775TIP3   OH2 5265   8.380   7.479   2.263
 1775TIP3    H1 5266   8.328   7.425   2.203
 1775TIP3    H2 5267   8.455   7.506   2.210
 1776TIP3   OH2 5268   0.892   7.858   3.002
 1776TIP3    H1 5269   0.954   7.930   3.006
 1776TIP3    H2 5270   0.877   7.844   2.908
 1777TIP3   OH2 5271   3.258   1.564   4.284
 1777TIP3    H1 5272   3.297   1.537   4.200
 1777TIP3    H2 5273   3.282   1.494   4.345
 1778TIP3   OH2 5274   5.898   0.304   0.226
 1778TIP3    H1 5275   5.809   0.337   0.212
 1778TIP3    H2 5276   5.935   0.362   0.291
 1779TIP3   OH2 5277   2.523   6.819   2.748
 1779TIP3    H1 5278   2.486   6.854   2.829
 1779TIP3    H2 5279   2.449   6.812   2.688
 1780TIP3   OH2 5280   4.540   3.295   2.522
 1780TIP3    H1 5281   4.604   3.296   2.593
 1780TIP3    H2 5282   4.501   3.383   2.524
 1781TIP3   OH2 5283   3.721   6.950   5.400
 1781TIP3    H1 5284   3.775   6.993   5.467
 1781TIP3    H2 5285   3.749   6.858   5.402
 1782TIP3   OH2 5286   1.834   7.382   2.861
 1782TIP3    H1 5287   1.901   7.438   2.823
 1782TIP3    H2 5288   1.761   7.441   2.882
 1783TIP3   OH2 5289   8.117   4.664   1.084
 1783TIP3    H1 5290   8.097   4.752   1.114
 1783TIP3    H2 5291   8.065   4.607   1.141
 1784TIP3   OH2 5292   4.609   5.557   4.012
 1784TIP3    H1 5293   4.683   5.569   4.072
 1784TIP3    H2 5294   4.555   5.635   4.025
 1785TIP3   OH2 5295   0.094   2.469   2.939
 1785TIP3    H1 5296   0.119   2.490   3.029
 1785TIP3    H2 5297   0.056   2.550   2.904
 1786TIP3   OH2 5298   4.455   1.825   4.411
 1786TIP3    H1 5299   4.447   1.841   4.317
 1786TIP3    H2 5300   4.488   1.735   4.417
 1787TIP3   OH2 5301   7.822   0.228   2.172
 1787TIP3    H1 5302   7.887   0.163   2.145
 1787TIP3    H2 5303   7.852   0.256   2.258
 1788TIP3   OH2 5304   3.722   4.113   6.421
 1788TIP3    H1 5305   3.632   4.119   6.390
 1788TIP3    H2 5306   3.715   4.098   6.515
 1789TIP3   OH2 5307   7.227   2.027   6.400
 1789TIP3    H1 5308   7.275   1.993   6.325
 1789TIP3    H2 5309   7.210   1.951   6.455
 1790TIP3   OH2 5310   1.535   4.722   2.323
 1790TIP3    H1 5311   1.471   4.714   2.252
 1790TIP3    H2 5312   1.522   4.643   2.376
 1791TIP3   OH2 5313   3.180   2.393   0.460
 1791TIP3    H1 5314   3.183   2.368   0.552
 1791TIP3    H2 5315   3.263   2.438   0.445
 1792TIP3   OH2 5316   3.721   2.897   2.080
 1792TIP3    H1 5317   3.704   2.884   1.987
 1792TIP3    H2 5318   3.635   2.899   2.121
 1793TIP3   OH2 5319   3.965   4.826   5.439
 1793TIP3    H1 5320   3.987   4.735   5.421
 1793TIP3    H2 5321   3.968   4.869   5.353
 1794TIP3   OH2 5322   2.247   3.052   1.515
 1794TIP3    H1 5323   2.287   3.053   1.428
 1794TIP3    H2 5324   2.154   3.040   1.498
 1795TIP3   OH2 5325   1.895   3.989   0.603
 1795TIP3    H1 5326   1.881   4.080   0.627
 1795TIP3    H2 5327   1.866   3.939   0.679
 1796TIP3   OH2 5328   0.356   7.890   1.994
 1796TIP3    H1 5329   0.277   7.934   2.027
 1796TIP3    H2 5330   0.359   7.807   2.043
 1797TIP3   OH2 5331   7.259   5.540   6.263
 1797TIP3    H1 5332   7.291   5.595   6.191
 1797TIP3    H2 5333   7.166   5.560   6.268
 1798TIP3   OH2 5334   4.550   1.369   1.600
 1798TIP3    H1 5335   4.596   1.426   1.661
 1798TIP3    H2 5336   4.457   1.388   1.613
 1799TIP3   OH2 5337   4.791   3.565   2.286
 1799TIP3    H1 5338   4.783   3.473   2.312
 1799TIP3    H2 5339   4.871   3.568   2.233
 1800TIP3   OH2 5340   5.965   5.786   4.048
 1800TIP3    H1 5341   5.993   5.845   3.978
 1800TIP3    H2 5342   6.042   5.732   4.067
 1801TIP3   OH2 5343   8.298   0.201   6.218
 1801TIP3    H1 5344   8.368   0.148   6.257
 1801TIP3    H2 5345   8.325   0.291   6.232
 1802TIP3   OH2 5346   3.954   1.709   2.073
 1802TIP3    H1 5347   3.892   1.774   2.040
 1802TIP3    H2 5348   3.949   1.637   2.011
 1803TIP3   OH2 5349   1.624   7.721   0.328
 1803TIP3    H1 5350   1.652   7.757   0.412
 1803TIP3    H2 5351   1.530   7.739   0.324
 1804TIP3   OH2 5352   3.646   1.134   6.011
 1804TIP3    H1 5353   3.629   1.173   6.097
 1804TIP3    H2 5354   3.733   1.166   5.987
 1805TIP3   OH2 5355   3.369   5.092   4.924
 1805TIP3    H1 5356   3.420   5.172   4.941
 1805TIP3    H2 5357   3.368   5.047   5.009
 1806TIP3   OH2 5358   4.308   4.185   3.894
 1806TIP3    H1 5359   4.244   4.151   3.957
 1806TIP3    H2 5360   4.384   4.129   3.904
 1807TIP3   OH2 5361   7.875   0.148   0.114
 1807TIP3    H1 5362   7.871   0.074   0.052
 1807TIP3    H2 5363   7.812   0.125   0.183
 1808TIP3   OH2 5364   0.553   4.026   5.126
 1808TIP3    H1 5365   0.641   4.048   5.156
 1808TIP3    H2 5366   0.525   3.955   5.183
 1809TIP3   OH2 5367   5.644   6.213   5.005
 1809TIP3    H1 5368   5.633   6.221   5.100
 1809TIP3    H2 5369   5.738   6.228   4.991
 1810TIP3   OH2 5370   1.603   3.915   0.255
 1810TIP3    H1 5371   1.663   3.858   0.302
 1810TIP3    H2 5372   1.618   4.002   0.292
 1811TIP3   OH2 5373   6.872   5.376   2.530
 1811TIP3    H1 5374   6.963   5.372   2.557
 1811TIP3    H2 5375   6.867   5.318   2.454
 1812TIP3   OH2 5376   2.697   4.173   3.802
 1812TIP3    H1 5377   2.649   4.243   3.757
 1812TIP3    H2 5378   2.665   4.092   3.763
 1813TIP3   OH2 5379   0.275   2.418   2.296
 1813TIP3    H1 5380   0.269   2.330   2.334
 1813TIP3    H2 5381   0.296   2.474   2.371
 1814TIP3   OH2 5382   6.156   0.817   0.019
 1814TIP3    H1 5383   6.126   0.750   0.081
 1814TIP3    H2 5384   6.143   0.900   0.065
 1815TIP3   OH2 5385   6.357   2.253   6.638
 1815TIP3    H1 5386   6.341   2.347   6.645
 1815TIP3    H2 5387   6.289   2.212   6.691
 1816TIP3   OH2 5388   0.162   1.660   0.092
 1816TIP3    H1 5389   0.133   1.637   0.180
 1816TIP3    H2 5390   0.190   1.577   0.054
 1817TIP3   OH2 5391   6.817   1.580   0.429
 1817TIP3    H1 5392   6.843   1.542   0.345
 1817TIP3    H2 5393   6.747   1.642   0.407
 1818TIP3   OH2 5394   6.759   2.809   4.078
 1818TIP3    H1 5395   6.723   2.894   4.053
 1818TIP3    H2 5396   6.789   2.770   3.996
 1819TIP3   OH2 5397   5.001   7.603   1.959
 1819TIP3    H1 5398   4.992   7.644   1.873
 1819TIP3    H2 5399   5.085   7.635   1.992
 1820TIP3   OH2 5400   8.049   7.292   5.039
 1820TIP3    H1 5401   8.054   7.330   5.127
 1820TIP3    H2 5402   8.116   7.338   4.989
 1821TIP3   OH2 5403   0.703   5.637   4.577
 1821TIP3    H1 5404   0.755   5.689   4.638
 1821TIP3    H2 5405   0.765   5.574   4.540
 1822TIP3   OH2 5406   6.697   5.602   1.234
 1822TIP3    H1 5407   6.643   5.580   1.157
 1822TIP3    H2 5408   6.693   5.523   1.288
 1823TIP3   OH2 5409   1.283   4.899   1.822
 1823TIP3    H1 5410   1.194   4.932   1.834
 1823TIP3    H2 5411   1.339   4.975   1.836
 1824TIP3   OH2 5412   3.758   6.481   4.586
 1824TIP3    H1 5413   3.741   6.396   4.627
 1824TIP3    H2 5414   3.854   6.487   4.581
 1825TIP3   OH2 5415   0.916   0.412   3.103
 1825TIP3    H1 5416   0.946   0.450   3.186
 1825TIP3    H2 5417   0.842   0.467   3.078
 1826TIP3   OH2 5418   1.440   2.611   4.089
 1826TIP3    H1 5419   1.422   2.697   4.126
 1826TIP3    H2 5420   1.502   2.571   4.150
 1827TIP3   OH2 5421   8.037   5.270   4.204
 1827TIP3    H1 5422   8.065   5.252   4.294
 1827TIP3    H2 5423   8.010   5.185   4.170
 1828TIP3   OH2 5424   2.951   0.642   1.409
 1828TIP3    H1 5425   2.981   0.607   1.325
 1828TIP3    H2 5426   2.857   0.653   1.398
 1829TIP3   OH2 5427   0.875   4.528   6.001
 1829TIP3    H1 5428   0.941   4.560   5.940
 1829TIP3    H2 5429   0.915   4.451   6.042
 1830TIP3   OH2 5430   1.099   5.938   0.614
 1830TIP3    H1 5431   1.131   5.911   0.527
 1830TIP3    H2 5432   1.075   6.030   0.604
 1831TIP3   OH2 5433   4.238   6.106   1.447
 1831TIP3    H1 5434   4.242   6.070   1.536
 1831TIP3    H2 5435   4.155   6.074   1.412
 1832TIP3   OH2 5436   3.570   3.645   0.011
 1832TIP3    H1 5437   3.533   3.706   0.074
 1832TIP3    H2 5438   3.500   3.632  -0.054
 1833TIP3   OH2 5439   0.373   4.663   4.820
 1833TIP3    H1 5440   0.296   4.650   4.875
 1833TIP3    H2 5441   0.349   4.733   4.760
 1834TIP3   OH2 5442   2.827   5.385   5.723
 1834TIP3    H1 5443   2.785   5.467   5.697
 1834TIP3    H2 5444   2.921   5.403   5.712
 1835TIP3   OH2 5445   1.728   0.697   4.869
 1835TIP3    H1 5446   1.745   0.605   4.891
 1835TIP3    H2 5447   1.720   0.698   4.774
 1836TIP3   OH2 5448   2.214   6.898   1.686
 1836TIP3    H1 5449   2.149   6.956   1.646
 1836TIP3    H2 5450   2.296   6.947   1.680
 1837TIP3   OH2 5451   5.367   5.015   0.941
 1837TIP3    H1 5452   5.362   5.047   0.851
 1837TIP3    H2 5453   5.291   5.054   0.984
 1838TIP3   OH2 5454   5.695   5.559   4.271
 1838TIP3    H1 5455   5.785   5.527   4.283
 1838TIP3    H2 5456   5.653   5.545   4.356
 1839TIP3   OH2 5457   2.552   5.559   4.190
 1839TIP3    H1 5458   2.559   5.463   4.184
 1839TIP3    H2 5459   2.491   5.583   4.120
 1840TIP3   OH2 5460   2.010   4.921   0.495
 1840TIP3    H1 5461   2.041   4.841   0.537
 1840TIP3    H2 5462   1.962   4.891   0.418
 1841TIP3   OH2 5463   7.457   3.743   4.890
 1841TIP3    H1 5464   7.530   3.789   4.932
 1841TIP3    H2 5465   7.379   3.783   4.927
 1842TIP3   OH2 5466   4.222   2.614   1.487
 1842TIP3    H1 5467   4.184   2.691   1.529
 1842TIP3    H2 5468   4.230   2.638   1.395
 1843TIP3   OH2 5469   7.683   7.166   3.647
 1843TIP3    H1 5470   7.660   7.080   3.612
 1843TIP3    H2 5471   7.690   7.222   3.570
 1844TIP3   OH2 5472   0.843   6.104   6.147
 1844TIP3    H1 5473   0.929   6.135   6.175
 1844TIP3    H2 5474   0.782   6.145   6.209
 1845TIP3   OH2 5475   3.147   3.652   2.220
 1845TIP3    H1 5476   3.086   3.726   2.231
 1845TIP3    H2 5477   3.127   3.593   2.293
 1846TIP3   OH2 5478   8.138   6.161   6.554
 1846TIP3    H1 5479   8.185   6.230   6.507
 1846TIP3    H2 5480   8.181   6.156   6.639
 1847TIP3   OH2 5481   1.741   6.604   2.658
 1847TIP3    H1 5482   1.671   6.664   2.683
 1847TIP3    H2 5483   1.808   6.617   2.724
 1848TIP3   OH2 5484   4.003   1.198   3.779
 1848TIP3    H1 5485   4.029   1.252   3.704
 1848TIP3    H2 5486   3.917   1.164   3.755
 1849TIP3   OH2 5487   6.392   2.922   1.815
 1849TIP3    H1 5488   6.447   2.958   1.885
 1849TIP3    H2 5489   6.452   2.865   1.766
 1850TIP3   OH2 5490   5.482   2.179   2.257
 1850TIP3    H1 5491   5.520   2.129   2.186
 1850TIP3    H2 5492   5.485   2.270   2.227
 1851TIP3   OH2 5493   1.702   6.734   3.299
 1851TIP3    H1 5494   1.660   6.816   3.324
 1851TIP3    H2 5495   1.781   6.760   3.250
 1852TIP3   OH2 5496   4.833   0.871   6.569
 1852TIP3    H1 5497   4.842   0.805   6.500
 1852TIP3    H2 5498   4.912   0.861   6.622
 1853TIP3   OH2 5499   6.056   5.344   2.024
 1853TIP3    H1 5500   5.991   5.276   2.003
 1853TIP3    H2 5501   6.111   5.350   1.946
 1854TIP3   OH2 5502   3.582   5.281   6.570
 1854TIP3    H1 5503   3.619   5.357   6.614
 1854TIP3    H2 5504   3.649   5.257   6.505
 1855TIP3   OH2 5505   5.375   2.807   4.844
 1855TIP3    H1 5506   5.346   2.838   4.930
 1855TIP3    H2 5507   5.444   2.868   4.818
 1856TIP3   OH2 5508   2.991   2.730   1.346
 1856TIP3    H1 5509   2.967   2.641   1.373
 1856TIP3    H2 5510   3.037   2.767   1.421
 1857TIP3   OH2 5511   0.504   4.457   3.367
 1857TIP3    H1 5512   0.564   4.501   3.427
 1857TIP3    H2 5513   0.447   4.527   3.335
 1858TIP3   OH2 5514   0.279   5.569   0.362
 1858TIP3    H1 5515   0.201   5.569   0.417
 1858TIP3    H2 5516   0.324   5.650   0.383
 1859TIP3   OH2 5517   1.541   2.192   0.714
 1859TIP3    H1 5518   1.493   2.177   0.632
 1859TIP3    H2 5519   1.631   2.205   0.686
 1860TIP3   OH2 5520   8.159   3.008   4.501
 1860TIP3    H1 5521   8.099   3.082   4.499
 1860TIP3    H2 5522   8.106   2.934   4.531
 1861TIP3   OH2 5523   4.389   0.539   1.218
 1861TIP3    H1 5524   4.307   0.492   1.234
 1861TIP3    H2 5525   4.420   0.565   1.305
 1862TIP3   OH2 5526   2.735   4.188   5.580
 1862TIP3    H1 5527   2.708   4.279   5.567
 1862TIP3    H2 5528   2.818   4.180   5.532
 1863TIP3   OH2 5529   5.393   7.689   5.587
 1863TIP3    H1 5530   5.469   7.747   5.588
 1863TIP3    H2 5531   5.412   7.627   5.516
 1864TIP3   OH2 5532   1.049   6.850   6.471
 1864TIP3    H1 5533   0.956   6.827   6.476
 1864TIP3    H2 5534   1.051   6.930   6.419
 1865TIP3   OH2 5535   3.227   4.681   2.878
 1865TIP3    H1 5536   3.304   4.634   2.846
 1865TIP3    H2 5537   3.167   4.682   2.803
 1866TIP3   OH2 5538   4.115   6.693   1.413
 1866TIP3    H1 5539   4.161   6.623   1.459
 1866TIP3    H2 5540   4.023   6.668   1.417
 1867TIP3   OH2 5541   0.484   3.698   0.430
 1867TIP3    H1 5542   0.406   3.754   0.425
 1867TIP3    H2 5543   0.492   3.659   0.343
 1868TIP3   OH2 5544   2.704   5.151   5.724
 1868TIP3    H1 5545   2.731   5.140   5.816
 1868TIP3    H2 5546   2.749   5.230   5.696
 1869TIP3   OH2 5547   3.387   7.297   4.971
 1869TIP3    H1 5548   3.308   7.296   5.025
 1869TIP3    H2 5549   3.402   7.389   4.951
 1870TIP3   OH2 5550   0.428   0.718   6.371
 1870TIP3    H1 5551   0.484   0.780   6.416
 1870TIP3    H2 5552   0.342   0.726   6.413
 1871TIP3   OH2 5553   3.870   7.191   6.392
 1871TIP3    H1 5554   3.878   7.096   6.396
 1871TIP3    H2 5555   3.794   7.207   6.337
 1872TIP3   OH2 5556   0.429   1.070   3.981
 1872TIP3    H1 5557   0.432   0.978   3.952
 1872TIP3    H2 5558   0.520   1.099   3.978
 1873TIP3   OH2 5559   2.955   3.006   0.083
 1873TIP3    H1 5560   3.022   3.037   0.143
 1873TIP3    H2 5561   2.978   2.915   0.065
 1874TIP3   OH2 5562   5.408   1.120   2.876
 1874TIP3    H1 5563   5.391   1.029   2.850
 1874TIP3    H2 5564   5.322   1.154   2.900
 1875TIP3   OH2 5565   3.356   5.976   5.161
 1875TIP3    H1 5566   3.375   5.909   5.226
 1875TIP3    H2 5567   3.442   6.014   5.141
 1876TIP3   OH2 5568   4.294   6.354   1.895
 1876TIP3    H1 5569   4.372   6.367   1.949
 1876TIP3    H2 5570   4.264   6.266   1.917
 1877TIP3   OH2 5571   7.064   3.770   6.124
 1877TIP3    H1 5572   7.116   3.795   6.047
 1877TIP3    H2 5573   6.992   3.833   6.126
 1878TIP3   OH2 5574   6.903   1.189   5.388
 1878TIP3    H1 5575   6.862   1.234   5.461
 1878TIP3    H2 5576   6.901   1.097   5.412
 1879TIP3   OH2 5577   7.153   0.962   3.556
 1879TIP3    H1 5578   7.217   1.030   3.537
 1879TIP3    H2 5579   7.182   0.886   3.505
 1880TIP3   OH2 5580   1.734   1.293   0.891
 1880TIP3    H1 5581   1.669   1.283   0.821
 1880TIP3    H2 5582   1.683   1.286   0.971
 1881TIP3   OH2 5583   1.319   6.576   4.419
 1881TIP3    H1 5584   1.249   6.630   4.455
 1881TIP3    H2 5585   1.324   6.602   4.327
 1882TIP3   OH2 5586   0.821   2.674   0.009
 1882TIP3    H1 5587   0.873   2.626   0.073
 1882TIP3    H2 5588   0.787   2.606  -0.050
 1883TIP3   OH2 5589   5.175   3.574   2.432
 1883TIP3    H1 5590   5.223   3.508   2.382
 1883TIP3    H2 5591   5.159   3.644   2.369
 1884TIP3   OH2 5592   3.892   6.127   0.500
 1884TIP3    H1 5593   3.883   6.076   0.420
 1884TIP3    H2 5594   3.924   6.065   0.565
 1885TIP3   OH2 5595   7.365   1.567   2.976
 1885TIP3    H1 5596   7.291   1.524   3.019
 1885TIP3    H2 5597   7.402   1.624   3.043
 1886TIP3   OH2 5598   8.196   6.198   2.782
 1886TIP3    H1 5599   8.216   6.255   2.708
 1886TIP3    H2 5600   8.157   6.120   2.742
 1887TIP3   OH2 5601   3.989   5.872   5.012
 1887TIP3    H1 5602   4.064   5.860   5.070
 1887TIP3    H2 5603   3.934   5.795   5.026
 1888TIP3   OH2 5604   0.794   4.049   2.531
 1888TIP3    H1 5605   0.718   4.034   2.588
 1888TIP3    H2 5606   0.763   4.110   2.465
 1889TIP3   OH2 5607   7.903   3.170   5.380
 1889TIP3    H1 5608   7.817   3.148   5.414
 1889TIP3    H2 5609   7.957   3.185   5.458
 1890TIP3   OH2 5610   2.391   1.592   6.684
 1890TIP3    H1 5611   2.408   1.653   6.756
 1890TIP3    H2 5612   2.364   1.511   6.727
 1891TIP3   OH2 5613   3.676   2.767   2.424
 1891TIP3    H1 5614   3.738   2.840   2.432
 1891TIP3    H2 5615   3.602   2.804   2.375
 1892TIP3   OH2 5616   4.243   3.968   1.814
 1892TIP3    H1 5617   4.297   3.958   1.892
 1892TIP3    H2 5618   4.302   4.002   1.747
 1893TIP3   OH2 5619   7.240   6.722   6.022
 1893TIP3    H1 5620   7.333   6.712   6.043
 1893TIP3    H2 5621   7.227   6.667   5.944
 1894TIP3   OH2 5622   0.214   1.128   4.108
 1894TIP3    H1 5623   0.291   1.093   4.064
 1894TIP3    H2 5624   0.141   1.112   4.048
 1895TIP3   OH2 5625   1.851   7.273   3.852
 1895TIP3    H1 5626   1.778   7.312   3.900
 1895TIP3    H2 5627   1.915   7.343   3.843
 1896TIP3   OH2 5628   1.325   3.801   3.449
 1896TIP3    H1 5629   1.263   3.771   3.383
 1896TIP3    H2 5630   1.383   3.726   3.465
 1897TIP3   OH2 5631   3.967   7.461   2.606
 1897TIP3    H1 5632   3.962   7.555   2.625
 1897TIP3    H2 5633   4.024   7.455   2.529
 1898TIP3   OH2 5634   4.055   3.992   4.716
 1898TIP3    H1 5635   4.126   3.967   4.775
 1898TIP3    H2 5636   4.097   4.046   4.649
 1899TIP3   OH2 5637   5.516   1.190   4.837
 1899TIP3    H1 5638   5.502   1.099   4.865
 1899TIP3    H2 5639   5.484   1.243   4.910
 1900TIP3   OH2 5640   1.096   2.753   0.982
 1900TIP3    H1 5641   1.106   2.742   0.888
 1900TIP3    H2 5642   1.009   2.719   1.001
 1901TIP3   OH2 5643   5.259   3.619   3.055
 1901TIP3    H1 5644   5.213   3.650   3.133
 1901TIP3    H2 5645   5.194   3.623   2.985
 1902TIP3   OH2 5646   1.519   6.300   3.626
 1902TIP3    H1 5647   1.501   6.365   3.559
 1902TIP3    H2 5648   1.530   6.351   3.707
 1903TIP3   OH2 5649   8.303   0.877   4.158
 1903TIP3    H1 5650   8.326   0.801   4.211
 1903TIP3    H2 5651   8.253   0.841   4.085
 1904TIP3   OH2 5652   7.648   4.365   3.926
 1904TIP3    H1 5653   7.643   4.312   4.005
 1904TIP3    H2 5654   7.715   4.431   3.945
 1905TIP3   OH2 5655   1.295   4.522   2.625
 1905TIP3    H1 5656   1.301   4.616   2.639
 1905TIP3    H2 5657   1.386   4.493   2.615
 1906TIP3   OH2 5658   7.696   1.210   3.856
 1906TIP3    H1 5659   7.772   1.205   3.798
 1906TIP3    H2 5660   7.691   1.303   3.880
 1907TIP3   OH2 5661   3.053   0.569   6.573
 1907TIP3    H1 5662   3.113   0.503   6.608
 1907TIP3    H2 5663   2.966   0.539   6.600
 1908TIP3   OH2 5664   0.180   3.778   2.407
 1908TIP3    H1 5665   0.251   3.715   2.421
 1908TIP3    H2 5666   0.100   3.726   2.411
 1909TIP3   OH2 5667   4.194   2.935   2.624
 1909TIP3    H1 5668   4.267   2.904   2.677
 1909TIP3    H2 5669   4.233   2.999   2.564
 1910TIP3   OH2 5670   7.467   4.886   5.473
 1910TIP3    H1 5671   7.535   4.921   5.416
 1910TIP3    H2 5672   7.392   4.872   5.416
 1911TIP3   OH2 5673   2.832   0.410   6.627
 1911TIP3    H1 5674   2.884   0.348   6.576
 1911TIP3    H2 5675   2.832   0.374   6.716
 1912TIP3   OH2 5676   2.956   5.222   0.043
 1912TIP3    H1 5677   2.898   5.209  -0.032
 1912TIP3    H2 5678   3.009   5.142   0.047
 1913TIP3   OH2 5679   3.798   5.173   5.870
 1913TIP3    H1 5680   3.820   5.260   5.837
 1913TIP3    H2 5681   3.859   5.113   5.827
 1914TIP3   OH2 5682   5.959   1.549   5.283
 1914TIP3    H1 5683   5.992   1.540   5.194
 1914TIP3    H2 5684   6.024   1.504   5.337
 1915TIP3   OH2 5685   5.201   5.281   5.125
 1915TIP3    H1 5686   5.196   5.225   5.202
 1915TIP3    H2 5687   5.202   5.221   5.051
 1916TIP3   OH2 5688   6.131   3.821   6.745
 1916TIP3    H1 5689   6.063   3.797   6.682
 1916TIP3    H2 5690   6.211   3.826   6.694
 1917TIP3   OH2 5691   3.929   1.763   3.223
 1917TIP3    H1 5692   3.962   1.850   3.198
 1917TIP3    H2 5693   3.838   1.779   3.251
 1918TIP3   OH2 5694   7.781   7.703   3.075
 1918TIP3    H1 5695   7.841   7.649   3.024
 1918TIP3    H2 5696   7.711   7.725   3.014
 1919TIP3   OH2 5697   6.175   1.266   5.936
 1919TIP3    H1 5698   6.141   1.179   5.913
 1919TIP3    H2 5699   6.251   1.248   5.991
 1920TIP3   OH2 5700   4.633   0.015   2.400
 1920TIP3    H1 5701   4.588  -0.068   2.384
 1920TIP3    H2 5702   4.598   0.075   2.334
 1921TIP3   OH2 5703   1.941   7.750   3.706
 1921TIP3    H1 5704   1.892   7.832   3.697
 1921TIP3    H2 5705   1.897   7.704   3.777
 1922TIP3   OH2 5706   0.418   3.637   6.274
 1922TIP3    H1 5707   0.334   3.631   6.229
 1922TIP3    H2 5708   0.475   3.577   6.226
 1923TIP3   OH2 5709   4.236   4.126   5.766
 1923TIP3    H1 5710   4.324   4.160   5.754
 1923TIP3    H2 5711   4.179   4.191   5.724
 1924TIP3   OH2 5712   7.940   3.511   3.869
 1924TIP3    H1 5713   7.966   3.556   3.789
 1924TIP3    H2 5714   8.000   3.437   3.876
 1925TIP3   OH2 5715   4.732   1.312   0.934
 1925TIP3    H1 5716   4.718   1.350   0.847
 1925TIP3    H2 5717   4.687   1.371   0.994
 1926TIP3   OH2 5718   6.198   4.341   4.823
 1926TIP3    H1 5719   6.195   4.275   4.893
 1926TIP3    H2 5720   6.124   4.319   4.767
 1927TIP3   OH2 5721   7.744   5.339   5.270
 1927TIP3    H1 5722   7.795   5.271   5.225
 1927TIP3    H2 5723   7.696   5.293   5.338
 1928TIP3   OH2 5724   6.028   1.242   1.945
 1928TIP3    H1 5725   5.953   1.302   1.949
 1928TIP3    H2 5726   6.031   1.202   2.032
 1929TIP3   OH2 5727   8.355   1.316   2.033
 1929TIP3    H1 5728   8.392   1.296   2.119
 1929TIP3    H2 5729   8.273   1.267   2.030
 1930TIP3   OH2 5730   3.106   1.649   0.020
 1930TIP3    H1 5731   3.047   1.665  -0.054
 1930TIP3    H2 5732   3.052   1.599   0.082
 1931TIP3   OH2 5733   5.153   7.095   4.090
 1931TIP3    H1 5734   5.245   7.122   4.091
 1931TIP3    H2 5735   5.141   7.049   4.173
 1932TIP3   OH2 5736   1.858   5.318   4.805
 1932TIP3    H1 5737   1.947   5.285   4.787
 1932TIP3    H2 5738   1.872   5.403   4.847
 1933TIP3   OH2 5739   3.991   4.701   3.930
 1933TIP3    H1 5740   4.069   4.646   3.926
 1933TIP3    H2 5741   3.924   4.650   3.884
 1934TIP3   OH2 5742   5.108   3.740   3.490
 1934TIP3    H1 5743   5.200   3.761   3.478
 1934TIP3    H2 5744   5.106   3.685   3.568
 1935TIP3   OH2 5745   2.558   7.852   5.553
 1935TIP3    H1 5746   2.549   7.760   5.578
 1935TIP3    H2 5747   2.503   7.861   5.475
 1936TIP3   OH2 5748   8.342   7.001   6.760
 1936TIP3    H1 5749   8.435   6.984   6.777
 1936TIP3    H2 5750   8.333   6.992   6.665
 1937TIP3   OH2 5751   6.368   5.072   2.908
 1937TIP3    H1 5752   6.412   5.063   2.823
 1937TIP3    H2 5753   6.277   5.091   2.885
 1938TIP3   OH2 5754   5.982   4.238   4.640
 1938TIP3    H1 5755   5.954   4.152   4.674
 1938TIP3    H2 5756   5.930   4.301   4.691
 1939TIP3   OH2 5757   5.487   1.104   2.301
 1939TIP3    H1 5758   5.516   1.072   2.216
 1939TIP3    H2 5759   5.543   1.060   2.364
 1940TIP3   OH2 5760   0.418   6.489   0.958
 1940TIP3    H1 5761   0.349   6.426   0.938
 1940TIP3    H2 5762   0.372   6.570   0.980
 1941TIP3   OH2 5763   1.802   3.536   2.309
 1941TIP3    H1 5764   1.836   3.563   2.394
 1941TIP3    H2 5765   1.832   3.445   2.299
 1942TIP3   OH2 5766   3.480   2.551   2.855
 1942TIP3    H1 5767   3.558   2.496   2.845
 1942TIP3    H2 5768   3.514   2.641   2.852
 1943TIP3   OH2 5769   7.996   3.509   2.888
 1943TIP3    H1 5770   8.067   3.473   2.940
 1943TIP3    H2 5771   8.001   3.604   2.903
 1944TIP3   OH2 5772   7.524   3.297   6.637
 1944TIP3    H1 5773   7.535   3.204   6.657
 1944TIP3    H2 5774   7.436   3.318   6.669
 1945TIP3   OH2 5775   1.581   6.704   0.032
 1945TIP3    H1 5776   1.544   6.735   0.114
 1945TIP3    H2 5777   1.544   6.761  -0.035
 1946TIP3   OH2 5778   2.142   0.350   4.690
 1946TIP3    H1 5779   2.086   0.307   4.755
 1946TIP3    H2 5780   2.137   0.293   4.613
 1947TIP3   OH2 5781   1.578   5.104   2.024
 1947TIP3    H1 5782   1.496   5.135   1.986
 1947TIP3    H2 5783   1.638   5.095   1.950
 1948TIP3   OH2 5784   7.764   1.829   2.450
 1948TIP3    H1 5785   7.691   1.843   2.389
 1948TIP3    H2 5786   7.740   1.881   2.527
 1949TIP3   OH2 5787   6.182   7.220   1.382
 1949TIP3    H1 5788   6.161   7.247   1.293
 1949TIP3    H2 5789   6.159   7.127   1.385
 1950TIP3   OH2 5790   1.704   5.854   5.322
 1950TIP3    H1 5791   1.641   5.813   5.262
 1950TIP3    H2 5792   1.789   5.819   5.296
 1951TIP3   OH2 5793   1.682   3.350   2.857
 1951TIP3    H1 5794   1.749   3.299   2.901
 1951TIP3    H2 5795   1.690   3.438   2.894
 1952TIP3   OH2 5796   6.342   2.949   2.467
 1952TIP3    H1 5797   6.380   2.965   2.380
 1952TIP3    H2 5798   6.361   2.857   2.485
 1953TIP3   OH2 5799   6.328   7.039   0.019
 1953TIP3    H1 5800   6.268   7.026  -0.054
 1953TIP3    H2 5801   6.328   6.955   0.065
 1954TIP3   OH2 5802   7.873   5.120   3.576
 1954TIP3    H1 5803   7.865   5.214   3.594
 1954TIP3    H2 5804   7.832   5.078   3.652
 1955TIP3   OH2 5805   4.496   6.373   0.274
 1955TIP3    H1 5806   4.521   6.449   0.327
 1955TIP3    H2 5807   4.524   6.394   0.186
 1956TIP3   OH2 5808   2.392   7.131   2.346
 1956TIP3    H1 5809   2.427   7.156   2.431
 1956TIP3    H2 5810   2.299   7.116   2.362
 1957TIP3   OH2 5811   2.174   7.783   4.295
 1957TIP3    H1 5812   2.210   7.706   4.340
 1957TIP3    H2 5813   2.123   7.829   4.362
 1958TIP3   OH2 5814   6.356   1.036   1.106
 1958TIP3    H1 5815   6.318   0.948   1.106
 1958TIP3    H2 5816   6.280   1.094   1.110
 1959TIP3   OH2 5817   0.690   7.234   1.485
 1959TIP3    H1 5818   0.753   7.267   1.549
 1959TIP3    H2 5819   0.664   7.148   1.519
 1960TIP3   OH2 5820   8.199   2.987   5.325
 1960TIP3    H1 5821   8.169   2.949   5.407
 1960TIP3    H2 5822   8.120   3.000   5.273
 1961TIP3   OH2 5823   6.625   1.689   4.683
 1961TIP3    H1 5824   6.567   1.713   4.755
 1961TIP3    H2 5825   6.600   1.746   4.611
 1962TIP3   OH2 5826   2.866   3.831   6.111
 1962TIP3    H1 5827   2.895   3.739   6.112
 1962TIP3    H2 5828   2.777   3.829   6.144
 1963TIP3   OH2 5829   5.896   4.015   6.753
 1963TIP3    H1 5830   5.964   3.954   6.782
 1963TIP3    H2 5831   5.945   4.088   6.716
 1964TIP3   OH2 5832   1.052   3.776   2.256
 1964TIP3    H1 5833   1.139   3.792   2.292
 1964TIP3    H2 5834   0.994   3.772   2.332
 1965TIP3   OH2 5835   5.636   7.856   3.353
 1965TIP3    H1 5836   5.558   7.803   3.372
 1965TIP3    H2 5837   5.612   7.945   3.381
 1966TIP3   OH2 5838   1.536   3.282   0.807
 1966TIP3    H1 5839   1.491   3.360   0.776
 1966TIP3    H2 5840   1.513   3.276   0.900
 1967TIP3   OH2 5841   5.529   2.399   2.781
 1967TIP3    H1 5842   5.619   2.425   2.760
 1967TIP3    H2 5843   5.515   2.432   2.870
 1968TIP3   OH2 5844   0.986   4.566   1.495
 1968TIP3    H1 5845   1.032   4.546   1.414
 1968TIP3    H2 5846   1.013   4.498   1.556
 1969TIP3   OH2 5847   5.338   5.794   6.246
 1969TIP3    H1 5848   5.268   5.839   6.199
 1969TIP3    H2 5849   5.389   5.750   6.179
 1970TIP3   OH2 5850   7.410   2.962   1.822
 1970TIP3    H1 5851   7.319   2.984   1.802
 1970TIP3    H2 5852   7.461   3.004   1.752
 1971TIP3   OH2 5853   6.601   4.665   6.480
 1971TIP3    H1 5854   6.522   4.717   6.468
 1971TIP3    H2 5855   6.595   4.634   6.571
 1972TIP3   OH2 5856   6.772   1.214   1.413
 1972TIP3    H1 5857   6.705   1.218   1.344
 1972TIP3    H2 5858   6.830   1.287   1.394
 1973TIP3   OH2 5859   3.696   1.868   6.603
 1973TIP3    H1 5860   3.603   1.858   6.581
 1973TIP3    H2 5861   3.731   1.921   6.531
 1974TIP3   OH2 5862   6.319   0.341   3.951
 1974TIP3    H1 5863   6.407   0.370   3.978
 1974TIP3    H2 5864   6.332   0.252   3.918
 1975TIP3   OH2 5865   0.281   7.461   1.116
 1975TIP3    H1 5866   0.347   7.465   1.185
 1975TIP3    H2 5867   0.306   7.384   1.065
 1976TIP3   OH2 5868   4.768   4.187   0.961
 1976TIP3    H1 5869   4.862   4.175   0.963
 1976TIP3    H2 5870   4.756   4.277   0.931
 1977TIP3   OH2 5871   0.722   4.554   5.017
 1977TIP3    H1 5872   0.699   4.635   4.970
 1977TIP3    H2 5873   0.640   4.525   5.056
 1978TIP3   OH2 5874   4.937   5.110   1.322
 1978TIP3    H1 5875   5.027   5.081   1.335
 1978TIP3    H2 5876   4.939   5.157   1.239
 1979TIP3   OH2 5877   0.438   6.904   2.196
 1979TIP3    H1 5878   0.362   6.953   2.167
 1979TIP3    H2 5879   0.459   6.846   2.123
 1980TIP3   OH2 5880   3.827   6.174   0.795
 1980TIP3    H1 5881   3.864   6.087   0.782
 1980TIP3    H2 5882   3.903   6.231   0.804
 1981TIP3   OH2 5883   1.268   4.484   4.823
 1981TIP3    H1 5884   1.240   4.470   4.913
 1981TIP3    H2 5885   1.239   4.406   4.777
 1982TIP3   OH2 5886   6.199   7.840   3.892
 1982TIP3    H1 5887   6.189   7.800   3.978
 1982TIP3    H2 5888   6.110   7.863   3.866
 1983TIP3   OH2 5889   2.382   4.361   3.203
 1983TIP3    H1 5890   2.458   4.310   3.176
 1983TIP3    H2 5891   2.332   4.302   3.258
 1984TIP3   OH2 5892   0.278   2.499   4.074
 1984TIP3    H1 5893   0.233   2.550   4.142
 1984TIP3    H2 5894   0.314   2.565   4.015
 1985TIP3   OH2 5895   7.704   7.729   1.576
 1985TIP3    H1 5896   7.775   7.726   1.640
 1985TIP3    H2 5897   7.698   7.821   1.550
 1986TIP3   OH2 5898   6.943   7.309   0.062
 1986TIP3    H1 5899   6.899   7.224   0.067
 1986TIP3    H2 5900   6.876   7.373   0.084
 1987TIP3   OH2 5901   3.561   0.606   0.268
 1987TIP3    H1 5902   3.582   0.548   0.195
 1987TIP3    H2 5903   3.474   0.580   0.297
 1988TIP3   OH2 5904   6.084   0.692   3.313
 1988TIP3    H1 5905   6.102   0.735   3.230
 1988TIP3    H2 5906   6.010   0.739   3.350
 1989TIP3   OH2 5907   1.447   5.239   5.205
 1989TIP3    H1 5908   1.511   5.199   5.146
 1989TIP3    H2 5909   1.495   5.254   5.286
 1990TIP3   OH2 5910   0.518   5.409   6.097
 1990TIP3    H1 5911   0.482   5.483   6.047
 1990TIP3    H2 5912   0.578   5.366   6.036
 1991TIP3   OH2 5913   2.382   3.278   0.539
 1991TIP3    H1 5914   2.441   3.281   0.615
 1991TIP3    H2 5915   2.425   3.333   0.474
 1992TIP3   OH2 5916   6.398   4.770   4.760
 1992TIP3    H1 5917   6.416   4.698   4.820
 1992TIP3    H2 5918   6.435   4.847   4.803
 1993TIP3   OH2 5919   6.575   2.034   2.938
 1993TIP3    H1 5920   6.577   1.942   2.912
 1993TIP3    H2 5921   6.496   2.069   2.895
 1994TIP3   OH2 5922   8.324   6.830   6.030
 1994TIP3    H1 5923   8.334   6.921   6.001
 1994TIP3    H2 5924   8.411   6.805   6.061
 1995TIP3   OH2 5925   1.032   1.248   0.872
 1995TIP3    H1 5926   1.121   1.277   0.891
 1995TIP3    H2 5927   0.999   1.214   0.956
 1996TIP3   OH2 5928   1.062   0.676   5.728
 1996TIP3    H1 5929   1.076   0.750   5.669
 1996TIP3    H2 5930   1.138   0.676   5.786
 1997TIP3   OH2 5931   7.351   5.793   4.418
 1997TIP3    H1 5932   7.392   5.856   4.359
 1997TIP3    H2 5933   7.311   5.847   4.486
 1998TIP3   OH2 5934   4.120   3.540   6.001
 1998TIP3    H1 5935   4.192   3.581   5.954
 1998TIP3    H2 5936   4.117   3.451   5.966
 1999TIP3   OH2 5937   6.797   3.583   1.792
 1999TIP3    H1 5938   6.891   3.593   1.776
 1999TIP3    H2 5939   6.756   3.602   1.707
 2000TIP3   OH2 5940   4.911   3.669   1.373
 2000TIP3    H1 5941   4.968   3.594   1.386
 2000TIP3    H2 5942   4.824   3.638   1.395
 2001TIP3   OH2 5943   3.163   7.501   2.672
 2001TIP3    H1 5944   3.241   7.450   2.692
 2001TIP3    H2 5945   3.177   7.584   2.719
 2002TIP3   OH2 5946   0.933   7.628   3.123
 2002TIP3    H1 5947   0.932   7.718   3.092
 2002TIP3    H2 5948   0.844   7.596   3.109
 2003TIP3   OH2 5949   7.851   0.874   3.291
 2003TIP3    H1 5950   7.825   0.807   3.228
 2003TIP3    H2 5951   7.828   0.957   3.249
 2004TIP3   OH2 5952   6.291   2.460   5.791
 2004TIP3    H1 5953   6.209   2.481   5.746
 2004TIP3    H2 5954   6.312   2.372   5.761
 2005TIP3   OH2 5955   1.078   4.505   0.881
 2005TIP3    H1 5956   1.023   4.461   0.817
 2005TIP3    H2 5957   1.148   4.442   0.899
 2006TIP3   OH2 5958   1.870   1.313   1.790
 2006TIP3    H1 5959   1.817   1.334   1.713
 2006TIP3    H2 5960   1.917   1.394   1.810
 2007TIP3   OH2 5961   4.083   1.467   5.335
 2007TIP3    H1 5962   4.152   1.442   5.396
 2007TIP3    H2 5963   4.074   1.391   5.277
 2008TIP3   OH2 5964   2.216   7.138   0.933
 2008TIP3    H1 5965   2.260   7.076   0.991
 2008TIP3    H2 5966   2.124   7.132   0.957
 2009TIP3   OH2 5967   5.094   1.960   1.469
 2009TIP3    H1 5968   5.028   1.968   1.538
 2009TIP3    H2 5969   5.048   1.913   1.398
 2010TIP3   OH2 5970   4.191   2.457   2.070
 2010TIP3    H1 5971   4.136   2.534   2.055
 2010TIP3    H2 5972   4.176   2.401   1.995
 2011TIP3   OH2 5973   4.056   7.533   2.951
 2011TIP3    H1 5974   4.059   7.458   2.890
 2011TIP3    H2 5975   4.096   7.500   3.031
 2012TIP3   OH2 5976   8.050   0.906   1.515
 2012TIP3    H1 5977   8.115   0.944   1.574
 2012TIP3    H2 5978   8.100   0.879   1.438
 2013TIP3   OH2 5979   2.601   6.004   2.195
 2013TIP3    H1 5980   2.678   6.023   2.250
 2013TIP3    H2 5981   2.634   6.011   2.105
 2014TIP3   OH2 5982   1.821   7.727   6.805
 2014TIP3    H1 5983   1.915   7.719   6.785
 2014TIP3    H2 5984   1.777   7.702   6.724
 2015TIP3   OH2 5985   5.854   4.656   4.168
 2015TIP3    H1 5986   5.900   4.660   4.084
 2015TIP3    H2 5987   5.761   4.653   4.144
 2016TIP3   OH2 5988   2.935   2.925   0.850
 2016TIP3    H1 5989   2.854   2.936   0.900
 2016TIP3    H2 5990   2.924   2.980   0.773
 2017TIP3   OH2 5991   7.592   2.384   2.332
 2017TIP3    H1 5992   7.573   2.329   2.256
 2017TIP3    H2 5993   7.574   2.473   2.302
 2018TIP3   OH2 5994   2.569   3.832   1.528
 2018TIP3    H1 5995   2.661   3.855   1.516
 2018TIP3    H2 5996   2.564   3.801   1.619
 2019TIP3   OH2 5997   2.145   7.347   5.687
 2019TIP3    H1 5998   2.156   7.323   5.595
 2019TIP3    H2 5999   2.152   7.443   5.688
 2020TIP3   OH2 6000   1.456   7.413   4.503
 2020TIP3    H1 6001   1.364   7.423   4.480
 2020TIP3    H2 6002   1.501   7.483   4.454
 2021TIP3   OH2 6003   0.588   0.671   5.540
 2021TIP3    H1 6004   0.668   0.642   5.584
 2021TIP3    H2 6005   0.518   0.619   5.581
 2022TIP3   OH2 6006   8.056   3.682   4.478
 2022TIP3    H1 6007   7.977   3.645   4.439
 2022TIP3    H2 6008   8.127   3.629   4.443
 2023TIP3   OH2 6009   1.194   1.881   3.941
 2023TIP3    H1 6010   1.141   1.959   3.957
 2023TIP3    H2 6011   1.131   1.809   3.937
 2024TIP3   OH2 6012   7.136   0.285   6.022
 2024TIP3    H1 6013   7.105   0.278   6.112
 2024TIP3    H2 6014   7.135   0.195   5.989
 2025TIP3   OH2 6015   7.758   6.977   1.616
 2025TIP3    H1 6016   7.786   7.043   1.552
 2025TIP3    H2 6017   7.682   7.016   1.659
 2026TIP3   OH2 6018   5.191   0.233   0.922
 2026TIP3    H1 6019   5.249   0.189   0.859
 2026TIP3    H2 6020   5.125   0.167   0.944
 2027TIP3   OH2 6021   2.710   7.725   6.047
 2027TIP3    H1 6022   2.662   7.738   6.129
 2027TIP3    H2 6023   2.664   7.780   5.984
 2028TIP3   OH2 6024   7.969   1.634   2.134
 2028TIP3    H1 6025   7.925   1.604   2.213
 2028TIP3    H2 6026   7.899   1.650   2.071
 2029TIP3   OH2 6027   0.233   7.735   1.139
 2029TIP3    H1 6028   0.144   7.731   1.105
 2029TIP3    H2 6029   0.279   7.663   1.096
 2030TIP3   OH2 6030   5.186   2.204   1.406
 2030TIP3    H1 6031   5.281   2.200   1.419
 2030TIP3    H2 6032   5.159   2.112   1.406
 2031TIP3   OH2 6033   1.686   3.543   5.210
 2031TIP3    H1 6034   1.763   3.601   5.214
 2031TIP3    H2 6035   1.612   3.603   5.198
 2032TIP3   OH2 6036   3.846   5.861   3.793
 2032TIP3    H1 6037   3.786   5.869   3.867
 2032TIP3    H2 6038   3.914   5.926   3.811
 2033TIP3   OH2 6039   4.662   3.042   3.816
 2033TIP3    H1 6040   4.620   3.128   3.813
 2033TIP3    H2 6041   4.738   3.054   3.873
 2034TIP3   OH2 6042   5.446   1.408   3.648
 2034TIP3    H1 6043   5.368   1.433   3.699
 2034TIP3    H2 6044   5.468   1.488   3.600
 2035TIP3   OH2 6045   5.436   0.824   1.004
 2035TIP3    H1 6046   5.364   0.795   1.060
 2035TIP3    H2 6047   5.400   0.822   0.916
 2036TIP3   OH2 6048  -0.017   1.472   5.692
 2036TIP3    H1 6049   0.073   1.498   5.710
 2036TIP3    H2 6050  -0.028   1.390   5.739
 2037TIP3   OH2 6051   4.063   2.060   1.418
 2037TIP3    H1 6052   4.024   2.103   1.341
 2037TIP3    H2 6053   4.128   2.000   1.381
 2038TIP3   OH2 6054   7.637   6.761   6.603
 2038TIP3    H1 6055   7.563   6.736   6.547
 2038TIP3    H2 6056   7.617   6.850   6.632
 2039TIP3   OH2 6057   5.487   0.048   2.028
 2039TIP3    H1 6058   5.462   0.106   1.956
 2039TIP3    H2 6059   5.582   0.041   2.021
 2040TIP3   OH2 6060   0.643   5.048   2.806
 2040TIP3    H1 6061   0.670   5.119   2.747
 2040TIP3    H2 6062   0.551   5.065   2.824
 2041TIP3   OH2 6063   4.396   6.782   4.739
 2041TIP3    H1 6064   4.390   6.703   4.792
 2041TIP3    H2 6065   4.321   6.835   4.766
 2042TIP3   OH2 6066   1.847   4.225   0.731
 2042TIP3    H1 6067   1.782   4.202   0.798
 2042TIP3    H2 6068   1.890   4.304   0.764
 2043TIP3   OH2 6069   6.719   2.419   4.283
 2043TIP3    H1 6070   6.726   2.513   4.271
 2043TIP3    H2 6071   6.642   2.407   4.338
 2044TIP3   OH2 6072   0.971   7.363   0.147
 2044TIP3    H1 6073   0.893   7.394   0.101
 2044TIP3    H2 6074   1.040   7.425   0.123
 2045TIP3   OH2 6075   3.922   2.982   0.935
 2045TIP3    H1 6076   3.917   2.968   1.030
 2045TIP3    H2 6077   3.887   3.070   0.922
 2046TIP3   OH2 6078   6.761   5.283   2.762
 2046TIP3    H1 6079   6.782   5.302   2.671
 2046TIP3    H2 6080   6.829   5.222   2.790
 2047TIP3   OH2 6081   7.566   6.368   2.194
 2047TIP3    H1 6082   7.633   6.300   2.198
 2047TIP3    H2 6083   7.615   6.450   2.205
 2048TIP3   OH2 6084   7.067   2.699   5.024
 2048TIP3    H1 6085   7.126   2.625   5.040
 2048TIP3    H2 6086   6.998   2.689   5.090
 2049TIP3   OH2 6087   1.263   0.889   6.607
 2049TIP3    H1 6088   1.183   0.933   6.634
 2049TIP3    H2 6089   1.241   0.849   6.523
 2050TIP3   OH2 6090   0.827   1.947   5.115
 2050TIP3    H1 6091   0.886   1.975   5.045
 2050TIP3    H2 6092   0.857   1.858   5.136
 2051TIP3   OH2 6093   7.896   6.777   3.412
 2051TIP3    H1 6094   7.980   6.774   3.365
 2051TIP3    H2 6095   7.846   6.844   3.366
 2052TIP3   OH2 6096   4.145   0.839   1.390
 2052TIP3    H1 6097   4.054   0.837   1.360
 2052TIP3    H2 6098   4.164   0.748   1.413
 2053TIP3   OH2 6099   1.429   1.382   5.060
 2053TIP3    H1 6100   1.371   1.359   5.133
 2053TIP3    H2 6101   1.408   1.317   4.992
 2054TIP3   OH2 6102   0.125   0.749   4.736
 2054TIP3    H1 6103   0.077   0.695   4.798
 2054TIP3    H2 6104   0.080   0.833   4.736
 2055TIP3   OH2 6105   2.158   2.459   0.947
 2055TIP3    H1 6106   2.226   2.506   0.994
 2055TIP3    H2 6107   2.085   2.521   0.941
 2056TIP3   OH2 6108   5.328   7.073   5.527
 2056TIP3    H1 6109   5.238   7.098   5.507
 2056TIP3    H2 6110   5.328   6.977   5.527
 2057TIP3   OH2 6111   6.745   0.057   4.460
 2057TIP3    H1 6112   6.660   0.027   4.492
 2057TIP3    H2 6113   6.735   0.152   4.450
 2058TIP3   OH2 6114   1.047   4.423   2.639
 2058TIP3    H1 6115   1.039   4.430   2.544
 2058TIP3    H2 6116   1.140   4.437   2.656
 2059TIP3   OH2 6117   0.790   4.829   0.178
 2059TIP3    H1 6118   0.734   4.772   0.126
 2059TIP3    H2 6119   0.769   4.917   0.148
 2060TIP3   OH2 6120   7.483   5.285   1.793
 2060TIP3    H1 6121   7.538   5.233   1.734
 2060TIP3    H2 6122   7.514   5.375   1.779
 2061TIP3   OH2 6123   0.755   6.811   6.288
 2061TIP3    H1 6124   0.809   6.745   6.244
 2061TIP3    H2 6125   0.723   6.866   6.217
 2062TIP3   OH2 6126   3.546   7.129   5.983
 2062TIP3    H1 6127   3.560   7.039   5.955
 2062TIP3    H2 6128   3.620   7.177   5.945
 2063TIP3   OH2 6129   5.707   1.341   2.571
 2063TIP3    H1 6130   5.634   1.311   2.624
 2063TIP3    H2 6131   5.731   1.426   2.607
 2064TIP3   OH2 6132   5.347   3.367   2.976
 2064TIP3    H1 6133   5.273   3.349   2.917
 2064TIP3    H2 6134   5.331   3.456   3.007
 2065TIP3   OH2 6135   4.124   5.282   2.788
 2065TIP3    H1 6136   4.080   5.274   2.704
 2065TIP3    H2 6137   4.103   5.200   2.833
 2066TIP3   OH2 6138   0.161   5.614   1.368
 2066TIP3    H1 6139   0.070   5.614   1.397
 2066TIP3    H2 6140   0.159   5.652   1.281
 2067TIP3   OH2 6141   1.281   1.377   0.180
 2067TIP3    H1 6142   1.296   1.306   0.118
 2067TIP3    H2 6143   1.227   1.338   0.249
 2068TIP3   OH2 6144   1.094   3.824   5.812
 2068TIP3    H1 6145   1.070   3.839   5.903
 2068TIP3    H2 6146   1.138   3.905   5.785
 2069TIP3   OH2 6147   4.860   3.985   0.789
 2069TIP3    H1 6148   4.925   3.953   0.851
 2069TIP3    H2 6149   4.806   4.045   0.841
 2070TIP3   OH2 6150   4.635   6.318   3.969
 2070TIP3    H1 6151   4.726   6.305   3.994
 2070TIP3    H2 6152   4.614   6.240   3.916
 2071TIP3   OH2 6153   4.230   1.548   4.704
 2071TIP3    H1 6154   4.223   1.533   4.799
 2071TIP3    H2 6155   4.143   1.577   4.678
 2072TIP3   OH2 6156   7.312   0.612   3.169
 2072TIP3    H1 6157   7.221   0.583   3.157
 2072TIP3    H2 6158   7.355   0.539   3.213
 2073TIP3   OH2 6159   3.074   2.102   5.465
 2073TIP3    H1 6160   3.133   2.124   5.538
 2073TIP3    H2 6161   2.986   2.119   5.499
 2074TIP3   OH2 6162   6.324   7.074   1.672
 2074TIP3    H1 6163   6.391   7.114   1.617
 2074TIP3    H2 6164   6.369   7.056   1.755
 2075TIP3   OH2 6165   2.363   6.538   6.475
 2075TIP3    H1 6166   2.371   6.519   6.381
 2075TIP3    H2 6167   2.416   6.617   6.487
 2076TIP3   OH2 6168   1.012   0.632   0.369
 2076TIP3    H1 6169   0.987   0.710   0.419
 2076TIP3    H2 6170   0.929   0.586   0.355
 2077TIP3   OH2 6171   1.507   7.179   3.124
 2077TIP3    H1 6172   1.496   7.231   3.044
 2077TIP3    H2 6173   1.431   7.200   3.177
 2078TIP3   OH2 6174   2.780   7.561   6.293
 2078TIP3    H1 6175   2.689   7.589   6.293
 2078TIP3    H2 6176   2.830   7.641   6.309
 2079TIP3   OH2 6177   6.057   6.437   5.944
 2079TIP3    H1 6178   6.112   6.513   5.967
 2079TIP3    H2 6179   6.030   6.455   5.854
 2080TIP3   OH2 6180   5.790   1.015   3.940
 2080TIP3    H1 6181   5.853   1.060   3.883
 2080TIP3    H2 6182   5.839   0.944   3.980
 2081TIP3   OH2 6183   7.411   7.336   4.113
 2081TIP3    H1 6184   7.446   7.284   4.040
 2081TIP3    H2 6185   7.452   7.299   4.191
 2082TIP3   OH2 6186   6.456   1.203   6.582
 2082TIP3    H1 6187   6.461   1.298   6.581
 2082TIP3    H2 6188   6.538   1.175   6.621
 2083TIP3   OH2 6189   3.300   7.031   2.232
 2083TIP3    H1 6190   3.269   7.107   2.282
 2083TIP3    H2 6191   3.334   6.971   2.298
 2084TIP3   OH2 6192   8.345   4.053   6.531
 2084TIP3    H1 6193   8.393   3.970   6.527
 2084TIP3    H2 6194   8.395   4.107   6.592
 2085TIP3   OH2 6195   8.078   3.211   2.805
 2085TIP3    H1 6196   8.124   3.282   2.761
 2085TIP3    H2 6197   8.011   3.183   2.743
 2086TIP3   OH2 6198   3.149   5.066   0.746
 2086TIP3    H1 6199   3.163   5.047   0.653
 2086TIP3    H2 6200   3.214   5.013   0.791
 2087TIP3   OH2 6201   2.387   2.712   4.049
 2087TIP3    H1 6202   2.323   2.661   4.098
 2087TIP3    H2 6203   2.376   2.684   3.958
 2088TIP3   OH2 6204   2.372   4.761   2.876
 2088TIP3    H1 6205   2.351   4.854   2.873
 2088TIP3    H2 6206   2.343   4.732   2.963
 2089TIP3   OH2 6207   5.470   0.721   2.331
 2089TIP3    H1 6208   5.400   0.660   2.309
 2089TIP3    H2 6209   5.528   0.721   2.254
 2090TIP3   OH2 6210   0.562   5.209   6.733
 2090TIP3    H1 6211   0.634   5.212   6.669
 2090TIP3    H2 6212   0.485   5.190   6.680
 2091TIP3   OH2 6213   1.773   2.169   1.233
 2091TIP3    H1 6214   1.851   2.223   1.219
 2091TIP3    H2 6215   1.699   2.229   1.223
 2092TIP3   OH2 6216   2.022   2.424   4.338
 2092TIP3    H1 6217   2.117   2.419   4.342
 2092TIP3    H2 6218   1.992   2.342   4.377
 2093TIP3   OH2 6219   2.628   3.144   1.883
 2093TIP3    H1 6220   2.564   3.116   1.949
 2093TIP3    H2 6221   2.603   3.097   1.804
 2094TIP3   OH2 6222   6.897   0.773   1.993
 2094TIP3    H1 6223   6.902   0.756   2.087
 2094TIP3    H2 6224   6.973   0.728   1.956
 2095TIP3   OH2 6225   7.327   2.039   2.158
 2095TIP3    H1 6226   7.304   1.947   2.141
 2095TIP3    H2 6227   7.270   2.089   2.100
 2096TIP3   OH2 6228   7.540   5.336   2.133
 2096TIP3    H1 6229   7.574   5.248   2.149
 2096TIP3    H2 6230   7.518   5.369   2.221
 2097TIP3   OH2 6231   8.035   2.260   6.546
 2097TIP3    H1 6232   7.970   2.201   6.507
 2097TIP3    H2 6233   8.070   2.309   6.472
 2098TIP3   OH2 6234   6.804   2.065   1.171
 2098TIP3    H1 6235   6.710   2.057   1.185
 2098TIP3    H2 6236   6.828   1.985   1.124
 2099TIP3   OH2 6237   4.236   4.673   1.172
 2099TIP3    H1 6238   4.186   4.630   1.242
 2099TIP3    H2 6239   4.249   4.605   1.107
 2100TIP3   OH2 6240   3.029   1.509   6.332
 2100TIP3    H1 6241   3.023   1.558   6.250
 2100TIP3    H2 6242   3.121   1.484   6.338
 2101TIP3   OH2 6243   1.405   0.819   3.981
 2101TIP3    H1 6244   1.351   0.898   3.985
 2101TIP3    H2 6245   1.460   0.823   4.059
 2102TIP3   OH2 6246   1.680   4.183   3.725
 2102TIP3    H1 6247   1.672   4.136   3.642
 2102TIP3    H2 6248   1.752   4.244   3.711
 2103TIP3   OH2 6249   3.725   4.716   1.418
 2103TIP3    H1 6250   3.637   4.734   1.451
 2103TIP3    H2 6251   3.728   4.621   1.408
 2104TIP3   OH2 6252   3.463   3.652   1.201
 2104TIP3    H1 6253   3.447   3.660   1.295
 2104TIP3    H2 6254   3.382   3.682   1.160
 2105TIP3   OH2 6255   7.859   7.787   6.773
 2105TIP3    H1 6256   7.871   7.800   6.867
 2105TIP3    H2 6257   7.790   7.848   6.749
 2106TIP3   OH2 6258   0.020   2.418   1.630
 2106TIP3    H1 6259   0.113   2.437   1.643
 2106TIP3    H2 6260  -0.019   2.424   1.717
 2107TIP3   OH2 6261   5.395   7.285   5.145
 2107TIP3    H1 6262   5.334   7.277   5.218
 2107TIP3    H2 6263   5.352   7.345   5.084
 2108TIP3   OH2 6264   4.920   5.330   4.697
 2108TIP3    H1 6265   4.962   5.408   4.735
 2108TIP3    H2 6266   4.974   5.308   4.622
 2109TIP3   OH2 6267   5.440   0.675   5.081
 2109TIP3    H1 6268   5.421   0.598   5.134
 2109TIP3    H2 6269   5.479   0.738   5.141
 2110TIP3   OH2 6270   1.593   4.218   6.202
 2110TIP3    H1 6271   1.560   4.139   6.246
 2110TIP3    H2 6272   1.527   4.238   6.136
 2111TIP3   OH2 6273   3.821   5.422   3.812
 2111TIP3    H1 6274   3.880   5.492   3.784
 2111TIP3    H2 6275   3.854   5.395   3.897
 2112TIP3   OH2 6276   5.809   6.185   1.586
 2112TIP3    H1 6277   5.817   6.179   1.682
 2112TIP3    H2 6278   5.828   6.096   1.555
 2113TIP3   OH2 6279   0.294   4.550   0.210
 2113TIP3    H1 6280   0.199   4.545   0.224
 2113TIP3    H2 6281   0.303   4.590   0.124
 2114TIP3   OH2 6282   0.091   6.062   0.106
 2114TIP3    H1 6283   0.078   6.005   0.182
 2114TIP3    H2 6284   0.175   6.104   0.122
 2115TIP3   OH2 6285   7.611   3.526   4.812
 2115TIP3    H1 6286   7.588   3.604   4.862
 2115TIP3    H2 6287   7.637   3.558   4.726
 2116TIP3   OH2 6288   8.217  -0.002   5.202
 2116TIP3    H1 6289   8.236   0.091   5.210
 2116TIP3    H2 6290   8.153  -0.020   5.271
 2117TIP3   OH2 6291   7.620   3.167   2.659
 2117TIP3    H1 6292   7.588   3.112   2.730
 2117TIP3    H2 6293   7.553   3.236   2.650
 2118TIP3   OH2 6294   1.828   3.281   3.366
 2118TIP3    H1 6295   1.833   3.323   3.280
 2118TIP3    H2 6296   1.878   3.201   3.357
 2119TIP3   OH2 6297   2.647   0.479   3.766
 2119TIP3    H1 6298   2.557   0.511   3.770
 2119TIP3    H2 6299   2.639   0.384   3.776
 2120TIP3   OH2 6300   5.826   6.221   4.657
 2120TIP3    H1 6301   5.743   6.219   4.704
 2120TIP3    H2 6302   5.802   6.217   4.565
 2121TIP3   OH2 6303   4.611   6.229   1.651
 2121TIP3    H1 6304   4.622   6.282   1.730
 2121TIP3    H2 6305   4.691   6.243   1.601
 2122TIP3   OH2 6306   7.484   7.836   6.071
 2122TIP3    H1 6307   7.515   7.812   6.159
 2122TIP3    H2 6308   7.433   7.761   6.042
 2123TIP3   OH2 6309   6.172   6.256   5.256
 2123TIP3    H1 6310   6.158   6.162   5.273
 2123TIP3    H2 6311   6.192   6.261   5.163
 2124TIP3   OH2 6312   1.915   7.089   4.033
 2124TIP3    H1 6313   1.837   7.034   4.039
 2124TIP3    H2 6314   1.895   7.151   3.963
 2125TIP3   OH2 6315   4.440   2.860   1.933
 2125TIP3    H1 6316   4.427   2.784   1.876
 2125TIP3    H2 6317   4.379   2.846   2.005
 2126TIP3   OH2 6318   6.207   6.781   6.773
 2126TIP3    H1 6319   6.184   6.809   6.684
 2126TIP3    H2 6320   6.300   6.803   6.782
 2127TIP3   OH2 6321   8.214   4.682   2.862
 2127TIP3    H1 6322   8.297   4.681   2.815
 2127TIP3    H2 6323   8.238   4.691   2.954
 2128TIP3   OH2 6324   6.318   0.141   2.338
 2128TIP3    H1 6325   6.264   0.081   2.287
 2128TIP3    H2 6326   6.261   0.215   2.358
 2129TIP3   OH2 6327   3.151   3.591   1.701
 2129TIP3    H1 6328   3.212   3.530   1.743
 2129TIP3    H2 6329   3.064   3.560   1.726
 2130TIP3   OH2 6330   1.647   4.231   1.569
 2130TIP3    H1 6331   1.580   4.208   1.505
 2130TIP3    H2 6332   1.685   4.147   1.596
 2131TIP3   OH2 6333   5.911   3.469   3.253
 2131TIP3    H1 6334   5.883   3.415   3.327
 2131TIP3    H2 6335   6.006   3.463   3.253
 2132TIP3   OH2 6336   8.002   1.963   6.785
 2132TIP3    H1 6337   7.911   1.974   6.760
 2132TIP3    H2 6338   8.020   2.035   6.846
 2133TIP3   OH2 6339   7.613   0.156   3.665
 2133TIP3    H1 6340   7.683   0.091   3.668
 2133TIP3    H2 6341   7.561   0.138   3.743
 2134TIP3   OH2 6342   1.718   3.995   2.505
 2134TIP3    H1 6343   1.624   4.010   2.492
 2134TIP3    H2 6344   1.723   3.925   2.569
 2135TIP3   OH2 6345   3.582   0.130   4.420
 2135TIP3    H1 6346   3.590   0.226   4.419
 2135TIP3    H2 6347   3.595   0.105   4.328
 2136TIP3   OH2 6348   5.638   2.911   3.828
 2136TIP3    H1 6349   5.551   2.941   3.852
 2136TIP3    H2 6350   5.671   2.976   3.766
 2137TIP3   OH2 6351   4.543   5.751   1.062
 2137TIP3    H1 6352   4.637   5.756   1.043
 2137TIP3    H2 6353   4.501   5.789   0.986
 2138TIP3   OH2 6354   6.103   4.852   0.435
 2138TIP3    H1 6355   6.196   4.863   0.413
 2138TIP3    H2 6356   6.085   4.760   0.418
 2139TIP3   OH2 6357   0.341   7.420   5.151
 2139TIP3    H1 6358   0.297   7.499   5.120
 2139TIP3    H2 6359   0.369   7.442   5.240
 2140TIP3   OH2 6360   2.223   5.417   6.106
 2140TIP3    H1 6361   2.311   5.395   6.137
 2140TIP3    H2 6362   2.222   5.391   6.014
 2141TIP3   OH2 6363   2.016   0.306   4.333
 2141TIP3    H1 6364   1.970   0.236   4.287
 2141TIP3    H2 6365   1.968   0.386   4.311
 2142TIP3   OH2 6366   6.490   4.272   2.772
 2142TIP3    H1 6367   6.503   4.355   2.819
 2142TIP3    H2 6368   6.511   4.292   2.681
 2143TIP3   OH2 6369   0.327   4.486   2.978
 2143TIP3    H1 6370   0.323   4.580   2.994
 2143TIP3    H2 6371   0.272   4.472   2.901
 2144TIP3   OH2 6372   4.521   5.660   0.725
 2144TIP3    H1 6373   4.440   5.687   0.768
 2144TIP3    H2 6374   4.504   5.673   0.632
 2145TIP3   OH2 6375   4.484   0.393   2.639
 2145TIP3    H1 6376   4.471   0.471   2.586
 2145TIP3    H2 6377   4.566   0.409   2.686
 2146TIP3   OH2 6378   7.049   1.536   2.042
 2146TIP3    H1 6379   7.084   1.459   1.997
 2146TIP3    H2 6380   6.955   1.517   2.052
 2147TIP3   OH2 6381   3.064   7.768   3.586
 2147TIP3    H1 6382   3.001   7.700   3.562
 2147TIP3    H2 6383   3.052   7.837   3.521
 2148TIP3   OH2 6384   6.502   2.832   4.235
 2148TIP3    H1 6385   6.534   2.897   4.172
 2148TIP3    H2 6386   6.519   2.871   4.321
 2149TIP3   OH2 6387   2.236   0.161   1.829
 2149TIP3    H1 6388   2.283   0.203   1.901
 2149TIP3    H2 6389   2.144   0.171   1.851
 2150TIP3   OH2 6390   4.830   4.115   5.969
 2150TIP3    H1 6391   4.817   4.159   6.053
 2150TIP3    H2 6392   4.857   4.185   5.910
 2151TIP3   OH2 6393   1.686   5.281   0.617
 2151TIP3    H1 6394   1.713   5.266   0.527
 2151TIP3    H2 6395   1.767   5.272   0.668
 2152TIP3   OH2 6396   5.942   0.739   2.320
 2152TIP3    H1 6397   5.903   0.671   2.374
 2152TIP3    H2 6398   6.006   0.782   2.377
 2153TIP3   OH2 6399   3.287   2.846   2.935
 2153TIP3    H1 6400   3.341   2.845   2.856
 2153TIP3    H2 6401   3.263   2.755   2.949
 2154TIP3   OH2 6402   4.137   7.570   1.059
 2154TIP3    H1 6403   4.043   7.584   1.048
 2154TIP3    H2 6404   4.148   7.542   1.150
 2155TIP3   OH2 6405   1.952   7.629   6.538
 2155TIP3    H1 6406   2.008   7.556   6.509
 2155TIP3    H2 6407   1.977   7.644   6.629
 2156TIP3   OH2 6408   5.846   3.797   1.655
 2156TIP3    H1 6409   5.884   3.884   1.669
 2156TIP3    H2 6410   5.849   3.784   1.560
 2157TIP3   OH2 6411   6.513   1.405   0.322
 2157TIP3    H1 6412   6.557   1.425   0.404
 2157TIP3    H2 6413   6.578   1.359   0.269
 2158TIP3   OH2 6414   3.134   1.450   4.889
 2158TIP3    H1 6415   3.084   1.525   4.919
 2158TIP3    H2 6416   3.091   1.374   4.930
 2159TIP3   OH2 6417   8.019   3.209   4.396
 2159TIP3    H1 6418   8.049   3.297   4.372
 2159TIP3    H2 6419   7.962   3.183   4.324
 2160TIP3   OH2 6420   4.333   6.320   5.059
 2160TIP3    H1 6421   4.395   6.265   5.013
 2160TIP3    H2 6422   4.306   6.268   5.135
 2161TIP3   OH2 6423   0.603   2.944   3.993
 2161TIP3    H1 6424   0.660   2.875   4.027
 2161TIP3    H2 6425   0.663   3.009   3.956
 2162TIP3   OH2 6426   3.257   0.391   5.788
 2162TIP3    H1 6427   3.171   0.350   5.802
 2162TIP3    H2 6428   3.312   0.320   5.755
 2163TIP3   OH2 6429   5.376   1.771   0.158
 2163TIP3    H1 6430   5.471   1.778   0.167
 2163TIP3    H2 6431   5.344   1.761   0.247
 2164TIP3   OH2 6432   7.876   5.375   3.182
 2164TIP3    H1 6433   7.971   5.383   3.192
 2164TIP3    H2 6434   7.864   5.328   3.099
 2165TIP3   OH2 6435   4.467   7.117   6.519
 2165TIP3    H1 6436   4.459   7.037   6.572
 2165TIP3    H2 6437   4.478   7.086   6.429
 2166TIP3   OH2 6438   3.610   7.797   4.087
 2166TIP3    H1 6439   3.596   7.862   4.018
 2166TIP3    H2 6440   3.705   7.796   4.100
 2167TIP3   OH2 6441   7.316   3.903   5.615
 2167TIP3    H1 6442   7.321   3.997   5.627
 2167TIP3    H2 6443   7.257   3.891   5.541
 2168TIP3   OH2 6444   6.565   1.728   1.878
 2168TIP3    H1 6445   6.569   1.747   1.972
 2168TIP3    H2 6446   6.529   1.808   1.839
 2169TIP3   OH2 6447   6.949   6.518   5.059
 2169TIP3    H1 6448   6.878   6.461   5.087
 2169TIP3    H2 6449   6.905   6.593   5.018
 2170TIP3   OH2 6450   1.366   7.180   6.616
 2170TIP3    H1 6451   1.322   7.104   6.652
 2170TIP3    H2 6452   1.323   7.255   6.658
 2171TIP3   OH2 6453   8.197   3.660   0.265
 2171TIP3    H1 6454   8.134   3.604   0.310
 2171TIP3    H2 6455   8.242   3.707   0.336
 2172TIP3   OH2 6456   3.210   3.402   3.351
 2172TIP3    H1 6457   3.176   3.443   3.271
 2172TIP3    H2 6458   3.132   3.386   3.404
 2173TIP3   OH2 6459   7.306   5.004   1.572
 2173TIP3    H1 6460   7.240   5.013   1.504
 2173TIP3    H2 6461   7.257   5.007   1.654
 2174TIP3   OH2 6462   5.721   7.328   3.990
 2174TIP3    H1 6463   5.796   7.378   4.022
 2174TIP3    H2 6464   5.693   7.375   3.912
 2175TIP3   OH2 6465   4.516   3.702   0.174
 2175TIP3    H1 6466   4.547   3.670   0.089
 2175TIP3    H2 6467   4.420   3.701   0.166
 2176TIP3   OH2 6468   5.168   5.254   0.682
 2176TIP3    H1 6469   5.097   5.229   0.624
 2176TIP3    H2 6470   5.126   5.304   0.751
 2177TIP3   OH2 6471   4.058   0.888   5.051
 2177TIP3    H1 6472   4.123   0.852   5.111
 2177TIP3    H2 6473   3.989   0.922   5.108
 2178TIP3   OH2 6474   4.759   7.037   5.052
 2178TIP3    H1 6475   4.716   7.003   4.974
 2178TIP3    H2 6476   4.746   7.132   5.047
 2179TIP3   OH2 6477   3.684   2.631   1.450
 2179TIP3    H1 6478   3.723   2.681   1.522
 2179TIP3    H2 6479   3.615   2.579   1.492
 2180TIP3   OH2 6480   1.649   6.477   1.816
 2180TIP3    H1 6481   1.689   6.447   1.898
 2180TIP3    H2 6482   1.587   6.544   1.843
 2181TIP3   OH2 6483   4.892   6.315   0.224
 2181TIP3    H1 6484   4.924   6.390   0.173
 2181TIP3    H2 6485   4.871   6.352   0.310
 2182TIP3   OH2 6486   4.341   7.431   3.097
 2182TIP3    H1 6487   4.249   7.428   3.121
 2182TIP3    H2 6488   4.372   7.515   3.130
 2183TIP3   OH2 6489   6.205   3.286   2.446
 2183TIP3    H1 6490   6.209   3.343   2.369
 2183TIP3    H2 6491   6.293   3.289   2.483
 2184TIP3   OH2 6492   1.254   4.305   1.441
 2184TIP3    H1 6493   1.227   4.349   1.521
 2184TIP3    H2 6494   1.190   4.331   1.376
 2185TIP3   OH2 6495   6.823   5.701   2.199
 2185TIP3    H1 6496   6.743   5.649   2.196
 2185TIP3    H2 6497   6.797   5.783   2.240
 2186TIP3   OH2 6498   1.633   7.719   1.085
 2186TIP3    H1 6499   1.643   7.658   1.158
 2186TIP3    H2 6500   1.598   7.799   1.125
 2187TIP3   OH2 6501   2.841   4.345   3.344
 2187TIP3    H1 6502   2.756   4.387   3.360
 2187TIP3    H2 6503   2.820   4.252   3.339
 2188TIP3   OH2 6504   2.513   0.696   5.758
 2188TIP3    H1 6505   2.522   0.616   5.707
 2188TIP3    H2 6506   2.457   0.671   5.832
 2189TIP3   OH2 6507   5.143   1.605   1.941
 2189TIP3    H1 6508   5.140   1.632   2.033
 2189TIP3    H2 6509   5.217   1.544   1.937
 2190TIP3   OH2 6510   1.820   4.623   5.454
 2190TIP3    H1 6511   1.826   4.580   5.368
 2190TIP3    H2 6512   1.775   4.705   5.437
 2191TIP3   OH2 6513   0.513   5.986   2.969
 2191TIP3    H1 6514   0.501   5.992   3.064
 2191TIP3    H2 6515   0.513   6.077   2.939
 2192TIP3   OH2 6516   1.340   7.673   1.077
 2192TIP3    H1 6517   1.338   7.624   0.995
 2192TIP3    H2 6518   1.432   7.693   1.092
 2193TIP3   OH2 6519   5.954   7.837   0.757
 2193TIP3    H1 6520   5.868   7.812   0.791
 2193TIP3    H2 6521   5.948   7.823   0.663
 2194TIP3   OH2 6522   6.770   0.957   5.530
 2194TIP3    H1 6523   6.681   0.922   5.527
 2194TIP3    H2 6524   6.767   1.026   5.595
 2195TIP3   OH2 6525   5.050   5.946   2.538
 2195TIP3    H1 6526   4.990   5.901   2.477
 2195TIP3    H2 6527   5.029   5.909   2.623
 2196TIP3   OH2 6528   4.119   2.148   4.910
 2196TIP3    H1 6529   4.070   2.224   4.879
 2196TIP3    H2 6530   4.159   2.112   4.832
 2197TIP3   OH2 6531   4.138   1.509   2.681
 2197TIP3    H1 6532   4.136   1.568   2.605
 2197TIP3    H2 6533   4.048   1.509   2.714
 2198TIP3   OH2 6534   4.118   2.099   2.095
 2198TIP3    H1 6535   4.024   2.089   2.084
 2198TIP3    H2 6536   4.145   2.154   2.022
 2199TIP3   OH2 6537   6.303   7.883   6.127
 2199TIP3    H1 6538   6.310   7.801   6.177
 2199TIP3    H2 6539   6.310   7.952   6.192
 2200TIP3   OH2 6540   6.259   0.206   4.592
 2200TIP3    H1 6541   6.341   0.159   4.605
 2200TIP3    H2 6542   6.278   0.296   4.619
 2201TIP3   OH2 6543   7.389   1.600   1.426
 2201TIP3    H1 6544   7.358   1.654   1.499
 2201TIP3    H2 6545   7.467   1.645   1.393
 2202TIP3   OH2 6546   8.274   5.346   2.276
 2202TIP3    H1 6547   8.286   5.433   2.315
 2202TIP3    H2 6548   8.210   5.303   2.332
 2203TIP3   OH2 6549   5.219   5.256   0.237
 2203TIP3    H1 6550   5.244   5.165   0.254
 2203TIP3    H2 6551   5.166   5.252   0.158
 2204TIP3   OH2 6552   6.861   6.631   5.553
 2204TIP3    H1 6553   6.939   6.589   5.589
 2204TIP3    H2 6554   6.820   6.562   5.500
 2205TIP3   OH2 6555   5.492   3.668   1.204
 2205TIP3    H1 6556   5.492   3.614   1.284
 2205TIP3    H2 6557   5.564   3.633   1.152
 2206TIP3   OH2 6558   5.279   6.941   4.646
 2206TIP3    H1 6559   5.186   6.938   4.669
 2206TIP3    H2 6560   5.325   6.943   4.730
 2207TIP3   OH2 6561   2.612   0.955   0.044
 2207TIP3    H1 6562   2.673   0.976  -0.027
 2207TIP3    H2 6563   2.554   1.031   0.048
 2208TIP3   OH2 6564   0.281   4.397   4.781
 2208TIP3    H1 6565   0.217   4.457   4.744
 2208TIP3    H2 6566   0.360   4.412   4.730
 2209TIP3   OH2 6567   5.854   4.938   4.390
 2209TIP3    H1 6568   5.768   4.947   4.429
 2209TIP3    H2 6569   5.843   4.873   4.320
 2210TIP3   OH2 6570   8.047   0.278   6.576
 2210TIP3    H1 6571   8.048   0.361   6.529
 2210TIP3    H2 6572   8.008   0.298   6.661
 2211TIP3   OH2 6573   0.881   3.793   6.043
 2211TIP3    H1 6574   0.904   3.752   6.126
 2211TIP3    H2 6575   0.807   3.742   6.010
 2212TIP3   OH2 6576   2.430   2.260   5.964
 2212TIP3    H1 6577   2.385   2.311   6.031
 2212TIP3    H2 6578   2.460   2.181   6.010
 2213TIP3   OH2 6579   3.588   2.902   5.950
 2213TIP3    H1 6580   3.662   2.912   5.890
 2213TIP3    H2 6581   3.620   2.841   6.017
 2214TIP3   OH2 6582   2.097   6.195   6.134
 2214TIP3    H1 6583   2.167   6.136   6.160
 2214TIP3    H2 6584   2.017   6.145   6.150
 2215TIP3   OH2 6585   0.569   6.026   4.623
 2215TIP3    H1 6586   0.571   6.113   4.585
 2215TIP3    H2 6587   0.646   6.023   4.679
 2216TIP3   OH2 6588   4.019   3.218   1.645
 2216TIP3    H1 6589   4.052   3.165   1.718
 2216TIP3    H2 6590   3.939   3.258   1.680
 2217TIP3   OH2 6591   6.518   6.790   2.669
 2217TIP3    H1 6592   6.449   6.740   2.713
 2217TIP3    H2 6593   6.502   6.774   2.576
 2218TIP3   OH2 6594   4.317   7.691   0.189
 2218TIP3    H1 6595   4.373   7.627   0.145
 2218TIP3    H2 6596   4.322   7.770   0.134
 2219TIP3   OH2 6597   2.341   4.695   1.463
 2219TIP3    H1 6598   2.345   4.757   1.536
 2219TIP3    H2 6599   2.306   4.615   1.501
 2220TIP3   OH2 6600   6.211   7.164   2.704
 2220TIP3    H1 6601   6.126   7.185   2.742
 2220TIP3    H2 6602   6.195   7.091   2.645
 2221TIP3   OH2 6603   5.052   5.578   3.990
 2221TIP3    H1 6604   5.090   5.664   3.972
 2221TIP3    H2 6605   4.994   5.593   4.064
 2222TIP3   OH2 6606   1.057   4.825   3.485
 2222TIP3    H1 6607   0.977   4.869   3.455
 2222TIP3    H2 6608   1.127   4.886   3.463
 2223TIP3   OH2 6609   1.364   6.301   4.472
 2223TIP3    H1 6610   1.442   6.278   4.422
 2223TIP3    H2 6611   1.342   6.390   4.445
 2224TIP3   OH2 6612   1.444   4.615   1.266
 2224TIP3    H1 6613   1.492   4.672   1.325
 2224TIP3    H2 6614   1.501   4.539   1.254
 2225TIP3   OH2 6615   0.019   4.718   4.819
 2225TIP3    H1 6616   0.073   4.797   4.815
 2225TIP3    H2 6617   0.015   4.688   4.728
 2226TIP3   OH2 6618   7.879   5.283   2.900
 2226TIP3    H1 6619   7.961   5.259   2.855
 2226TIP3    H2 6620   7.845   5.357   2.851
 2227TIP3   OH2 6621   1.946   7.013   0.766
 2227TIP3    H1 6622   1.857   7.028   0.799
 2227TIP3    H2 6623   1.970   6.926   0.799
 2228TIP3   OH2 6624   5.500   2.004   1.675
 2228TIP3    H1 6625   5.481   1.975   1.586
 2228TIP3    H2 6626   5.422   1.979   1.725
 2229TIP3   OH2 6627   4.401   3.635   3.376
 2229TIP3    H1 6628   4.312   3.652   3.346
 2229TIP3    H2 6629   4.418   3.705   3.439
 2230TIP3   OH2 6630   7.593   5.901   5.602
 2230TIP3    H1 6631   7.666   5.864   5.551
 2230TIP3    H2 6632   7.521   5.909   5.539
 2231TIP3   OH2 6633   6.277   2.852   0.881
 2231TIP3    H1 6634   6.357   2.859   0.830
 2231TIP3    H2 6635   6.274   2.933   0.933
 2232TIP3   OH2 6636   6.670   1.951   1.608
 2232TIP3    H1 6637   6.761   1.936   1.581
 2232TIP3    H2 6638   6.669   2.039   1.645
 2233TIP3   OH2 6639   5.432   2.681   5.937
 2233TIP3    H1 6640   5.442   2.769   5.901
 2233TIP3    H2 6641   5.434   2.624   5.860
 2234TIP3   OH2 6642   7.314   2.557   1.362
 2234TIP3    H1 6643   7.311   2.506   1.281
 2234TIP3    H2 6644   7.223   2.560   1.392
 2235TIP3   OH2 6645   1.565   7.809   6.268
 2235TIP3    H1 6646   1.598   7.727   6.230
 2235TIP3    H2 6647   1.627   7.830   6.337
 2236TIP3   OH2 6648   3.950   7.312   3.497
 2236TIP3    H1 6649   3.934   7.303   3.591
 2236TIP3    H2 6650   3.919   7.400   3.475
 2237TIP3   OH2 6651   3.491   4.983   1.794
 2237TIP3    H1 6652   3.478   4.889   1.791
 2237TIP3    H2 6653   3.403   5.020   1.802
 2238TIP3   OH2 6654   5.562   2.078   3.983
 2238TIP3    H1 6655   5.471   2.108   3.970
 2238TIP3    H2 6656   5.615   2.150   3.948
 2239TIP3   OH2 6657   6.681   6.477   0.128
 2239TIP3    H1 6658   6.601   6.466   0.076
 2239TIP3    H2 6659   6.677   6.408   0.194
 2240TIP3   OH2 6660   4.359   4.789   5.125
 2240TIP3    H1 6661   4.392   4.807   5.213
 2240TIP3    H2 6662   4.415   4.841   5.068
 2241TIP3   OH2 6663   6.331   4.142   0.974
 2241TIP3    H1 6664   6.296   4.076   1.033
 2241TIP3    H2 6665   6.347   4.218   1.029
 2242TIP3   OH2 6666   6.629   2.178   0.161
 2242TIP3    H1 6667   6.635   2.158   0.068
 2242TIP3    H2 6668   6.709   2.228   0.181
 2243TIP3   OH2 6669   6.295   2.418   1.322
 2243TIP3    H1 6670   6.203   2.402   1.341
 2243TIP3    H2 6671   6.305   2.513   1.326
 2244TIP3   OH2 6672   2.871   0.666   4.211
 2244TIP3    H1 6673   2.893   0.648   4.120
 2244TIP3    H2 6674   2.819   0.590   4.238
 2245TIP3   OH2 6675   5.284   4.297   1.039
 2245TIP3    H1 6676   5.331   4.219   1.068
 2245TIP3    H2 6677   5.276   4.287   0.944
 2246TIP3   OH2 6678   5.829   0.264   2.205
 2246TIP3    H1 6679   5.874   0.224   2.279
 2246TIP3    H2 6680   5.740   0.281   2.238
 2247TIP3   OH2 6681   5.655   2.057   4.441
 2247TIP3    H1 6682   5.709   2.121   4.487
 2247TIP3    H2 6683   5.567   2.096   4.440
 2248TIP3   OH2 6684   7.828   1.562   2.347
 2248TIP3    H1 6685   7.843   1.506   2.423
 2248TIP3    H2 6686   7.813   1.649   2.384
 2249TIP3   OH2 6687   4.999   0.072   3.811
 2249TIP3    H1 6688   5.062   0.093   3.880
 2249TIP3    H2 6689   4.941   0.148   3.807
 2250TIP3   OH2 6690   3.238   0.740   0.921
 2250TIP3    H1 6691   3.255   0.655   0.959
 2250TIP3    H2 6692   3.176   0.723   0.850
 2251TIP3   OH2 6693   7.165   7.351   1.989
 2251TIP3    H1 6694   7.200   7.291   2.055
 2251TIP3    H2 6695   7.225   7.426   1.989
 2252TIP3   OH2 6696   1.728   3.184   0.178
 2252TIP3    H1 6697   1.668   3.146   0.242
 2252TIP3    H2 6698   1.774   3.253   0.225
 2253TIP3   OH2 6699   3.624   1.821   3.120
 2253TIP3    H1 6700   3.655   1.909   3.097
 2253TIP3    H2 6701   3.681   1.762   3.072
 2254TIP3   OH2 6702   4.849   7.738   0.157
 2254TIP3    H1 6703   4.805   7.800   0.099
 2254TIP3    H2 6704   4.779   7.683   0.191
 2255TIP3   OH2 6705   3.100   6.623   6.238
 2255TIP3    H1 6706   3.127   6.538   6.272
 2255TIP3    H2 6707   3.007   6.614   6.220
 2256TIP3   OH2 6708   0.096   0.576   1.999
 2256TIP3    H1 6709   0.133   0.665   1.991
 2256TIP3    H2 6710   0.129   0.545   2.083
 2257TIP3   OH2 6711   3.311   0.609   3.866
 2257TIP3    H1 6712   3.284   0.661   3.942
 2257TIP3    H2 6713   3.344   0.527   3.904
 2258TIP3   OH2 6714   8.172   2.497   4.902
 2258TIP3    H1 6715   8.226   2.559   4.951
 2258TIP3    H2 6716   8.231   2.424   4.883
 2259TIP3   OH2 6717   8.341   4.267   1.882
 2259TIP3    H1 6718   8.427   4.275   1.842
 2259TIP3    H2 6719   8.288   4.334   1.839
 2260TIP3   OH2 6720   7.254   6.202   0.789
 2260TIP3    H1 6721   7.316   6.209   0.862
 2260TIP3    H2 6722   7.288   6.264   0.724
 2261TIP3   OH2 6723   8.277   2.251   2.263
 2261TIP3    H1 6724   8.241   2.300   2.337
 2261TIP3    H2 6725   8.290   2.317   2.195
 2262TIP3   OH2 6726   4.916   5.496   5.860
 2262TIP3    H1 6727   5.005   5.500   5.824
 2262TIP3    H2 6728   4.861   5.531   5.790
 2263TIP3   OH2 6729   4.668   0.624   3.260
 2263TIP3    H1 6730   4.638   0.565   3.190
 2263TIP3    H2 6731   4.590   0.642   3.312
 2264TIP3   OH2 6732   6.385   0.563   6.395
 2264TIP3    H1 6733   6.359   0.583   6.484
 2264TIP3    H2 6734   6.376   0.646   6.348
 2265TIP3   OH2 6735   2.274   6.811   2.239
 2265TIP3    H1 6736   2.296   6.722   2.268
 2265TIP3    H2 6737   2.346   6.836   2.182
 2266TIP3   OH2 6738   6.847   5.262   4.097
 2266TIP3    H1 6739   6.773   5.318   4.121
 2266TIP3    H2 6740   6.920   5.296   4.148
 2267TIP3   OH2 6741   6.109   1.539   3.487
 2267TIP3    H1 6742   6.125   1.574   3.575
 2267TIP3    H2 6743   6.029   1.583   3.458
 2268TIP3   OH2 6744   7.161   6.812   2.681
 2268TIP3    H1 6745   7.065   6.811   2.689
 2268TIP3    H2 6746   7.190   6.743   2.741
 2269TIP3   OH2 6747   3.318   0.914   2.890
 2269TIP3    H1 6748   3.286   0.977   2.825
 2269TIP3    H2 6749   3.404   0.947   2.915
 2270TIP3   OH2 6750   0.470   5.673   3.297
 2270TIP3    H1 6751   0.417   5.748   3.326
 2270TIP3    H2 6752   0.479   5.618   3.375
 2271TIP3   OH2 6753   5.687   5.532   6.100
 2271TIP3    H1 6754   5.775   5.540   6.064
 2271TIP3    H2 6755   5.649   5.458   6.052
 2272TIP3   OH2 6756   7.523   5.538   1.712
 2272TIP3    H1 6757   7.514   5.620   1.759
 2272TIP3    H2 6758   7.605   5.547   1.663
 2273TIP3   OH2 6759   7.269   1.415   4.769
 2273TIP3    H1 6760   7.319   1.444   4.694
 2273TIP3    H2 6761   7.327   1.428   4.844
 2274TIP3   OH2 6762   6.112   6.810   0.483
 2274TIP3    H1 6763   6.169   6.882   0.456
 2274TIP3    H2 6764   6.090   6.830   0.574
 2275TIP3   OH2 6765   4.381   4.998   2.185
 2275TIP3    H1 6766   4.340   4.916   2.212
 2275TIP3    H2 6767   4.414   4.980   2.097
 2276TIP3   OH2 6768   4.709   5.692   3.221
 2276TIP3    H1 6769   4.663   5.608   3.222
 2276TIP3    H2 6770   4.672   5.741   3.295
 2277TIP3   OH2 6771   5.889   5.559   2.093
 2277TIP3    H1 6772   5.958   5.495   2.076
 2277TIP3    H2 6773   5.815   5.531   2.039
 2278TIP3   OH2 6774   4.009   3.834   3.905
 2278TIP3    H1 6775   4.078   3.773   3.931
 2278TIP3    H2 6776   3.932   3.805   3.954
 2279TIP3   OH2 6777   4.200   5.180   2.007
 2279TIP3    H1 6778   4.296   5.183   2.006
 2279TIP3    H2 6779   4.173   5.238   1.936
 2280TIP3   OH2 6780   6.161   2.039   1.999
 2280TIP3    H1 6781   6.149   2.116   2.055
 2280TIP3    H2 6782   6.077   2.027   1.955
 2281TIP3   OH2 6783   0.086   1.975   0.517
 2281TIP3    H1 6784   0.033   1.937   0.586
 2281TIP3    H2 6785   0.035   2.050   0.485
 2282TIP3   OH2 6786   7.988   0.475   2.775
 2282TIP3    H1 6787   7.962   0.399   2.827
 2282TIP3    H2 6788   8.022   0.439   2.693
 2283TIP3   OH2 6789   3.968   5.731   0.986
 2283TIP3    H1 6790   3.986   5.791   0.913
 2283TIP3    H2 6791   3.911   5.781   1.044
 2284TIP3   OH2 6792   6.836   1.988   1.974
 2284TIP3    H1 6793   6.880   1.910   1.941
 2284TIP3    H2 6794   6.886   2.013   2.051
 2285TIP3   OH2 6795   6.101   1.968   3.200
 2285TIP3    H1 6796   6.174   1.973   3.137
 2285TIP3    H2 6797   6.142   1.941   3.282
 2286TIP3   OH2 6798   8.001   1.082   5.595
 2286TIP3    H1 6799   7.939   1.040   5.537
 2286TIP3    H2 6800   8.053   1.010   5.631
 2287TIP3   OH2 6801   3.589   7.931   5.152
 2287TIP3    H1 6802   3.678   7.935   5.186
 2287TIP3    H2 6803   3.597   7.889   5.066
 2288TIP3   OH2 6804   1.663   7.544   3.421
 2288TIP3    H1 6805   1.581   7.498   3.405
 2288TIP3    H2 6806   1.641   7.612   3.485
 2289TIP3   OH2 6807   3.705   2.972   5.005
 2289TIP3    H1 6808   3.743   2.893   4.967
 2289TIP3    H2 6809   3.626   2.987   4.953
 2290TIP3   OH2 6810   1.889   2.717   4.935
 2290TIP3    H1 6811   1.857   2.678   4.853
 2290TIP3    H2 6812   1.917   2.642   4.987
 2291TIP3   OH2 6813   4.097   4.678   2.714
 2291TIP3    H1 6814   4.013   4.723   2.718
 2291TIP3    H2 6815   4.081   4.602   2.657
 2292TIP3   OH2 6816   0.036   0.615   6.058
 2292TIP3    H1 6817   0.125   0.585   6.040
 2292TIP3    H2 6818  -0.005   0.622   5.972
 2293TIP3   OH2 6819   6.236   2.761   4.146
 2293TIP3    H1 6820   6.317   2.777   4.194
 2293TIP3    H2 6821   6.171   2.817   4.189
 2294TIP3   OH2 6822   7.068   2.728   4.133
 2294TIP3    H1 6823   7.156   2.701   4.160
 2294TIP3    H2 6824   7.015   2.649   4.143
 2295TIP3   OH2 6825   3.280   6.929   3.494
 2295TIP3    H1 6826   3.231   6.978   3.428
 2295TIP3    H2 6827   3.368   6.919   3.456
 2296TIP3   OH2 6828   6.795   2.506   0.978
 2296TIP3    H1 6829   6.797   2.430   0.920
 2296TIP3    H2 6830   6.861   2.487   1.045
 2297TIP3   OH2 6831   3.251   0.598   5.127
 2297TIP3    H1 6832   3.238   0.518   5.076
 2297TIP3    H2 6833   3.235   0.571   5.218
 2298TIP3   OH2 6834   7.634   7.862   5.846
 2298TIP3    H1 6835   7.723   7.836   5.868
 2298TIP3    H2 6836   7.589   7.867   5.931
 2299TIP3   OH2 6837   5.598   1.019   4.587
 2299TIP3    H1 6838   5.578   1.070   4.665
 2299TIP3    H2 6839   5.609   1.084   4.518
 2300TIP3   OH2 6840   2.074   0.084   6.808
 2300TIP3    H1 6841   2.122   0.149   6.859
 2300TIP3    H2 6842   1.997   0.062   6.861
 2301TIP3   OH2 6843   3.713   4.402   0.581
 2301TIP3    H1 6844   3.785   4.339   0.577
 2301TIP3    H2 6845   3.637   4.350   0.608
 2302TIP3   OH2 6846   4.410   0.586   4.596
 2302TIP3    H1 6847   4.361   0.618   4.672
 2302TIP3    H2 6848   4.501   0.609   4.614
 2303TIP3   OH2 6849   1.278   7.443   0.896
 2303TIP3    H1 6850   1.201   7.401   0.857
 2303TIP3    H2 6851   1.289   7.400   0.980
 2304TIP3   OH2 6852   7.249   0.095   3.818
 2304TIP3    H1 6853   7.181   0.054   3.871
 2304TIP3    H2 6854   7.324   0.103   3.878
 2305TIP3   OH2 6855   1.531   5.877   0.060
 2305TIP3    H1 6856   1.620   5.906   0.040
 2305TIP3    H2 6857   1.484   5.958   0.082
 2306TIP3   OH2 6858   6.771   3.484   5.318
 2306TIP3    H1 6859   6.839   3.487   5.386
 2306TIP3    H2 6860   6.735   3.572   5.316
 2307TIP3   OH2 6861   7.808   5.361   0.199
 2307TIP3    H1 6862   7.765   5.418   0.135
 2307TIP3    H2 6863   7.879   5.319   0.150
 2308TIP3   OH2 6864   1.852   1.442   1.339
 2308TIP3    H1 6865   1.875   1.430   1.431
 2308TIP3    H2 6866   1.866   1.535   1.322
 2309TIP3   OH2 6867   5.258   6.098   3.318
 2309TIP3    H1 6868   5.278   6.161   3.388
 2309TIP3    H2 6869   5.218   6.150   3.249
 2310TIP3   OH2 6870   3.769   2.333   2.258
 2310TIP3    H1 6871   3.680   2.325   2.224
 2310TIP3    H2 6872   3.796   2.242   2.275
 2311TIP3   OH2 6873   4.747   4.896   6.390
 2311TIP3    H1 6874   4.839   4.923   6.381
 2311TIP3    H2 6875   4.752   4.805   6.418
 2312TIP3   OH2 6876   3.605   1.137   4.472
 2312TIP3    H1 6877   3.665   1.093   4.532
 2312TIP3    H2 6878   3.522   1.090   4.484
 2313TIP3   OH2 6879   4.936   5.677   0.732
 2313TIP3    H1 6880   5.021   5.714   0.709
 2313TIP3    H2 6881   4.918   5.614   0.661
 2314TIP3   OH2 6882   5.262   5.326   1.372
 2314TIP3    H1 6883   5.352   5.332   1.341
 2314TIP3    H2 6884   5.236   5.235   1.355
 2315TIP3   OH2 6885   1.683   3.923   4.288
 2315TIP3    H1 6886   1.758   3.971   4.250
 2315TIP3    H2 6887   1.611   3.941   4.228
 2316TIP3   OH2 6888   7.915   2.060   2.184
 2316TIP3    H1 6889   7.879   2.086   2.269
 2316TIP3    H2 6890   7.869   2.115   2.121
 2317TIP3   OH2 6891   2.556   6.151   6.275
 2317TIP3    H1 6892   2.469   6.116   6.258
 2317TIP3    H2 6893   2.590   6.172   6.188
 2318TIP3   OH2 6894   7.402   2.638   0.709
 2318TIP3    H1 6895   7.470   2.572   0.695
 2318TIP3    H2 6896   7.322   2.588   0.724
 2319TIP3   OH2 6897   8.312   7.478   6.431
 2319TIP3    H1 6898   8.278   7.403   6.384
 2319TIP3    H2 6899   8.261   7.482   6.512
 2320TIP3   OH2 6900   0.348   4.773   3.046
 2320TIP3    H1 6901   0.292   4.850   3.053
 2320TIP3    H2 6902   0.399   4.788   2.966
 2321TIP3   OH2 6903   7.656   0.379   2.561
 2321TIP3    H1 6904   7.742   0.393   2.520
 2321TIP3    H2 6905   7.594   0.417   2.499
 2322TIP3   OH2 6906   5.552   0.747   6.026
 2322TIP3    H1 6907   5.508   0.803   6.090
 2322TIP3    H2 6908   5.483   0.725   5.962
 2323TIP3   OH2 6909   7.120   6.211   2.784
 2323TIP3    H1 6910   7.184   6.153   2.743
 2323TIP3    H2 6911   7.164   6.244   2.863
 2324TIP3   OH2 6912   3.829   5.587   1.831
 2324TIP3    H1 6913   3.771   5.653   1.791
 2324TIP3    H2 6914   3.771   5.537   1.888
 2325TIP3   OH2 6915   3.801   0.414   0.626
 2325TIP3    H1 6916   3.829   0.477   0.559
 2325TIP3    H2 6917   3.781   0.468   0.703
 2326TIP3   OH2 6918   8.311   5.402   4.684
 2326TIP3    H1 6919   8.286   5.470   4.623
 2326TIP3    H2 6920   8.244   5.404   4.752
 2327TIP3   OH2 6921   5.886   3.883   3.229
 2327TIP3    H1 6922   5.819   3.823   3.196
 2327TIP3    H2 6923   5.944   3.898   3.154
 2328TIP3   OH2 6924   6.331   1.788   5.815
 2328TIP3    H1 6925   6.399   1.723   5.798
 2328TIP3    H2 6926   6.378   1.862   5.853
 2329TIP3   OH2 6927   4.823   5.649   5.669
 2329TIP3    H1 6928   4.902   5.652   5.615
 2329TIP3    H2 6929   4.756   5.611   5.612
 2330TIP3   OH2 6930   8.285   2.923   3.040
 2330TIP3    H1 6931   8.291   2.885   3.127
 2330TIP3    H2 6932   8.251   3.011   3.054
 2331TIP3   OH2 6933   7.769   0.384   6.492
 2331TIP3    H1 6934   7.777   0.479   6.484
 2331TIP3    H2 6935   7.710   0.359   6.421
 2332TIP3   OH2 6936   0.647   4.028   1.499
 2332TIP3    H1 6937   0.690   4.114   1.504
 2332TIP3    H2 6938   0.601   4.020   1.583
 2333TIP3   OH2 6939   6.765   6.394   1.278
 2333TIP3    H1 6940   6.768   6.326   1.346
 2333TIP3    H2 6941   6.843   6.447   1.294
 2334TIP3   OH2 6942   7.100   1.259   3.705
 2334TIP3    H1 6943   7.182   1.248   3.657
 2334TIP3    H2 6944   7.032   1.259   3.638
 2335TIP3   OH2 6945   5.633   3.495   2.806
 2335TIP3    H1 6946   5.547   3.456   2.792
 2335TIP3    H2 6947   5.615   3.577   2.851
 2336TIP3   OH2 6948   3.532   6.840   4.516
 2336TIP3    H1 6949   3.577   6.884   4.589
 2336TIP3    H2 6950   3.555   6.748   4.526
 2337TIP3   OH2 6951   5.892   6.790   3.159
 2337TIP3    H1 6952   5.827   6.747   3.214
 2337TIP3    H2 6953   5.966   6.729   3.157
 2338TIP3   OH2 6954   4.975   7.724   3.452
 2338TIP3    H1 6955   4.916   7.653   3.426
 2338TIP3    H2 6956   5.053   7.710   3.399
 2339TIP3   OH2 6957   1.948   6.174   1.921
 2339TIP3    H1 6958   2.018   6.239   1.909
 2339TIP3    H2 6959   1.940   6.131   1.836
 2340TIP3   OH2 6960   7.455   1.508   6.623
 2340TIP3    H1 6961   7.409   1.434   6.584
 2340TIP3    H2 6962   7.387   1.575   6.634
 2341TIP3   OH2 6963   5.310   2.407   6.738
 2341TIP3    H1 6964   5.348   2.378   6.655
 2341TIP3    H2 6965   5.382   2.400   6.800
 2342TIP3   OH2 6966   3.331   3.262   6.608
 2342TIP3    H1 6967   3.296   3.350   6.605
 2342TIP3    H2 6968   3.426   3.273   6.602
 2343TIP3   OH2 6969   7.343   0.442   3.512
 2343TIP3    H1 6970   7.257   0.470   3.543
 2343TIP3    H2 6971   7.387   0.409   3.590
 2344TIP3   OH2 6972   2.373   5.016   5.465
 2344TIP3    H1 6973   2.285   5.050   5.444
 2344TIP3    H2 6974   2.363   4.921   5.460
 2345TIP3   OH2 6975   7.643   6.186   5.683
 2345TIP3    H1 6976   7.724   6.169   5.732
 2345TIP3    H2 6977   7.619   6.101   5.647
 2346TIP3   OH2 6978   0.531   7.118   6.312
 2346TIP3    H1 6979   0.624   7.138   6.305
 2346TIP3    H2 6980   0.524   7.025   6.293
 2347TIP3   OH2 6981   6.737   0.486   5.063
 2347TIP3    H1 6982   6.667   0.422   5.059
 2347TIP3    H2 6983   6.695   0.565   5.099
 2348TIP3   OH2 6984   4.285   5.801   3.778
 2348TIP3    H1 6985   4.211   5.862   3.775
 2348TIP3    H2 6986   4.298   5.782   3.871
 2349TIP3   OH2 6987   2.344   0.657   1.486
 2349TIP3    H1 6988   2.259   0.626   1.519
 2349TIP3    H2 6989   2.408   0.606   1.535
 2350TIP3   OH2 6990   7.998   0.733   3.492
 2350TIP3    H1 6991   7.951   0.776   3.421
 2350TIP3    H2 6992   7.945   0.655   3.512
 2351TIP3   OH2 6993   3.742   2.467   2.845
 2351TIP3    H1 6994   3.828   2.482   2.884
 2351TIP3    H2 6995   3.757   2.478   2.751
 2352TIP3   OH2 6996   5.424   5.322   2.125
 2352TIP3    H1 6997   5.356   5.389   2.134
 2352TIP3    H2 6998   5.383   5.252   2.075
 2353TIP3   OH2 6999   5.314   6.596   0.428
 2353TIP3    H1 7000   5.347   6.598   0.518
 2353TIP3    H2 7001   5.393   6.603   0.373
 2354TIP3   OH2 7002   3.829   0.758   2.122
 2354TIP3    H1 7003   3.892   0.775   2.053
 2354TIP3    H2 7004   3.812   0.844   2.161
 2355TIP3   OH2 7005   3.016   2.827   6.213
 2355TIP3    H1 7006   2.950   2.850   6.277
 2355TIP3    H2 7007   2.978   2.755   6.163
 2356TIP3   OH2 7008   3.304   0.345   1.488
 2356TIP3    H1 7009   3.350   0.321   1.568
 2356TIP3    H2 7010   3.255   0.424   1.512
 2357TIP3   OH2 7011   0.743   1.856   6.572
 2357TIP3    H1 7012   0.677   1.811   6.625
 2357TIP3    H2 7013   0.720   1.949   6.578
 2358TIP3   OH2 7014   2.589   7.625   2.660
 2358TIP3    H1 7015   2.606   7.533   2.681
 2358TIP3    H2 7016   2.617   7.634   2.569
 2359TIP3   OH2 7017   6.569   4.455   6.244
 2359TIP3    H1 7018   6.551   4.532   6.297
 2359TIP3    H2 7019   6.526   4.383   6.290
 2360TIP3   OH2 7020   2.257   1.341   3.178
 2360TIP3    H1 7021   2.283   1.323   3.088
 2360TIP3    H2 7022   2.336   1.376   3.219
 2361TIP3   OH2 7023   2.889   2.434   4.315
 2361TIP3    H1 7024   2.976   2.430   4.275
 2361TIP3    H2 7025   2.883   2.355   4.369
 2362TIP3   OH2 7026   3.055   0.507   3.239
 2362TIP3    H1 7027   3.003   0.442   3.192
 2362TIP3    H2 7028   2.991   0.565   3.279
 2363TIP3   OH2 7029   7.051   3.176   4.651
 2363TIP3    H1 7030   7.023   3.111   4.587
 2363TIP3    H2 7031   7.114   3.231   4.604
 2364TIP3   OH2 7032   7.102   1.918   2.539
 2364TIP3    H1 7033   7.034   1.923   2.606
 2364TIP3    H2 7034   7.083   1.838   2.490
 2365TIP3   OH2 7035   1.523   6.489   5.476
 2365TIP3    H1 7036   1.452   6.553   5.482
 2365TIP3    H2 7037   1.510   6.432   5.551
 2366TIP3   OH2 7038   3.467   4.000   2.836
 2366TIP3    H1 7039   3.561   3.982   2.843
 2366TIP3    H2 7040   3.454   4.024   2.744
 2367TIP3   OH2 7041   2.389   3.962   0.656
 2367TIP3    H1 7042   2.347   4.047   0.648
 2367TIP3    H2 7043   2.360   3.914   0.578
 2368TIP3   OH2 7044   5.355   6.085   1.530
 2368TIP3    H1 7045   5.352   6.115   1.439
 2368TIP3    H2 7046   5.299   6.147   1.577
 2369TIP3   OH2 7047   2.756   6.842   1.442
 2369TIP3    H1 7048   2.793   6.848   1.530
 2369TIP3    H2 7049   2.723   6.930   1.424
 2370TIP3   OH2 7050   4.851   6.251   1.525
 2370TIP3    H1 7051   4.913   6.191   1.483
 2370TIP3    H2 7052   4.835   6.319   1.459
 2371TIP3   OH2 7053   0.871   1.723   5.778
 2371TIP3    H1 7054   0.912   1.776   5.709
 2371TIP3    H2 7055   0.915   1.751   5.859
 2372TIP3   OH2 7056   2.678   2.041   6.653
 2372TIP3    H1 7057   2.584   2.039   6.636
 2372TIP3    H2 7058   2.716   1.981   6.589
 2373TIP3   OH2 7059   5.125   1.030   6.815
 2373TIP3    H1 7060   5.059   1.091   6.780
 2373TIP3    H2 7061   5.137   0.965   6.745
 2374TIP3   OH2 7062   5.542   1.039   1.184
 2374TIP3    H1 7063   5.598   0.962   1.184
 2374TIP3    H2 7064   5.481   1.024   1.111
 2375TIP3   OH2 7065   5.222   1.883   4.487
 2375TIP3    H1 7066   5.178   1.860   4.568
 2375TIP3    H2 7067   5.152   1.909   4.428
 2376TIP3   OH2 7068   4.192   7.445   4.258
 2376TIP3    H1 7069   4.185   7.524   4.205
 2376TIP3    H2 7070   4.178   7.373   4.197
 2377TIP3   OH2 7071   6.397   0.332   5.656
 2377TIP3    H1 7072   6.437   0.413   5.689
 2377TIP3    H2 7073   6.322   0.317   5.713
 2378TIP3   OH2 7074   2.772   1.455   0.504
 2378TIP3    H1 7075   2.772   1.405   0.585
 2378TIP3    H2 7076   2.685   1.443   0.468
 2379TIP3   OH2 7077   5.911   6.959   1.986
 2379TIP3    H1 7078   5.963   6.999   1.917
 2379TIP3    H2 7079   5.923   6.865   1.974
 2380TIP3   OH2 7080   6.165   6.196   2.732
 2380TIP3    H1 7081   6.097   6.263   2.730
 2380TIP3    H2 7082   6.118   6.114   2.746
 2381TIP3   OH2 7083   7.709   2.013   6.724
 2381TIP3    H1 7084   7.695   2.005   6.818
 2381TIP3    H2 7085   7.665   1.937   6.687
 2382TIP3   OH2 7086   5.042   5.096   2.181
 2382TIP3    H1 7087   4.959   5.074   2.222
 2382TIP3    H2 7088   5.023   5.172   2.126
 2383TIP3   OH2 7089   3.232   0.435   6.721
 2383TIP3    H1 7090   3.314   0.445   6.768
 2383TIP3    H2 7091   3.178   0.381   6.778
 2384TIP3   OH2 7092   1.431   0.831   1.064
 2384TIP3    H1 7093   1.496   0.761   1.053
 2384TIP3    H2 7094   1.373   0.822   0.989
 2385TIP3   OH2 7095   3.275   4.989   6.009
 2385TIP3    H1 7096   3.184   5.005   5.983
 2385TIP3    H2 7097   3.276   4.898   6.038
 2386TIP3   OH2 7098   2.500   5.432   6.487
 2386TIP3    H1 7099   2.419   5.458   6.530
 2386TIP3    H2 7100   2.554   5.395   6.557
 2387TIP3   OH2 7101   5.515   4.485   0.162
 2387TIP3    H1 7102   5.557   4.570   0.171
 2387TIP3    H2 7103   5.424   4.500   0.189
 2388TIP3   OH2 7104   2.595   4.167   0.504
 2388TIP3    H1 7105   2.527   4.228   0.532
 2388TIP3    H2 7106   2.662   4.172   0.573
 2389TIP3   OH2 7107   5.038   6.600   0.364
 2389TIP3    H1 7108   5.126   6.618   0.397
 2389TIP3    H2 7109   5.027   6.659   0.289
 2390TIP3   OH2 7110   0.581   3.612   4.677
 2390TIP3    H1 7111   0.636   3.578   4.747
 2390TIP3    H2 7112   0.619   3.698   4.656
 2391TIP3   OH2 7113   0.992   6.477   5.990
 2391TIP3    H1 7114   0.900   6.464   6.009
 2391TIP3    H2 7115   0.996   6.561   5.945
 2392TIP3   OH2 7116   6.053   1.594   5.024
 2392TIP3    H1 7117   6.093   1.518   4.982
 2392TIP3    H2 7118   6.034   1.655   4.953
 2393TIP3   OH2 7119   6.581   2.411   6.243
 2393TIP3    H1 7120   6.663   2.381   6.284
 2393TIP3    H2 7121   6.600   2.500   6.214
 2394TIP3   OH2 7122   6.837   7.420   3.561
 2394TIP3    H1 7123   6.757   7.417   3.508
 2394TIP3    H2 7124   6.818   7.366   3.637
 2395TIP3   OH2 7125   3.343   3.828   0.705
 2395TIP3    H1 7126   3.298   3.768   0.765
 2395TIP3    H2 7127   3.430   3.791   0.695
 2396TIP3   OH2 7128   3.471   1.515   3.060
 2396TIP3    H1 7129   3.469   1.532   2.966
 2396TIP3    H2 7130   3.528   1.583   3.096
 2397TIP3   OH2 7131   5.945   3.799   6.554
 2397TIP3    H1 7132   5.874   3.863   6.547
 2397TIP3    H2 7133   5.955   3.764   6.466
 2398TIP3   OH2 7134   0.230   7.322   6.680
 2398TIP3    H1 7135   0.259   7.240   6.720
 2398TIP3    H2 7136   0.158   7.352   6.736
 2399TIP3   OH2 7137   4.274   1.528   0.098
 2399TIP3    H1 7138   4.328   1.450   0.093
 2399TIP3    H2 7139   4.187   1.499   0.071
 2400TIP3   OH2 7140   3.503   5.992   3.484
 2400TIP3    H1 7141   3.449   5.916   3.505
 2400TIP3    H2 7142   3.459   6.033   3.410
 2401TIP3   OH2 7143   6.407   6.082   3.420
 2401TIP3    H1 7144   6.447   6.067   3.335
 2401TIP3    H2 7145   6.362   5.999   3.440
 2402TIP3   OH2 7146   4.005   2.484   2.971
 2402TIP3    H1 7147   4.024   2.516   3.060
 2402TIP3    H2 7148   4.061   2.536   2.914
 2403TIP3   OH2 7149   1.437   0.612   1.706
 2403TIP3    H1 7150   1.529   0.633   1.692
 2403TIP3    H2 7151   1.414   0.656   1.788
 2404TIP3   OH2 7152   5.019   1.058   2.174
 2404TIP3    H1 7153   5.010   1.051   2.079
 2404TIP3    H2 7154   5.104   1.098   2.187
 2405TIP3   OH2 7155   7.811   0.326   4.715
 2405TIP3    H1 7156   7.844   0.328   4.626
 2405TIP3    H2 7157   7.767   0.410   4.727
 2406TIP3   OH2 7158   1.820   4.317   4.017
 2406TIP3    H1 7159   1.894   4.338   3.959
 2406TIP3    H2 7160   1.743   4.342   3.967
 2407TIP3   OH2 7161   7.185   0.430   4.847
 2407TIP3    H1 7162   7.190   0.510   4.899
 2407TIP3    H2 7163   7.103   0.439   4.797
 2408TIP3   OH2 7164   0.995   4.370   3.324
 2408TIP3    H1 7165   1.059   4.301   3.307
 2408TIP3    H2 7166   0.911   4.324   3.323
 2409TIP3   OH2 7167   2.885   6.355   4.394
 2409TIP3    H1 7168   2.854   6.265   4.406
 2409TIP3    H2 7169   2.814   6.409   4.429
 2410TIP3   OH2 7170   6.053   2.445   4.300
 2410TIP3    H1 7171   6.104   2.499   4.360
 2410TIP3    H2 7172   6.062   2.489   4.215
 2411TIP3   OH2 7173   6.093   7.813   1.446
 2411TIP3    H1 7174   6.084   7.863   1.365
 2411TIP3    H2 7175   6.043   7.733   1.431
 2412TIP3   OH2 7176   0.107   2.891   0.741
 2412TIP3    H1 7177   0.147   2.919   0.659
 2412TIP3    H2 7178   0.055   2.815   0.717
 2413TIP3   OH2 7179   5.275   2.555   6.388
 2413TIP3    H1 7180   5.246   2.576   6.299
 2413TIP3    H2 7181   5.236   2.623   6.443
 2414TIP3   OH2 7182   8.434   6.355   3.256
 2414TIP3    H1 7183   8.358   6.358   3.197
 2414TIP3    H2 7184   8.399   6.380   3.342
 2415TIP3   OH2 7185   3.280   7.212   5.989
 2415TIP3    H1 7186   3.373   7.204   5.968
 2415TIP3    H2 7187   3.235   7.181   5.910
 2416TIP3   OH2 7188   2.140   6.313   2.579
 2416TIP3    H1 7189   2.119   6.349   2.666
 2416TIP3    H2 7190   2.055   6.286   2.543
 2417TIP3   OH2 7191   4.830   0.384   0.032
 2417TIP3    H1 7192   4.925   0.392   0.035
 2417TIP3    H2 7193   4.807   0.334   0.110
 2418TIP3   OH2 7194   5.113   4.997   5.998
 2418TIP3    H1 7195   5.139   5.014   6.088
 2418TIP3    H2 7196   5.158   5.064   5.947
 2419TIP3   OH2 7197   3.436   4.094   5.532
 2419TIP3    H1 7198   3.391   4.055   5.457
 2419TIP3    H2 7199   3.406   4.043   5.607
 2420TIP3   OH2 7200   1.874   5.888   2.611
 2420TIP3    H1 7201   1.967   5.908   2.622
 2420TIP3    H2 7202   1.859   5.814   2.670
 2421TIP3   OH2 7203   1.802   5.710   6.718
 2421TIP3    H1 7204   1.745   5.695   6.794
 2421TIP3    H2 7205   1.743   5.723   6.645
 2422TIP3   OH2 7206   6.438   5.402   1.761
 2422TIP3    H1 7207   6.529   5.373   1.761
 2422TIP3    H2 7208   6.403   5.373   1.845
 2423TIP3   OH2 7209   5.998   7.300   3.883
 2423TIP3    H1 7210   6.028   7.331   3.968
 2423TIP3    H2 7211   6.049   7.351   3.820
 2424TIP3   OH2 7212   6.510   1.639   6.100
 2424TIP3    H1 7213   6.578   1.659   6.164
 2424TIP3    H2 7214   6.559   1.608   6.023
 2425TIP3   OH2 7215   2.900   7.216   0.885
 2425TIP3    H1 7216   2.966   7.147   0.889
 2425TIP3    H2 7217   2.817   7.171   0.901
 2426TIP3   OH2 7218   5.492   1.359   5.728
 2426TIP3    H1 7219   5.430   1.319   5.667
 2426TIP3    H2 7220   5.441   1.424   5.775
 2427TIP3   OH2 7221   2.388   0.481   4.759
 2427TIP3    H1 7222   2.345   0.405   4.718
 2427TIP3    H2 7223   2.481   0.468   4.741
 2428TIP3   OH2 7224   7.095   5.310   2.653
 2428TIP3    H1 7225   7.183   5.272   2.646
 2428TIP3    H2 7226   7.053   5.258   2.721
 2429TIP3   OH2 7227   5.802   7.224   4.674
 2429TIP3    H1 7228   5.878   7.260   4.629
 2429TIP3    H2 7229   5.791   7.136   4.638
 2430TIP3   OH2 7230   2.267   7.549   1.576
 2430TIP3    H1 7231   2.344   7.561   1.631
 2430TIP3    H2 7232   2.302   7.535   1.488
 2431TIP3   OH2 7233   5.210   2.963   6.381
 2431TIP3    H1 7234   5.193   2.967   6.287
 2431TIP3    H2 7235   5.283   3.023   6.395
 2432TIP3   OH2 7236   3.685   4.050   5.573
 2432TIP3    H1 7237   3.597   4.074   5.544
 2432TIP3    H2 7238   3.682   3.956   5.589
 2433TIP3   OH2 7239   1.814   2.897   0.478
 2433TIP3    H1 7240   1.723   2.926   0.481
 2433TIP3    H2 7241   1.849   2.936   0.399
 2434TIP3   OH2 7242   2.189   2.797   6.084
 2434TIP3    H1 7243   2.103   2.840   6.089
 2434TIP3    H2 7244   2.252   2.869   6.091
 2435TIP3   OH2 7245   0.793   4.639   4.159
 2435TIP3    H1 7246   0.739   4.565   4.130
 2435TIP3    H2 7247   0.817   4.617   4.249
 2436TIP3   OH2 7248   0.327   1.954   2.503
 2436TIP3    H1 7249   0.256   1.889   2.512
 2436TIP3    H2 7250   0.402   1.913   2.545
 2437TIP3   OH2 7251   0.056   0.083   3.048
 2437TIP3    H1 7252   0.126   0.026   3.018
 2437TIP3    H2 7253  -0.001   0.026   3.100
 2438TIP3   OH2 7254   6.695   3.092   3.747
 2438TIP3    H1 7255   6.714   3.015   3.800
 2438TIP3    H2 7256   6.625   3.137   3.794
 2439TIP3   OH2 7257   7.787   1.916   1.152
 2439TIP3    H1 7258   7.748   1.901   1.066
 2439TIP3    H2 7259   7.733   1.864   1.212
 2440TIP3   OH2 7260   3.350   5.775   0.333
 2440TIP3    H1 7261   3.338   5.700   0.274
 2440TIP3    H2 7262   3.413   5.745   0.398
 2441TIP3   OH2 7263   8.307   6.018   0.729
 2441TIP3    H1 7264   8.380   6.012   0.791
 2441TIP3    H2 7265   8.269   6.104   0.744
 2442TIP3   OH2 7266   2.725   0.859   2.888
 2442TIP3    H1 7267   2.807   0.904   2.905
 2442TIP3    H2 7268   2.719   0.793   2.957
 2443TIP3   OH2 7269   5.986   1.771   3.053
 2443TIP3    H1 7270   6.010   1.854   3.094
 2443TIP3    H2 7271   6.036   1.770   2.971
 2444TIP3   OH2 7272   4.053   2.265   4.463
 2444TIP3    H1 7273   4.072   2.203   4.393
 2444TIP3    H2 7274   4.102   2.344   4.439
 2445TIP3   OH2 7275   4.227   1.921   0.366
 2445TIP3    H1 7276   4.180   1.917   0.449
 2445TIP3    H2 7277   4.172   1.976   0.310
 2446TIP3   OH2 7278   3.966   5.592   5.027
 2446TIP3    H1 7279   3.996   5.542   5.103
 2446TIP3    H2 7280   3.940   5.526   4.963
 2447TIP3   OH2 7281   3.884   5.526   5.518
 2447TIP3    H1 7282   3.941   5.475   5.460
 2447TIP3    H2 7283   3.895   5.486   5.604
 2448TIP3   OH2 7284   3.617   7.278   2.281
 2448TIP3    H1 7285   3.696   7.275   2.335
 2448TIP3    H2 7286   3.644   7.321   2.200
 2449TIP3   OH2 7287   6.411   5.231   4.652
 2449TIP3    H1 7288   6.502   5.204   4.658
 2449TIP3    H2 7289   6.397   5.287   4.729
 2450TIP3   OH2 7290   4.281   2.356   0.806
 2450TIP3    H1 7291   4.327   2.430   0.767
 2450TIP3    H2 7292   4.203   2.394   0.846
 2451TIP3   OH2 7293   5.504   4.593   2.645
 2451TIP3    H1 7294   5.503   4.498   2.634
 2451TIP3    H2 7295   5.560   4.607   2.721
 2452TIP3   OH2 7296   5.659   4.513   1.399
 2452TIP3    H1 7297   5.578   4.500   1.448
 2452TIP3    H2 7298   5.661   4.606   1.379
 2453TIP3   OH2 7299   7.719   4.442   1.786
 2453TIP3    H1 7300   7.765   4.359   1.795
 2453TIP3    H2 7301   7.759   4.500   1.850
 2454TIP3   OH2 7302   1.863   3.324   6.594
 2454TIP3    H1 7303   1.819   3.335   6.679
 2454TIP3    H2 7304   1.857   3.231   6.576
 2455TIP3   OH2 7305   0.356   1.355   4.209
 2455TIP3    H1 7306   0.344   1.411   4.132
 2455TIP3    H2 7307   0.295   1.283   4.197
 2456TIP3   OH2 7308   5.512  -0.004   3.968
 2456TIP3    H1 7309   5.501  -0.086   4.016
 2456TIP3    H2 7310   5.584   0.041   4.012
 2457TIP3   OH2 7311   1.252   3.377   1.633
 2457TIP3    H1 7312   1.279   3.368   1.542
 2457TIP3    H2 7313   1.315   3.325   1.682
 2458TIP3   OH2 7314   4.768   6.190   4.993
 2458TIP3    H1 7315   4.864   6.192   4.997
 2458TIP3    H2 7316   4.748   6.102   4.961
 2459TIP3   OH2 7317   2.511   1.472   1.049
 2459TIP3    H1 7318   2.523   1.548   1.107
 2459TIP3    H2 7319   2.587   1.417   1.065
 2460TIP3   OH2 7320   2.501   3.229   6.622
 2460TIP3    H1 7321   2.501   3.138   6.652
 2460TIP3    H2 7322   2.538   3.278   6.696
 2461TIP3   OH2 7323   6.673   4.945   0.008
 2461TIP3    H1 7324   6.666   4.948  -0.088
 2461TIP3    H2 7325   6.583   4.934   0.038
 2462TIP3   OH2 7326   5.429   5.082   1.623
 2462TIP3    H1 7327   5.396   5.059   1.537
 2462TIP3    H2 7328   5.426   5.000   1.673
 2463TIP3   OH2 7329   8.272   4.501   0.720
 2463TIP3    H1 7330   8.250   4.485   0.628
 2463TIP3    H2 7331   8.366   4.518   0.719
 2464TIP3   OH2 7332   7.977   6.438   4.381
 2464TIP3    H1 7333   7.949   6.482   4.461
 2464TIP3    H2 7334   7.917   6.469   4.314
 2465TIP3   OH2 7335   5.862   4.748   3.757
 2465TIP3    H1 7336   5.881   4.729   3.665
 2465TIP3    H2 7337   5.897   4.835   3.771
 2466TIP3   OH2 7338   8.120   3.199   1.319
 2466TIP3    H1 7339   8.162   3.192   1.405
 2466TIP3    H2 7340   8.187   3.239   1.263
 2467TIP3   OH2 7341   4.146   2.864   0.803
 2467TIP3    H1 7342   4.065   2.905   0.831
 2467TIP3    H2 7343   4.170   2.806   0.875
 2468TIP3   OH2 7344   4.808   6.241   4.681
 2468TIP3    H1 7345   4.741   6.260   4.616
 2468TIP3    H2 7346   4.771   6.170   4.734
 2469TIP3   OH2 7347   2.452   0.112   5.992
 2469TIP3    H1 7348   2.381   0.133   6.052
 2469TIP3    H2 7349   2.525   0.088   6.049
 2470TIP3   OH2 7350   1.753   2.705   1.986
 2470TIP3    H1 7351   1.662   2.710   1.957
 2470TIP3    H2 7352   1.762   2.617   2.023
 2471TIP3   OH2 7353   4.498   1.685   0.172
 2471TIP3    H1 7354   4.503   1.764   0.119
 2471TIP3    H2 7355   4.409   1.652   0.158
 2472TIP3   OH2 7356   7.293   1.811   3.558
 2472TIP3    H1 7357   7.228   1.745   3.533
 2472TIP3    H2 7358   7.299   1.804   3.653
 2473TIP3   OH2 7359   6.651   5.272   0.197
 2473TIP3    H1 7360   6.725   5.274   0.136
 2473TIP3    H2 7361   6.640   5.363   0.224
 2474TIP3   OH2 7362   4.528   7.251   1.303
 2474TIP3    H1 7363   4.553   7.343   1.291
 2474TIP3    H2 7364   4.608   7.209   1.335
 2475TIP3   OH2 7365   4.033   4.719   1.896
 2475TIP3    H1 7366   3.943   4.687   1.897
 2475TIP3    H2 7367   4.044   4.765   1.979
 2476TIP3   OH2 7368   6.591   1.932   3.745
 2476TIP3    H1 7369   6.538   1.869   3.794
 2476TIP3    H2 7370   6.589   1.901   3.655
 2477TIP3   OH2 7371   2.104   2.922   5.443
 2477TIP3    H1 7372   2.154   2.952   5.367
 2477TIP3    H2 7373   2.013   2.942   5.420
 2478TIP3   OH2 7374   0.919   3.325   6.336
 2478TIP3    H1 7375   0.831   3.349   6.365
 2478TIP3    H2 7376   0.973   3.336   6.415
 2479TIP3   OH2 7377   6.730   1.902   4.398
 2479TIP3    H1 7378   6.734   1.962   4.324
 2479TIP3    H2 7379   6.819   1.901   4.433
 2480TIP3   OH2 7380   5.247   2.874   4.135
 2480TIP3    H1 7381   5.343   2.878   4.140
 2480TIP3    H2 7382   5.221   2.823   4.212
 2481TIP3   OH2 7383   3.870   2.743   0.584
 2481TIP3    H1 7384   3.917   2.792   0.516
 2481TIP3    H2 7385   3.906   2.655   0.580
 2482TIP3   OH2 7386   1.796   5.763   3.426
 2482TIP3    H1 7387   1.744   5.816   3.365
 2482TIP3    H2 7388   1.740   5.751   3.502
 2483TIP3   OH2 7389   2.456   7.286   0.265
 2483TIP3    H1 7390   2.526   7.223   0.279
 2483TIP3    H2 7391   2.501   7.364   0.232
 2484TIP3   OH2 7392   7.542   3.464   2.950
 2484TIP3    H1 7393   7.618   3.412   2.924
 2484TIP3    H2 7394   7.578   3.548   2.978
 2485TIP3   OH2 7395   8.079   7.241   6.214
 2485TIP3    H1 7396   8.072   7.251   6.119
 2485TIP3    H2 7397   8.158   7.189   6.227
 2486TIP3   OH2 7398   1.524   5.597   1.658
 2486TIP3    H1 7399   1.592   5.657   1.688
 2486TIP3    H2 7400   1.502   5.629   1.570
 2487TIP3   OH2 7401   5.246   4.330   3.303
 2487TIP3    H1 7402   5.261   4.240   3.272
 2487TIP3    H2 7403   5.157   4.328   3.337
 2488TIP3   OH2 7404   2.748   6.965   2.684
 2488TIP3    H1 7405   2.669   6.920   2.713
 2488TIP3    H2 7406   2.719   7.020   2.611
 2489TIP3   OH2 7407   1.988   5.519   1.873
 2489TIP3    H1 7408   2.037   5.501   1.954
 2489TIP3    H2 7409   2.047   5.575   1.822
 2490TIP3   OH2 7410   0.138   0.236   5.606
 2490TIP3    H1 7411   0.065   0.244   5.668
 2490TIP3    H2 7412   0.216   0.229   5.661
 2491TIP3   OH2 7413   8.241   1.673   4.084
 2491TIP3    H1 7414   8.199   1.589   4.104
 2491TIP3    H2 7415   8.241   1.677   3.988
 2492TIP3   OH2 7416   8.384   3.190   4.926
 2492TIP3    H1 7417   8.289   3.185   4.930
 2492TIP3    H2 7418   8.413   3.173   5.016
 2493TIP3   OH2 7419   2.918   3.427   5.793
 2493TIP3    H1 7420   3.006   3.448   5.760
 2493TIP3    H2 7421   2.901   3.339   5.761
 2494TIP3   OH2 7422   0.083   6.770   1.292
 2494TIP3    H1 7423   0.007   6.714   1.280
 2494TIP3    H2 7424   0.053   6.837   1.354
 2495TIP3   OH2 7425   4.215   3.645   6.629
 2495TIP3    H1 7426   4.143   3.702   6.603
 2495TIP3    H2 7427   4.285   3.705   6.657
 2496TIP3   OH2 7428   2.216   0.155   1.012
 2496TIP3    H1 7429   2.221   0.236   1.064
 2496TIP3    H2 7430   2.213   0.184   0.921
 2497TIP3   OH2 7431   6.362   7.210   3.968
 2497TIP3    H1 7432   6.404   7.143   3.914
 2497TIP3    H2 7433   6.417   7.215   4.046
 2498TIP3   OH2 7434   0.678   1.823   0.425
 2498TIP3    H1 7435   0.631   1.882   0.366
 2498TIP3    H2 7436   0.740   1.777   0.368
 2499TIP3   OH2 7437   4.199   3.631   1.248
 2499TIP3    H1 7438   4.277   3.637   1.302
 2499TIP3    H2 7439   4.143   3.567   1.292
 2500TIP3   OH2 7440   7.255   0.781   2.180
 2500TIP3    H1 7441   7.230   0.756   2.091
 2500TIP3    H2 7442   7.322   0.848   2.168
 2501TIP3   OH2 7443   7.679   7.072   4.257
 2501TIP3    H1 7444   7.720   7.024   4.185
 2501TIP3    H2 7445   7.740   7.063   4.330
 2502TIP3   OH2 7446   0.195   6.041   5.468
 2502TIP3    H1 7447   0.226   5.994   5.391
 2502TIP3    H2 7448   0.199   5.977   5.539
 2503TIP3   OH2 7449   6.785   3.756   3.363
 2503TIP3    H1 7450   6.805   3.789   3.451
 2503TIP3    H2 7451   6.867   3.765   3.315
 2504TIP3   OH2 7452   2.156   3.690   6.755
 2504TIP3    H1 7453   2.137   3.603   6.719
 2504TIP3    H2 7454   2.176   3.674   6.847
 2505TIP3   OH2 7455   2.684   0.463   4.234
 2505TIP3    H1 7456   2.714   0.372   4.227
 2505TIP3    H2 7457   2.610   0.469   4.173
 2506TIP3   OH2 7458   8.055   7.095   3.349
 2506TIP3    H1 7459   7.968   7.057   3.349
 2506TIP3    H2 7460   8.076   7.106   3.256
 2507TIP3   OH2 7461   3.276   2.529   6.673
 2507TIP3    H1 7462   3.317   2.600   6.723
 2507TIP3    H2 7463   3.292   2.551   6.582
 2508TIP3   OH2 7464   4.609   3.816   6.545
 2508TIP3    H1 7465   4.579   3.731   6.514
 2508TIP3    H2 7466   4.702   3.803   6.564
 2509TIP3   OH2 7467   1.569   6.581   3.103
 2509TIP3    H1 7468   1.606   6.495   3.083
 2509TIP3    H2 7469   1.610   6.606   3.185
 2510TIP3   OH2 7470   4.380   5.671   5.258
 2510TIP3    H1 7471   4.345   5.737   5.318
 2510TIP3    H2 7472   4.469   5.655   5.288
 2511TIP3   OH2 7473   0.964   7.369   6.251
 2511TIP3    H1 7474   1.038   7.393   6.307
 2511TIP3    H2 7475   1.005   7.332   6.173
 2512TIP3   OH2 7476   0.038   1.436   3.791
 2512TIP3    H1 7477   0.043   1.425   3.696
 2512TIP3    H2 7478  -0.020   1.366   3.821
 2513TIP3   OH2 7479   2.228   7.716   6.366
 2513TIP3    H1 7480   2.199   7.807   6.367
 2513TIP3    H2 7481   2.177   7.674   6.435
 2514TIP3   OH2 7482   6.472   2.786   3.031
 2514TIP3    H1 7483   6.464   2.848   2.959
 2514TIP3    H2 7484   6.565   2.785   3.052
 2515TIP3   OH2 7485   4.398   3.514   0.489
 2515TIP3    H1 7486   4.361   3.458   0.421
 2515TIP3    H2 7487   4.432   3.452   0.554
 2516TIP3   OH2 7488   7.286   0.093   5.840
 2516TIP3    H1 7489   7.372   0.135   5.831
 2516TIP3    H2 7490   7.231   0.139   5.777
 2517TIP3   OH2 7491   1.569   5.586   2.340
 2517TIP3    H1 7492   1.578   5.493   2.320
 2517TIP3    H2 7493   1.574   5.591   2.436
 2518TIP3   OH2 7494   5.690   2.416   5.739
 2518TIP3    H1 7495   5.765   2.475   5.749
 2518TIP3    H2 7496   5.683   2.401   5.645
 2519TIP3   OH2 7497   0.849   2.967   0.635
 2519TIP3    H1 7498   0.776   2.905   0.638
 2519TIP3    H2 7499   0.876   2.968   0.544
 2520TIP3   OH2 7500   0.186   0.764   6.545
 2520TIP3    H1 7501   0.210   0.751   6.637
 2520TIP3    H2 7502   0.102   0.810   6.549
 2521TIP3   OH2 7503   0.106   4.399   3.772
 2521TIP3    H1 7504   0.070   4.364   3.691
 2521TIP3    H2 7505   0.030   4.434   3.819
 2522TIP3   OH2 7506   2.662   4.370   4.234
 2522TIP3    H1 7507   2.654   4.276   4.246
 2522TIP3    H2 7508   2.757   4.387   4.239
 2523TIP3   OH2 7509   2.597   7.584   3.120
 2523TIP3    H1 7510   2.568   7.528   3.048
 2523TIP3    H2 7511   2.517   7.609   3.165
 2524TIP3   OH2 7512   0.196   1.299   1.211
 2524TIP3    H1 7513   0.233   1.307   1.123
 2524TIP3    H2 7514   0.126   1.235   1.203
 2525TIP3   OH2 7515   4.316   4.696   6.239
 2525TIP3    H1 7516   4.313   4.601   6.255
 2525TIP3    H2 7517   4.259   4.733   6.306
 2526TIP3   OH2 7518   5.057   3.245   2.969
 2526TIP3    H1 7519   4.978   3.289   3.001
 2526TIP3    H2 7520   5.079   3.291   2.888
 2527TIP3   OH2 7521   5.903   7.220   1.526
 2527TIP3    H1 7522   5.930   7.191   1.439
 2527TIP3    H2 7523   5.926   7.313   1.528
 2528TIP3   OH2 7524   8.248   6.838   1.667
 2528TIP3    H1 7525   8.304   6.761   1.658
 2528TIP3    H2 7526   8.159   6.803   1.660
 2529TIP3   OH2 7527   5.378   7.022   3.750
 2529TIP3    H1 7528   5.455   7.005   3.695
 2529TIP3    H2 7529   5.304   7.019   3.689
 2530TIP3   OH2 7530   1.762   3.930   3.079
 2530TIP3    H1 7531   1.719   3.966   3.002
 2530TIP3    H2 7532   1.849   3.970   3.079
 2531TIP3   OH2 7533   3.098   6.426   4.665
 2531TIP3    H1 7534   3.083   6.457   4.576
 2531TIP3    H2 7535   3.050   6.343   4.670
 2532TIP3   OH2 7536   1.413   7.145   5.368
 2532TIP3    H1 7537   1.485   7.161   5.306
 2532TIP3    H2 7538   1.373   7.231   5.380
 2533TIP3   OH2 7539   0.901   2.824   3.432
 2533TIP3    H1 7540   0.961   2.829   3.506
 2533TIP3    H2 7541   0.819   2.790   3.468
 2534TIP3   OH2 7542   4.907   6.277   3.472
 2534TIP3    H1 7543   4.959   6.284   3.552
 2534TIP3    H2 7544   4.838   6.213   3.493
 2535TIP3   OH2 7545   0.781   5.948   4.791
 2535TIP3    H1 7546   0.856   5.998   4.824
 2535TIP3    H2 7547   0.802   5.857   4.813
 2536TIP3   OH2 7548   4.306   7.863   1.523
 2536TIP3    H1 7549   4.252   7.873   1.445
 2536TIP3    H2 7550   4.315   7.768   1.533
 2537TIP3   OH2 7551   4.326   6.486   6.864
 2537TIP3    H1 7552   4.345   6.533   6.945
 2537TIP3    H2 7553   4.278   6.550   6.810
 2538TIP3   OH2 7554   2.124   0.543   0.301
 2538TIP3    H1 7555   2.056   0.609   0.284
 2538TIP3    H2 7556   2.174   0.538   0.220
 2539TIP3   OH2 7557   3.009   7.923   5.204
 2539TIP3    H1 7558   2.945   7.910   5.273
 2539TIP3    H2 7559   3.086   7.875   5.232
 2540TIP3   OH2 7560   0.952   1.862   2.286
 2540TIP3    H1 7561   0.972   1.928   2.352
 2540TIP3    H2 7562   0.873   1.894   2.243
 2541TIP3   OH2 7563   3.846   4.612   0.724
 2541TIP3    H1 7564   3.884   4.565   0.798
 2541TIP3    H2 7565   3.812   4.544   0.667
 2542TIP3   OH2 7566   0.754   1.186   4.443
 2542TIP3    H1 7567   0.699   1.258   4.411
 2542TIP3    H2 7568   0.725   1.109   4.394
 2543TIP3   OH2 7569   0.098   1.833   4.645
 2543TIP3    H1 7570   0.008   1.813   4.671
 2543TIP3    H2 7571   0.152   1.793   4.713
 2544TIP3   OH2 7572   7.065   7.352   5.917
 2544TIP3    H1 7573   7.034   7.370   6.006
 2544TIP3    H2 7574   7.109   7.268   5.924
 2545TIP3   OH2 7575   0.943   1.741   3.857
 2545TIP3    H1 7576   0.896   1.686   3.794
 2545TIP3    H2 7577   0.923   1.831   3.830
 2546TIP3   OH2 7578   4.644   2.029   1.407
 2546TIP3    H1 7579   4.602   1.946   1.430
 2546TIP3    H2 7580   4.674   2.065   1.490
 2547TIP3   OH2 7581   1.560   7.224   4.671
 2547TIP3    H1 7582   1.519   7.282   4.606
 2547TIP3    H2 7583   1.487   7.193   4.725
 2548TIP3   OH2 7584   2.986   0.600   5.583
 2548TIP3    H1 7585   3.010   0.511   5.555
 2548TIP3    H2 7586   3.035   0.614   5.664
 2549TIP3   OH2 7587   7.845   2.509   0.734
 2549TIP3    H1 7588   7.919   2.483   0.789
 2549TIP3    H2 7589   7.841   2.604   0.743
 2550TIP3   OH2 7590   4.834   1.536   2.841
 2550TIP3    H1 7591   4.834   1.481   2.763
 2550TIP3    H2 7592   4.919   1.579   2.839
 2551TIP3   OH2 7593   3.024   5.235   5.343
 2551TIP3    H1 7594   2.966   5.158   5.348
 2551TIP3    H2 7595   3.095   5.215   5.404
 2552TIP3   OH2 7596   1.013   5.507   1.493
 2552TIP3    H1 7597   1.041   5.582   1.441
 2552TIP3    H2 7598   0.929   5.533   1.530
 2553TIP3   OH2 7599   5.330   7.676   0.705
 2553TIP3    H1 7600   5.287   7.755   0.671
 2553TIP3    H2 7601   5.390   7.649   0.635
 2554TIP3   OH2 7602   6.979   4.305   3.013
 2554TIP3    H1 7603   6.918   4.294   3.086
 2554TIP3    H2 7604   7.032   4.381   3.036
 2555TIP3   OH2 7605   1.534   6.201   1.397
 2555TIP3    H1 7606   1.491   6.137   1.340
 2555TIP3    H2 7607   1.462   6.242   1.445
 2556TIP3   OH2 7608   7.124   0.552   0.081
 2556TIP3    H1 7609   7.053   0.572   0.021
 2556TIP3    H2 7610   7.203   0.576   0.034
 2557TIP3   OH2 7611   1.430   3.927   6.324
 2557TIP3    H1 7612   1.419   3.836   6.353
 2557TIP3    H2 7613   1.500   3.961   6.379
 2558TIP3   OH2 7614   2.911   2.203   3.188
 2558TIP3    H1 7615   2.993   2.211   3.236
 2558TIP3    H2 7616   2.902   2.286   3.141
 2559TIP3   OH2 7617   5.603   0.065   6.634
 2559TIP3    H1 7618   5.559   0.068   6.719
 2559TIP3    H2 7619   5.533   0.082   6.570
 2560TIP3   OH2 7620   3.398   0.201   0.159
 2560TIP3    H1 7621   3.355   0.286   0.164
 2560TIP3    H2 7622   3.487   0.218   0.191
 2561TIP3   OH2 7623   5.963   1.032   5.879
 2561TIP3    H1 7624   5.907   0.957   5.899
 2561TIP3    H2 7625   5.904   1.107   5.879
 2562TIP3   OH2 7626   2.535   1.895   2.127
 2562TIP3    H1 7627   2.525   1.837   2.203
 2562TIP3    H2 7628   2.474   1.860   2.062
 2563TIP3   OH2 7629   3.687   2.590   3.125
 2563TIP3    H1 7630   3.777   2.562   3.145
 2563TIP3    H2 7631   3.697   2.652   3.053
 2564TIP3   OH2 7632   6.582   7.014   2.134
 2564TIP3    H1 7633   6.501   7.003   2.183
 2564TIP3    H2 7634   6.646   6.962   2.182
 2565TIP3   OH2 7635   2.508   2.242   5.244
 2565TIP3    H1 7636   2.588   2.195   5.268
 2565TIP3    H2 7637   2.518   2.328   5.287
 2566TIP3   OH2 7638   6.098   3.614   5.077
 2566TIP3    H1 7639   6.118   3.685   5.138
 2566TIP3    H2 7640   6.151   3.540   5.107
 2567TIP3   OH2 7641   4.452   4.403   4.010
 2567TIP3    H1 7642   4.415   4.365   4.090
 2567TIP3    H2 7643   4.514   4.337   3.979
 2568TIP3   OH2 7644   2.373   3.686   1.052
 2568TIP3    H1 7645   2.348   3.633   0.976
 2568TIP3    H2 7646   2.377   3.776   1.019
 2569TIP3   OH2 7647   4.940   4.155   3.761
 2569TIP3    H1 7648   4.893   4.073   3.745
 2569TIP3    H2 7649   4.987   4.140   3.843
 2570TIP3   OH2 7650   3.857   1.020   0.801
 2570TIP3    H1 7651   3.808   1.011   0.882
 2570TIP3    H2 7652   3.843   0.937   0.755
 2571TIP3   OH2 7653   5.435   3.567   5.856
 2571TIP3    H1 7654   5.411   3.645   5.905
 2571TIP3    H2 7655   5.528   3.580   5.834
 2572TIP3   OH2 7656   7.437   4.895   2.776
 2572TIP3    H1 7657   7.502   4.866   2.840
 2572TIP3    H2 7658   7.487   4.913   2.697
 2573TIP3   OH2 7659   1.129   2.630   2.082
 2573TIP3    H1 7660   1.179   2.709   2.062
 2573TIP3    H2 7661   1.159   2.566   2.017
 2574TIP3   OH2 7662   0.516   5.770   2.088
 2574TIP3    H1 7663   0.537   5.786   1.996
 2574TIP3    H2 7664   0.431   5.725   2.086
 2575TIP3   OH2 7665   5.923   2.922   1.784
 2575TIP3    H1 7666   6.007   2.907   1.827
 2575TIP3    H2 7667   5.902   2.838   1.743
 2576TIP3   OH2 7668   4.990   4.042   4.966
 2576TIP3    H1 7669   4.916   4.099   4.944
 2576TIP3    H2 7670   5.056   4.101   5.002
 2577TIP3   OH2 7671   0.251   0.845   2.294
 2577TIP3    H1 7672   0.340   0.811   2.288
 2577TIP3    H2 7673   0.219   0.845   2.203
 2578TIP3   OH2 7674   7.695   3.107   1.956
 2578TIP3    H1 7675   7.702   3.029   1.900
 2578TIP3    H2 7676   7.783   3.143   1.958
 2579TIP3   OH2 7677   1.905   0.086   1.778
 2579TIP3    H1 7678   1.817   0.124   1.770
 2579TIP3    H2 7679   1.929   0.102   1.870
 2580TIP3   OH2 7680   8.353   7.534   6.130
 2580TIP3    H1 7681   8.350   7.441   6.111
 2580TIP3    H2 7682   8.426   7.544   6.192
 2581TIP3   OH2 7683   4.976   3.220   0.899
 2581TIP3    H1 7684   5.008   3.311   0.897
 2581TIP3    H2 7685   4.925   3.214   0.979
 2582TIP3   OH2 7686   5.151   5.450   2.067
 2582TIP3    H1 7687   5.072   5.402   2.041
 2582TIP3    H2 7688   5.179   5.495   1.988
 2583TIP3   OH2 7689   1.509   3.874   5.955
 2583TIP3    H1 7690   1.582   3.873   5.894
 2583TIP3    H2 7691   1.437   3.914   5.905
 2584TIP3   OH2 7692   4.249   1.116   2.400
 2584TIP3    H1 7693   4.236   1.209   2.384
 2584TIP3    H2 7694   4.271   1.079   2.315
 2585TIP3   OH2 7695   3.663   4.072   0.616
 2585TIP3    H1 7696   3.620   4.085   0.532
 2585TIP3    H2 7697   3.713   3.991   0.606
 2586TIP3   OH2 7698   0.298   5.232   6.201
 2586TIP3    H1 7699   0.348   5.270   6.129
 2586TIP3    H2 7700   0.304   5.137   6.187
 2587TIP3   OH2 7701   4.498   2.389   3.010
 2587TIP3    H1 7702   4.477   2.404   3.102
 2587TIP3    H2 7703   4.425   2.336   2.978
 2588TIP3   OH2 7704   2.074   4.763   1.665
 2588TIP3    H1 7705   2.162   4.770   1.702
 2588TIP3    H2 7706   2.035   4.689   1.711
 2589TIP3   OH2 7707   3.507   1.671   5.064
 2589TIP3    H1 7708   3.474   1.629   5.144
 2589TIP3    H2 7709   3.497   1.604   4.997
 2590TIP3   OH2 7710   5.077   5.118   4.142
 2590TIP3    H1 7711   5.017   5.057   4.099
 2590TIP3    H2 7712   5.153   5.123   4.083
 2591TIP3   OH2 7713   3.704   3.531   5.169
 2591TIP3    H1 7714   3.671   3.591   5.103
 2591TIP3    H2 7715   3.738   3.588   5.239
 2592TIP3   OH2 7716   1.848   3.383   0.304
 2592TIP3    H1 7717   1.860   3.369   0.398
 2592TIP3    H2 7718   1.848   3.478   0.294
 2593TIP3   OH2 7719   6.925   4.124   2.600
 2593TIP3    H1 7720   6.902   4.203   2.552
 2593TIP3    H2 7721   6.959   4.156   2.684
 2594TIP3   OH2 7722   4.483   0.012   3.214
 2594TIP3    H1 7723   4.455  -0.009   3.125
 2594TIP3    H2 7724   4.480   0.107   3.218
 2595TIP3   OH2 7725   6.615   4.641   4.112
 2595TIP3    H1 7726   6.670   4.597   4.177
 2595TIP3    H2 7727   6.674   4.706   4.072
 2596TIP3   OH2 7728   7.673   7.181   0.121
 2596TIP3    H1 7729   7.739   7.242   0.090
 2596TIP3    H2 7730   7.715   7.136   0.195
 2597TIP3   OH2 7731   1.041   5.826   4.908
 2597TIP3    H1 7732   1.057   5.759   4.842
 2597TIP3    H2 7733   1.028   5.778   4.989
 2598TIP3   OH2 7734   1.749   1.966   3.785
 2598TIP3    H1 7735   1.686   2.037   3.794
 2598TIP3    H2 7736   1.722   1.902   3.851
 2599TIP3   OH2 7737   2.804   3.516   3.806
 2599TIP3    H1 7738   2.822   3.442   3.865
 2599TIP3    H2 7739   2.860   3.586   3.839
 2600TIP3   OH2 7740   6.189   6.100   4.631
 2600TIP3    H1 7741   6.178   6.180   4.682
 2600TIP3    H2 7742   6.216   6.130   4.545
 2601TIP3   OH2 7743   6.821   4.830   4.078
 2601TIP3    H1 7744   6.790   4.906   4.030
 2601TIP3    H2 7745   6.818   4.857   4.170
 2602TIP3   OH2 7746   5.941   1.753   1.642
 2602TIP3    H1 7747   5.914   1.771   1.732
 2602TIP3    H2 7748   5.873   1.694   1.608
 2603TIP3   OH2 7749   3.138   3.051   1.998
 2603TIP3    H1 7750   3.043   3.058   2.006
 2603TIP3    H2 7751   3.152   2.992   1.923
 2604TIP3   OH2 7752   7.923   6.103   5.230
 2604TIP3    H1 7753   7.885   6.027   5.274
 2604TIP3    H2 7754   7.870   6.177   5.260
 2605TIP3   OH2 7755   6.012   5.594   6.527
 2605TIP3    H1 7756   6.072   5.553   6.589
 2605TIP3    H2 7757   6.066   5.658   6.480
 2606TIP3   OH2 7758   0.727   7.479   2.488
 2606TIP3    H1 7759   0.668   7.455   2.416
 2606TIP3    H2 7760   0.757   7.395   2.522
 2607TIP3   OH2 7761   7.277   7.236   5.083
 2607TIP3    H1 7762   7.306   7.146   5.093
 2607TIP3    H2 7763   7.183   7.234   5.100
 2608TIP3   OH2 7764   7.725   6.114   0.665
 2608TIP3    H1 7765   7.744   6.125   0.572
 2608TIP3    H2 7766   7.793   6.166   0.710
 2609TIP3   OH2 7767   5.180   3.971   0.165
 2609TIP3    H1 7768   5.210   3.929   0.245
 2609TIP3    H2 7769   5.137   4.052   0.196
 2610TIP3   OH2 7770   3.797   7.632   6.307
 2610TIP3    H1 7771   3.838   7.555   6.267
 2610TIP3    H2 7772   3.792   7.695   6.235
 2611TIP3   OH2 7773   0.983   5.319   4.889
 2611TIP3    H1 7774   0.908   5.297   4.944
 2611TIP3    H2 7775   1.054   5.334   4.951
 2612TIP3   OH2 7776   8.302   3.085   1.872
 2612TIP3    H1 7777   8.266   3.025   1.937
 2612TIP3    H2 7778   8.385   3.046   1.847
 2613TIP3   OH2 7779   3.829   2.365   6.689
 2613TIP3    H1 7780   3.772   2.357   6.765
 2613TIP3    H2 7781   3.854   2.275   6.668
 2614TIP3   OH2 7782   5.848   2.016   1.968
 2614TIP3    H1 7783   5.816   2.071   1.896
 2614TIP3    H2 7784   5.817   1.928   1.946
 2615TIP3   OH2 7785   5.643   4.685   5.004
 2615TIP3    H1 7786   5.548   4.686   4.994
 2615TIP3    H2 7787   5.677   4.664   4.917
 2616TIP3   OH2 7788   0.202   1.366   5.136
 2616TIP3    H1 7789   0.276   1.428   5.134
 2616TIP3    H2 7790   0.199   1.336   5.227
 2617TIP3   OH2 7791   4.234   5.405   6.596
 2617TIP3    H1 7792   4.326   5.424   6.615
 2617TIP3    H2 7793   4.236   5.324   6.545
 2618TIP3   OH2 7794   4.741   4.924   1.802
 2618TIP3    H1 7795   4.759   4.903   1.894
 2618TIP3    H2 7796   4.827   4.933   1.762
 2619TIP3   OH2 7797   4.215   7.268   5.364
 2619TIP3    H1 7798   4.305   7.281   5.393
 2619TIP3    H2 7799   4.221   7.204   5.294
 2620TIP3   OH2 7800   5.339   5.358   5.566
 2620TIP3    H1 7801   5.413   5.388   5.618
 2620TIP3    H2 7802   5.264   5.363   5.625
 2621TIP3   OH2 7803   7.640   7.399   5.549
 2621TIP3    H1 7804   7.732   7.404   5.525
 2621TIP3    H2 7805   7.604   7.331   5.492
 2622TIP3   OH2 7806   3.366   7.217   5.484
 2622TIP3    H1 7807   3.380   7.304   5.447
 2622TIP3    H2 7808   3.276   7.220   5.518
 2623TIP3   OH2 7809   6.999   7.422   3.964
 2623TIP3    H1 7810   6.934   7.371   3.915
 2623TIP3    H2 7811   6.948   7.467   4.031
 2624TIP3   OH2 7812   1.858   5.044   5.883
 2624TIP3    H1 7813   1.857   5.032   5.978
 2624TIP3    H2 7814   1.891   4.961   5.848
 2625TIP3   OH2 7815   1.035   1.631   5.498
 2625TIP3    H1 7816   1.095   1.588   5.436
 2625TIP3    H2 7817   1.093   1.679   5.557
 2626TIP3   OH2 7818   1.431   6.100   3.895
 2626TIP3    H1 7819   1.485   6.179   3.902
 2626TIP3    H2 7820   1.404   6.099   3.803
 2627TIP3   OH2 7821   4.331   1.074   3.333
 2627TIP3    H1 7822   4.292   1.146   3.383
 2627TIP3    H2 7823   4.426   1.090   3.340
 2628TIP3   OH2 7824   1.625   5.782   3.010
 2628TIP3    H1 7825   1.702   5.738   2.973
 2628TIP3    H2 7826   1.561   5.713   3.023
 2629TIP3   OH2 7827   3.625   1.124   3.783
 2629TIP3    H1 7828   3.537   1.103   3.752
 2629TIP3    H2 7829   3.684   1.087   3.716
 2630TIP3   OH2 7830   1.344   2.549   3.332
 2630TIP3    H1 7831   1.416   2.603   3.365
 2630TIP3    H2 7832   1.311   2.598   3.256
 2631TIP3   OH2 7833   5.916   2.121   1.094
 2631TIP3    H1 7834   5.839   2.145   1.042
 2631TIP3    H2 7835   5.985   2.179   1.063
 2632TIP3   OH2 7836   6.448   3.306   2.603
 2632TIP3    H1 7837   6.461   3.393   2.564
 2632TIP3    H2 7838   6.476   3.316   2.694
 2633TIP3   OH2 7839   1.107   0.242   0.926
 2633TIP3    H1 7840   1.079   0.173   0.985
 2633TIP3    H2 7841   1.199   0.258   0.947
 2634TIP3   OH2 7842   6.287   2.122   1.757
 2634TIP3    H1 7843   6.206   2.157   1.721
 2634TIP3    H2 7844   6.263   2.090   1.844
 2635TIP3   OH2 7845   3.422   2.167   5.293
 2635TIP3    H1 7846   3.483   2.217   5.347
 2635TIP3    H2 7847   3.382   2.105   5.354
 2636TIP3   OH2 7848   4.524   2.177   4.298
 2636TIP3    H1 7849   4.529   2.104   4.237
 2636TIP3    H2 7850   4.588   2.240   4.265
 2637TIP3   OH2 7851   2.525   7.699   6.550
 2637TIP3    H1 7852   2.455   7.635   6.561
 2637TIP3    H2 7853   2.555   7.686   6.460
 2638TIP3   OH2 7854   5.146   3.679   0.769
 2638TIP3    H1 7855   5.208   3.692   0.840
 2638TIP3    H2 7856   5.155   3.757   0.714
 2639TIP3   OH2 7857   2.645   6.480   1.805
 2639TIP3    H1 7858   2.554   6.511   1.811
 2639TIP3    H2 7859   2.692   6.551   1.762
 2640TIP3   OH2 7860   1.929   0.221   3.268
 2640TIP3    H1 7861   1.877   0.206   3.189
 2640TIP3    H2 7862   1.868   0.206   3.340
 2641TIP3   OH2 7863   6.368   1.184   3.906
 2641TIP3    H1 7864   6.402   1.097   3.927
 2641TIP3    H2 7865   6.336   1.218   3.990
 2642TIP3   OH2 7866   6.589   6.687   5.368
 2642TIP3    H1 7867   6.659   6.744   5.336
 2642TIP3    H2 7868   6.598   6.607   5.317
 2643TIP3   OH2 7869   0.221   2.048   3.920
 2643TIP3    H1 7870   0.161   2.034   3.993
 2643TIP3    H2 7871   0.272   2.125   3.946
 2644TIP3   OH2 7872   2.913   3.722   1.325
 2644TIP3    H1 7873   2.881   3.811   1.307
 2644TIP3    H2 7874   2.884   3.704   1.414
 2645TIP3   OH2 7875   5.955   6.793   4.396
 2645TIP3    H1 7876   5.927   6.704   4.373
 2645TIP3    H2 7877   5.970   6.836   4.312
 2646TIP3   OH2 7878   1.944   3.994   5.579
 2646TIP3    H1 7879   1.866   3.949   5.613
 2646TIP3    H2 7880   2.015   3.962   5.634
 2647TIP3   OH2 7881   4.491   3.030   6.103
 2647TIP3    H1 7882   4.498   2.972   6.027
 2647TIP3    H2 7883   4.570   3.084   6.098
 2648TIP3   OH2 7884   7.347   7.695   3.902
 2648TIP3    H1 7885   7.264   7.743   3.898
 2648TIP3    H2 7886   7.334   7.621   3.842
 2649TIP3   OH2 7887   4.769   4.884   0.907
 2649TIP3    H1 7888   4.841   4.843   0.955
 2649TIP3    H2 7889   4.799   4.884   0.816
 2650TIP3   OH2 7890   3.659   1.166   1.378
 2650TIP3    H1 7891   3.566   1.187   1.379
 2650TIP3    H2 7892   3.689   1.196   1.292
 2651TIP3   OH2 7893   5.086   0.687   2.663
 2651TIP3    H1 7894   5.116   0.717   2.577
 2651TIP3    H2 7895   5.001   0.731   2.675
 2652TIP3   OH2 7896   2.590   6.384   3.534
 2652TIP3    H1 7897   2.559   6.396   3.623
 2652TIP3    H2 7898   2.612   6.472   3.504
 2653TIP3   OH2 7899   8.338   5.917   3.508
 2653TIP3    H1 7900   8.412   5.963   3.547
 2653TIP3    H2 7901   8.300   5.981   3.447
 2654TIP3   OH2 7902   6.616   3.939   6.588
 2654TIP3    H1 7903   6.538   3.888   6.612
 2654TIP3    H2 7904   6.614   3.942   6.492
 2655TIP3   OH2 7905   7.809   3.047   0.224
 2655TIP3    H1 7906   7.887   3.037   0.279
 2655TIP3    H2 7907   7.784   3.139   0.235
 2656TIP3   OH2 7908   6.805   4.579   2.834
 2656TIP3    H1 7909   6.897   4.556   2.823
 2656TIP3    H2 7910   6.757   4.502   2.803
 2657TIP3   OH2 7911   0.473   7.055   1.752
 2657TIP3    H1 7912   0.403   7.068   1.688
 2657TIP3    H2 7913   0.549   7.031   1.700
 2658TIP3   OH2 7914   1.347   1.764   1.280
 2658TIP3    H1 7915   1.420   1.720   1.323
 2658TIP3    H2 7916   1.304   1.814   1.350
 2659TIP3   OH2 7917   1.183   6.925   1.098
 2659TIP3    H1 7918   1.268   6.941   1.138
 2659TIP3    H2 7919   1.177   6.830   1.089
 2660TIP3   OH2 7920   0.348   3.242   6.061
 2660TIP3    H1 7921   0.397   3.169   6.099
 2660TIP3    H2 7922   0.406   3.318   6.072
 2661TIP3   OH2 7923   6.044   5.117   4.263
 2661TIP3    H1 7924   5.972   5.061   4.292
 2661TIP3    H2 7925   6.106   5.057   4.221
 2662TIP3   OH2 7926   8.132   4.039   3.121
 2662TIP3    H1 7927   8.123   4.094   3.198
 2662TIP3    H2 7928   8.225   4.041   3.101
 2663TIP3   OH2 7929   2.962   5.320   4.677
 2663TIP3    H1 7930   2.894   5.343   4.614
 2663TIP3    H2 7931   2.923   5.340   4.762
 2664TIP3   OH2 7932   5.614   5.343   6.780
 2664TIP3    H1 7933   5.688   5.373   6.832
 2664TIP3    H2 7934   5.542   5.336   6.843
 2665TIP3   OH2 7935   5.082   6.289   4.683
 2665TIP3    H1 7936   5.099   6.285   4.589
 2665TIP3    H2 7937   4.988   6.277   4.692
 2666TIP3   OH2 7938   1.654   4.939   2.242
 2666TIP3    H1 7939   1.598   4.975   2.173
 2666TIP3    H2 7940   1.601   4.871   2.283
 2667TIP3   OH2 7941   1.040   6.745   3.698
 2667TIP3    H1 7942   0.981   6.691   3.646
 2667TIP3    H2 7943   1.113   6.765   3.640
 2668TIP3   OH2 7944   6.702   7.269   0.909
 2668TIP3    H1 7945   6.774   7.245   0.968
 2668TIP3    H2 7946   6.680   7.188   0.864
 2669TIP3   OH2 7947   1.091   5.949   5.633
 2669TIP3    H1 7948   1.062   6.035   5.663
 2669TIP3    H2 7949   1.018   5.915   5.582
 2670TIP3   OH2 7950   8.277   5.625   3.512
 2670TIP3    H1 7951   8.310   5.692   3.572
 2670TIP3    H2 7952   8.182   5.639   3.509
 2671TIP3   OH2 7953   4.700   6.131   2.851
 2671TIP3    H1 7954   4.758   6.185   2.797
 2671TIP3    H2 7955   4.738   6.043   2.846
 2672TIP3   OH2 7956   7.398   0.438   5.964
 2672TIP3    H1 7957   7.380   0.405   5.877
 2672TIP3    H2 7958   7.321   0.412   6.016
 2673TIP3   OH2 7959   3.522   1.313   6.307
 2673TIP3    H1 7960   3.609   1.275   6.298
 2673TIP3    H2 7961   3.481   1.263   6.378
 2674TIP3   OH2 7962   7.184   7.653   2.935
 2674TIP3    H1 7963   7.144   7.737   2.915
 2674TIP3    H2 7964   7.147   7.592   2.871
 2675TIP3   OH2 7965   3.433   7.349   1.953
 2675TIP3    H1 7966   3.403   7.431   1.915
 2675TIP3    H2 7967   3.494   7.375   2.023
 2676TIP3   OH2 7968   4.718   0.921   1.321
 2676TIP3    H1 7969   4.754   0.995   1.271
 2676TIP3    H2 7970   4.641   0.894   1.272
 2677TIP3   OH2 7971   6.738   7.677   1.433
 2677TIP3    H1 7972   6.692   7.736   1.493
 2677TIP3    H2 7973   6.740   7.724   1.350
 2678TIP3   OH2 7974   2.636   3.813   4.413
 2678TIP3    H1 7975   2.713   3.850   4.456
 2678TIP3    H2 7976   2.670   3.777   4.331
 2679TIP3   OH2 7977   5.280   0.080   3.768
 2679TIP3    H1 7978   5.306   0.028   3.844
 2679TIP3    H2 7979   5.324   0.040   3.694
 2680TIP3   OH2 7980   1.288   3.120   3.932
 2680TIP3    H1 7981   1.383   3.111   3.921
 2680TIP3    H2 7982   1.264   3.051   3.994
 2681TIP3   OH2 7983   3.434   4.294   3.372
 2681TIP3    H1 7984   3.400   4.303   3.462
 2681TIP3    H2 7985   3.417   4.379   3.332
 2682TIP3   OH2 7986   2.155   6.935   3.522
 2682TIP3    H1 7987   2.078   6.982   3.554
 2682TIP3    H2 7988   2.146   6.936   3.427
 2683TIP3   OH2 7989   4.834   3.529   3.207
 2683TIP3    H1 7990   4.922   3.558   3.182
 2683TIP3    H2 7991   4.797   3.602   3.255
 2684TIP3   OH2 7992   1.788   7.104   0.224
 2684TIP3    H1 7993   1.736   7.031   0.258
 2684TIP3    H2 7994   1.869   7.101   0.275
 2685TIP3   OH2 7995   6.579   6.249   1.115
 2685TIP3    H1 7996   6.627   6.295   1.184
 2685TIP3    H2 7997   6.587   6.305   1.038
 2686TIP3   OH2 7998   7.919   7.595   5.133
 2686TIP3    H1 7999   7.860   7.560   5.067
 2686TIP3    H2 8000   7.863   7.645   5.192
 2687TIP3   OH2 8001   7.396   7.253   2.951
 2687TIP3    H1 8002   7.303   7.252   2.973
 2687TIP3    H2 8003   7.413   7.343   2.923
 2688TIP3   OH2 8004   5.860   6.310   0.251
 2688TIP3    H1 8005   5.870   6.221   0.216
 2688TIP3    H2 8006   5.866   6.366   0.173
 2689TIP3   OH2 8007   8.303   7.239   4.017
 2689TIP3    H1 8008   8.376   7.236   3.956
 2689TIP3    H2 8009   8.237   7.294   3.973
 2690TIP3   OH2 8010   4.402   4.863   5.787
 2690TIP3    H1 8011   4.310   4.848   5.765
 2690TIP3    H2 8012   4.399   4.910   5.870
 2691TIP3   OH2 8013   2.011   4.067   0.075
 2691TIP3    H1 8014   2.004   4.162   0.083
 2691TIP3    H2 8015   1.975   4.032   0.157
 2692TIP3   OH2 8016   7.116   4.442   0.193
 2692TIP3    H1 8017   7.071   4.362   0.165
 2692TIP3    H2 8018   7.100   4.447   0.287
 2693TIP3   OH2 8019   7.337   4.309   1.828
 2693TIP3    H1 8020   7.414   4.254   1.842
 2693TIP3    H2 8021   7.365   4.397   1.853
 2694TIP3   OH2 8022   8.088   7.119   2.251
 2694TIP3    H1 8023   8.076   7.057   2.322
 2694TIP3    H2 8024   8.104   7.203   2.295
 2695TIP3   OH2 8025   4.993   2.225   2.287
 2695TIP3    H1 8026   5.057   2.287   2.321
 2695TIP3    H2 8027   4.912   2.276   2.282
 2696TIP3   OH2 8028   0.200   7.599   6.255
 2696TIP3    H1 8029   0.258   7.669   6.225
 2696TIP3    H2 8030   0.193   7.613   6.350
 2697TIP3   OH2 8031   6.528   2.725   6.267
 2697TIP3    H1 8032   6.515   2.677   6.348
 2697TIP3    H2 8033   6.439   2.748   6.238
 2698TIP3   OH2 8034   4.217   3.689   1.682
 2698TIP3    H1 8035   4.215   3.784   1.695
 2698TIP3    H2 8036   4.129   3.667   1.655
 2699TIP3   OH2 8037   3.356   1.718   1.485
 2699TIP3    H1 8038   3.299   1.641   1.487
 2699TIP3    H2 8039   3.297   1.793   1.479
 2700TIP3   OH2 8040   1.054   1.624   4.067
 2700TIP3    H1 8041   1.125   1.567   4.038
 2700TIP3    H2 8042   1.003   1.642   3.989
 2701TIP3   OH2 8043   1.029   4.804   5.269
 2701TIP3    H1 8044   1.121   4.822   5.252
 2701TIP3    H2 8045   0.986   4.890   5.266
 2702TIP3   OH2 8046   1.688   6.089   3.584
 2702TIP3    H1 8047   1.684   6.040   3.667
 2702TIP3    H2 8048   1.628   6.162   3.597
 2703TIP3   OH2 8049   5.958   4.090   1.284
 2703TIP3    H1 8050   5.982   4.076   1.376
 2703TIP3    H2 8051   5.986   4.179   1.265
 2704TIP3   OH2 8052   6.721   1.854   4.950
 2704TIP3    H1 8053   6.684   1.823   4.868
 2704TIP3    H2 8054   6.749   1.943   4.932
 2705TIP3   OH2 8055   0.910   5.372   3.689
 2705TIP3    H1 8056   0.828   5.354   3.736
 2705TIP3    H2 8057   0.888   5.445   3.631
 2706TIP3   OH2 8058   5.566   4.862   0.534
 2706TIP3    H1 8059   5.495   4.807   0.501
 2706TIP3    H2 8060   5.555   4.861   0.629
 2707TIP3   OH2 8061   7.642   5.859   4.444
 2707TIP3    H1 8062   7.603   5.885   4.528
 2707TIP3    H2 8063   7.602   5.774   4.424
 2708TIP3   OH2 8064   4.854   1.408   2.578
 2708TIP3    H1 8065   4.884   1.325   2.540
 2708TIP3    H2 8066   4.813   1.454   2.505
 2709TIP3   OH2 8067   6.404   1.622   2.648
 2709TIP3    H1 8068   6.450   1.538   2.648
 2709TIP3    H2 8069   6.312   1.599   2.657
 2710TIP3   OH2 8070   0.567   2.057   2.349
 2710TIP3    H1 8071   0.589   2.148   2.332
 2710TIP3    H2 8072   0.501   2.059   2.418
 2711TIP3   OH2 8073   5.976   6.391   2.714
 2711TIP3    H1 8074   5.994   6.467   2.659
 2711TIP3    H2 8075   5.882   6.379   2.707
 2712TIP3   OH2 8076   4.724   2.931   1.902
 2712TIP3    H1 8077   4.770   2.875   1.839
 2712TIP3    H2 8078   4.631   2.916   1.885
 2713TIP3   OH2 8079   2.362   1.039   2.794
 2713TIP3    H1 8080   2.278   1.039   2.748
 2713TIP3    H2 8081   2.417   0.979   2.744
 2714TIP3   OH2 8082   1.948   1.087   2.378
 2714TIP3    H1 8083   1.860   1.065   2.408
 2714TIP3    H2 8084   1.943   1.180   2.356
 2715TIP3   OH2 8085   1.587   3.384   4.982
 2715TIP3    H1 8086   1.624   3.421   5.063
 2715TIP3    H2 8087   1.559   3.296   5.007
 2716TIP3   OH2 8088   7.171   1.770   3.172
 2716TIP3    H1 8089   7.143   1.851   3.215
 2716TIP3    H2 8090   7.150   1.783   3.080
 2717TIP3   OH2 8091   2.181   1.667   2.970
 2717TIP3    H1 8092   2.255   1.649   2.912
 2717TIP3    H2 8093   2.108   1.684   2.910
 2718TIP3   OH2 8094   1.543   4.504   2.509
 2718TIP3    H1 8095   1.615   4.560   2.536
 2718TIP3    H2 8096   1.585   4.428   2.468
 2719TIP3   OH2 8097   6.836   3.182   6.708
 2719TIP3    H1 8098   6.912   3.124   6.704
 2719TIP3    H2 8099   6.872   3.270   6.705
 2720TIP3   OH2 8100   4.526   1.695   1.247
 2720TIP3    H1 8101   4.498   1.776   1.205
 2720TIP3    H2 8102   4.567   1.723   1.329
 2721TIP3   OH2 8103   3.580   5.577   1.981
 2721TIP3    H1 8104   3.548   5.638   1.914
 2721TIP3    H2 8105   3.592   5.632   2.059
 2722TIP3   OH2 8106   6.661   4.020   5.669
 2722TIP3    H1 8107   6.640   4.114   5.667
 2722TIP3    H2 8108   6.634   3.988   5.583
 2723TIP3   OH2 8109   0.866   1.060   0.681
 2723TIP3    H1 8110   0.888   1.042   0.772
 2723TIP3    H2 8111   0.770   1.069   0.680
 2724TIP3   OH2 8112   3.793   6.929   6.350
 2724TIP3    H1 8113   3.698   6.916   6.348
 2724TIP3    H2 8114   3.819   6.926   6.258
 2725TIP3   OH2 8115   3.218   0.923   2.532
 2725TIP3    H1 8116   3.291   0.925   2.470
 2725TIP3    H2 8117   3.225   0.837   2.574
 2726TIP3   OH2 8118   4.325   3.659   5.440
 2726TIP3    H1 8119   4.364   3.643   5.526
 2726TIP3    H2 8120   4.256   3.724   5.456
 2727TIP3   OH2 8121   0.929   1.742   0.131
 2727TIP3    H1 8122   0.956   1.701   0.213
 2727TIP3    H2 8123   0.987   1.818   0.122
 2728TIP3   OH2 8124   3.921   2.939   4.314
 2728TIP3    H1 8125   3.929   2.844   4.310
 2728TIP3    H2 8126   3.883   2.963   4.229
 2729TIP3   OH2 8127   6.453   4.153   2.009
 2729TIP3    H1 8128   6.368   4.193   1.991
 2729TIP3    H2 8129   6.502   4.220   2.057
 2730TIP3   OH2 8130   4.075   6.843   5.681
 2730TIP3    H1 8131   4.097   6.931   5.649
 2730TIP3    H2 8132   4.138   6.826   5.751
 2731TIP3   OH2 8133   4.278   7.143   5.825
 2731TIP3    H1 8134   4.261   7.218   5.768
 2731TIP3    H2 8135   4.196   7.093   5.825
 2732TIP3   OH2 8136   1.289   7.592   4.205
 2732TIP3    H1 8137   1.228   7.556   4.270
 2732TIP3    H2 8138   1.370   7.605   4.254
 2733TIP3   OH2 8139   2.051   5.282   4.213
 2733TIP3    H1 8140   2.071   5.256   4.303
 2733TIP3    H2 8141   2.015   5.370   4.220
 2734TIP3   OH2 8142   4.284   0.486   6.720
 2734TIP3    H1 8143   4.305   0.563   6.773
 2734TIP3    H2 8144   4.190   0.495   6.701
 2735TIP3   OH2 8145   6.450   4.154   3.156
 2735TIP3    H1 8146   6.428   4.064   3.131
 2735TIP3    H2 8147   6.387   4.176   3.224
 2736TIP3   OH2 8148   3.853   5.932   2.828
 2736TIP3    H1 8149   3.923   5.942   2.763
 2736TIP3    H2 8150   3.784   5.992   2.798
 2737TIP3   OH2 8151   1.301   5.273   0.322
 2737TIP3    H1 8152   1.336   5.362   0.323
 2737TIP3    H2 8153   1.228   5.275   0.385
 2738TIP3   OH2 8154   3.453   2.630   4.678
 2738TIP3    H1 8155   3.394   2.697   4.645
 2738TIP3    H2 8156   3.522   2.679   4.724
 2739TIP3   OH2 8157   2.795   4.910   1.937
 2739TIP3    H1 8158   2.726   4.874   1.992
 2739TIP3    H2 8159   2.815   4.839   1.875
 2740TIP3   OH2 8160   7.784   0.092   3.413
 2740TIP3    H1 8161   7.799  -0.001   3.428
 2740TIP3    H2 8162   7.716   0.116   3.476
 2741TIP3   OH2 8163   6.600   4.804   5.129
 2741TIP3    H1 8164   6.668   4.737   5.126
 2741TIP3    H2 8165   6.630   4.867   5.194
 2742TIP3   OH2 8166   2.792   0.013   4.700
 2742TIP3    H1 8167   2.819   0.091   4.652
 2742TIP3    H2 8168   2.779   0.044   4.790
 2743TIP3   OH2 8169   0.425   1.025   0.412
 2743TIP3    H1 8170   0.397   0.933   0.409
 2743TIP3    H2 8171   0.520   1.021   0.402
 2744TIP3   OH2 8172   6.169   4.206   1.979
 2744TIP3    H1 8173   6.137   4.295   1.965
 2744TIP3    H2 8174   6.130   4.155   1.909
 2745TIP3   OH2 8175   0.667   5.287   5.889
 2745TIP3    H1 8176   0.698   5.310   5.801
 2745TIP3    H2 8177   0.667   5.191   5.890
 2746TIP3   OH2 8178   3.634   4.874   0.564
 2746TIP3    H1 8179   3.593   4.806   0.618
 2746TIP3    H2 8180   3.715   4.896   0.611
 2747TIP3   OH2 8181   7.549   1.725   5.041
 2747TIP3    H1 8182   7.527   1.695   5.129
 2747TIP3    H2 8183   7.638   1.759   5.049
 2748TIP3   OH2 8184   4.440   1.494   6.230
 2748TIP3    H1 8185   4.456   1.566   6.291
 2748TIP3    H2 8186   4.500   1.425   6.258
 2749TIP3   OH2 8187   3.490   1.031   2.649
 2749TIP3    H1 8188   3.465   1.122   2.666
 2749TIP3    H2 8189   3.486   1.021   2.554
 2750TIP3   OH2 8190   2.992   1.125   3.624
 2750TIP3    H1 8191   2.906   1.164   3.609
 2750TIP3    H2 8192   2.974   1.032   3.637
 2751TIP3   OH2 8193   3.960   0.196   2.156
 2751TIP3    H1 8194   3.869   0.179   2.183
 2751TIP3    H2 8195   4.011   0.178   2.235
 2752TIP3   OH2 8196   7.879   5.860   2.197
 2752TIP3    H1 8197   7.887   5.872   2.102
 2752TIP3    H2 8198   7.797   5.905   2.219
 2753TIP3   OH2 8199   3.473   0.312   4.084
 2753TIP3    H1 8200   3.471   0.300   3.989
 2753TIP3    H2 8201   3.534   0.246   4.116
 2754TIP3   OH2 8202   1.312   2.872   3.646
 2754TIP3    H1 8203   1.278   2.937   3.585
 2754TIP3    H2 8204   1.397   2.907   3.673
 2755TIP3   OH2 8205   2.632   7.843   4.688
 2755TIP3    H1 8206   2.549   7.872   4.724
 2755TIP3    H2 8207   2.686   7.922   4.686
 2756TIP3   OH2 8208   7.194   3.225   3.172
 2756TIP3    H1 8209   7.275   3.209   3.123
 2756TIP3    H2 8210   7.215   3.300   3.228
 2757TIP3   OH2 8211   7.123   5.529   0.935
 2757TIP3    H1 8212   7.188   5.541   1.004
 2757TIP3    H2 8213   7.132   5.606   0.880
 2758TIP3   OH2 8214   0.259   1.042   4.602
 2758TIP3    H1 8215   0.309   1.112   4.560
 2758TIP3    H2 8216   0.177   1.037   4.552
 2759TIP3   OH2 8217   2.165   0.899   5.196
 2759TIP3    H1 8218   2.076   0.865   5.196
 2759TIP3    H2 8219   2.209   0.849   5.265
 2760TIP3   OH2 8220   1.327   1.163   1.377
 2760TIP3    H1 8221   1.319   1.080   1.425
 2760TIP3    H2 8222   1.309   1.140   1.286
 2761TIP3   OH2 8223   1.028   4.032   4.523
 2761TIP3    H1 8224   1.109   4.077   4.547
 2761TIP3    H2 8225   0.958   4.090   4.552
 2762TIP3   OH2 8226   7.556   4.115   1.859
 2762TIP3    H1 8227   7.652   4.119   1.852
 2762TIP3    H2 8228   7.530   4.051   1.792
 2763TIP3   OH2 8229   5.003   3.814   4.406
 2763TIP3    H1 8230   5.006   3.719   4.394
 2763TIP3    H2 8231   5.095   3.841   4.398
 2764TIP3   OH2 8232   1.582   6.042   2.918
 2764TIP3    H1 8233   1.491   6.035   2.887
 2764TIP3    H2 8234   1.610   5.951   2.929
 2765TIP3   OH2 8235   3.776   1.585   4.982
 2765TIP3    H1 8236   3.703   1.646   4.974
 2765TIP3    H2 8237   3.734   1.498   4.984
 2766TIP3   OH2 8238   7.924   5.315   1.117
 2766TIP3    H1 8239   7.857   5.381   1.138
 2766TIP3    H2 8240   7.936   5.323   1.022
 2767TIP3   OH2 8241   5.069   2.429   2.640
 2767TIP3    H1 8242   5.076   2.525   2.646
 2767TIP3    H2 8243   5.159   2.398   2.652
 2768TIP3   OH2 8244   0.981   6.134   1.427
 2768TIP3    H1 8245   0.909   6.104   1.482
 2768TIP3    H2 8246   0.956   6.223   1.402
 2769TIP3   OH2 8247   4.666   1.954   6.488
 2769TIP3    H1 8248   4.753   1.973   6.524
 2769TIP3    H2 8249   4.624   2.040   6.482
 2770TIP3   OH2 8250   4.469   7.417   3.702
 2770TIP3    H1 8251   4.479   7.418   3.797
 2770TIP3    H2 8252   4.474   7.324   3.679
 2771TIP3   OH2 8253   0.688   1.674   4.274
 2771TIP3    H1 8254   0.676   1.753   4.221
 2771TIP3    H2 8255   0.767   1.691   4.325
 2772TIP3   OH2 8256   0.492   4.139   0.301
 2772TIP3    H1 8257   0.582   4.111   0.287
 2772TIP3    H2 8258   0.457   4.152   0.212
 2773TIP3   OH2 8259   1.558   0.600   5.102
 2773TIP3    H1 8260   1.522   0.610   5.014
 2773TIP3    H2 8261   1.591   0.510   5.105
 2774TIP3   OH2 8262   1.944   1.912   2.427
 2774TIP3    H1 8263   1.873   1.940   2.370
 2774TIP3    H2 8264   1.995   1.991   2.443
 2775TIP3   OH2 8265   5.054   0.529   1.875
 2775TIP3    H1 8266   5.111   0.477   1.820
 2775TIP3    H2 8267   5.070   0.619   1.849
 2776TIP3   OH2 8268   4.918   6.661   1.288
 2776TIP3    H1 8269   4.980   6.727   1.258
 2776TIP3    H2 8270   4.937   6.650   1.381
 2777TIP3   OH2 8271   2.622   4.704   5.068
 2777TIP3    H1 8272   2.562   4.779   5.068
 2777TIP3    H2 8273   2.624   4.675   4.977
 2778TIP3   OH2 8274   1.335   0.085   0.678
 2778TIP3    H1 8275   1.334   0.128   0.593
 2778TIP3    H2 8276   1.246   0.053   0.690
 2779TIP3   OH2 8277   6.035   5.857   5.425
 2779TIP3    H1 8278   6.017   5.780   5.480
 2779TIP3    H2 8279   5.950   5.901   5.417
 2780TIP3   OH2 8280   5.652   7.057   1.120
 2780TIP3    H1 8281   5.594   7.012   1.182
 2780TIP3    H2 8282   5.592   7.099   1.058
 2781TIP3   OH2 8283   5.201   4.861   3.063
 2781TIP3    H1 8284   5.145   4.938   3.066
 2781TIP3    H2 8285   5.232   4.851   3.153
 2782TIP3   OH2 8286   0.328   1.992   3.285
 2782TIP3    H1 8287   0.251   1.947   3.320
 2782TIP3    H2 8288   0.305   2.013   3.195
 2783TIP3   OH2 8289   8.029   7.123   1.827
 2783TIP3    H1 8290   7.977   7.061   1.877
 2783TIP3    H2 8291   7.967   7.191   1.801
 2784TIP3   OH2 8292   1.976   0.546   6.356
 2784TIP3    H1 8293   1.903   0.576   6.409
 2784TIP3    H2 8294   1.951   0.565   6.265
 2785TIP3   OH2 8295   8.289   5.103   5.358
 2785TIP3    H1 8296   8.207   5.102   5.407
 2785TIP3    H2 8297   8.336   5.179   5.392
 2786TIP3   OH2 8298   2.232  -0.005   0.609
 2786TIP3    H1 8299   2.153  -0.016   0.555
 2786TIP3    H2 8300   2.226   0.085   0.641
 2787TIP3   OH2 8301   7.406   2.568   5.620
 2787TIP3    H1 8302   7.343   2.527   5.680
 2787TIP3    H2 8303   7.398   2.662   5.636
 2788TIP3   OH2 8304   2.225   1.742   1.138
 2788TIP3    H1 8305   2.303   1.713   1.185
 2788TIP3    H2 8306   2.239   1.714   1.047
 2789TIP3   OH2 8307   2.612   3.848   0.287
 2789TIP3    H1 8308   2.668   3.891   0.352
 2789TIP3    H2 8309   2.525   3.848   0.327
 2790TIP3   OH2 8310   3.305   5.220   6.234
 2790TIP3    H1 8311   3.316   5.190   6.143
 2790TIP3    H2 8312   3.338   5.310   6.234
 2791TIP3   OH2 8313   2.493   0.458   6.167
 2791TIP3    H1 8314   2.498   0.417   6.253
 2791TIP3    H2 8315   2.404   0.441   6.137
 2792TIP3   OH2 8316   5.987   2.619   3.330
 2792TIP3    H1 8317   6.018   2.627   3.420
 2792TIP3    H2 8318   6.065   2.633   3.276
 2793TIP3   OH2 8319   6.205   6.864   5.817
 2793TIP3    H1 8320   6.126   6.848   5.765
 2793TIP3    H2 8321   6.229   6.778   5.851
 2794TIP3   OH2 8322   7.315   3.842   3.645
 2794TIP3    H1 8323   7.355   3.827   3.731
 2794TIP3    H2 8324   7.389   3.842   3.584
 2795TIP3   OH2 8325   4.263   4.629   2.101
 2795TIP3    H1 8326   4.221   4.586   2.026
 2795TIP3    H2 8327   4.221   4.715   2.105
 2796TIP3   OH2 8328   5.116   7.501   3.595
 2796TIP3    H1 8329   5.133   7.410   3.618
 2796TIP3    H2 8330   5.068   7.496   3.512
 2797TIP3   OH2 8331   0.620   5.910   5.428
 2797TIP3    H1 8332   0.607   5.927   5.335
 2797TIP3    H2 8333   0.710   5.878   5.435
 2798TIP3   OH2 8334   7.925   2.837   1.097
 2798TIP3    H1 8335   7.984   2.855   1.171
 2798TIP3    H2 8336   7.975   2.778   1.041
 2799TIP3   OH2 8337   4.683   4.963   3.595
 2799TIP3    H1 8338   4.729   5.033   3.641
 2799TIP3    H2 8339   4.752   4.915   3.549
 2800TIP3   OH2 8340   6.219   2.211   2.959
 2800TIP3    H1 8341   6.221   2.124   2.918
 2800TIP3    H2 8342   6.300   2.253   2.929
 2801TIP3   OH2 8343   5.416   1.687   6.114
 2801TIP3    H1 8344   5.438   1.775   6.145
 2801TIP3    H2 8345   5.498   1.638   6.122
 2802TIP3   OH2 8346   5.327   3.425   1.589
 2802TIP3    H1 8347   5.372   3.506   1.570
 2802TIP3    H2 8348   5.343   3.369   1.513
 2803TIP3   OH2 8349   2.918   4.441   0.233
 2803TIP3    H1 8350   2.941   4.496   0.158
 2803TIP3    H2 8351   2.888   4.359   0.194
 2804TIP3   OH2 8352   1.177   5.148   2.610
 2804TIP3    H1 8353   1.128   5.068   2.629
 2804TIP3    H2 8354   1.230   5.162   2.689
 2805TIP3   OH2 8355   6.549   2.789   2.300
 2805TIP3    H1 8356   6.581   2.726   2.235
 2805TIP3    H2 8357   6.478   2.742   2.344
 2806TIP3   OH2 8358   7.106   3.699   1.743
 2806TIP3    H1 8359   7.044   3.751   1.793
 2806TIP3    H2 8360   7.056   3.671   1.666
 2807TIP3   OH2 8361   3.784   4.109   4.534
 2807TIP3    H1 8362   3.835   4.057   4.597
 2807TIP3    H2 8363   3.757   4.046   4.467
 2808TIP3   OH2 8364   6.473   4.234   4.756
 2808TIP3    H1 8365   6.507   4.257   4.842
 2808TIP3    H2 8366   6.388   4.278   4.751
 2809TIP3   OH2 8367   7.778   7.250   1.512
 2809TIP3    H1 8368   7.706   7.313   1.519
 2809TIP3    H2 8369   7.816   7.267   1.426
 2810TIP3   OH2 8370   2.054   4.375   3.878
 2810TIP3    H1 8371   2.038   4.458   3.923
 2810TIP3    H2 8372   2.127   4.336   3.926
 2811TIP3   OH2 8373   1.907   6.880   3.174
 2811TIP3    H1 8374   1.933   6.874   3.082
 2811TIP3    H2 8375   1.866   6.966   3.183
 2812TIP3   OH2 8376   7.527   1.388   2.759
 2812TIP3    H1 8377   7.465   1.461   2.755
 2812TIP3    H2 8378   7.576   1.403   2.839
 2813TIP3   OH2 8379   6.004   1.948   6.133
 2813TIP3    H1 8380   6.023   2.041   6.141
 2813TIP3    H2 8381   5.969   1.938   6.044
 2814TIP3   OH2 8382   5.841   6.560   3.502
 2814TIP3    H1 8383   5.796   6.498   3.560
 2814TIP3    H2 8384   5.903   6.605   3.560
 2815TIP3   OH2 8385   5.929   1.702   1.975
 2815TIP3    H1 8386   5.863   1.645   1.935
 2815TIP3    H2 8387   6.013   1.670   1.941
 2816TIP3   OH2 8388   3.351   2.064   0.110
 2816TIP3    H1 8389   3.415   2.102   0.171
 2816TIP3    H2 8390   3.327   1.981   0.150
 2817TIP3   OH2 8391   8.143   2.061   4.911
 2817TIP3    H1 8392   8.225   2.014   4.924
 2817TIP3    H2 8393   8.089   2.038   4.987
 2818TIP3   OH2 8394   1.804   2.225   6.496
 2818TIP3    H1 8395   1.759   2.277   6.430
 2818TIP3    H2 8396   1.868   2.174   6.446
 2819TIP3   OH2 8397   6.749   7.760   4.123
 2819TIP3    H1 8398   6.723   7.808   4.201
 2819TIP3    H2 8399   6.712   7.811   4.050
 2820TIP3   OH2 8400   4.739   2.320   4.219
 2820TIP3    H1 8401   4.690   2.400   4.240
 2820TIP3    H2 8402   4.756   2.326   4.125
 2821TIP3   OH2 8403   3.450   2.234   5.021
 2821TIP3    H1 8404   3.431   2.202   5.109
 2821TIP3    H2 8405   3.448   2.155   4.966
 2822TIP3   OH2 8406   5.431   5.820   6.493
 2822TIP3    H1 8407   5.378   5.884   6.541
 2822TIP3    H2 8408   5.392   5.818   6.406
 2823TIP3   OH2 8409   3.257   4.632   6.490
 2823TIP3    H1 8410   3.233   4.702   6.550
 2823TIP3    H2 8411   3.207   4.649   6.410
 2824TIP3   OH2 8412   1.066   4.594   1.915
 2824TIP3    H1 8413   1.162   4.592   1.914
 2824TIP3    H2 8414   1.041   4.514   1.961
 2825TIP3   OH2 8415   4.983   1.789   5.400
 2825TIP3    H1 8416   5.029   1.749   5.326
 2825TIP3    H2 8417   5.008   1.881   5.397
 2826TIP3   OH2 8418   0.873   2.572   5.512
 2826TIP3    H1 8419   0.868   2.655   5.559
 2826TIP3    H2 8420   0.913   2.511   5.574
 2827TIP3   OH2 8421   2.763   1.758   2.830
 2827TIP3    H1 8422   2.731   1.668   2.828
 2827TIP3    H2 8423   2.805   1.768   2.915
 2828TIP3   OH2 8424   4.313   3.217   3.490
 2828TIP3    H1 8425   4.323   3.194   3.397
 2828TIP3    H2 8426   4.392   3.269   3.509
 2829TIP3   OH2 8427   0.388   0.220   2.574
 2829TIP3    H1 8428   0.436   0.156   2.626
 2829TIP3    H2 8429   0.436   0.302   2.586
 2830TIP3   OH2 8430   6.823   5.144   4.509
 2830TIP3    H1 8431   6.779   5.136   4.594
 2830TIP3    H2 8432   6.914   5.118   4.526
 2831TIP3   OH2 8433   4.879   3.386   0.280
 2831TIP3    H1 8434   4.826   3.393   0.201
 2831TIP3    H2 8435   4.932   3.307   0.266
 2832TIP3   OH2 8436   2.877   7.443   1.047
 2832TIP3    H1 8437   2.905   7.512   0.987
 2832TIP3    H2 8438   2.896   7.361   1.001
 2833TIP3   OH2 8439   6.572   5.490   1.017
 2833TIP3    H1 8440   6.575   5.518   0.925
 2833TIP3    H2 8441   6.591   5.396   1.013
 2834TIP3   OH2 8442   1.682   3.362   1.551
 2834TIP3    H1 8443   1.761   3.365   1.605
 2834TIP3    H2 8444   1.617   3.413   1.600
 2835TIP3   OH2 8445   4.244   4.428   3.452
 2835TIP3    H1 8446   4.298   4.408   3.528
 2835TIP3    H2 8447   4.164   4.466   3.489
 2836TIP3   OH2 8448   7.101   4.730   0.316
 2836TIP3    H1 8449   7.097   4.734   0.220
 2836TIP3    H2 8450   7.029   4.671   0.340
 2837TIP3   OH2 8451   4.452   5.190   4.693
 2837TIP3    H1 8452   4.405   5.175   4.611
 2837TIP3    H2 8453   4.394   5.155   4.761
 2838TIP3   OH2 8454   5.220   4.423   5.636
 2838TIP3    H1 8455   5.253   4.444   5.723
 2838TIP3    H2 8456   5.295   4.435   5.577
 2839TIP3   OH2 8457   7.496   5.578   3.964
 2839TIP3    H1 8458   7.521   5.597   3.874
 2839TIP3    H2 8459   7.461   5.660   3.997
 2840TIP3   OH2 8460   1.798   5.014   4.329
 2840TIP3    H1 8461   1.847   5.096   4.331
 2840TIP3    H2 8462   1.716   5.036   4.286
 2841TIP3   OH2 8463   2.675   4.084   2.083
 2841TIP3    H1 8464   2.758   4.130   2.090
 2841TIP3    H2 8465   2.665   4.039   2.167
 2842TIP3   OH2 8466   1.593   1.185   1.481
 2842TIP3    H1 8467   1.630   1.100   1.459
 2842TIP3    H2 8468   1.503   1.181   1.450
 2843TIP3   OH2 8469   3.821   4.857   2.091
 2843TIP3    H1 8470   3.844   4.921   2.158
 2843TIP3    H2 8471   3.812   4.908   2.011
 2844TIP3   OH2 8472   4.369   2.308   2.236
 2844TIP3    H1 8473   4.287   2.334   2.194
 2844TIP3    H2 8474   4.381   2.216   2.210
 2845TIP3   OH2 8475   5.412   7.506   4.748
 2845TIP3    H1 8476   5.381   7.467   4.667
 2845TIP3    H2 8477   5.490   7.455   4.770
 2846TIP3   OH2 8478   4.316   6.219   3.338
 2846TIP3    H1 8479   4.223   6.200   3.354
 2846TIP3    H2 8480   4.355   6.221   3.426
 2847TIP3   OH2 8481   5.014   4.598   1.463
 2847TIP3    H1 8482   4.966   4.522   1.497
 2847TIP3    H2 8483   4.974   4.614   1.377
 2848TIP3   OH2 8484   4.831   7.397   6.802
 2848TIP3    H1 8485   4.768   7.466   6.785
 2848TIP3    H2 8486   4.916   7.441   6.802
 2849TIP3   OH2 8487   4.211   0.741   3.327
 2849TIP3    H1 8488   4.232   0.655   3.363
 2849TIP3    H2 8489   4.232   0.803   3.397
 2850TIP3   OH2 8490   8.231   6.457   1.637
 2850TIP3    H1 8491   8.297   6.525   1.625
 2850TIP3    H2 8492   8.268   6.399   1.704
 2851TIP3   OH2 8493   3.790   1.062   2.144
 2851TIP3    H1 8494   3.765   1.067   2.052
 2851TIP3    H2 8495   3.846   1.138   2.158
 2852TIP3   OH2 8496   0.176   4.008   5.736
 2852TIP3    H1 8497   0.232   4.086   5.743
 2852TIP3    H2 8498   0.098   4.030   5.786
 2853TIP3   OH2 8499   5.409   0.369   6.329
 2853TIP3    H1 8500   5.373   0.442   6.380
 2853TIP3    H2 8501   5.347   0.359   6.257
 2854TIP3   OH2 8502   2.935   1.996   2.929
 2854TIP3    H1 8503   2.931   2.059   3.001
 2854TIP3    H2 8504   2.925   1.911   2.971
 2855TIP3   OH2 8505   3.423   0.995   4.784
 2855TIP3    H1 8506   3.426   1.035   4.871
 2855TIP3    H2 8507   3.330   0.999   4.759
 2856TIP3   OH2 8508   0.030   1.233   5.778
 2856TIP3    H1 8509   0.114   1.254   5.737
 2856TIP3    H2 8510   0.029   1.137   5.781
 2857TIP3   OH2 8511   4.580   2.492   0.381
 2857TIP3    H1 8512   4.671   2.471   0.358
 2857TIP3    H2 8513   4.555   2.559   0.316
 2858TIP3   OH2 8514   6.840   2.422   1.937
 2858TIP3    H1 8515   6.924   2.390   1.905
 2858TIP3    H2 8516   6.833   2.386   2.025
 2859TIP3   OH2 8517   7.880   5.958   1.582
 2859TIP3    H1 8518   7.890   5.970   1.676
 2859TIP3    H2 8519   7.785   5.951   1.569
 2860TIP3   OH2 8520   1.789   1.705   1.897
 2860TIP3    H1 8521   1.747   1.623   1.924
 2860TIP3    H2 8522   1.850   1.679   1.828
 2861TIP3   OH2 8523   7.292   1.750   0.770
 2861TIP3    H1 8524   7.253   1.785   0.850
 2861TIP3    H2 8525   7.291   1.655   0.782
 2862TIP3   OH2 8526   4.467   3.302   4.768
 2862TIP3    H1 8527   4.478   3.319   4.862
 2862TIP3    H2 8528   4.424   3.381   4.735
 2863TIP3   OH2 8529   6.233   5.825   2.171
 2863TIP3    H1 8530   6.311   5.870   2.139
 2863TIP3    H2 8531   6.171   5.830   2.099
 2864TIP3   OH2 8532   2.759   6.740   1.852
 2864TIP3    H1 8533   2.804   6.810   1.804
 2864TIP3    H2 8534   2.829   6.693   1.897
 2865TIP3   OH2 8535   3.747   2.938   5.409
 2865TIP3    H1 8536   3.685   2.898   5.469
 2865TIP3    H2 8537   3.766   2.869   5.345
 2866TIP3   OH2 8538   8.287   2.258   1.962
 2866TIP3    H1 8539   8.302   2.208   1.881
 2866TIP3    H2 8540   8.236   2.199   2.017
 2867TIP3   OH2 8541   7.743   5.833   5.042
 2867TIP3    H1 8542   7.652   5.859   5.056
 2867TIP3    H2 8543   7.779   5.824   5.130
 2868TIP3   OH2 8544   2.803   1.473   2.043
 2868TIP3    H1 8545   2.778   1.381   2.044
 2868TIP3    H2 8546   2.720   1.520   2.036
 2869TIP3   OH2 8547   7.084   1.633   2.681
 2869TIP3    H1 8548   7.094   1.623   2.586
 2869TIP3    H2 8549   7.093   1.545   2.716
 2870TIP3   OH2 8550   1.285   5.280   4.127
 2870TIP3    H1 8551   1.262   5.209   4.187
 2870TIP3    H2 8552   1.367   5.315   4.161
 2871TIP3   OH2 8553   6.866   6.151   2.890
 2871TIP3    H1 8554   6.830   6.239   2.879
 2871TIP3    H2 8555   6.958   6.159   2.865
 2872TIP3   OH2 8556   1.965   3.661   1.796
 2872TIP3    H1 8557   2.012   3.740   1.769
 2872TIP3    H2 8558   1.872   3.685   1.790
 2873TIP3   OH2 8559   5.579   4.732   3.611
 2873TIP3    H1 8560   5.654   4.693   3.656
 2873TIP3    H2 8561   5.509   4.668   3.620
 2874TIP3   OH2 8562   4.963   4.100   4.464
 2874TIP3    H1 8563   4.925   4.077   4.549
 2874TIP3    H2 8564   4.962   4.019   4.414
 2875TIP3   OH2 8565   4.030   3.265   2.767
 2875TIP3    H1 8566   4.125   3.272   2.768
 2875TIP3    H2 8567   4.013   3.172   2.754
 2876TIP3   OH2 8568   2.854   0.028   3.503
 2876TIP3    H1 8569   2.798   0.025   3.425
 2876TIP3    H2 8570   2.939   0.056   3.471
 2877TIP3   OH2 8571   6.175   3.489   0.758
 2877TIP3    H1 8572   6.179   3.400   0.795
 2877TIP3    H2 8573   6.266   3.511   0.738
 2878TIP3   OH2 8574   7.318   1.863   0.482
 2878TIP3    H1 8575   7.312   1.807   0.559
 2878TIP3    H2 8576   7.252   1.931   0.496
 2879TIP3   OH2 8577   5.541   1.275   1.785
 2879TIP3    H1 8578   5.623   1.231   1.761
 2879TIP3    H2 8579   5.563   1.325   1.864
 2880TIP3   OH2 8580   6.122   0.627   5.730
 2880TIP3    H1 8581   6.068   0.617   5.808
 2880TIP3    H2 8582   6.127   0.721   5.716
 2881TIP3   OH2 8583   5.313   2.308   3.491
 2881TIP3    H1 8584   5.246   2.248   3.522
 2881TIP3    H2 8585   5.318   2.375   3.559
 2882TIP3   OH2 8586   4.502   1.238   4.527
 2882TIP3    H1 8587   4.428   1.266   4.473
 2882TIP3    H2 8588   4.539   1.319   4.562
 2883TIP3   OH2 8589   6.688   2.992   6.070
 2883TIP3    H1 8590   6.676   2.963   5.980
 2883TIP3    H2 8591   6.605   3.033   6.093
 2884TIP3   OH2 8592   4.653   5.195   3.074
 2884TIP3    H1 8593   4.608   5.191   2.990
 2884TIP3    H2 8594   4.605   5.134   3.130
 2885TIP3   OH2 8595   2.159   0.861   1.944
 2885TIP3    H1 8596   2.121   0.852   2.031
 2885TIP3    H2 8597   2.122   0.788   1.894
 2886TIP3   OH2 8598   4.608   5.030   6.223
 2886TIP3    H1 8599   4.653   4.974   6.288
 2886TIP3    H2 8600   4.672   5.040   6.153
 2887TIP3   OH2 8601   4.609   3.756   2.120
 2887TIP3    H1 8602   4.660   3.795   2.191
 2887TIP3    H2 8603   4.564   3.682   2.160
 2888TIP3   OH2 8604   6.466   1.269   5.801
 2888TIP3    H1 8605   6.406   1.341   5.779
 2888TIP3    H2 8606   6.418   1.190   5.778
 2889TIP3   OH2 8607   0.820   3.853   0.795
 2889TIP3    H1 8608   0.783   3.812   0.717
 2889TIP3    H2 8609   0.747   3.902   0.833
 2890TIP3   OH2 8610   0.743   5.495   2.206
 2890TIP3    H1 8611   0.684   5.484   2.280
 2890TIP3    H2 8612   0.760   5.589   2.201
 2891TIP3   OH2 8613   5.827   4.000   3.899
 2891TIP3    H1 8614   5.818   3.915   3.941
 2891TIP3    H2 8615   5.920   4.021   3.908
 2892TIP3   OH2 8616   7.948   5.525   4.132
 2892TIP3    H1 8617   7.970   5.432   4.145
 2892TIP3    H2 8618   7.987   5.547   4.048
 2893TIP3   OH2 8619   1.766   6.851   4.042
 2893TIP3    H1 8620   1.707   6.808   4.104
 2893TIP3    H2 8621   1.785   6.783   3.977
 2894TIP3   OH2 8622   3.155   7.936   2.321
 2894TIP3    H1 8623   3.106   7.857   2.298
 2894TIP3    H2 8624   3.163   7.932   2.416
 2895TIP3   OH2 8625   6.982   3.591   2.631
 2895TIP3    H1 8626   6.954   3.680   2.653
 2895TIP3    H2 8627   7.024   3.559   2.711
 2896TIP3   OH2 8628   7.345   6.417   2.704
 2896TIP3    H1 8629   7.323   6.324   2.705
 2896TIP3    H2 8630   7.308   6.449   2.623
 2897TIP3   OH2 8631   5.706   0.793   2.695
 2897TIP3    H1 8632   5.788   0.832   2.726
 2897TIP3    H2 8633   5.681   0.732   2.765
 2898TIP3   OH2 8634   0.102   3.901   2.103
 2898TIP3    H1 8635   0.149   3.852   2.034
 2898TIP3    H2 8636   0.169   3.919   2.169
 2899TIP3   OH2 8637   2.147   1.537   5.223
 2899TIP3    H1 8638   2.086   1.595   5.268
 2899TIP3    H2 8639   2.143   1.565   5.131
 2900TIP3   OH2 8640   0.476   7.505   1.769
 2900TIP3    H1 8641   0.525   7.439   1.817
 2900TIP3    H2 8642   0.384   7.480   1.780
 2901TIP3   OH2 8643   3.757   2.466   6.433
 2901TIP3    H1 8644   3.667   2.484   6.461
 2901TIP3    H2 8645   3.797   2.422   6.508
 2902TIP3   OH2 8646   0.158   6.815   0.510
 2902TIP3    H1 8647   0.181   6.731   0.549
 2902TIP3    H2 8648   0.126   6.793   0.423
 2903TIP3   OH2 8649   2.312   6.303   1.682
 2903TIP3    H1 8650   2.356   6.237   1.736
 2903TIP3    H2 8651   2.383   6.356   1.646
 2904TIP3   OH2 8652   4.533   1.139   2.976
 2904TIP3    H1 8653   4.543   1.219   2.924
 2904TIP3    H2 8654   4.446   1.107   2.953
 2905TIP3   OH2 8655   7.185   0.045   0.103
 2905TIP3    H1 8656   7.120   0.114   0.112
 2905TIP3    H2 8657   7.269   0.090   0.103
 2906TIP3   OH2 8658   5.285   2.574   5.169
 2906TIP3    H1 8659   5.237   2.558   5.088
 2906TIP3    H2 8660   5.241   2.517   5.234
 2907TIP3   OH2 8661   6.235   6.837   2.029
 2907TIP3    H1 8662   6.284   6.830   1.947
 2907TIP3    H2 8663   6.206   6.748   2.048
 2908TIP3   OH2 8664   0.516   3.469   0.888
 2908TIP3    H1 8665   0.457   3.537   0.919
 2908TIP3    H2 8666   0.535   3.493   0.797
 2909TIP3   OH2 8667   4.588   7.798   5.964
 2909TIP3    H1 8668   4.538   7.872   5.930
 2909TIP3    H2 8669   4.575   7.800   6.059
 2910TIP3   OH2 8670   2.745   3.111   3.773
 2910TIP3    H1 8671   2.700   3.157   3.703
 2910TIP3    H2 8672   2.681   3.047   3.805
 2911TIP3   OH2 8673   3.940   4.006   0.445
 2911TIP3    H1 8674   3.932   4.101   0.434
 2911TIP3    H2 8675   4.017   3.995   0.500
 2912TIP3   OH2 8676   1.065   3.604   1.374
 2912TIP3    H1 8677   1.060   3.667   1.445
 2912TIP3    H2 8678   1.044   3.520   1.415
 2913TIP3   OH2 8679   5.445   2.756   5.336
 2913TIP3    H1 8680   5.370   2.731   5.390
 2913TIP3    H2 8681   5.419   2.735   5.247
 2914TIP3   OH2 8682   6.628   7.627   3.275
 2914TIP3    H1 8683   6.671   7.674   3.347
 2914TIP3    H2 8684   6.659   7.671   3.196
 2915TIP3   OH2 8685   0.787   6.834   6.593
 2915TIP3    H1 8686   0.801   6.925   6.619
 2915TIP3    H2 8687   0.761   6.839   6.501
 2916TIP3   OH2 8688  -0.001   7.032   6.442
 2916TIP3    H1 8689   0.012   7.078   6.359
 2916TIP3    H2 8690   0.069   6.967   6.444
 2917TIP3   OH2 8691   8.292   3.900   4.544
 2917TIP3    H1 8692   8.330   3.960   4.609
 2917TIP3    H2 8693   8.203   3.884   4.576
 2918TIP3   OH2 8694   4.089   2.759   5.637
 2918TIP3    H1 8695   4.162   2.802   5.679
 2918TIP3    H2 8696   4.090   2.790   5.546
 2919TIP3   OH2 8697   6.816   3.598   2.159
 2919TIP3    H1 8698   6.741   3.639   2.116
 2919TIP3    H2 8699   6.821   3.511   2.121
 2920TIP3   OH2 8700   4.144   7.189   6.722
 2920TIP3    H1 8701   4.065   7.188   6.776
 2920TIP3    H2 8702   4.212   7.226   6.778
 2921TIP3   OH2 8703   3.376   7.077   3.055
 2921TIP3    H1 8704   3.372   6.993   3.102
 2921TIP3    H2 8705   3.445   7.066   2.990
 2922TIP3   OH2 8706   3.735   0.388   5.794
 2922TIP3    H1 8707   3.793   0.329   5.842
 2922TIP3    H2 8708   3.792   0.461   5.769
 2923TIP3   OH2 8709   0.130   2.534   3.184
 2923TIP3    H1 8710   0.048   2.506   3.223
 2923TIP3    H2 8711   0.151   2.617   3.227
 2924TIP3   OH2 8712   5.393   2.495   1.477
 2924TIP3    H1 8713   5.479   2.537   1.480
 2924TIP3    H2 8714   5.334   2.563   1.442
 2925TIP3   OH2 8715   7.407   7.586   4.487
 2925TIP3    H1 8716   7.466   7.518   4.454
 2925TIP3    H2 8717   7.374   7.630   4.409
 2926TIP3   OH2 8718   2.051   0.524   3.363
 2926TIP3    H1 8719   2.087   0.601   3.406
 2926TIP3    H2 8720   2.064   0.453   3.426
 2927TIP3   OH2 8721   6.265   6.108   1.202
 2927TIP3    H1 8722   6.267   6.053   1.280
 2927TIP3    H2 8723   6.287   6.196   1.234
 2928TIP3   OH2 8724   2.700   0.410   2.029
 2928TIP3    H1 8725   2.789   0.388   2.056
 2928TIP3    H2 8726   2.647   0.337   2.062
 2929TIP3   OH2 8727   1.597   2.262   5.291
 2929TIP3    H1 8728   1.543   2.291   5.365
 2929TIP3    H2 8729   1.661   2.332   5.279
 2930TIP3   OH2 8730   6.877   5.572   1.772
 2930TIP3    H1 8731   6.881   5.615   1.686
 2930TIP3    H2 8732   6.924   5.631   1.831
 2931TIP3   OH2 8733   5.631   4.257   0.030
 2931TIP3    H1 8734   5.596   4.327   0.084
 2931TIP3    H2 8735   5.579   4.180   0.053
 2932TIP3   OH2 8736   2.704   2.331   5.829
 2932TIP3    H1 8737   2.614   2.302   5.847
 2932TIP3    H2 8738   2.694   2.421   5.799
 2933TIP3   OH2 8739   1.112   3.275   5.235
 2933TIP3    H1 8740   1.125   3.180   5.227
 2933TIP3    H2 8741   1.080   3.302   5.149
 2934TIP3   OH2 8742   1.175   4.221   5.732
 2934TIP3    H1 8743   1.233   4.261   5.667
 2934TIP3    H2 8744   1.193   4.268   5.813
 2935TIP3   OH2 8745   4.949   5.220   0.527
 2935TIP3    H1 8746   4.957   5.170   0.446
 2935TIP3    H2 8747   4.927   5.309   0.498
 2936TIP3   OH2 8748   1.817   0.953   2.055
 2936TIP3    H1 8749   1.803   0.876   2.110
 2936TIP3    H2 8750   1.906   0.942   2.021
 2937TIP3   OH2 8751   1.618   1.489   4.864
 2937TIP3    H1 8752   1.533   1.482   4.908
 2937TIP3    H2 8753   1.629   1.582   4.846
 2938TIP3   OH2 8754   1.682   6.256   0.065
 2938TIP3    H1 8755   1.681   6.205  -0.016
 2938TIP3    H2 8756   1.725   6.338   0.040
 2939TIP3   OH2 8757   3.479   5.397   2.709
 2939TIP3    H1 8758   3.482   5.472   2.649
 2939TIP3    H2 8759   3.461   5.322   2.652
 2940TIP3   OH2 8760   5.704   0.709   0.951
 2940TIP3    H1 8761   5.777   0.732   1.008
 2940TIP3    H2 8762   5.629   0.755   0.988
 2941TIP3   OH2 8763   1.524   7.739   5.532
 2941TIP3    H1 8764   1.463   7.713   5.464
 2941TIP3    H2 8765   1.600   7.682   5.519
 2942TIP3   OH2 8766   2.854   4.763   5.280
 2942TIP3    H1 8767   2.905   4.687   5.309
 2942TIP3    H2 8768   2.763   4.733   5.280
 2943TIP3   OH2 8769   2.905   3.997   0.145
 2943TIP3    H1 8770   2.918   3.903   0.133
 2943TIP3    H2 8771   2.870   4.005   0.234
 2944TIP3   OH2 8772   4.742   3.467   4.770
 2944TIP3    H1 8773   4.807   3.527   4.734
 2944TIP3    H2 8774   4.662   3.520   4.776
 2945TIP3   OH2 8775   0.948   2.001   3.384
 2945TIP3    H1 8776   0.912   1.931   3.439
 2945TIP3    H2 8777   0.871   2.052   3.358
 2946TIP3   OH2 8778   4.890   5.272   2.761
 2946TIP3    H1 8779   4.892   5.273   2.665
 2946TIP3    H2 8780   4.879   5.180   2.784
 2947TIP3   OH2 8781   2.254   2.515   2.685
 2947TIP3    H1 8782   2.186   2.471   2.737
 2947TIP3    H2 8783   2.205   2.571   2.625
 2948TIP3   OH2 8784   0.799   7.347   1.736
 2948TIP3    H1 8785   0.773   7.432   1.772
 2948TIP3    H2 8786   0.789   7.286   1.809
 2949TIP3   OH2 8787   4.237   0.295   1.221
 2949TIP3    H1 8788   4.153   0.310   1.179
 2949TIP3    H2 8789   4.280   0.228   1.166
 2950TIP3   OH2 8790   1.706   4.712   1.904
 2950TIP3    H1 8791   1.791   4.670   1.917
 2950TIP3    H2 8792   1.713   4.754   1.818
 2951TIP3   OH2 8793   4.964   6.641   1.584
 2951TIP3    H1 8794   5.009   6.722   1.608
 2951TIP3    H2 8795   4.902   6.626   1.655
 2952TIP3   OH2 8796   7.304   4.763   1.074
 2952TIP3    H1 8797   7.293   4.855   1.098
 2952TIP3    H2 8798   7.399   4.749   1.075
 2953TIP3   OH2 8799   6.220   6.737   3.262
 2953TIP3    H1 8800   6.267   6.751   3.344
 2953TIP3    H2 8801   6.202   6.643   3.260
 2954TIP3   OH2 8802   5.644   0.875   4.312
 2954TIP3    H1 8803   5.597   0.810   4.260
 2954TIP3    H2 8804   5.597   0.879   4.395
 2955TIP3   OH2 8805   2.686   4.921   2.629
 2955TIP3    H1 8806   2.626   4.942   2.701
 2955TIP3    H2 8807   2.765   4.972   2.648
 2956TIP3   OH2 8808   3.967   0.341   1.174
 2956TIP3    H1 8809   3.996   0.431   1.161
 2956TIP3    H2 8810   3.891   0.348   1.231
 2957TIP3   OH2 8811   7.038   5.953   1.804
 2957TIP3    H1 8812   7.087   5.909   1.735
 2957TIP3    H2 8813   7.017   5.884   1.867
 2958TIP3   OH2 8814   1.079   6.753   3.328
 2958TIP3    H1 8815   1.027   6.679   3.296
 2958TIP3    H2 8816   1.015   6.823   3.342
 2959TIP3   OH2 8817   4.611   0.432   0.538
 2959TIP3    H1 8818   4.581   0.451   0.449
 2959TIP3    H2 8819   4.589   0.511   0.587
 2960TIP3   OH2 8820   0.979   7.362   3.135
 2960TIP3    H1 8821   0.967   7.457   3.138
 2960TIP3    H2 8822   0.931   7.329   3.211
 2961TIP3   OH2 8823   2.294   5.021   2.874
 2961TIP3    H1 8824   2.245   5.095   2.908
 2961TIP3    H2 8825   2.278   5.023   2.780
 2962TIP3   OH2 8826   6.194   1.671   6.076
 2962TIP3    H1 8827   6.278   1.626   6.071
 2962TIP3    H2 8828   6.204   1.749   6.021
 2963TIP3   OH2 8829   6.202   4.590   3.407
 2963TIP3    H1 8830   6.250   4.580   3.489
 2963TIP3    H2 8831   6.111   4.600   3.433
 2964TIP3   OH2 8832   3.528   6.319   6.164
 2964TIP3    H1 8833   3.591   6.307   6.236
 2964TIP3    H2 8834   3.566   6.270   6.091
 2965TIP3   OH2 8835   6.886   3.048   5.424
 2965TIP3    H1 8836   6.981   3.033   5.419
 2965TIP3    H2 8837   6.874   3.098   5.505
 2966TIP3   OH2 8838   5.806   6.596   4.932
 2966TIP3    H1 8839   5.728   6.603   4.987
 2966TIP3    H2 8840   5.772   6.593   4.842
 2967TIP3   OH2 8841   6.482   3.531   6.062
 2967TIP3    H1 8842   6.487   3.600   5.996
 2967TIP3    H2 8843   6.470   3.577   6.145
 2968TIP3   OH2 8844   2.275   5.013   4.116
 2968TIP3    H1 8845   2.276   5.107   4.098
 2968TIP3    H2 8846   2.367   4.992   4.137
 2969TIP3   OH2 8847   1.650   7.027   3.769
 2969TIP3    H1 8848   1.744   7.021   3.754
 2969TIP3    H2 8849   1.611   7.003   3.685
 2970TIP3   OH2 8850   7.657   5.461   2.603
 2970TIP3    H1 8851   7.732   5.484   2.549
 2970TIP3    H2 8852   7.582   5.472   2.545
 2971TIP3   OH2 8853   1.701   0.674   4.591
 2971TIP3    H1 8854   1.631   0.651   4.530
 2971TIP3    H2 8855   1.700   0.769   4.594
 2972TIP3   OH2 8856   2.489   1.350   2.219
 2972TIP3    H1 8857   2.566   1.315   2.175
 2972TIP3    H2 8858   2.415   1.304   2.180
 2973TIP3   OH2 8859   0.636   5.550   0.986
 2973TIP3    H1 8860   0.703   5.606   0.947
 2973TIP3    H2 8861   0.568   5.610   1.016
 2974TIP3   OH2 8862   6.133   3.491   1.573
 2974TIP3    H1 8863   6.159   3.583   1.573
 2974TIP3    H2 8864   6.182   3.451   1.644
 2975TIP3   OH2 8865   7.318   5.160   2.818
 2975TIP3    H1 8866   7.372   5.235   2.795
 2975TIP3    H2 8867   7.354   5.088   2.765
 2976TIP3   OH2 8868   4.669   3.644   2.667
 2976TIP3    H1 8869   4.645   3.552   2.682
 2976TIP3    H2 8870   4.585   3.690   2.657
 2977TIP3   OH2 8871   7.470   1.163   4.609
 2977TIP3    H1 8872   7.496   1.193   4.695
 2977TIP3    H2 8873   7.501   1.072   4.604
 2978TIP3   OH2 8874   8.076   6.639   4.983
 2978TIP3    H1 8875   8.116   6.715   5.026
 2978TIP3    H2 8876   8.031   6.675   4.907
 2979TIP3   OH2 8877   0.777   1.888   0.661
 2979TIP3    H1 8878   0.871   1.898   0.642
 2979TIP3    H2 8879   0.738   1.870   0.575
 2980TIP3   OH2 8880   4.003   5.974   1.682
 2980TIP3    H1 8881   3.936   5.998   1.746
 2980TIP3    H2 8882   3.972   6.013   1.600
 2981TIP3   OH2 8883   1.588   4.073   4.476
 2981TIP3    H1 8884   1.630   4.014   4.413
 2981TIP3    H2 8885   1.623   4.045   4.561
 2982TIP3   OH2 8886  -0.017   2.689   4.949
 2982TIP3    H1 8887   0.006   2.780   4.928
 2982TIP3    H2 8888   0.056   2.638   4.915
 2983TIP3   OH2 8889   0.891   3.378   1.124
 2983TIP3    H1 8890   0.808   3.334   1.106
 2983TIP3    H2 8891   0.867   3.471   1.132
 2984TIP3   OH2 8892   5.540   7.173   0.886
 2984TIP3    H1 8893   5.562   7.263   0.862
 2984TIP3    H2 8894   5.622   7.124   0.876
 2985TIP3   OH2 8895   5.600   7.522   4.206
 2985TIP3    H1 8896   5.607   7.503   4.300
 2985TIP3    H2 8897   5.626   7.440   4.163
 2986TIP3   OH2 8898   5.147   2.547   4.938
 2986TIP3    H1 8899   5.055   2.521   4.940
 2986TIP3    H2 8900   5.188   2.484   4.879
 2987TIP3   OH2 8901   3.805   7.819   3.688
 2987TIP3    H1 8902   3.827   7.912   3.689
 2987TIP3    H2 8903   3.713   7.817   3.661
 2988TIP3   OH2 8904   2.063   4.057   1.816
 2988TIP3    H1 8905   2.125   4.116   1.774
 2988TIP3    H2 8906   2.059   4.087   1.907
 2989TIP3   OH2 8907   7.079   2.772   6.409
 2989TIP3    H1 8908   7.004   2.740   6.459
 2989TIP3    H2 8909   7.154   2.726   6.446
 2990TIP3   OH2 8910   7.558   2.782   1.989
 2990TIP3    H1 8911   7.507   2.837   1.930
 2990TIP3    H2 8912   7.566   2.834   2.069
 2991TIP3   OH2 8913   6.404   5.969   5.518
 2991TIP3    H1 8914   6.480   5.911   5.511
 2991TIP3    H2 8915   6.418   6.036   5.452
 2992TIP3   OH2 8916   1.509   4.647   5.041
 2992TIP3    H1 8917   1.605   4.645   5.035
 2992TIP3    H2 8918   1.479   4.622   4.953
 2993TIP3   OH2 8919   6.671   5.796   4.236
 2993TIP3    H1 8920   6.617   5.839   4.302
 2993TIP3    H2 8921   6.744   5.856   4.221
 2994TIP3   OH2 8922   2.553   2.741   5.197
 2994TIP3    H1 8923   2.474   2.782   5.161
 2994TIP3    H2 8924   2.595   2.700   5.121
 2995TIP3   OH2 8925   0.409   2.055   1.245
 2995TIP3    H1 8926   0.348   1.981   1.238
 2995TIP3    H2 8927   0.487   2.025   1.198
 2996TIP3   OH2 8928   5.750   6.837   5.420
 2996TIP3    H1 8929   5.688   6.864   5.352
 2996TIP3    H2 8930   5.780   6.751   5.392
 2997TIP3   OH2 8931   4.688   0.745   5.375
 2997TIP3    H1 8932   4.766   0.787   5.412
 2997TIP3    H2 8933   4.721   0.695   5.300
 2998TIP3   OH2 8934   8.292   2.218   2.621
 2998TIP3    H1 8935   8.362   2.155   2.635
 2998TIP3    H2 8936   8.237   2.211   2.699
 2999TIP3   OH2 8937   5.045   1.542   1.106
 2999TIP3    H1 8938   5.076   1.621   1.061
 2999TIP3    H2 8939   5.022   1.482   1.035
 3000TIP3   OH2 8940   4.655   5.938   5.704
 3000TIP3    H1 8941   4.676   5.854   5.664
 3000TIP3    H2 8942   4.732   5.960   5.756
 3001TIP3   OH2 8943   4.527   2.908   0.017
 3001TIP3    H1 8944   4.546   2.822  -0.022
 3001TIP3    H2 8945   4.439   2.930  -0.015
 3002TIP3   OH2 8946   7.706   6.755   5.713
 3002TIP3    H1 8947   7.621   6.797   5.702
 3002TIP3    H2 8948   7.686   6.669   5.748
 3003TIP3   OH2 8949   1.037   2.876   4.093
 3003TIP3    H1 8950   1.130   2.896   4.088
 3003TIP3    H2 8951   0.994   2.961   4.091
 3004TIP3   OH2 8952   4.251   1.875   4.825
 3004TIP3    H1 8953   4.298   1.792   4.839
 3004TIP3    H2 8954   4.311   1.927   4.772
 3005TIP3   OH2 8955   3.029   1.660   5.232
 3005TIP3    H1 8956   3.026   1.709   5.315
 3005TIP3    H2 8957   3.086   1.585   5.250
 3006TIP3   OH2 8958   3.200   7.193   0.214
 3006TIP3    H1 8959   3.126   7.160   0.265
 3006TIP3    H2 8960   3.163   7.266   0.164
 3007TIP3   OH2 8961   2.297   0.228   4.299
 3007TIP3    H1 8962   2.328   0.201   4.385
 3007TIP3    H2 8963   2.210   0.188   4.291
 3008TIP3   OH2 8964   2.523   7.684   6.284
 3008TIP3    H1 8965   2.437   7.647   6.262
 3008TIP3    H2 8966   2.507   7.777   6.294
 3009TIP3   OH2 8967   6.683   5.167   4.761
 3009TIP3    H1 8968   6.739   5.182   4.837
 3009TIP3    H2 8969   6.650   5.078   4.773
 3010TIP3   OH2 8970   7.702   3.117   5.822
 3010TIP3    H1 8971   7.686   3.033   5.866
 3010TIP3    H2 8972   7.748   3.092   5.742
 3011TIP3   OH2 8973   7.467   3.273   0.144
 3011TIP3    H1 8974   7.377   3.242   0.151
 3011TIP3    H2 8975   7.476   3.299   0.052
 3012TIP3   OH2 8976   1.857   5.929   4.416
 3012TIP3    H1 8977   1.792   5.884   4.361
 3012TIP3    H2 8978   1.906   5.984   4.355
 3013TIP3   OH2 8979   5.286   3.213   5.303
 3013TIP3    H1 8980   5.336   3.138   5.334
 3013TIP3    H2 8981   5.332   3.290   5.337
 3014TIP3   OH2 8982   5.213   2.178   0.573
 3014TIP3    H1 8983   5.211   2.180   0.668
 3014TIP3    H2 8984   5.193   2.268   0.547
 3015TIP3   OH2 8985   4.403   6.520   0.911
 3015TIP3    H1 8986   4.400   6.510   1.006
 3015TIP3    H2 8987   4.443   6.439   0.879
 3016TIP3   OH2 8988   5.653   5.860   1.047
 3016TIP3    H1 8989   5.685   5.917   1.117
 3016TIP3    H2 8990   5.574   5.904   1.016
 3017TIP3   OH2 8991   0.776   7.637   0.247
 3017TIP3    H1 8992   0.714   7.704   0.220
 3017TIP3    H2 8993   0.733   7.554   0.225
 3018TIP3   OH2 8994   3.699   4.881   4.982
 3018TIP3    H1 8995   3.634   4.868   5.051
 3018TIP3    H2 8996   3.682   4.970   4.950
 3019TIP3   OH2 8997   1.886   0.347   3.583
 3019TIP3    H1 8998   1.808   0.341   3.638
 3019TIP3    H2 8999   1.913   0.256   3.569
 3020TIP3   OH2 9000   5.107   3.746   2.222
 3020TIP3    H1 9001   5.076   3.814   2.163
 3020TIP3    H2 9002   5.055   3.669   2.201
 3021TIP3   OH2 9003   0.918   0.819   5.246
 3021TIP3    H1 9004   0.859   0.864   5.306
 3021TIP3    H2 9005   0.953   0.888   5.189
 3022TIP3   OH2 9006   6.305   5.623   4.956
 3022TIP3    H1 9007   6.248   5.631   5.032
 3022TIP3    H2 9008   6.287   5.702   4.905
 3023TIP3   OH2 9009   3.328   1.053   4.480
 3023TIP3    H1 9010   3.248   1.104   4.472
 3023TIP3    H2 9011   3.298   0.965   4.503
 3024TIP3   OH2 9012   8.285   7.256   2.062
 3024TIP3    H1 9013   8.266   7.316   1.990
 3024TIP3    H2 9014   8.207   7.258   2.117
 3025TIP3   OH2 9015   8.026   5.179   0.132
 3025TIP3    H1 9016   8.070   5.142   0.208
 3025TIP3    H2 9017   8.008   5.104   0.075
 3026TIP3   OH2 9018   4.922   5.886   1.071
 3026TIP3    H1 9019   4.876   5.804   1.058
 3026TIP3    H2 9020   4.986   5.868   1.140
 3027TIP3   OH2 9021   4.550   1.230   6.516
 3027TIP3    H1 9022   4.493   1.175   6.462
 3027TIP3    H2 9023   4.533   1.202   6.605
 3028TIP3   OH2 9024   4.830   7.627   6.554
 3028TIP3    H1 9025   4.759   7.576   6.513
 3028TIP3    H2 9026   4.848   7.697   6.492
 3029TIP3   OH2 9027   4.992   3.995   3.220
 3029TIP3    H1 9028   5.021   4.009   3.310
 3029TIP3    H2 9029   5.011   4.078   3.176
 3030TIP3   OH2 9030   8.323   2.123   0.354
 3030TIP3    H1 9031   8.378   2.122   0.275
 3030TIP3    H2 9032   8.239   2.088   0.326
 3031TIP3   OH2 9033   1.887   6.628   2.882
 3031TIP3    H1 9034   1.967   6.669   2.915
 3031TIP3    H2 9035   1.881   6.545   2.930
 3032TIP3   OH2 9036   3.356   5.841   2.541
 3032TIP3    H1 9037   3.440   5.815   2.504
 3032TIP3    H2 9038   3.317   5.759   2.571
 3033TIP3   OH2 9039   6.595   3.600   1.988
 3033TIP3    H1 9040   6.571   3.507   1.991
 3033TIP3    H2 9041   6.652   3.607   1.912
 3034TIP3   OH2 9042   1.763   6.610   5.406
 3034TIP3    H1 9043   1.765   6.616   5.310
 3034TIP3    H2 9044   1.691   6.550   5.425
 3035TIP3   OH2 9045   4.097   6.731   4.162
 3035TIP3    H1 9046   4.091   6.699   4.072
 3035TIP3    H2 9047   4.137   6.659   4.211
 3036TIP3   OH2 9048   3.073   0.700   0.312
 3036TIP3    H1 9049   3.034   0.769   0.368
 3036TIP3    H2 9050   3.167   0.711   0.324
 3037TIP3   OH2 9051   1.081   4.087   3.145
 3037TIP3    H1 9052   1.108   4.102   3.236
 3037TIP3    H2 9053   1.100   3.995   3.129
 3038TIP3   OH2 9054   7.083   7.054   2.133
 3038TIP3    H1 9055   7.101   7.023   2.044
 3038TIP3    H2 9056   7.019   7.125   2.121
 3039TIP3   OH2 9057   5.402   5.736   5.779
 3039TIP3    H1 9058   5.483   5.772   5.813
 3039TIP3    H2 9059   5.424   5.703   5.692
 3040TIP3   OH2 9060   7.474   3.694   6.368
 3040TIP3    H1 9061   7.383   3.667   6.356
 3040TIP3    H2 9062   7.500   3.654   6.452
 3041TIP3   OH2 9063   3.193   4.080   6.730
 3041TIP3    H1 9064   3.116   4.136   6.719
 3041TIP3    H2 9065   3.187   4.016   6.660
 3042TIP3   OH2 9066   7.087   1.669   6.510
 3042TIP3    H1 9067   7.149   1.721   6.561
 3042TIP3    H2 9068   7.105   1.694   6.419
 3043TIP3   OH2 9069   0.841   7.281   2.860
 3043TIP3    H1 9070   0.881   7.196   2.841
 3043TIP3    H2 9071   0.901   7.323   2.921
 3044TIP3   OH2 9072   5.955   6.009   1.251
 3044TIP3    H1 9073   5.943   5.922   1.215
 3044TIP3    H2 9074   6.026   6.047   1.199
 3045TIP3   OH2 9075   6.068   0.689   2.077
 3045TIP3    H1 9076   6.017   0.696   2.158
 3045TIP3    H2 9077   6.017   0.630   2.021
 3046TIP3   OH2 9078   1.643   4.394   2.113
 3046TIP3    H1 9079   1.634   4.414   2.020
 3046TIP3    H2 9080   1.597   4.311   2.125
 3047TIP3   OH2 9081   6.283   7.409   0.868
 3047TIP3    H1 9082   6.354   7.402   0.932
 3047TIP3    H2 9083   6.290   7.330   0.816
 3048TIP3   OH2 9084   5.845   5.930   2.550
 3048TIP3    H1 9085   5.757   5.968   2.548
 3048TIP3    H2 9086   5.844   5.864   2.481
 3049TIP3   OH2 9087   7.481   2.867   2.285
 3049TIP3    H1 9088   7.477   2.956   2.250
 3049TIP3    H2 9089   7.399   2.857   2.333
 3050TIP3   OH2 9090   7.158   7.179   0.873
 3050TIP3    H1 9091   7.194   7.190   0.785
 3050TIP3    H2 9092   7.233   7.195   0.931
 3051TIP3   OH2 9093   0.843   7.297   4.472
 3051TIP3    H1 9094   0.847   7.312   4.377
 3051TIP3    H2 9095   0.928   7.258   4.493
 3052TIP3   OH2 9096   2.707   1.215   2.124
 3052TIP3    H1 9097   2.774   1.151   2.100
 3052TIP3    H2 9098   2.695   1.203   2.218
 3053TIP3   OH2 9099   4.299   6.607   0.564
 3053TIP3    H1 9100   4.393   6.598   0.578
 3053TIP3    H2 9101   4.291   6.665   0.489
 3054TIP3   OH2 9102   4.198   0.528   2.945
 3054TIP3    H1 9103   4.199   0.566   2.857
 3054TIP3    H2 9104   4.267   0.574   2.992
 3055TIP3   OH2 9105   3.687   0.132   5.211
 3055TIP3    H1 9106   3.740   0.056   5.233
 3055TIP3    H2 9107   3.717   0.158   5.124
 3056TIP3   OH2 9108   3.380   4.906   5.467
 3056TIP3    H1 9109   3.471   4.919   5.440
 3056TIP3    H2 9110   3.377   4.939   5.557
 3057TIP3   OH2 9111   3.884   2.650   0.935
 3057TIP3    H1 9112   3.977   2.670   0.926
 3057TIP3    H2 9113   3.843   2.735   0.950
 3058TIP3   OH2 9114   5.546   4.803   1.401
 3058TIP3    H1 9115   5.470   4.747   1.418
 3058TIP3    H2 9116   5.540   4.825   1.308
 3059TIP3   OH2 9117   3.830   6.660   6.696
 3059TIP3    H1 9118   3.839   6.743   6.744
 3059TIP3    H2 9119   3.881   6.597   6.748
 3060TIP3   OH2 9120   7.015   0.547   0.339
 3060TIP3    H1 9121   7.043   0.528   0.249
 3060TIP3    H2 9122   6.971   0.631   0.333
 3061TIP3   OH2 9123   5.975   1.526   5.619
 3061TIP3    H1 9124   5.984   1.612   5.662
 3061TIP3    H2 9125   5.881   1.516   5.604
 3062TIP3   OH2 9126   1.420   4.572   4.155
 3062TIP3    H1 9127   1.386   4.613   4.076
 3062TIP3    H2 9128   1.458   4.489   4.125
 3063TIP3   OH2 9129   5.247   2.023   2.325
 3063TIP3    H1 9130   5.199   2.071   2.258
 3063TIP3    H2 9131   5.337   2.056   2.318
 3064TIP3   OH2 9132   5.668   0.844   5.115
 3064TIP3    H1 9133   5.751   0.880   5.086
 3064TIP3    H2 9134   5.689   0.756   5.147
 3065TIP3   OH2 9135   7.913   1.680   0.894
 3065TIP3    H1 9136   7.898   1.667   0.987
 3065TIP3    H2 9137   7.946   1.595   0.863
 3066TIP3   OH2 9138   5.360   2.050   4.662
 3066TIP3    H1 9139   5.425   1.983   4.683
 3066TIP3    H2 9140   5.302   2.006   4.599
 3067TIP3   OH2 9141   1.196   2.237   3.368
 3067TIP3    H1 9142   1.115   2.231   3.419
 3067TIP3    H2 9143   1.177   2.303   3.301
 3068TIP3   OH2 9144   7.503   1.882   1.592
 3068TIP3    H1 9145   7.427   1.904   1.539
 3068TIP3    H2 9146   7.467   1.867   1.680
 3069TIP3   OH2 9147   2.551   2.968   6.672
 3069TIP3    H1 9148   2.640   2.976   6.705
 3069TIP3    H2 9149   2.537   2.874   6.663
 3070TIP3   OH2 9150   7.329   3.162   6.389
 3070TIP3    H1 9151   7.348   3.253   6.413
 3070TIP3    H2 9152   7.416   3.123   6.374
 3071TIP3   OH2 9153   4.674   7.452   6.356
 3071TIP3    H1 9154   4.602   7.402   6.318
 3071TIP3    H2 9155   4.707   7.397   6.427
 3072TIP3   OH2 9156   2.821   5.991   0.485
 3072TIP3    H1 9157   2.800   6.084   0.479
 3072TIP3    H2 9158   2.757   5.957   0.549
 3073TIP3   OH2 9159   7.326   3.543   5.423
 3073TIP3    H1 9160   7.397   3.500   5.375
 3073TIP3    H2 9161   7.349   3.534   5.515
 3074TIP3   OH2 9162   4.605   6.140   0.191
 3074TIP3    H1 9163   4.683   6.135   0.246
 3074TIP3    H2 9164   4.551   6.208   0.231
 3075TIP3   OH2 9165   7.773   7.617   1.270
 3075TIP3    H1 9166   7.732   7.601   1.355
 3075TIP3    H2 9167   7.781   7.712   1.264
 3076TIP3   OH2 9168   4.500   5.005   5.571
 3076TIP3    H1 9169   4.575   5.052   5.608
 3076TIP3    H2 9170   4.458   4.963   5.646
 3077TIP3   OH2 9171   4.999   4.777   1.039
 3077TIP3    H1 9172   5.075   4.781   1.097
 3077TIP3    H2 9173   5.034   4.745   0.956
 3078TIP3   OH2 9174   8.008   4.260   4.474
 3078TIP3    H1 9175   7.985   4.266   4.566
 3078TIP3    H2 9176   8.103   4.248   4.473
 3079TIP3   OH2 9177   5.770   2.958   6.732
 3079TIP3    H1 9178   5.737   2.874   6.701
 3079TIP3    H2 9179   5.796   2.942   6.823
 3080TIP3   OH2 9180   4.478   3.930   3.114
 3080TIP3    H1 9181   4.469   3.965   3.203
 3080TIP3    H2 9182   4.572   3.927   3.099
 3081TIP3   OH2 9183   1.149   7.269   1.107
 3081TIP3    H1 9184   1.222   7.207   1.107
 3081TIP3    H2 9185   1.072   7.216   1.085
 3082TIP3   OH2 9186   1.376   3.860   4.344
 3082TIP3    H1 9187   1.453   3.916   4.341
 3082TIP3    H2 9188   1.407   3.775   4.311
 3083TIP3   OH2 9189   0.108   0.255   0.777
 3083TIP3    H1 9190   0.175   0.254   0.709
 3083TIP3    H2 9191   0.052   0.329   0.754
 3084TIP3   OH2 9192   5.127   3.275   6.621
 3084TIP3    H1 9193   5.198   3.236   6.571
 3084TIP3    H2 9194   5.053   3.215   6.610
 3085TIP3   OH2 9195   5.753   5.133   4.174
 3085TIP3    H1 9196   5.747   5.171   4.262
 3085TIP3    H2 9197   5.773   5.208   4.118
 3086TIP3   OH2 9198   2.384   2.400   3.874
 3086TIP3    H1 9199   2.462   2.352   3.848
 3086TIP3    H2 9200   2.380   2.389   3.969
 3087TIP3   OH2 9201   6.662   1.800   0.383
 3087TIP3    H1 9202   6.637   1.819   0.474
 3087TIP3    H2 9203   6.596   1.844   0.330
 3088TIP3   OH2 9204   7.301   0.476   5.675
 3088TIP3    H1 9205   7.234   0.519   5.727
 3088TIP3    H2 9206   7.341   0.547   5.623
 3089TIP3   OH2 9207   3.979   6.504   2.985
 3089TIP3    H1 9208   3.944   6.473   3.069
 3089TIP3    H2 9209   4.072   6.483   2.990
 3090TIP3   OH2 9210   2.550   1.190   5.913
 3090TIP3    H1 9211   2.490   1.228   5.976
 3090TIP3    H2 9212   2.601   1.126   5.963
 3091TIP3   OH2 9213   2.758   7.300   6.816
 3091TIP3    H1 9214   2.723   7.315   6.728
 3091TIP3    H2 9215   2.846   7.265   6.801
 3092TIP3   OH2 9216   5.189   2.760   6.579
 3092TIP3    H1 9217   5.131   2.798   6.644
 3092TIP3    H2 9218   5.195   2.826   6.510
 3093TIP3   OH2 9219   0.510   1.160   3.197
 3093TIP3    H1 9220   0.496   1.244   3.239
 3093TIP3    H2 9221   0.447   1.101   3.239
 3094TIP3   OH2 9222   3.289   4.394   4.647
 3094TIP3    H1 9223   3.308   4.406   4.740
 3094TIP3    H2 9224   3.369   4.422   4.603
 3095TIP3   OH2 9225   7.905   6.772   2.878
 3095TIP3    H1 9226   7.863   6.813   2.953
 3095TIP3    H2 9227   7.951   6.843   2.834
 3096TIP3   OH2 9228   8.123   2.719   4.716
 3096TIP3    H1 9229   8.141   2.654   4.783
 3096TIP3    H2 9230   8.088   2.794   4.764
 3097TIP3   OH2 9231   4.988   7.561   5.043
 3097TIP3    H1 9232   5.047   7.495   5.080
 3097TIP3    H2 9233   4.971   7.530   4.953
 3098TIP3   OH2 9234   4.579   3.510   6.157
 3098TIP3    H1 9235   4.535   3.593   6.177
 3098TIP3    H2 9236   4.662   3.536   6.118
 3099TIP3   OH2 9237   4.182   3.364   6.645
 3099TIP3    H1 9238   4.189   3.343   6.738
 3099TIP3    H2 9239   4.203   3.457   6.641
 3100TIP3   OH2 9240   2.599   3.251   5.824
 3100TIP3    H1 9241   2.608   3.157   5.811
 3100TIP3    H2 9242   2.617   3.265   5.917
 3101TIP3   OH2 9243   5.830   1.432   1.931
 3101TIP3    H1 9244   5.756   1.423   1.991
 3101TIP3    H2 9245   5.789   1.446   1.845
 3102TIP3   OH2 9246   2.216   4.199   6.048
 3102TIP3    H1 9247   2.152   4.266   6.027
 3102TIP3    H2 9248   2.166   4.117   6.048
 3103TIP3   OH2 9249   5.418   0.872   0.394
 3103TIP3    H1 9250   5.333   0.830   0.404
 3103TIP3    H2 9251   5.415   0.948   0.451
 3104TIP3   OH2 9252   3.701   1.709   4.430
 3104TIP3    H1 9253   3.685   1.653   4.354
 3104TIP3    H2 9254   3.766   1.661   4.482
 3105TIP3   OH2 9255   8.309   4.078   0.421
 3105TIP3    H1 9256   8.360   3.998   0.413
 3105TIP3    H2 9257   8.256   4.065   0.500
 3106TIP3   OH2 9258   7.566   7.581   4.048
 3106TIP3    H1 9259   7.567   7.485   4.043
 3106TIP3    H2 9260   7.476   7.605   4.029
 3107TIP3   OH2 9261   5.944   5.421   4.322
 3107TIP3    H1 9262   6.016   5.453   4.269
 3107TIP3    H2 9263   5.967   5.331   4.343
 3108TIP3   OH2 9264   0.423   2.599   6.350
 3108TIP3    H1 9265   0.347   2.651   6.377
 3108TIP3    H2 9266   0.486   2.610   6.422
 3109TIP3   OH2 9267   5.797   2.633   3.600
 3109TIP3    H1 9268   5.885   2.596   3.601
 3109TIP3    H2 9269   5.811   2.727   3.610
 3110TIP3   OH2 9270   1.336   1.063   4.627
 3110TIP3    H1 9271   1.360   1.080   4.536
 3110TIP3    H2 9272   1.241   1.080   4.630
 3111TIP3   OH2 9273   2.129   0.079   1.457
 3111TIP3    H1 9274   2.188   0.144   1.496
 3111TIP3    H2 9275   2.182   0.036   1.390
 3112TIP3   OH2 9276   5.662   0.315   0.665
 3112TIP3    H1 9277   5.573   0.347   0.675
 3112TIP3    H2 9278   5.714   0.369   0.724
 3113TIP3   OH2 9279   0.216   1.468   5.958
 3113TIP3    H1 9280   0.278   1.441   6.026
 3113TIP3    H2 9281   0.247   1.423   5.879
 3114TIP3   OH2 9282   1.388   4.839   0.071
 3114TIP3    H1 9283   1.467   4.800   0.034
 3114TIP3    H2 9284   1.409   4.932   0.080
 3115TIP3   OH2 9285   3.817   5.470   2.425
 3115TIP3    H1 9286   3.801   5.555   2.465
 3115TIP3    H2 9287   3.833   5.489   2.333
 3116TIP3   OH2 9288   5.027   4.605   6.134
 3116TIP3    H1 9289   4.975   4.674   6.092
 3116TIP3    H2 9290   5.031   4.630   6.226
 3117TIP3   OH2 9291   5.220   1.585   1.676
 3117TIP3    H1 9292   5.140   1.554   1.635
 3117TIP3    H2 9293   5.198   1.593   1.769
 3118TIP3   OH2 9294   7.841   2.272   0.416
 3118TIP3    H1 9295   7.918   2.218   0.435
 3118TIP3    H2 9296   7.873   2.362   0.425
 3119TIP3   OH2 9297   4.759   3.939   2.631
 3119TIP3    H1 9298   4.723   3.877   2.567
 3119TIP3    H2 9299   4.703   3.929   2.708
 3120TIP3   OH2 9300   0.760   0.010   4.132
 3120TIP3    H1 9301   0.766   0.077   4.200
 3120TIP3    H2 9302   0.684  -0.043   4.156
 3121TIP3   OH2 9303   2.331   6.434   4.259
 3121TIP3    H1 9304   2.284   6.420   4.342
 3121TIP3    H2 9305   2.297   6.366   4.201
 3122TIP3   OH2 9306   7.364   7.246   6.339
 3122TIP3    H1 9307   7.373   7.279   6.428
 3122TIP3    H2 9308   7.384   7.152   6.346
 3123TIP3   OH2 9309   0.590   7.150   2.161
 3123TIP3    H1 9310   0.614   7.187   2.245
 3123TIP3    H2 9311   0.537   7.073   2.183
 3124TIP3   OH2 9312   6.165   3.341   6.727
 3124TIP3    H1 9313   6.124   3.308   6.646
 3124TIP3    H2 9314   6.247   3.293   6.734
 3125TIP3   OH2 9315   1.595   1.394   6.184
 3125TIP3    H1 9316   1.550   1.366   6.104
 3125TIP3    H2 9317   1.630   1.313   6.221
 3126TIP3   OH2 9318   8.148   7.377   1.396
 3126TIP3    H1 9319   8.213   7.440   1.426
 3126TIP3    H2 9320   8.158   7.302   1.455
 3127TIP3   OH2 9321   0.525   6.540   5.866
 3127TIP3    H1 9322   0.549   6.594   5.791
 3127TIP3    H2 9323   0.529   6.450   5.833
 3128TIP3   OH2 9324   7.470   2.212   2.724
 3128TIP3    H1 9325   7.406   2.192   2.794
 3128TIP3    H2 9326   7.544   2.251   2.770
 3129TIP3   OH2 9327   1.822   7.305   4.185
 3129TIP3    H1 9328   1.811   7.269   4.272
 3129TIP3    H2 9329   1.872   7.239   4.137
 3130TIP3   OH2 9330   1.895   6.434   3.787
 3130TIP3    H1 9331   1.979   6.411   3.827
 3130TIP3    H2 9332   1.868   6.513   3.834
 3131TIP3   OH2 9333   2.164   5.541   4.593
 3131TIP3    H1 9334   2.193   5.546   4.684
 3131TIP3    H2 9335   2.195   5.456   4.563
 3132TIP3   OH2 9336   8.286   2.707   5.874
 3132TIP3    H1 9337   8.267   2.667   5.959
 3132TIP3    H2 9338   8.381   2.718   5.873
 3133TIP3   OH2 9339   6.283   1.865  -0.021
 3133TIP3    H1 9340   6.330   1.947  -0.004
 3133TIP3    H2 9341   6.289   1.816   0.061
 3134TIP3   OH2 9342   0.782   2.336   3.668
 3134TIP3    H1 9343   0.803   2.425   3.696
 3134TIP3    H2 9344   0.700   2.316   3.713
 3135TIP3   OH2 9345   2.770   6.378   4.863
 3135TIP3    H1 9346   2.694   6.360   4.918
 3135TIP3    H2 9347   2.794   6.469   4.885
 3136TIP3   OH2 9348   3.117   2.326   1.051
 3136TIP3    H1 9349   3.115   2.356   0.960
 3136TIP3    H2 9350   3.181   2.383   1.093
 3137TIP3   OH2 9351   7.778   0.163   4.002
 3137TIP3    H1 9352   7.736   0.246   3.976
 3137TIP3    H2 9353   7.847   0.150   3.937
 3138TIP3   OH2 9354   5.428   4.034   1.000
 3138TIP3    H1 9355   5.466   3.986   1.074
 3138TIP3    H2 9356   5.484   4.111   0.990
 3139TIP3   OH2 9357   0.554   2.873   1.218
 3139TIP3    H1 9358   0.635   2.887   1.168
 3139TIP3    H2 9359   0.556   2.941   1.286
 3140TIP3   OH2 9360   6.012   7.183   0.462
 3140TIP3    H1 9361   6.017   7.139   0.377
 3140TIP3    H2 9362   6.046   7.271   0.447
 3141TIP3   OH2 9363   3.349   3.509   6.467
 3141TIP3    H1 9364   3.423   3.540   6.415
 3141TIP3    H2 9365   3.272   3.532   6.415
 3142TIP3   OH2 9366   0.941   7.418   3.561
 3142TIP3    H1 9367   0.997   7.464   3.499
 3142TIP3    H2 9368   0.884   7.365   3.506
 3143TIP3   OH2 9369   3.274   3.575   3.823
 3143TIP3    H1 9370   3.232   3.660   3.805
 3143TIP3    H2 9371   3.215   3.532   3.885
 3144TIP3   OH2 9372   3.045   5.081   5.102
 3144TIP3    H1 9373   3.014   5.122   5.183
 3144TIP3    H2 9374   3.103   5.146   5.063
 3145TIP3   OH2 9375   7.147   3.030   5.393
 3145TIP3    H1 9376   7.167   2.937   5.382
 3145TIP3    H2 9377   7.229   3.075   5.372
 3146TIP3   OH2 9378   2.727   2.651   0.346
 3146TIP3    H1 9379   2.800   2.628   0.288
 3146TIP3    H2 9380   2.649   2.624   0.297
 3147TIP3   OH2 9381   3.247   5.742   0.665
 3147TIP3    H1 9382   3.221   5.741   0.573
 3147TIP3    H2 9383   3.248   5.649   0.690
 3148TIP3   OH2 9384   5.306   0.235   1.552
 3148TIP3    H1 9385   5.243   0.299   1.520
 3148TIP3    H2 9386   5.392   0.272   1.531
 3149TIP3   OH2 9387   5.577   1.352   3.318
 3149TIP3    H1 9388   5.508   1.411   3.347
 3149TIP3    H2 9389   5.542   1.311   3.239
 3150TIP3   OH2 9390   7.210   6.483   5.024
 3150TIP3    H1 9391   7.115   6.493   5.024
 3150TIP3    H2 9392   7.240   6.532   5.101
 3151TIP3   OH2 9393   0.512   1.483   1.118
 3151TIP3    H1 9394   0.485   1.561   1.166
 3151TIP3    H2 9395   0.510   1.413   1.183
 3152TIP3   OH2 9396   1.340   4.624   6.246
 3152TIP3    H1 9397   1.246   4.607   6.244
 3152TIP3    H2 9398   1.350   4.694   6.310
 3153TIP3   OH2 9399   0.307   5.653   4.169
 3153TIP3    H1 9400   0.268   5.566   4.175
 3153TIP3    H2 9401   0.265   5.703   4.239
 3154TIP3   OH2 9402   2.994   0.364   0.799
 3154TIP3    H1 9403   2.946   0.447   0.794
 3154TIP3    H2 9404   2.927   0.298   0.819
 3155TIP3   OH2 9405   3.796   7.783   6.533
 3155TIP3    H1 9406   3.810   7.724   6.459
 3155TIP3    H2 9407   3.719   7.834   6.508
 3156TIP3   OH2 9408   1.172   4.312   6.323
 3156TIP3    H1 9409   1.213   4.366   6.390
 3156TIP3    H2 9410   1.117   4.372   6.273
 3157TIP3   OH2 9411   4.633   4.875   0.398
 3157TIP3    H1 9412   4.629   4.957   0.348
 3157TIP3    H2 9413   4.715   4.835   0.371
 3158TIP3   OH2 9414   7.908   4.991   2.840
 3158TIP3    H1 9415   7.868   5.077   2.829
 3158TIP3    H2 9416   7.964   5.000   2.917
 3159TIP3   OH2 9417   1.720   6.205   5.652
 3159TIP3    H1 9418   1.745   6.115   5.628
 3159TIP3    H2 9419   1.794   6.239   5.702
 3160TIP3   OH2 9420   5.686   4.578   3.919
 3160TIP3    H1 9421   5.741   4.651   3.893
 3160TIP3    H2 9422   5.619   4.617   3.975
 3161TIP3   OH2 9423   4.992   7.210   6.416
 3161TIP3    H1 9424   4.966   7.259   6.494
 3161TIP3    H2 9425   4.961   7.121   6.432
 3162TIP3   OH2 9426   4.801   2.604   1.477
 3162TIP3    H1 9427   4.819   2.668   1.408
 3162TIP3    H2 9428   4.858   2.529   1.456
 3163TIP3   OH2 9429   7.555   0.298   4.525
 3163TIP3    H1 9430   7.602   0.238   4.583
 3163TIP3    H2 9431   7.538   0.375   4.579
 3164TIP3   OH2 9432   4.400   7.096   3.859
 3164TIP3    H1 9433   4.399   7.003   3.880
 3164TIP3    H2 9434   4.340   7.136   3.921
 3165TIP3   OH2 9435   7.037   5.314   4.300
 3165TIP3    H1 9436   7.035   5.374   4.375
 3165TIP3    H2 9437   7.106   5.349   4.244
 3166TIP3   OH2 9438   2.904   1.288   6.248
 3166TIP3    H1 9439   2.939   1.255   6.330
 3166TIP3    H2 9440   2.905   1.383   6.257
 3167TIP3   OH2 9441   3.226   4.577   2.501
 3167TIP3    H1 9442   3.218   4.653   2.443
 3167TIP3    H2 9443   3.162   4.593   2.570
 3168TIP3   OH2 9444   1.324   4.708   0.962
 3168TIP3    H1 9445   1.266   4.634   0.977
 3168TIP3    H2 9446   1.266   4.784   0.959
 3169TIP3   OH2 9447   4.069   1.536   4.928
 3169TIP3    H1 9448   4.102   1.491   5.006
 3169TIP3    H2 9449   3.977   1.554   4.948
 3170TIP3   OH2 9450   4.801   6.035   6.041
 3170TIP3    H1 9451   4.843   6.038   5.955
 3170TIP3    H2 9452   4.809   5.943   6.068
 3171TIP3   OH2 9453   6.865   3.459   6.324
 3171TIP3    H1 9454   6.901   3.473   6.237
 3171TIP3    H2 9455   6.813   3.379   6.316
 3172TIP3   OH2 9456   0.789   4.629   4.443
 3172TIP3    H1 9457   0.738   4.548   4.435
 3172TIP3    H2 9458   0.738   4.682   4.504
 3173TIP3   OH2 9459   5.950   5.822   4.323
 3173TIP3    H1 9460   5.926   5.786   4.238
 3173TIP3    H2 9461   6.017   5.888   4.303
 3174TIP3   OH2 9462   7.582   0.842   2.901
 3174TIP3    H1 9463   7.527   0.909   2.942
 3174TIP3    H2 9464   7.648   0.892   2.853
 3175TIP3   OH2 9465   7.712   3.192   2.359
 3175TIP3    H1 9466   7.708   3.201   2.454
 3175TIP3    H2 9467   7.673   3.107   2.341
 3176TIP3   OH2 9468   5.967   5.758   1.182
 3176TIP3    H1 9469   5.963   5.724   1.092
 3176TIP3    H2 9470   6.048   5.723   1.218
 3177TIP3   OH2 9471   4.201   7.918   0.435
 3177TIP3    H1 9472   4.210   8.010   0.411
 3177TIP3    H2 9473   4.259   7.872   0.375
 3178TIP3   OH2 9474   3.252   3.474   4.549
 3178TIP3    H1 9475   3.298   3.441   4.472
 3178TIP3    H2 9476   3.300   3.553   4.574
 3179TIP3   OH2 9477   1.601   4.264   5.387
 3179TIP3    H1 9478   1.534   4.295   5.326
 3179TIP3    H2 9479   1.667   4.222   5.331
 3180TIP3   OH2 9480   3.461   2.002   3.274
 3180TIP3    H1 9481   3.493   1.943   3.206
 3180TIP3    H2 9482   3.385   1.958   3.311
 3181TIP3   OH2 9483   7.752   0.023   4.791
 3181TIP3    H1 9484   7.799   0.104   4.808
 3181TIP3    H2 9485   7.764   0.005   4.698
 3182TIP3   OH2 9486   0.848   1.236   5.872
 3182TIP3    H1 9487   0.776   1.281   5.827
 3182TIP3    H2 9488   0.914   1.304   5.887
 3183TIP3   OH2 9489   7.319   5.852   3.809
 3183TIP3    H1 9490   7.296   5.847   3.901
 3183TIP3    H2 9491   7.307   5.945   3.786
 3184TIP3   OH2 9492   1.374   4.626   0.611
 3184TIP3    H1 9493   1.462   4.619   0.575
 3184TIP3    H2 9494   1.319   4.644   0.535
 3185TIP3   OH2 9495   2.030   4.471   3.242
 3185TIP3    H1 9496   2.079   4.518   3.309
 3185TIP3    H2 9497   2.047   4.520   3.161
 3186TIP3   OH2 9498   1.584   1.888   1.915
 3186TIP3    H1 9499   1.608   1.948   1.844
 3186TIP3    H2 9500   1.653   1.822   1.914
 3187TIP3   OH2 9501   0.653   0.448   5.367
 3187TIP3    H1 9502   0.684   0.514   5.304
 3187TIP3    H2 9503   0.613   0.499   5.437
 3188TIP3   OH2 9504   1.715   2.326   4.049
 3188TIP3    H1 9505   1.720   2.418   4.075
 3188TIP3    H2 9506   1.637   2.293   4.095
 3189TIP3   OH2 9507   3.638   0.500   1.781
 3189TIP3    H1 9508   3.699   0.445   1.830
 3189TIP3    H2 9509   3.678   0.509   1.694
 3190TIP3   OH2 9510   8.338   5.526   2.063
 3190TIP3    H1 9511   8.322   5.477   2.143
 3190TIP3    H2 9512   8.327   5.617   2.088
 3191TIP3   OH2 9513   0.645   1.335   0.549
 3191TIP3    H1 9514   0.638   1.349   0.455
 3191TIP3    H2 9515   0.732   1.367   0.572
 3192TIP3   OH2 9516   7.405   3.670   4.278
 3192TIP3    H1 9517   7.429   3.592   4.329
 3192TIP3    H2 9518   7.428   3.744   4.334
 3193TIP3   OH2 9519   6.222   2.818   0.533
 3193TIP3    H1 9520   6.241   2.801   0.441
 3193TIP3    H2 9521   6.308   2.813   0.576
 3194TIP3   OH2 9522   7.778   1.418   6.011
 3194TIP3    H1 9523   7.690   1.403   6.047
 3194TIP3    H2 9524   7.777   1.373   5.927
 3195TIP3   OH2 9525   6.496   3.754   4.598
 3195TIP3    H1 9526   6.498   3.721   4.688
 3195TIP3    H2 9527   6.532   3.682   4.545
 3196TIP3   OH2 9528   6.573   5.393   4.167
 3196TIP3    H1 9529   6.559   5.487   4.180
 3196TIP3    H2 9530   6.503   5.367   4.107
 3197TIP3   OH2 9531   7.970   2.318   3.067
 3197TIP3    H1 9532   8.033   2.382   3.034
 3197TIP3    H2 9533   7.886   2.348   3.034
 3198TIP3   OH2 9534   0.822   6.390   0.072
 3198TIP3    H1 9535   0.757   6.321   0.071
 3198TIP3    H2 9536   0.906   6.345   0.064
 3199TIP3   OH2 9537   2.348   6.873   2.542
 3199TIP3    H1 9538   2.294   6.938   2.499
 3199TIP3    H2 9539   2.410   6.845   2.475
 3200TIP3   OH2 9540   1.766   2.043   4.411
 3200TIP3    H1 9541   1.711   2.090   4.474
 3200TIP3    H2 9542   1.849   2.091   4.411
 3201TIP3   OH2 9543   2.260   5.882   3.795
 3201TIP3    H1 9544   2.214   5.800   3.814
 3201TIP3    H2 9545   2.240   5.899   3.702
 3202TIP3   OH2 9546   7.812   2.333   1.102
 3202TIP3    H1 9547   7.864   2.304   1.027
 3202TIP3    H2 9548   7.736   2.274   1.102
 3203TIP3   OH2 9549   8.000   2.079   4.666
 3203TIP3    H1 9550   8.001   2.009   4.601
 3203TIP3    H2 9551   8.058   2.048   4.736
 3204TIP3   OH2 9552   4.444   5.801   1.310
 3204TIP3    H1 9553   4.403   5.733   1.362
 3204TIP3    H2 9554   4.451   5.764   1.222
 3205TIP3   OH2 9555   4.812   1.883   2.835
 3205TIP3    H1 9556   4.749   1.954   2.846
 3205TIP3    H2 9557   4.777   1.831   2.763
 3206TIP3   OH2 9558   8.078   6.595   5.870
 3206TIP3    H1 9559   8.037   6.568   5.788
 3206TIP3    H2 9560   8.168   6.563   5.863
 3207TIP3   OH2 9561   8.034   6.016   2.673
 3207TIP3    H1 9562   8.021   5.972   2.756
 3207TIP3    H2 9563   8.080   5.952   2.618
 3208TIP3   OH2 9564   4.206   1.922   3.827
 3208TIP3    H1 9565   4.263   1.982   3.781
 3208TIP3    H2 9566   4.205   1.843   3.773
 3209TIP3   OH2 9567   5.605   4.141   3.764
 3209TIP3    H1 9568   5.546   4.162   3.836
 3209TIP3    H2 9569   5.688   4.116   3.807
 3210TIP3   OH2 9570   2.892   1.841   3.586
 3210TIP3    H1 9571   2.833   1.779   3.545
 3210TIP3    H2 9572   2.857   1.853   3.674
 3211TIP3   OH2 9573   4.585   0.123   6.695
 3211TIP3    H1 9574   4.638   0.185   6.745
 3211TIP3    H2 9575   4.497   0.159   6.698
 3212TIP3   OH2 9576   0.680   2.607   6.463
 3212TIP3    H1 9577   0.735   2.578   6.536
 3212TIP3    H2 9578   0.741   2.629   6.394
 3213TIP3   OH2 9579   6.605   4.300   2.529
 3213TIP3    H1 9580   6.663   4.248   2.472
 3213TIP3    H2 9581   6.619   4.390   2.500
 3214TIP3   OH2 9582   3.637   3.979   5.187
 3214TIP3    H1 9583   3.730   4.000   5.195
 3214TIP3    H2 9584   3.619   3.922   5.262
 3215TIP3   OH2 9585   6.212   4.808   0.063
 3215TIP3    H1 9586   6.188   4.901   0.058
 3215TIP3    H2 9587   6.190   4.772  -0.023
 3216TIP3   OH2 9588   0.881   5.789   3.591
 3216TIP3    H1 9589   0.937   5.712   3.579
 3216TIP3    H2 9590   0.792   5.753   3.595
 3217TIP3   OH2 9591   0.584   7.768   1.748
 3217TIP3    H1 9592   0.527   7.844   1.740
 3217TIP3    H2 9593   0.529   7.695   1.719
 3218TIP3   OH2 9594   2.420   0.426   4.160
 3218TIP3    H1 9595   2.366   0.505   4.165
 3218TIP3    H2 9596   2.367   0.358   4.201
 3219TIP3   OH2 9597   2.062   2.337   5.882
 3219TIP3    H1 9598   2.076   2.293   5.798
 3219TIP3    H2 9599   2.108   2.420   5.874
 3220TIP3   OH2 9600   3.863   7.619   1.041
 3220TIP3    H1 9601   3.835   7.710   1.033
 3220TIP3    H2 9602   3.835   7.594   1.129
 3221TIP3   OH2 9603   0.440   4.474   5.667
 3221TIP3    H1 9604   0.448   4.529   5.589
 3221TIP3    H2 9605   0.526   4.479   5.708
 3222TIP3   OH2 9606   4.830   4.909   5.589
 3222TIP3    H1 9607   4.798   4.829   5.549
 3222TIP3    H2 9608   4.818   4.896   5.683
 3223TIP3   OH2 9609   2.407   4.042   1.762
 3223TIP3    H1 9610   2.389   4.000   1.846
 3223TIP3    H2 9611   2.502   4.036   1.752
 3224TIP3   OH2 9612   5.530   0.739   0.124
 3224TIP3    H1 9613   5.491   0.780   0.202
 3224TIP3    H2 9614   5.492   0.788   0.051
 3225TIP3   OH2 9615   3.376   3.071   0.984
 3225TIP3    H1 9616   3.456   3.067   0.932
 3225TIP3    H2 9617   3.400   3.120   1.062
 3226TIP3   OH2 9618   4.987   5.913   5.379
 3226TIP3    H1 9619   4.964   5.956   5.461
 3226TIP3    H2 9620   4.956   5.973   5.311
 3227TIP3   OH2 9621   0.397   7.083   6.599
 3227TIP3    H1 9622   0.423   7.116   6.513
 3227TIP3    H2 9623   0.420   6.990   6.598
 3228TIP3   OH2 9624   7.656   6.398   4.971
 3228TIP3    H1 9625   7.742   6.428   4.942
 3228TIP3    H2 9626   7.669   6.306   4.995
 3229TIP3   OH2 9627   7.551   2.925   2.965
 3229TIP3    H1 9628   7.552   2.850   3.024
 3229TIP3    H2 9629   7.518   2.998   3.018
 3230TIP3   OH2 9630   3.513   7.657   1.589
 3230TIP3    H1 9631   3.516   7.732   1.649
 3230TIP3    H2 9632   3.419   7.643   1.574
 3231TIP3   OH2 9633   2.259   7.111   6.272
 3231TIP3    H1 9634   2.283   7.036   6.326
 3231TIP3    H2 9635   2.163   7.106   6.266
 3232TIP3   OH2 9636   4.977   4.841   5.031
 3232TIP3    H1 9637   4.912   4.911   5.042
 3232TIP3    H2 9638   5.001   4.846   4.939
 3233TIP3   OH2 9639   7.339   5.907   0.139
 3233TIP3    H1 9640   7.428   5.905   0.103
 3233TIP3    H2 9641   7.307   5.995   0.119
 3234TIP3   OH2 9642   1.788   4.925   6.627
 3234TIP3    H1 9643   1.713   4.970   6.668
 3234TIP3    H2 9644   1.856   4.992   6.621
 3235TIP3   OH2 9645   3.799   2.286   3.091
 3235TIP3    H1 9646   3.848   2.350   3.142
 3235TIP3    H2 9647   3.743   2.338   3.033
 3236TIP3   OH2 9648   2.736   6.174   5.230
 3236TIP3    H1 9649   2.699   6.170   5.318
 3236TIP3    H2 9650   2.712   6.090   5.190
 3237TIP3   OH2 9651   5.932   7.611   0.046
 3237TIP3    H1 9652   6.025   7.596   0.025
 3237TIP3    H2 9653   5.925   7.706   0.054
 3238TIP3   OH2 9654   1.216   1.945   5.292
 3238TIP3    H1 9655   1.304   1.969   5.320
 3238TIP3    H2 9656   1.216   1.849   5.291
 3239TIP3   OH2 9657   5.197   7.820   5.453
 3239TIP3    H1 9658   5.150   7.741   5.427
 3239TIP3    H2 9659   5.272   7.788   5.503
 3240TIP3   OH2 9660   3.975   0.046   0.091
 3240TIP3    H1 9661   4.018   0.008   0.168
 3240TIP3    H2 9662   3.902  -0.013   0.073
 3241TIP3   OH2 9663   2.196   1.363   2.225
 3241TIP3    H1 9664   2.146   1.344   2.146
 3241TIP3    H2 9665   2.129   1.375   2.293
 3242TIP3   OH2 9666   7.787   3.568   0.208
 3242TIP3    H1 9667   7.722   3.637   0.223
 3242TIP3    H2 9668   7.860   3.613   0.166
 3243TIP3   OH2 9669   5.019   4.014   4.011
 3243TIP3    H1 9670   5.112   4.024   4.030
 3243TIP3    H2 9671   5.012   3.925   3.976
 3244TIP3   OH2 9672   7.720   6.667   2.323
 3244TIP3    H1 9673   7.646   6.642   2.377
 3244TIP3    H2 9674   7.708   6.761   2.307
 3245TIP3   OH2 9675   1.484   7.649   3.647
 3245TIP3    H1 9676   1.461   7.723   3.702
 3245TIP3    H2 9677   1.417   7.648   3.578
 3246TIP3   OH2 9678   1.018   4.427   5.635
 3246TIP3    H1 9679   1.073   4.485   5.584
 3246TIP3    H2 9680   1.079   4.361   5.670
 3247TIP3   OH2 9681   3.280   3.933   3.895
 3247TIP3    H1 9682   3.324   3.972   3.970
 3247TIP3    H2 9683   3.187   3.940   3.915
 3248TIP3   OH2 9684   4.151   7.101   5.174
 3248TIP3    H1 9685   4.205   7.029   5.140
 3248TIP3    H2 9686   4.089   7.058   5.233
 3249TIP3   OH2 9687   1.810   2.355   3.794
 3249TIP3    H1 9688   1.782   2.343   3.885
 3249TIP3    H2 9689   1.729   2.348   3.743
 3250TIP3   OH2 9690   6.031   5.124   3.466
 3250TIP3    H1 9691   6.037   5.219   3.482
 3250TIP3    H2 9692   6.122   5.094   3.470
 3251TIP3   OH2 9693   5.846   0.354   5.199
 3251TIP3    H1 9694   5.891   0.311   5.271
 3251TIP3    H2 9695   5.766   0.303   5.187
 3252TIP3   OH2 9696   1.133   7.089   1.754
 3252TIP3    H1 9697   1.109   7.002   1.722
 3252TIP3    H2 9698   1.120   7.146   1.678
 3253TIP3   OH2 9699   8.404   3.589   5.620
 3253TIP3    H1 9700   8.349   3.555   5.550
 3253TIP3    H2 9701   8.392   3.527   5.692
 3254TIP3   OH2 9702   5.822   4.512   2.467
 3254TIP3    H1 9703   5.797   4.492   2.377
 3254TIP3    H2 9704   5.754   4.471   2.520
 3255TIP3   OH2 9705   5.060   0.092   3.307
 3255TIP3    H1 9706   4.985   0.140   3.271
 3255TIP3    H2 9707   5.026   0.047   3.384
 3256TIP3   OH2 9708   7.603   0.349   2.976
 3256TIP3    H1 9709   7.511   0.373   2.985
 3256TIP3    H2 9710   7.634   0.398   2.900
 3257TIP3   OH2 9711   8.293   0.626   5.816
 3257TIP3    H1 9712   8.212   0.667   5.848
 3257TIP3    H2 9713   8.293   0.646   5.722
 3258TIP3   OH2 9714   0.120   4.501   6.506
 3258TIP3    H1 9715   0.194   4.476   6.450
 3258TIP3    H2 9716   0.127   4.596   6.511
 3259TIP3   OH2 9717   5.152   2.142   6.844
 3259TIP3    H1 9718   5.194   2.226   6.828
 3259TIP3    H2 9719   5.058   2.160   6.840
 3260TIP3   OH2 9720   7.470   5.790   1.045
 3260TIP3    H1 9721   7.449   5.809   0.953
 3260TIP3    H2 9722   7.399   5.832   1.094
 3261TIP3   OH2 9723   3.182   5.013   6.356
 3261TIP3    H1 9724   3.228   5.071   6.295
 3261TIP3    H2 9725   3.095   5.051   6.363
 3262TIP3   OH2 9726   6.136   6.223   0.742
 3262TIP3    H1 9727   6.126   6.203   0.835
 3262TIP3    H2 9728   6.229   6.204   0.724
 3263TIP3   OH2 9729   7.801   1.523   1.849
 3263TIP3    H1 9730   7.895   1.510   1.860
 3263TIP3    H2 9731   7.791   1.618   1.838
 3264TIP3   OH2 9732   1.690   1.026   2.455
 3264TIP3    H1 9733   1.619   0.962   2.447
 3264TIP3    H2 9734   1.671   1.092   2.388
 3265TIP3   OH2 9735   6.656   4.657   5.605
 3265TIP3    H1 9736   6.718   4.599   5.562
 3265TIP3    H2 9737   6.710   4.724   5.647
 3266TIP3   OH2 9738   0.164   0.285   3.220
 3266TIP3    H1 9739   0.130   0.360   3.171
 3266TIP3    H2 9740   0.135   0.209   3.171
 3267TIP3   OH2 9741   2.360   2.976   4.426
 3267TIP3    H1 9742   2.330   2.898   4.380
 3267TIP3    H2 9743   2.443   2.949   4.467
 3268TIP3   OH2 9744   2.390   5.459   1.320
 3268TIP3    H1 9745   2.410   5.512   1.397
 3268TIP3    H2 9746   2.473   5.454   1.273
 3269TIP3   OH2 9747   5.975   7.108   5.916
 3269TIP3    H1 9748   5.887   7.079   5.892
 3269TIP3    H2 9749   6.012   7.140   5.834
 3270TIP3   OH2 9750   2.982   2.417   0.048
 3270TIP3    H1 9751   3.073   2.404   0.074
 3270TIP3    H2 9752   2.983   2.494  -0.009
 3271TIP3   OH2 9753   7.451   2.095   2.471
 3271TIP3    H1 9754   7.466   2.130   2.558
 3271TIP3    H2 9755   7.415   2.169   2.421
 3272TIP3   OH2 9756   8.299   0.162   6.581
 3272TIP3    H1 9757   8.298   0.109   6.661
 3272TIP3    H2 9758   8.217   0.210   6.583
 3273TIP3   OH2 9759   5.744   1.123   6.087
 3273TIP3    H1 9760   5.694   1.154   6.162
 3273TIP3    H2 9761   5.760   1.201   6.034
 3274TIP3   OH2 9762   7.662   4.886   1.317
 3274TIP3    H1 9763   7.656   4.885   1.412
 3274TIP3    H2 9764   7.699   4.972   1.296
 3275TIP3   OH2 9765   1.578   2.368   1.201
 3275TIP3    H1 9766   1.571   2.440   1.138
 3275TIP3    H2 9767   1.533   2.400   1.279
 3276TIP3   OH2 9768   2.999   4.675   4.440
 3276TIP3    H1 9769   3.062   4.725   4.491
 3276TIP3    H2 9770   2.934   4.739   4.412
 3277TIP3   OH2 9771   7.159   4.064   1.933
 3277TIP3    H1 9772   7.151   4.134   1.997
 3277TIP3    H2 9773   7.144   4.107   1.848
 3278TIP3   OH2 9774   2.086   5.572   3.076
 3278TIP3    H1 9775   2.019   5.552   3.142
 3278TIP3    H2 9776   2.038   5.602   3.000
 3279TIP3   OH2 9777   5.179   1.475   3.715
 3279TIP3    H1 9778   5.154   1.567   3.719
 3279TIP3    H2 9779   5.140   1.443   3.634
 3280TIP3   OH2 9780   2.422   2.540   0.643
 3280TIP3    H1 9781   2.515   2.549   0.623
 3280TIP3    H2 9782   2.403   2.447   0.631
 3281TIP3   OH2 9783   2.956   2.079   1.405
 3281TIP3    H1 9784   2.963   2.006   1.466
 3281TIP3    H2 9785   3.047   2.104   1.386
 3282TIP3   OH2 9786   1.812   0.974   1.706
 3282TIP3    H1 9787   1.804   0.999   1.613
 3282TIP3    H2 9788   1.881   1.031   1.740
 3283TIP3   OH2 9789   0.754   7.476   5.516
 3283TIP3    H1 9790   0.824   7.535   5.546
 3283TIP3    H2 9791   0.682   7.491   5.578
 3284TIP3   OH2 9792   6.461   4.968   3.989
 3284TIP3    H1 9793   6.489   4.953   4.080
 3284TIP3    H2 9794   6.541   4.995   3.944
 3285TIP3   OH2 9795   1.359   2.808   6.787
 3285TIP3    H1 9796   1.416   2.852   6.724
 3285TIP3    H2 9797   1.417   2.790   6.862
 3286TIP3   OH2 9798   5.332   6.363   5.853
 3286TIP3    H1 9799   5.376   6.448   5.855
 3286TIP3    H2 9800   5.254   6.374   5.906
 3287TIP3   OH2 9801   7.771   1.785   5.279
 3287TIP3    H1 9802   7.802   1.705   5.322
 3287TIP3    H2 9803   7.727   1.834   5.348
 3288TIP3   OH2 9804   1.863   1.862   3.089
 3288TIP3    H1 9805   1.837   1.920   3.017
 3288TIP3    H2 9806   1.781   1.824   3.120
 3289TIP3   OH2 9807   5.545   4.146   5.643
 3289TIP3    H1 9808   5.485   4.111   5.709
 3289TIP3    H2 9809   5.586   4.069   5.604
 3290TIP3   OH2 9810   7.130   0.875   4.428
 3290TIP3    H1 9811   7.123   0.867   4.333
 3290TIP3    H2 9812   7.063   0.815   4.462
 3291TIP3   OH2 9813   6.195   6.795   2.533
 3291TIP3    H1 9814   6.274   6.818   2.484
 3291TIP3    H2 9815   6.142   6.875   2.531
 3292TIP3   OH2 9816   3.060   1.322   2.594
 3292TIP3    H1 9817   2.967   1.315   2.619
 3292TIP3    H2 9818   3.058   1.350   2.503
 3293TIP3   OH2 9819   6.749   7.747   5.515
 3293TIP3    H1 9820   6.694   7.715   5.443
 3293TIP3    H2 9821   6.815   7.679   5.526
 3294TIP3   OH2 9822   1.818   6.126   1.432
 3294TIP3    H1 9823   1.727   6.141   1.407
 3294TIP3    H2 9824   1.863   6.207   1.407
 3295TIP3   OH2 9825   3.366   6.068   4.303
 3295TIP3    H1 9826   3.446   6.048   4.352
 3295TIP3    H2 9827   3.347   6.159   4.324
 3296TIP3   OH2 9828   5.539   5.413   1.341
 3296TIP3    H1 9829   5.604   5.474   1.307
 3296TIP3    H2 9830   5.538   5.342   1.278
 3297TIP3   OH2 9831   1.790   6.008   2.069
 3297TIP3    H1 9832   1.842   6.083   2.041
 3297TIP3    H2 9833   1.699   6.035   2.055
 3298TIP3   OH2 9834   1.079   7.126   3.085
 3298TIP3    H1 9835   1.000   7.081   3.115
 3298TIP3    H2 9836   1.053   7.218   3.080
 3299TIP3   OH2 9837   6.843   5.409   5.666
 3299TIP3    H1 9838   6.927   5.373   5.694
 3299TIP3    H2 9839   6.866   5.492   5.624
 3300TIP3   OH2 9840   3.151   6.838   3.985
 3300TIP3    H1 9841   3.212   6.866   3.917
 3300TIP3    H2 9842   3.130   6.919   4.033
 3301TIP3   OH2 9843   6.471   1.901   0.892
 3301TIP3    H1 9844   6.394   1.913   0.948
 3301TIP3    H2 9845   6.469   1.808   0.868
 3302TIP3   OH2 9846   4.586   2.767   4.097
 3302TIP3    H1 9847   4.614   2.833   4.161
 3302TIP3    H2 9848   4.667   2.738   4.055
 3303TIP3   OH2 9849   3.442   7.193   3.607
 3303TIP3    H1 9850   3.490   7.111   3.621
 3303TIP3    H2 9851   3.401   7.212   3.691
 3304TIP3   OH2 9852   0.428   2.106   4.887
 3304TIP3    H1 9853   0.500   2.046   4.865
 3304TIP3    H2 9854   0.467   2.170   4.946
 3305TIP3   OH2 9855   2.771   2.910   4.394
 3305TIP3    H1 9856   2.844   2.849   4.395
 3305TIP3    H2 9857   2.804   2.987   4.440
 3306TIP3   OH2 9858   1.071   6.964   3.831
 3306TIP3    H1 9859   0.990   7.010   3.807
 3306TIP3    H2 9860   1.064   6.880   3.785
 3307TIP3   OH2 9861   6.499   3.605   0.955
 3307TIP3    H1 9862   6.421   3.655   0.977
 3307TIP3    H2 9863   6.479   3.516   0.985
 3308TIP3   OH2 9864   6.149   2.729   2.237
 3308TIP3    H1 9865   6.054   2.716   2.237
 3308TIP3    H2 9866   6.183   2.655   2.288
 3309TIP3   OH2 9867   1.948   5.430   2.606
 3309TIP3    H1 9868   1.887   5.483   2.659
 3309TIP3    H2 9869   1.917   5.340   2.618
 3310TIP3   OH2 9870   7.253   2.081   0.788
 3310TIP3    H1 9871   7.282   2.075   0.697
 3310TIP3    H2 9872   7.158   2.067   0.783
 3311TIP3   OH2 9873   6.321   0.662   5.200
 3311TIP3    H1 9874   6.258   0.605   5.245
 3311TIP3    H2 9875   6.272   0.742   5.184
 3312TIP3   OH2 9876   6.777   3.465   3.676
 3312TIP3    H1 9877   6.838   3.537   3.659
 3312TIP3    H2 9878   6.733   3.490   3.758
 3313TIP3   OH2 9879   5.767   1.128   1.798
 3313TIP3    H1 9880   5.735   1.060   1.738
 3313TIP3    H2 9881   5.805   1.080   1.871
 3314TIP3   OH2 9882   3.446   6.980   5.385
 3314TIP3    H1 9883   3.422   7.065   5.423
 3314TIP3    H2 9884   3.540   6.987   5.369
 3315TIP3   OH2 9885   0.238   7.031   1.619
 3315TIP3    H1 9886   0.222   7.044   1.712
 3315TIP3    H2 9887   0.153   7.008   1.583
 3316TIP3   OH2 9888   4.544   4.601   2.608
 3316TIP3    H1 9889   4.525   4.667   2.674
 3316TIP3    H2 9890   4.607   4.543   2.649
 3317TIP3   OH2 9891   2.389   2.312   5.707
 3317TIP3    H1 9892   2.431   2.397   5.701
 3317TIP3    H2 9893   2.401   2.285   5.798
 3318TIP3   OH2 9894   1.183   5.872   6.005
 3318TIP3    H1 9895   1.239   5.946   5.984
 3318TIP3    H2 9896   1.189   5.814   5.929
 3319TIP3   OH2 9897   4.885   1.872   4.130
 3319TIP3    H1 9898   4.853   1.941   4.072
 3319TIP3    H2 9899   4.825   1.799   4.115
 3320TIP3   OH2 9900   3.208   0.515   5.395
 3320TIP3    H1 9901   3.293   0.480   5.421
 3320TIP3    H2 9902   3.152   0.438   5.387
 3321TIP3   OH2 9903   8.203   2.645   6.137
 3321TIP3    H1 9904   8.182   2.736   6.160
 3321TIP3    H2 9905   8.236   2.607   6.219
 3322TIP3   OH2 9906   0.845   2.621   2.945
 3322TIP3    H1 9907   0.883   2.535   2.963
 3322TIP3    H2 9908   0.760   2.619   2.988
 3323TIP3   OH2 9909   4.269   2.230   0.561
 3323TIP3    H1 9910   4.295   2.138   0.566
 3323TIP3    H2 9911   4.308   2.270   0.638
 3324TIP3   OH2 9912   4.362   2.367   6.410
 3324TIP3    H1 9913   4.398   2.440   6.459
 3324TIP3    H2 9914   4.354   2.296   6.474
 3325TIP3   OH2 9915   0.553   0.488   3.724
 3325TIP3    H1 9916   0.602   0.513   3.646
 3325TIP3    H2 9917   0.621   0.466   3.788
 3326TIP3   OH2 9918   0.584   5.696   1.821
 3326TIP3    H1 9919   0.541   5.758   1.762
 3326TIP3    H2 9920   0.662   5.668   1.774
 3327TIP3   OH2 9921   8.160   2.950   5.590
 3327TIP3    H1 9922   8.250   2.934   5.617
 3327TIP3    H2 9923   8.112   2.874   5.624
 3328TIP3   OH2 9924   8.303   0.408   0.625
 3328TIP3    H1 9925   8.298   0.364   0.540
 3328TIP3    H2 9926   8.382   0.461   0.619
 3329TIP3   OH2 9927   5.420   2.215   3.021
 3329TIP3    H1 9928   5.516   2.222   3.024
 3329TIP3    H2 9929   5.394   2.277   2.953
 3330TIP3   OH2 9930   8.162   0.602   5.244
 3330TIP3    H1 9931   8.243   0.551   5.235
 3330TIP3    H2 9932   8.146   0.606   5.338
 3331TIP3   OH2 9933   5.590   4.831   6.139
 3331TIP3    H1 9934   5.565   4.850   6.049
 3331TIP3    H2 9935   5.686   4.829   6.138
 3332TIP3   OH2 9936   0.845   3.088   2.455
 3332TIP3    H1 9937   0.850   3.000   2.418
 3332TIP3    H2 9938   0.876   3.078   2.545
 3333TIP3   OH2 9939   6.023   5.255   5.701
 3333TIP3    H1 9940   6.053   5.187   5.761
 3333TIP3    H2 9941   6.097   5.315   5.693
 3334TIP3   OH2 9942   5.320   1.595   3.022
 3334TIP3    H1 9943   5.413   1.573   3.013
 3334TIP3    H2 9944   5.316   1.656   3.095
 3335TIP3   OH2 9945   1.116   2.443   3.183
 3335TIP3    H1 9946   1.048   2.497   3.223
 3335TIP3    H2 9947   1.197   2.493   3.196
 3336TIP3   OH2 9948   1.210   5.965   0.858
 3336TIP3    H1 9949   1.128   5.933   0.897
 3336TIP3    H2 9950   1.187   5.981   0.766
 3337TIP3   OH2 9951   4.364   5.967   4.345
 3337TIP3    H1 9952   4.436   5.905   4.335
 3337TIP3    H2 9953   4.378   6.031   4.275
 3338TIP3   OH2 9954   4.022   2.812   2.979
 3338TIP3    H1 9955   4.082   2.777   2.914
 3338TIP3    H2 9956   4.075   2.872   3.032
 3339TIP3   OH2 9957   3.821   7.560   4.270
 3339TIP3    H1 9958   3.750   7.496   4.274
 3339TIP3    H2 9959   3.849   7.559   4.178
 3340TIP3   OH2 9960   3.364   4.027   3.517
 3340TIP3    H1 9961   3.274   4.006   3.544
 3340TIP3    H2 9962   3.359   4.032   3.421
 3341TIP3   OH2 9963   2.736   3.957   6.826
 3341TIP3    H1 9964   2.803   3.890   6.812
 3341TIP3    H2 9965   2.671   3.940   6.758
 3342TIP3   OH2 9966   5.033   4.329   4.071
 3342TIP3    H1 9967   5.086   4.259   4.109
 3342TIP3    H2 9968   5.096   4.394   4.042
 3343TIP3   OH2 9969   1.884   7.772   6.304
 3343TIP3    H1 9970   1.897   7.730   6.390
 3343TIP3    H2 9971   1.839   7.706   6.252
 3344TIP3   OH2 9972   7.992   5.540   5.591
 3344TIP3    H1 9973   8.063   5.478   5.574
 3344TIP3    H2 9974   7.974   5.580   5.505
 3345TIP3   OH2 9975   0.728   1.999   4.537
 3345TIP3    H1 9976   0.660   1.977   4.473
 3345TIP3    H2 9977   0.738   1.920   4.590
 3346TIP3   OH2 9978   0.370   6.595   2.314
 3346TIP3    H1 9979   0.417   6.631   2.239
 3346TIP3    H2 9980   0.429   6.609   2.388
 3347TIP3   OH2 9981   6.933   4.120   4.818
 3347TIP3    H1 9982   6.930   4.041   4.873
 3347TIP3    H2 9983   6.952   4.087   4.730
 3348TIP3   OH2 9984   5.298   6.203   5.259
 3348TIP3    H1 9985   5.344   6.121   5.275
 3348TIP3    H2 9986   5.281   6.203   5.165
 3349TIP3   OH2 9987   3.624   4.959   6.549
 3349TIP3    H1 9988   3.575   4.955   6.631
 3349TIP3    H2 9989   3.713   4.932   6.572
 3350TIP3   OH2 9990   4.858   0.336   5.362
 3350TIP3    H1 9991   4.852   0.268   5.295
 3350TIP3    H2 9992   4.951   0.343   5.382
 3351TIP3   OH2 9993   2.090   2.326   3.738
 3351TIP3    H1 9994   1.996   2.334   3.753
 3351TIP3    H2 9995   2.100   2.329   3.643
 3352TIP3   OH2 9996   1.305   4.190   0.500
 3352TIP3    H1 9997   1.332   4.103   0.469
 3352TIP3    H2 9998   1.353   4.251   0.444
 3353TIP3   OH2 9999   6.833   6.514   6.752
 3353TIP3    H110000   6.775   6.461   6.808
 3353TIP3    H210001   6.919   6.474   6.762
 3354TIP3   OH210002   3.020   5.789   6.690
 3354TIP3    H110003   3.060   5.812   6.606
 3354TIP3    H210004   3.094   5.769   6.747
 3355TIP3   OH210005   0.732   4.918   5.205
 3355TIP3    H110006   0.651   4.867   5.216
 3355TIP3    H210007   0.763   4.935   5.294
 3356TIP3   OH210008   4.531   5.766   2.971
 3356TIP3    H110009   4.592   5.699   3.002
 3356TIP3    H210010   4.498   5.806   3.051
 3357TIP3   OH210011   6.304   1.598   1.584
 3357TIP3    H110012   6.303   1.690   1.558
 3357TIP3    H210013   6.347   1.552   1.512
 3358TIP3   OH210014   0.690   0.215   5.978
 3358TIP3    H110015   0.761   0.212   5.914
 3358TIP3    H210016   0.699   0.134   6.028
 3359TIP3   OH210017   5.114   1.040   5.529
 3359TIP3    H110018   5.066   1.101   5.473
 3359TIP3    H210019   5.189   1.012   5.477
 3360TIP3   OH210020   5.958   2.793   4.419
 3360TIP3    H110021   5.947   2.802   4.514
 3360TIP3    H210022   5.896   2.725   4.395
 3361TIP3   OH210023   6.539   0.033   1.163
 3361TIP3    H110024   6.595   0.102   1.198
 3361TIP3    H210025   6.476   0.015   1.233
 3362TIP3   OH210026   2.468   5.506   5.885
 3362TIP3    H110027   2.425   5.422   5.872
 3362TIP3    H210028   2.506   5.527   5.799
 3363TIP3   OH210029   2.104   2.044   1.641
 3363TIP3    H110030   2.187   2.032   1.687
 3363TIP3    H210031   2.042   2.071   1.708
 3364TIP3   OH210032   0.286   4.041   1.410
 3364TIP3    H110033   0.259   4.098   1.483
 3364TIP3    H210034   0.343   3.975   1.451
 3365TIP3   OH210035   0.501   0.196   4.667
 3365TIP3    H110036   0.496   0.289   4.646
 3365TIP3    H210037   0.443   0.154   4.603
 3366TIP3   OH210038   6.377   1.470   1.366
 3366TIP3    H110039   6.441   1.466   1.294
 3366TIP3    H210040   6.390   1.388   1.414
 3367TIP3   OH210041   8.025   2.571   2.672
 3367TIP3    H110042   7.983   2.576   2.586
 3367TIP3    H210043   8.113   2.537   2.654
 3368TIP3   OH210044   1.773   7.220   4.481
 3368TIP3    H110045   1.700   7.221   4.543
 3368TIP3    H210046   1.814   7.306   4.491
 3369TIP3   OH210047   6.445   0.064   3.106
 3369TIP3    H110048   6.458   0.111   3.188
 3369TIP3    H210049   6.400   0.127   3.049
 3370TIP3   OH210050   8.295   4.550   6.320
 3370TIP3    H110051   8.261   4.461   6.323
 3370TIP3    H210052   8.348   4.558   6.400
 3371TIP3   OH210053   4.833   5.341   5.378
 3371TIP3    H110054   4.890   5.363   5.452
 3371TIP3    H210055   4.852   5.407   5.312
 3372TIP3   OH210056   1.815   0.449   1.465
 3372TIP3    H110057   1.762   0.516   1.509
 3372TIP3    H210058   1.863   0.406   1.535
 3373TIP3   OH210059   4.269   2.071   4.374
 3373TIP3    H110060   4.269   2.067   4.278
 3373TIP3    H210061   4.347   2.123   4.395
 3374TIP3   OH210062   4.288   0.568   0.180
 3374TIP3    H110063   4.262   0.582   0.090
 3374TIP3    H210064   4.206   0.565   0.229
 3375TIP3   OH210065   0.088   0.360   6.522
 3375TIP3    H110066   0.057   0.405   6.443
 3375TIP3    H210067   0.022   0.293   6.538
 3376TIP3   OH210068   5.938   0.129   6.019
 3376TIP3    H110069   5.853   0.089   6.037
 3376TIP3    H210070   5.992   0.057   5.986
 3377TIP3   OH210071   0.918   4.042   6.158
 3377TIP3    H110072   1.008   4.030   6.189
 3377TIP3    H210073   0.905   3.970   6.096
 3378TIP3   OH210074   6.855   4.520   1.285
 3378TIP3    H110075   6.768   4.482   1.294
 3378TIP3    H210076   6.847   4.608   1.322
 3379TIP3   OH210077   0.061   0.200   0.230
 3379TIP3    H110078   0.131   0.198   0.296
 3379TIP3    H210079   0.096   0.150   0.156
 3380TIP3   OH210080   6.536   4.466   0.766
 3380TIP3    H110081   6.612   4.450   0.822
 3380TIP3    H210082   6.504   4.552   0.794
 3381TIP3   OH210083   0.719   1.279   3.724
 3381TIP3    H110084   0.704   1.228   3.804
 3381TIP3    H210085   0.636   1.277   3.678
 3382TIP3   OH210086   0.114   0.179   5.114
 3382TIP3    H110087   0.143   0.088   5.114
 3382TIP3    H210088   0.139   0.212   5.028
 3383TIP3   OH210089   4.491   2.887   0.996
 3383TIP3    H110090   4.451   2.886   1.082
 3383TIP3    H210091   4.483   2.978   0.967
 3384TIP3   OH210092   7.469   3.780   3.861
 3384TIP3    H110093   7.554   3.757   3.899
 3384TIP3    H210094   7.410   3.711   3.892
 3385TIP3   OH210095   0.579   0.228   4.097
 3385TIP3    H110096   0.622   0.159   4.045
 3385TIP3    H210097   0.492   0.193   4.116
 3386TIP3   OH210098   5.244   2.213   1.704
 3386TIP3    H110099   5.170   2.253   1.657
 3386TIP3    H210100   5.224   2.120   1.706
 3387TIP3   OH210101   7.375   4.417   2.697
 3387TIP3    H110102   7.449   4.402   2.756
 3387TIP3    H210103   7.357   4.331   2.660
 3388TIP3   OH210104   5.591   3.552   2.160
 3388TIP3    H110105   5.567   3.475   2.212
 3388TIP3    H210106   5.676   3.579   2.195
 3389TIP3   OH210107   4.011   2.758   3.410
 3389TIP3    H110108   3.981   2.835   3.360
 3389TIP3    H210109   3.949   2.751   3.482
 3390TIP3   OH210110   7.349   0.264   5.533
 3390TIP3    H110111   7.364   0.337   5.593
 3390TIP3    H210112   7.270   0.221   5.567
 3391TIP3   OH210113   2.607   4.266   6.203
 3391TIP3    H110114   2.550   4.200   6.164
 3391TIP3    H210115   2.660   4.298   6.130
 3392TIP3   OH210116   1.651   4.517   1.543
 3392TIP3    H110117   1.739   4.553   1.534
 3392TIP3    H210118   1.662   4.423   1.535
 3393TIP3   OH210119   6.756   3.451   6.617
 3393TIP3    H110120   6.817   3.449   6.543
 3393TIP3    H210121   6.695   3.379   6.600
 3394TIP3   OH210122   1.940   4.083   3.324
 3394TIP3    H110123   1.968   4.081   3.232
 3394TIP3    H210124   1.923   3.991   3.345
 3395TIP3   OH210125   0.355   2.259   3.990
 3395TIP3    H110126   0.438   2.234   4.029
 3395TIP3    H210127   0.330   2.340   4.036
 3396TIP3   OH210128   2.413   1.051   4.495
 3396TIP3    H110129   2.364   0.969   4.483
 3396TIP3    H210130   2.346   1.119   4.495
 3397TIP3   OH210131   2.951   4.425   4.897
 3397TIP3    H110132   2.988   4.374   4.826
 3397TIP3    H210133   2.857   4.408   4.893
 3398TIP3   OH210134   4.183   4.266   6.501
 3398TIP3    H110135   4.155   4.176   6.518
 3398TIP3    H210136   4.131   4.320   6.560
 3399TIP3   OH210137   3.416   5.126   3.167
 3399TIP3    H110138   3.358   5.160   3.099
 3399TIP3    H210139   3.368   5.141   3.249
 3400TIP3   OH210140   0.058   0.609   4.188
 3400TIP3    H110141  -0.011   0.554   4.225
 3400TIP3    H210142   0.137   0.555   4.194
 3401TIP3   OH210143   2.881   4.333   0.600
 3401TIP3    H110144   2.888   4.410   0.656
 3401TIP3    H210145   2.819   4.359   0.531
 3402TIP3   OH210146   2.551   3.406   0.029
 3402TIP3    H110147   2.584   3.480  -0.021
 3402TIP3    H210148   2.575   3.425   0.120
 3403TIP3   OH210149   2.706   7.456   1.305
 3403TIP3    H110150   2.753   7.446   1.221
 3403TIP3    H210151   2.681   7.548   1.307
 3404TIP3   OH210152   3.530   0.050   5.396
 3404TIP3    H110153   3.581   0.059   5.316
 3404TIP3    H210154   3.462  -0.014   5.374
 3405TIP3   OH210155   0.812   0.017   2.642
 3405TIP3    H110156   0.792   0.059   2.558
 3405TIP3    H210157   0.842  -0.071   2.618
 3406TIP3   OH210158   1.626   4.711   0.475
 3406TIP3    H110159   1.642   4.688   0.383
 3406TIP3    H210160   1.580   4.794   0.471
 3407TIP3   OH210161   0.491   2.985   4.426
 3407TIP3    H110162   0.549   2.919   4.464
 3407TIP3    H210163   0.407   2.970   4.469
 3408TIP3   OH210164   7.158   3.809   0.964
 3408TIP3    H110165   7.085   3.813   1.026
 3408TIP3    H210166   7.216   3.881   0.989
 3409TIP3   OH210167   7.150   0.966   4.809
 3409TIP3    H110168   7.056   0.949   4.819
 3409TIP3    H210169   7.155   1.038   4.746
 3410TIP3   OH210170   3.580   5.611   1.496
 3410TIP3    H110171   3.661   5.654   1.471
 3410TIP3    H210172   3.556   5.652   1.580
 3411TIP3   OH210173   6.519   2.439   3.143
 3411TIP3    H110174   6.452   2.469   3.203
 3411TIP3    H210175   6.560   2.364   3.188
 3412TIP3   OH210176   6.735   6.769   0.105
 3412TIP3    H110177   6.712   6.677   0.116
 3412TIP3    H210178   6.714   6.789   0.014
 3413TIP3   OH210179   5.350   2.309   4.769
 3413TIP3    H110180   5.282   2.365   4.732
 3413TIP3    H210181   5.344   2.228   4.719
 3414TIP3   OH210182   2.711   7.853   4.274
 3414TIP3    H110183   2.759   7.773   4.251
 3414TIP3    H210184   2.768   7.899   4.335
 3415TIP3   OH210185   5.134   3.486   1.353
 3415TIP3    H110186   5.166   3.441   1.432
 3415TIP3    H210187   5.139   3.420   1.284
 3416TIP3   OH210188   5.513   3.328   1.157
 3416TIP3    H110189   5.577   3.398   1.148
 3416TIP3    H210190   5.463   3.330   1.076
 3417TIP3   OH210191   7.907   7.365   1.291
 3417TIP3    H110192   7.864   7.450   1.283
 3417TIP3    H210193   7.994   7.386   1.325
 3418TIP3   OH210194   6.812   2.291   0.809
 3418TIP3    H110195   6.873   2.295   0.735
 3418TIP3    H210196   6.807   2.198   0.830
 3419TIP3   OH210197   6.704   5.468   3.361
 3419TIP3    H110198   6.736   5.400   3.301
 3419TIP3    H210199   6.783   5.515   3.389
 3420TIP3   OH210200   1.627   0.037   1.583
 3420TIP3    H110201   1.623   0.079   1.669
 3420TIP3    H210202   1.624  -0.057   1.602
 3421TIP3   OH210203   3.212   6.284   1.985
 3421TIP3    H110204   3.206   6.376   1.957
 3421TIP3    H210205   3.158   6.236   1.922
 3422TIP3   OH210206   7.280   6.001   5.602
 3422TIP3    H110207   7.211   6.065   5.583
 3422TIP3    H210208   7.301   5.963   5.517
 3423TIP3   OH210209   7.061   5.477   3.681
 3423TIP3    H110210   7.018   5.489   3.766
 3423TIP3    H210211   7.011   5.407   3.639
 3424TIP3   OH210212   5.634   1.239   0.533
 3424TIP3    H110213   5.646   1.286   0.615
 3424TIP3    H210214   5.550   1.194   0.543
 3425TIP3   OH210215   8.421   4.626   2.445
 3425TIP3    H110216   8.331   4.622   2.413
 3425TIP3    H210217   8.475   4.614   2.367
 3426TIP3   OH210218   0.769   0.722   4.124
 3426TIP3    H110219   0.798   0.676   4.203
 3426TIP3    H210220   0.828   0.691   4.055
 3427TIP3   OH210221   8.325   3.934   5.051
 3427TIP3    H110222   8.319   3.882   5.131
 3427TIP3    H210223   8.361   4.018   5.079
 3428TIP3   OH210224   7.533   1.880   6.368
 3428TIP3    H110225   7.502   1.859   6.280
 3428TIP3    H210226   7.495   1.966   6.387
 3429TIP3   OH210227   6.560   2.400   5.959
 3429TIP3    H110228   6.555   2.385   6.053
 3429TIP3    H210229   6.552   2.495   5.949
 3430TIP3   OH210230   5.767   3.218   0.110
 3430TIP3    H110231   5.711   3.272   0.054
 3430TIP3    H210232   5.705   3.172   0.167
 3431TIP3   OH210233   2.169   3.211   6.140
 3431TIP3    H110234   2.133   3.295   6.169
 3431TIP3    H210235   2.093   3.157   6.123
 3432TIP3   OH210236   4.154   0.062   6.171
 3432TIP3    H110237   4.163   0.140   6.226
 3432TIP3    H210238   4.233   0.011   6.189
 3433TIP3   OH210239   5.351   4.587   3.615
 3433TIP3    H110240   5.363   4.584   3.520
 3433TIP3    H210241   5.313   4.503   3.637
 3434TIP3   OH210242   6.453   6.294   2.257
 3434TIP3    H110243   6.376   6.245   2.288
 3434TIP3    H210244   6.450   6.376   2.306
 3435TIP3   OH210245   7.289   2.139   6.692
 3435TIP3    H110246   7.226   2.208   6.671
 3435TIP3    H210247   7.338   2.125   6.612
 3436TIP3   OH210248   3.713   4.910   6.084
 3436TIP3    H110249   3.699   5.005   6.093
 3436TIP3    H210250   3.726   4.879   6.174
 3437TIP3   OH210251   2.734   6.009   4.644
 3437TIP3    H110252   2.675   6.033   4.716
 3437TIP3    H210253   2.810   6.066   4.656
 3438TIP3   OH210254   5.801   4.866   1.010
 3438TIP3    H110255   5.765   4.946   1.048
 3438TIP3    H210256   5.724   4.817   0.980
 3439TIP3   OH210257   4.043   3.567   4.340
 3439TIP3    H110258   4.065   3.503   4.272
 3439TIP3    H210259   4.127   3.608   4.362
 3440TIP3   OH210260   2.827   6.303   5.839
 3440TIP3    H110261   2.896   6.359   5.875
 3440TIP3    H210262   2.869   6.258   5.765
 3441TIP3   OH210263   5.314   2.308   2.623
 3441TIP3    H110264   5.337   2.216   2.607
 3441TIP3    H210265   5.385   2.341   2.677
 3442TIP3   OH210266   6.522   6.711   0.353
 3442TIP3    H110267   6.515   6.629   0.401
 3442TIP3    H210268   6.607   6.746   0.378
 3443TIP3   OH210269   8.086   7.508   3.205
 3443TIP3    H110270   8.161   7.451   3.220
 3443TIP3    H210271   8.052   7.525   3.293
 3444TIP3   OH210272   6.957   0.662   5.016
 3444TIP3    H110273   6.950   0.693   5.107
 3444TIP3    H210274   6.881   0.605   5.005
 3445TIP3   OH210275   1.699   5.257   0.009
 3445TIP3    H110276   1.652   5.341   0.013
 3445TIP3    H210277   1.786   5.277   0.042
 3446TIP3   OH210278   6.812   5.128   0.755
 3446TIP3    H110279   6.815   5.068   0.829
 3446TIP3    H210280   6.823   5.215   0.794
 3447TIP3   OH210281   6.514   3.980   4.444
 3447TIP3    H110282   6.520   3.903   4.500
 3447TIP3    H210283   6.603   3.993   4.410
 3448TIP3   OH210284   1.568   6.696   1.975
 3448TIP3    H110285   1.596   6.699   2.066
 3448TIP3    H210286   1.638   6.740   1.927
 3449TIP3   OH210287   0.441   1.890   1.583
 3449TIP3    H110288   0.417   1.846   1.664
 3449TIP3    H210289   0.398   1.975   1.588
 3450TIP3   OH210290   5.902   5.235   5.135
 3450TIP3    H110291   5.901   5.226   5.040
 3450TIP3    H210292   5.810   5.237   5.160
 3451TIP3   OH210293   7.300   6.258   6.388
 3451TIP3    H110294   7.343   6.186   6.434
 3451TIP3    H210295   7.282   6.223   6.301
 3452TIP3   OH210296   3.223   1.325   2.995
 3452TIP3    H110297   3.277   1.296   2.921
 3452TIP3    H210298   3.284   1.332   3.068
 3453TIP3   OH210299   6.381   0.527   4.247
 3453TIP3    H110300   6.299   0.480   4.231
 3453TIP3    H210301   6.437   0.463   4.290
 3454TIP3   OH210302   5.936   7.016   3.521
 3454TIP3    H110303   5.979   7.069   3.588
 3454TIP3    H210304   5.999   6.946   3.501
 3455TIP3   OH210305   7.906   2.811   1.920
 3455TIP3    H110306   7.943   2.727   1.892
 3455TIP3    H210307   7.838   2.830   1.856
 3456TIP3   OH210308   1.149   7.244   2.698
 3456TIP3    H110309   1.081   7.183   2.671
 3456TIP3    H210310   1.194   7.199   2.771
 3457TIP3   OH210311   1.658   4.322   4.319
 3457TIP3    H110312   1.610   4.314   4.236
 3457TIP3    H210313   1.619   4.254   4.375
 3458TIP3   OH210314   7.033   6.702   6.706
 3458TIP3    H110315   6.955   6.669   6.751
 3458TIP3    H210316   7.101   6.637   6.723
 3459TIP3   OH210317   7.103   4.470   6.177
 3459TIP3    H110318   7.106   4.562   6.148
 3459TIP3    H210319   7.041   4.470   6.250
 3460TIP3   OH210320   2.567   0.625   0.317
 3460TIP3    H110321   2.549   0.532   0.331
 3460TIP3    H210322   2.663   0.631   0.318
 3461TIP3   OH210323   6.486   3.881   1.872
 3461TIP3    H110324   6.511   3.796   1.907
 3461TIP3    H210325   6.451   3.929   1.948
 3462TIP3   OH210326   2.188   2.096   2.027
 3462TIP3    H110327   2.208   2.189   2.020
 3462TIP3    H210328   2.093   2.092   2.038
 3463TIP3   OH210329   4.625   3.139   4.930
 3463TIP3    H110330   4.592   3.227   4.950
 3463TIP3    H210331   4.546   3.087   4.918
 3464TIP3   OH210332   6.169   7.451   3.701
 3464TIP3    H110333   6.209   7.538   3.700
 3464TIP3    H210334   6.235   7.394   3.661
 3465TIP3   OH210335   5.080   6.966   4.317
 3465TIP3    H110336   5.006   6.926   4.362
 3465TIP3    H210337   5.090   7.051   4.360
 3466TIP3   OH210338   1.319   0.716   0.832
 3466TIP3    H110339   1.303   0.809   0.816
 3466TIP3    H210340   1.243   0.672   0.793
 3467TIP3   OH210341   3.290   0.725   6.028
 3467TIP3    H110342   3.364   0.782   6.005
 3467TIP3    H210343   3.244   0.712   5.945
 3468TIP3   OH210344   3.573   2.487   3.346
 3468TIP3    H110345   3.603   2.526   3.263
 3468TIP3    H210346   3.484   2.458   3.328
 3469TIP3   OH210347   0.644   7.732   3.512
 3469TIP3    H110348   0.561   7.732   3.560
 3469TIP3    H210349   0.653   7.822   3.480
 3470TIP3   OH210350   8.247   6.388   0.156
 3470TIP3    H110351   8.280   6.391   0.246
 3470TIP3    H210352   8.322   6.413   0.102
 3471TIP3   OH210353   6.392   1.061   0.721
 3471TIP3    H110354   6.315   1.117   0.736
 3471TIP3    H210355   6.354   0.975   0.701
 3472TIP3   OH210356   4.675   4.012   4.941
 3472TIP3    H110357   4.701   4.034   5.030
 3472TIP3    H210358   4.632   4.090   4.908
 3473TIP3   OH210359   2.218   3.591   1.508
 3473TIP3    H110360   2.280   3.553   1.570
 3473TIP3    H210361   2.195   3.676   1.546
 3474TIP3   OH210362   3.939   2.170   5.416
 3474TIP3    H110363   3.991   2.176   5.496
 3474TIP3    H210364   3.979   2.098   5.367
 3475TIP3   OH210365   1.390   2.365   0.888
 3475TIP3    H110366   1.446   2.304   0.841
 3475TIP3    H210367   1.302   2.329   0.880
 3476TIP3   OH210368   5.677   4.934   4.012
 3476TIP3    H110369   5.701   4.993   4.084
 3476TIP3    H210370   5.751   4.939   3.952
 3477TIP3   OH210371   6.205   3.764   5.292
 3477TIP3    H110372   6.199   3.859   5.286
 3477TIP3    H210373   6.193   3.745   5.385
 3478TIP3   OH210374   0.896   4.324   4.279
 3478TIP3    H110375   0.872   4.235   4.253
 3478TIP3    H210376   0.815   4.362   4.314
 3479TIP3   OH210377   8.425   7.529   0.900
 3479TIP3    H110378   8.399   7.467   0.832
 3479TIP3    H210379   8.394   7.488   0.982
 3480TIP3   OH210380   7.672   3.111   4.339
 3480TIP3    H110381   7.668   3.199   4.374
 3480TIP3    H210382   7.641   3.055   4.411
 3481TIP3   OH210383   7.448   0.387   6.660
 3481TIP3    H110384   7.533   0.354   6.689
 3481TIP3    H210385   7.412   0.317   6.607
 3482TIP3   OH210386   7.923   6.620   1.113
 3482TIP3    H110387   7.862   6.564   1.160
 3482TIP3    H210388   7.927   6.582   1.025
 3483TIP3   OH210389   5.665   5.985   6.616
 3483TIP3    H110390   5.670   6.035   6.535
 3483TIP3    H210391   5.734   6.021   6.671
 3484TIP3   OH210392   6.533   0.340   2.293
 3484TIP3    H110393   6.443   0.309   2.303
 3484TIP3    H210394   6.530   0.433   2.317
 3485TIP3   OH210395   3.448   2.471   6.306
 3485TIP3    H110396   3.466   2.454   6.213
 3485TIP3    H210397   3.399   2.394   6.335
 3486TIP3   OH210398   7.131   3.535   1.254
 3486TIP3    H110399   7.188   3.586   1.312
 3486TIP3    H210400   7.191   3.477   1.207
 3487TIP3   OH210401   5.830   5.047   3.777
 3487TIP3    H110402   5.822   5.134   3.814
 3487TIP3    H210403   5.783   5.052   3.693
 3488TIP3   OH210404   2.372   6.877   5.703
 3488TIP3    H110405   2.303   6.925   5.657
 3488TIP3    H210406   2.381   6.923   5.787
 3489TIP3   OH210407   7.788   4.043   3.852
 3489TIP3    H110408   7.798   3.996   3.935
 3489TIP3    H210409   7.726   4.113   3.871
 3490TIP3   OH210410   2.180   6.180   4.586
 3490TIP3    H110411   2.166   6.144   4.499
 3490TIP3    H210412   2.264   6.226   4.580
 3491TIP3   OH210413   7.116   1.591   3.513
 3491TIP3    H110414   7.140   1.582   3.605
 3491TIP3    H210415   7.039   1.648   3.513
 3492TIP3   OH210416   8.295   2.077   6.303
 3492TIP3    H110417   8.344   2.146   6.348
 3492TIP3    H210418   8.219   2.061   6.360
 3493TIP3   OH210419   5.586   7.458   3.309
 3493TIP3    H110420   5.495   7.480   3.329
 3493TIP3    H210421   5.580   7.408   3.227
 3494TIP3   OH210422   5.520   0.591   3.584
 3494TIP3    H110423   5.533   0.502   3.614
 3494TIP3    H210424   5.552   0.646   3.656
 3495TIP3   OH210425   5.262   4.444   2.207
 3495TIP3    H110426   5.330   4.386   2.173
 3495TIP3    H210427   5.185   4.388   2.217
 3496TIP3   OH210428   6.528   2.330   1.818
 3496TIP3    H110429   6.564   2.284   1.893
 3496TIP3    H210430   6.434   2.310   1.821
 3497TIP3   OH210431   6.185   4.667   1.965
 3497TIP3    H110432   6.233   4.656   1.882
 3497TIP3    H210433   6.129   4.743   1.949
 3498TIP3   OH210434   4.185   5.495   0.903
 3498TIP3    H110435   4.215   5.440   0.830
 3498TIP3    H210436   4.089   5.494   0.896
 3499TIP3   OH210437   4.503   6.948   6.276
 3499TIP3    H110438   4.598   6.945   6.288
 3499TIP3    H210439   4.491   6.960   6.182
 3500TIP3   OH210440   5.784   7.043   4.893
 3500TIP3    H110441   5.829   7.119   4.858
 3500TIP3    H210442   5.729   7.078   4.963
 3501TIP3   OH210443   6.706   0.053   0.567
 3501TIP3    H110444   6.750   0.042   0.483
 3501TIP3    H210445   6.720   0.145   0.590
 3502TIP3   OH210446   7.155   3.356   2.801
 3502TIP3    H110447   7.239   3.339   2.759
 3502TIP3    H210448   7.175   3.424   2.866
 3503TIP3   OH210449   4.644   6.596   6.205
 3503TIP3    H110450   4.728   6.639   6.191
 3503TIP3    H210451   4.587   6.631   6.136
 3504TIP3   OH210452   5.292   0.507   1.301
 3504TIP3    H110453   5.209   0.460   1.304
 3504TIP3    H210454   5.357   0.441   1.279
 3505TIP3   OH210455   1.011   4.743   4.786
 3505TIP3    H110456   0.923   4.777   4.800
 3505TIP3    H210457   1.023   4.747   4.691
 3506TIP3   OH210458   6.502   3.007   5.190
 3506TIP3    H110459   6.544   2.964   5.265
 3506TIP3    H210460   6.569   3.006   5.122
 3507TIP3   OH210461   3.250   0.222   0.929
 3507TIP3    H110462   3.171   0.265   0.897
 3507TIP3    H210463   3.225   0.130   0.938
 3508TIP3   OH210464   1.392   4.166   2.460
 3508TIP3    H110465   1.384   4.191   2.368
 3508TIP3    H210466   1.306   4.183   2.497
 3509TIP3   OH210467   5.450   6.578   1.616
 3509TIP3    H110468   5.366   6.579   1.570
 3509TIP3    H210469   5.484   6.490   1.602
 3510TIP3   OH210470   6.306   0.701   4.455
 3510TIP3    H110471   6.338   0.639   4.388
 3510TIP3    H210472   6.319   0.787   4.416
 3511TIP3   OH210473   6.174   6.210   6.053
 3511TIP3    H110474   6.257   6.213   6.102
 3511TIP3    H210475   6.166   6.297   6.015
 3512TIP3   OH210476   5.503   1.915   2.024
 3512TIP3    H110477   5.565   1.904   1.951
 3512TIP3    H210478   5.417   1.913   1.982
 3513TIP3   OH210479   1.266   7.926   6.692
 3513TIP3    H110480   1.300   7.890   6.774
 3513TIP3    H210481   1.312   7.877   6.624
 3514TIP3   OH210482   7.799   3.857   5.845
 3514TIP3    H110483   7.819   3.785   5.904
 3514TIP3    H210484   7.712   3.888   5.872
 3515TIP3   OH210485   0.582   3.048   3.569
 3515TIP3    H110486   0.641   3.000   3.626
 3515TIP3    H210487   0.521   2.982   3.537
 3516TIP3   OH210488   5.943   6.100   5.964
 3516TIP3    H110489   6.021   6.155   5.953
 3516TIP3    H210490   5.887   6.149   6.023
 3517TIP3   OH210491   8.236   5.549   0.720
 3517TIP3    H110492   8.220   5.456   0.734
 3517TIP3    H210493   8.319   5.565   0.765
 3518TIP3   OH210494   6.925   1.858   1.538
 3518TIP3    H110495   6.930   1.770   1.499
 3518TIP3    H210496   6.976   1.851   1.619
 3519TIP3   OH210497   6.866   6.167   1.893
 3519TIP3    H110498   6.903   6.113   1.963
 3519TIP3    H210499   6.940   6.188   1.837
 3520TIP3   OH210500   5.494   6.867   0.364
 3520TIP3    H110501   5.483   6.901   0.275
 3520TIP3    H210502   5.457   6.935   0.420
 3521TIP3   OH210503   4.714   6.840   0.620
 3521TIP3    H110504   4.691   6.865   0.709
 3521TIP3    H210505   4.801   6.799   0.629
 3522TIP3   OH210506   5.213   1.434   6.559
 3522TIP3    H110507   5.146   1.406   6.496
 3522TIP3    H210508   5.194   1.527   6.574
 3523TIP3   OH210509   7.255   5.501   1.708
 3523TIP3    H110510   7.207   5.423   1.734
 3523TIP3    H210511   7.338   5.496   1.755
 3524TIP3   OH210512   4.435   0.212   0.624
 3524TIP3    H110513   4.500   0.277   0.600
 3524TIP3    H210514   4.406   0.238   0.711
 3525TIP3   OH210515   2.886   7.801   1.297
 3525TIP3    H110516   2.794   7.801   1.321
 3525TIP3    H210517   2.928   7.747   1.364
 3526TIP3   OH210518   0.608   0.712   0.486
 3526TIP3    H110519   0.571   0.632   0.525
 3526TIP3    H210520   0.535   0.754   0.441
 3527TIP3   OH210521   0.479   6.304   3.291
 3527TIP3    H110522   0.429   6.253   3.227
 3527TIP3    H210523   0.523   6.239   3.345
 3528TIP3   OH210524   2.266   5.194   6.707
 3528TIP3    H110525   2.272   5.287   6.686
 3528TIP3    H210526   2.324   5.183   6.782
 3529TIP3   OH210527   8.053   1.199   0.051
 3529TIP3    H110528   8.038   1.104   0.052
 3529TIP3    H210529   8.132   1.209  -0.003
 3530TIP3   OH210530   6.548   7.208   5.107
 3530TIP3    H110531   6.542   7.138   5.042
 3530TIP3    H210532   6.640   7.236   5.102
 3531TIP3   OH210533   2.601   7.628   2.381
 3531TIP3    H110534   2.580   7.683   2.306
 3531TIP3    H210535   2.516   7.596   2.412
 3532TIP3   OH210536   6.529   6.951   6.064
 3532TIP3    H110537   6.439   6.922   6.049
 3532TIP3    H210538   6.571   6.876   6.106
 3533TIP3   OH210539   0.420   3.330   5.769
 3533TIP3    H110540   0.339   3.359   5.726
 3533TIP3    H210541   0.394   3.256   5.823
 3534TIP3   OH210542   4.997   0.569   3.370
 3534TIP3    H110543   4.966   0.659   3.370
 3534TIP3    H210544   5.075   0.570   3.427
 3535TIP3   OH210545   2.765   7.177   0.313
 3535TIP3    H110546   2.836   7.221   0.359
 3535TIP3    H210547   2.759   7.222   0.229
 3536TIP3   OH210548   0.470   7.469   4.892
 3536TIP3    H110549   0.449   7.380   4.863
 3536TIP3    H210550   0.446   7.470   4.985
 3537TIP3   OH210551   5.245   1.199   3.370
 3537TIP3    H110552   5.205   1.127   3.418
 3537TIP3    H210553   5.317   1.160   3.321
 3538TIP3   OH210554   0.753   2.815   5.569
 3538TIP3    H110555   0.670   2.815   5.522
 3538TIP3    H210556   0.772   2.908   5.584
 3539TIP3   OH210557   3.307   7.642   3.662
 3539TIP3    H110558   3.227   7.683   3.629
 3539TIP3    H210559   3.326   7.573   3.598
 3540TIP3   OH210560   4.132   6.715   2.895
 3540TIP3    H110561   4.189   6.734   2.968
 3540TIP3    H210562   4.064   6.658   2.931
 3541TIP3   OH210563   7.680   6.559   6.860
 3541TIP3    H110564   7.609   6.523   6.806
 3541TIP3    H210565   7.732   6.611   6.798
 3542TIP3   OH210566   4.543   7.684   6.229
 3542TIP3    H110567   4.521   7.729   6.311
 3542TIP3    H210568   4.597   7.610   6.257
 3543TIP3   OH210569   1.324   6.700   6.843
 3543TIP3    H110570   1.330   6.605   6.835
 3543TIP3    H210571   1.302   6.731   6.755
 3544TIP3   OH210572   8.146   5.712   5.395
 3544TIP3    H110573   8.065   5.738   5.351
 3544TIP3    H210574   8.213   5.716   5.327
 3545TIP3   OH210575   8.231   5.158   4.602
 3545TIP3    H110576   8.249   5.241   4.646
 3545TIP3    H210577   8.151   5.174   4.551
 3546TIP3   OH210578   4.711   7.247   6.533
 3546TIP3    H110579   4.754   7.216   6.613
 3546TIP3    H210580   4.623   7.209   6.537
 3547TIP3   OH210581   4.975   0.362   4.253
 3547TIP3    H110582   5.062   0.345   4.291
 3547TIP3    H210583   4.951   0.448   4.286
 3548TIP3   OH210584   1.079   5.717   4.451
 3548TIP3    H110585   1.067   5.803   4.412
 3548TIP3    H210586   1.076   5.656   4.377
 3549TIP3   OH210587   2.293   3.220   1.753
 3549TIP3    H110588   2.291   3.149   1.816
 3549TIP3    H210589   2.272   3.179   1.669
 3550TIP3   OH210590   5.789   2.852   1.350
 3550TIP3    H110591   5.751   2.932   1.388
 3550TIP3    H210592   5.868   2.883   1.306
 3551TIP3   OH210593   5.818   4.020   6.433
 3551TIP3    H110594   5.802   4.114   6.444
 3551TIP3    H210595   5.862   4.013   6.348
 3552TIP3   OH210596   4.978   7.338   0.313
 3552TIP3    H110597   4.915   7.346   0.385
 3552TIP3    H210598   5.064   7.350   0.355
 3553TIP3   OH210599   4.622   4.178   6.192
 3553TIP3    H110600   4.700   4.212   6.236
 3553TIP3    H210601   4.574   4.132   6.261
 3554TIP3   OH210602   5.069   1.218   4.578
 3554TIP3    H110603   5.031   1.232   4.665
 3554TIP3    H210604   5.160   1.194   4.595
 3555TIP3   OH210605   1.825   7.266   6.374
 3555TIP3    H110606   1.914   7.277   6.409
 3555TIP3    H210607   1.778   7.218   6.442
 3556TIP3   OH210608   5.994   0.380   6.090
 3556TIP3    H110609   5.947   0.367   6.172
 3556TIP3    H210610   5.970   0.304   6.036
 3557TIP3   OH210611   1.795   1.330   0.518
 3557TIP3    H110612   1.751   1.337   0.434
 3557TIP3    H210613   1.729   1.296   0.578
 3558TIP3   OH210614   2.717   0.778   6.417
 3558TIP3    H110615   2.624   0.786   6.399
 3558TIP3    H210616   2.735   0.684   6.412
 3559TIP3   OH210617   5.725   5.109   0.183
 3559TIP3    H110618   5.792   5.043   0.200
 3559TIP3    H210619   5.740   5.176   0.250
 3560TIP3   OH210620   6.101   6.661   0.147
 3560TIP3    H110621   6.037   6.640   0.216
 3560TIP3    H210622   6.048   6.680   0.070
 3561TIP3   OH210623   1.132   0.765   0.079
 3561TIP3    H110624   1.150   0.848   0.125
 3561TIP3    H210625   1.108   0.704   0.148
 3562TIP3   OH210626   7.522   5.871   6.688
 3562TIP3    H110627   7.602   5.826   6.662
 3562TIP3    H210628   7.513   5.851   6.781
 3563TIP3   OH210629   1.488   7.525   6.388
 3563TIP3    H110630   1.521   7.505   6.475
 3563TIP3    H210631   1.566   7.548   6.337
 3564TIP3   OH210632   0.828   5.270   6.156
 3564TIP3    H110633   0.798   5.191   6.111
 3564TIP3    H210634   0.826   5.338   6.089
 3565TIP3   OH210635   1.294   0.778   5.916
 3565TIP3    H110636   1.355   0.780   5.843
 3565TIP3    H210637   1.310   0.859   5.964
 3566TIP3   OH210638   5.623   3.521   2.506
 3566TIP3    H110639   5.581   3.605   2.487
 3566TIP3    H210640   5.643   3.525   2.600
 3567TIP3   OH210641   2.178   3.848   6.109
 3567TIP3    H110642   2.269   3.855   6.081
 3567TIP3    H210643   2.147   3.767   6.068
 3568TIP3   OH210644   5.409   6.636   0.688
 3568TIP3    H110645   5.483   6.603   0.741
 3568TIP3    H210646   5.392   6.723   0.724
 3569TIP3   OH210647   7.899   6.473   4.906
 3569TIP3    H110648   7.954   6.397   4.889
 3569TIP3    H210649   7.955   6.534   4.953
 3570TIP3   OH210650   0.256   5.183   3.161
 3570TIP3    H110651   0.240   5.277   3.153
 3570TIP3    H210652   0.301   5.173   3.244
 3571TIP3   OH210653   5.785   3.328   5.901
 3571TIP3    H110654   5.857   3.374   5.943
 3571TIP3    H210655   5.750   3.270   5.969
 3572TIP3   OH210656   2.437   5.152   5.701
 3572TIP3    H110657   2.532   5.148   5.710
 3572TIP3    H210658   2.417   5.100   5.623
 3573TIP3   OH210659   3.852   2.291   4.064
 3573TIP3    H110660   3.771   2.334   4.093
 3573TIP3    H210661   3.909   2.362   4.035
 3574TIP3   OH210662   2.229   3.203   4.466
 3574TIP3    H110663   2.262   3.116   4.445
 3574TIP3    H210664   2.243   3.213   4.560
 3575TIP3   OH210665   4.340   3.899   1.279
 3575TIP3    H110666   4.427   3.916   1.243
 3575TIP3    H210667   4.295   3.848   1.211
 3576TIP3   OH210668   6.702   7.051   3.526
 3576TIP3    H110669   6.609   7.037   3.508
 3576TIP3    H210670   6.743   7.053   3.439
 3577TIP3   OH210671   6.956   0.747   5.608
 3577TIP3    H110672   6.871   0.788   5.590
 3577TIP3    H210673   7.018   0.798   5.557
 3578TIP3   OH210674   2.044   2.611   5.259
 3578TIP3    H110675   2.117   2.574   5.209
 3578TIP3    H210676   1.978   2.541   5.259
 3579TIP3   OH210677   2.261   2.787   2.656
 3579TIP3    H110678   2.312   2.761   2.733
 3579TIP3    H210679   2.323   2.779   2.583
 3580TIP3   OH210680   8.006   3.736   5.014
 3580TIP3    H110681   8.003   3.827   5.044
 3580TIP3    H210682   8.008   3.742   4.919
 3581TIP3   OH210683   5.922   3.276   2.492
 3581TIP3    H110684   5.926   3.340   2.563
 3581TIP3    H210685   6.014   3.259   2.470
 3582TIP3   OH210686   7.646   4.043   6.617
 3582TIP3    H110687   7.674   3.954   6.594
 3582TIP3    H210688   7.550   4.041   6.609
 3583TIP3   OH210689   7.183   1.042   6.106
 3583TIP3    H110690   7.117   1.083   6.050
 3583TIP3    H210691   7.253   1.016   6.046
 3584TIP3   OH210692   6.008   0.662   4.986
 3584TIP3    H110693   6.015   0.567   4.988
 3584TIP3    H210694   5.920   0.678   4.952
 3585TIP3   OH210695   6.259   3.302   0.403
 3585TIP3    H110696   6.204   3.239   0.450
 3585TIP3    H210697   6.342   3.256   0.391
 3586TIP3   OH210698   1.218   6.422   3.756
 3586TIP3    H110699   1.153   6.353   3.770
 3586TIP3    H210700   1.192   6.463   3.673
 3587TIP3   OH210701   2.291   5.503   6.650
 3587TIP3    H110702   2.326   5.557   6.721
 3587TIP3    H210703   2.218   5.554   6.615
 3588TIP3   OH210704   6.528   6.470   0.932
 3588TIP3    H110705   6.584   6.540   0.898
 3588TIP3    H210706   6.474   6.512   0.998
 3589TIP3   OH210707   1.775   2.976   5.579
 3589TIP3    H110708   1.694   2.932   5.605
 3589TIP3    H210709   1.792   2.945   5.490
 3590TIP3   OH210710   0.974   1.667   1.617
 3590TIP3    H110711   0.910   1.606   1.580
 3590TIP3    H210712   0.941   1.754   1.592
 3591TIP3   OH210713   7.099   7.051   5.640
 3591TIP3    H110714   7.131   6.970   5.601
 3591TIP3    H210715   7.033   7.023   5.704
 3592TIP3   OH210716   7.531   4.104   4.763
 3592TIP3    H110717   7.545   4.174   4.826
 3592TIP3    H210718   7.582   4.130   4.686
 3593TIP3   OH210719   6.629   1.188   5.992
 3593TIP3    H110720   6.581   1.226   6.065
 3593TIP3    H210721   6.566   1.189   5.920
 3594TIP3   OH210722   2.720   1.642   1.394
 3594TIP3    H110723   2.677   1.558   1.408
 3594TIP3    H210724   2.791   1.643   1.458
 3595TIP3   OH210725   0.136   3.473   2.840
 3595TIP3    H110726   0.164   3.489   2.930
 3595TIP3    H210727   0.145   3.558   2.797
 3596TIP3   OH210728   0.286   3.763   1.222
 3596TIP3    H110729   0.319   3.687   1.270
 3596TIP3    H210730   0.202   3.783   1.264
 3597TIP3   OH210731   2.373   6.254   0.321
 3597TIP3    H110732   2.460   6.295   0.321
 3597TIP3    H210733   2.391   6.161   0.311
 3598TIP3   OH210734   6.319   7.080   3.201
 3598TIP3    H110735   6.319   7.138   3.125
 3598TIP3    H210736   6.257   7.120   3.262
 3599TIP3   OH210737   6.901   5.217   6.334
 3599TIP3    H110738   6.812   5.204   6.302
 3599TIP3    H210739   6.893   5.286   6.400
 3600TIP3   OH210740   3.838   6.239   6.749
 3600TIP3    H110741   3.844   6.192   6.832
 3600TIP3    H210742   3.836   6.331   6.773
 3601TIP3   OH210743   6.428   4.772   5.706
 3601TIP3    H110744   6.389   4.814   5.630
 3601TIP3    H210745   6.496   4.715   5.669
 3602TIP3   OH210746   8.281   5.607   4.499
 3602TIP3    H110747   8.232   5.628   4.420
 3602TIP3    H210748   8.239   5.659   4.567
 3603TIP3   OH210749   2.307   5.333   4.102
 3603TIP3    H110750   2.236   5.291   4.150
 3603TIP3    H210751   2.267   5.409   4.061
 3604TIP3   OH210752   5.763   7.575   0.728
 3604TIP3    H110753   5.752   7.546   0.637
 3604TIP3    H210754   5.700   7.646   0.738
 3605TIP3   OH210755   0.839   2.916   6.431
 3605TIP3    H110756   0.906   2.936   6.366
 3605TIP3    H210757   0.870   2.838   6.475
 3606TIP3   OH210758   0.576   0.179   6.289
 3606TIP3    H110759   0.508   0.131   6.337
 3606TIP3    H210760   0.545   0.270   6.289
 3607TIP3   OH210761   1.048   1.046   6.660
 3607TIP3    H110762   1.075   1.113   6.597
 3607TIP3    H210763   0.953   1.047   6.658
 3608TIP3   OH210764   0.034   2.216   4.179
 3608TIP3    H110765  -0.008   2.137   4.214
 3608TIP3    H210766   0.117   2.222   4.225
 3609TIP3   OH210767   7.320   2.250   1.434
 3609TIP3    H110768   7.399   2.300   1.415
 3609TIP3    H210769   7.285   2.289   1.514
 3610TIP3   OH210770   7.590   1.052   4.068
 3610TIP3    H110771   7.535   0.983   4.031
 3610TIP3    H210772   7.620   1.101   3.992
 3611TIP3   OH210773   1.172   7.433   4.438
 3611TIP3    H110774   1.101   7.495   4.423
 3611TIP3    H210775   1.138   7.349   4.407
 3612TIP3   OH210776   4.175   5.352   4.871
 3612TIP3    H110777   4.148   5.321   4.957
 3612TIP3    H210778   4.173   5.274   4.815
 3613TIP3   OH210779   5.771   7.549   5.498
 3613TIP3    H110780   5.816   7.466   5.487
 3613TIP3    H210781   5.825   7.613   5.452
 3614TIP3   OH210782   0.096   4.226   3.401
 3614TIP3    H110783   0.078   4.269   3.485
 3614TIP3    H210784   0.067   4.289   3.335
 3615TIP3   OH210785   4.944   2.485   5.535
 3615TIP3    H110786   4.995   2.418   5.580
 3615TIP3    H210787   4.908   2.440   5.458
 3616TIP3   OH210788   1.375   0.636   0.285
 3616TIP3    H110789   1.394   0.729   0.272
 3616TIP3    H210790   1.453   0.602   0.329
 3617TIP3   OH210791   3.698   0.765   5.354
 3617TIP3    H110792   3.766   0.809   5.302
 3617TIP3    H210793   3.713   0.672   5.338
 3618TIP3   OH210794   7.022   5.221   1.555
 3618TIP3    H110795   6.991   5.132   1.567
 3618TIP3    H210796   7.012   5.262   1.641
 3619TIP3   OH210797   4.805   5.314   4.986
 3619TIP3    H110798   4.714   5.284   4.985
 3619TIP3    H210799   4.836   5.295   4.897
 3620TIP3   OH210800   1.935   5.155   5.015
 3620TIP3    H110801   1.890   5.220   4.961
 3620TIP3    H210802   1.914   5.181   5.105
 3621TIP3   OH210803   4.614   0.255   5.732
 3621TIP3    H110804   4.674   0.297   5.793
 3621TIP3    H210805   4.532   0.304   5.741
 3622TIP3   OH210806   5.821   3.941   0.106
 3622TIP3    H110807   5.725   3.948   0.112
 3622TIP3    H210808   5.845   3.883   0.178
 3623TIP3   OH210809   7.747   6.312   5.338
 3623TIP3    H110810   7.719   6.398   5.308
 3623TIP3    H210811   7.779   6.327   5.427
 3624TIP3   OH210812   4.976   1.034   6.289
 3624TIP3    H110813   5.035   0.978   6.340
 3624TIP3    H210814   4.921   1.078   6.353
 3625TIP3   OH210815   2.710   3.645   5.451
 3625TIP3    H110816   2.748   3.596   5.378
 3625TIP3    H210817   2.619   3.660   5.426
 3626TIP3   OH210818   3.603   5.927   4.967
 3626TIP3    H110819   3.605   5.854   5.029
 3626TIP3    H210820   3.662   5.993   5.005
 3627TIP3   OH210821   8.305   0.377   0.358
 3627TIP3    H110822   8.264   0.444   0.303
 3627TIP3    H210823   8.365   0.332   0.300
 3628TIP3   OH210824   2.394   2.009   4.228
 3628TIP3    H110825   2.311   2.051   4.249
 3628TIP3    H210826   2.373   1.951   4.155
 3629TIP3   OH210827   0.373   2.751   0.872
 3629TIP3    H110828   0.282   2.742   0.846
 3629TIP3    H210829   0.369   2.789   0.960
 3630TIP3   OH210830   0.749   3.652   3.587
 3630TIP3    H110831   0.686   3.623   3.652
 3630TIP3    H210832   0.726   3.604   3.508
 3631TIP3   OH210833   1.547   6.088   0.433
 3631TIP3    H110834   1.618   6.119   0.489
 3631TIP3    H210835   1.540   5.994   0.452
 3632TIP3   OH210836   0.692   3.436   1.480
 3632TIP3    H110837   0.726   3.396   1.561
 3632TIP3    H210838   0.769   3.470   1.436
 3633TIP3   OH210839   1.127   4.431   4.205
 3633TIP3    H110840   1.166   4.372   4.140
 3633TIP3    H210841   1.041   4.392   4.223
 3634TIP3   OH210842   7.146   2.276   4.619
 3634TIP3    H110843   7.147   2.182   4.600
 3634TIP3    H210844   7.071   2.287   4.678
 3635TIP3   OH210845   8.321   4.233   2.607
 3635TIP3    H110846   8.268   4.293   2.660
 3635TIP3    H210847   8.257   4.175   2.565
 3636TIP3   OH210848   0.777   0.252   4.588
 3636TIP3    H110849   0.692   0.224   4.622
 3636TIP3    H210850   0.831   0.265   4.665
 3637TIP3   OH210851   1.918   7.785   1.310
 3637TIP3    H110852   1.875   7.828   1.236
 3637TIP3    H210853   1.889   7.836   1.386
 3638TIP3   OH210854   7.753   1.317   0.883
 3638TIP3    H110855   7.794   1.304   0.969
 3638TIP3    H210856   7.731   1.410   0.881
 3639TIP3   OH210857   3.144   5.387   2.521
 3639TIP3    H110858   3.163   5.405   2.429
 3639TIP3    H210859   3.050   5.369   2.522
 3640TIP3   OH210860   1.013   3.161   1.258
 3640TIP3    H110861   1.106   3.184   1.255
 3640TIP3    H210862   0.968   3.235   1.218
 3641TIP3   OH210863   1.077   1.713   1.929
 3641TIP3    H110864   1.132   1.694   1.854
 3641TIP3    H210865   1.008   1.647   1.927
 3642TIP3   OH210866   0.991   3.382   1.535
 3642TIP3    H110867   1.050   3.412   1.605
 3642TIP3    H210868   1.019   3.292   1.517
 3643TIP3   OH210869   7.274   6.002   6.200
 3643TIP3    H110870   7.278   5.910   6.227
 3643TIP3    H210871   7.188   6.032   6.229
 3644TIP3   OH210872   5.687   6.633   3.299
 3644TIP3    H110873   5.608   6.675   3.333
 3644TIP3    H210874   5.732   6.601   3.377
 3645TIP3   OH210875   4.743   1.879   6.819
 3645TIP3    H110876   4.671   1.821   6.791
 3645TIP3    H210877   4.797   1.890   6.740
 3646TIP3   OH210878   2.003   4.617   3.984
 3646TIP3    H110879   1.970   4.624   4.074
 3646TIP3    H210880   2.089   4.659   3.987
 3647TIP3   OH210881   6.062   2.625   6.725
 3647TIP3    H110882   6.072   2.558   6.792
 3647TIP3    H210883   6.051   2.707   6.775
 3648TIP3   OH210884   0.355   2.554   5.411
 3648TIP3    H110885   0.318   2.484   5.356
 3648TIP3    H210886   0.444   2.525   5.429
 3649TIP3   OH210887   2.767   7.511   5.872
 3649TIP3    H110888   2.672   7.513   5.881
 3649TIP3    H210889   2.799   7.581   5.930
 3650TIP3   OH210890   5.828   1.097   6.490
 3650TIP3    H110891   5.791   1.034   6.552
 3650TIP3    H210892   5.778   1.177   6.503
 3651TIP3   OH210893   4.328   5.304   0.374
 3651TIP3    H110894   4.266   5.239   0.342
 3651TIP3    H210895   4.274   5.380   0.396
 3652TIP3   OH210896   4.131   2.735   1.064
 3652TIP3    H110897   4.102   2.817   1.106
 3652TIP3    H210898   4.197   2.700   1.124
 3653TIP3   OH210899   7.337   6.732   6.430
 3653TIP3    H110900   7.256   6.753   6.385
 3653TIP3    H210901   7.364   6.647   6.395
 3654TIP3   OH210902   7.603   5.633   1.415
 3654TIP3    H110903   7.676   5.600   1.467
 3654TIP3    H210904   7.539   5.563   1.416
 3655TIP3   OH210905   3.781   4.071   3.435
 3655TIP3    H110906   3.703   4.029   3.397
 3655TIP3    H210907   3.794   4.025   3.518
 3656TIP3   OH210908   2.943   6.381   0.967
 3656TIP3    H110909   2.891   6.346   0.895
 3656TIP3    H210910   3.009   6.437   0.925
 3657TIP3   OH210911   6.972   2.418   5.300
 3657TIP3    H110912   7.044   2.467   5.339
 3657TIP3    H210913   6.976   2.439   5.207
 3658TIP3   OH210914   2.499   5.565   5.412
 3658TIP3    H110915   2.485   5.562   5.507
 3658TIP3    H210916   2.516   5.658   5.393
 3659TIP3   OH210917   6.581   6.131   0.147
 3659TIP3    H110918   6.534   6.179   0.078
 3659TIP3    H210919   6.571   6.186   0.225
 3660TIP3   OH210920   2.051   1.153   3.164
 3660TIP3    H110921   2.109   1.228   3.151
 3660TIP3    H210922   1.979   1.188   3.217
 3661TIP3   OH210923   8.092   0.775   4.013
 3661TIP3    H110924   8.024   0.792   3.948
 3661TIP3    H210925   8.072   0.688   4.047
 3662TIP3   OH210926   0.125   4.245   6.630
 3662TIP3    H110927   0.095   4.258   6.720
 3662TIP3    H210928   0.105   4.327   6.586
 3663TIP3   OH210929   6.469   4.018   0.731
 3663TIP3    H110930   6.394   4.019   0.790
 3663TIP3    H210931   6.483   4.110   0.707
 3664TIP3   OH210932   4.763   5.208   5.718
 3664TIP3    H110933   4.750   5.264   5.795
 3664TIP3    H210934   4.764   5.119   5.753
 3665TIP3   OH210935   4.501   4.210   5.722
 3665TIP3    H110936   4.593   4.238   5.721
 3665TIP3    H210937   4.457   4.269   5.662
 3666TIP3   OH210938   4.614   2.378   3.768
 3666TIP3    H110939   4.707   2.357   3.762
 3666TIP3    H210940   4.602   2.453   3.710
 3667TIP3   OH210941   6.667   0.404   1.256
 3667TIP3    H110942   6.747   0.436   1.215
 3667TIP3    H210943   6.661   0.454   1.338
 3668TIP3   OH210944   8.238   7.340   5.743
 3668TIP3    H110945   8.228   7.421   5.693
 3668TIP3    H210946   8.322   7.303   5.714
 3669TIP3   OH210947   7.764   0.066   3.136
 3669TIP3    H110948   7.669   0.080   3.133
 3669TIP3    H210949   7.787   0.082   3.227
 3670TIP3   OH210950   7.389   7.462   2.307
 3670TIP3    H110951   7.425   7.442   2.394
 3670TIP3    H210952   7.398   7.380   2.258
 3671TIP3   OH210953   1.324   7.536   2.586
 3671TIP3    H110954   1.241   7.513   2.627
 3671TIP3    H210955   1.387   7.473   2.621
 3672TIP3   OH210956   3.094   5.328   0.825
 3672TIP3    H110957   3.171   5.379   0.799
 3672TIP3    H210958   3.117   5.238   0.802
 3673TIP3   OH210959   2.840   4.008   1.467
 3673TIP3    H110960   2.825   3.985   1.376
 3673TIP3    H210961   2.757   4.049   1.495
 3674TIP3   OH210962   7.271   1.095   6.704
 3674TIP3    H110963   7.267   1.161   6.774
 3674TIP3    H210964   7.347   1.121   6.651
 3675TIP3   OH210965   5.995   0.243   5.730
 3675TIP3    H110966   5.913   0.278   5.693
 3675TIP3    H210967   5.978   0.150   5.743
 3676TIP3   OH210968   0.525   5.631   3.991
 3676TIP3    H110969   0.487   5.666   4.071
 3676TIP3    H210970   0.521   5.536   4.002
 3677TIP3   OH210971   4.818   7.453   6.005
 3677TIP3    H110972   4.826   7.370   6.052
 3677TIP3    H210973   4.866   7.516   6.059
 3678TIP3   OH210974   1.410   4.665   3.855
 3678TIP3    H110975   1.326   4.626   3.832
 3678TIP3    H210976   1.401   4.758   3.832
 3679TIP3   OH210977   3.537   1.973   2.397
 3679TIP3    H110978   3.632   1.987   2.396
 3679TIP3    H210979   3.504   2.040   2.457
 3680TIP3   OH210980   6.949   0.921   1.249
 3680TIP3    H110981   7.043   0.907   1.237
 3680TIP3    H210982   6.942   0.973   1.329
 3681TIP3   OH210983   1.384   7.145   1.096
 3681TIP3    H110984   1.423   7.207   1.157
 3681TIP3    H210985   1.444   7.070   1.096
 3682TIP3   OH210986   4.921   1.232   6.086
 3682TIP3    H110987   4.942   1.181   6.165
 3682TIP3    H210988   4.836   1.199   6.058
 3683TIP3   OH210989   4.883   2.517   6.305
 3683TIP3    H110990   4.970   2.504   6.268
 3683TIP3    H210991   4.845   2.588   6.254
 3684TIP3   OH210992   6.610   3.844   5.877
 3684TIP3    H110993   6.618   3.922   5.822
 3684TIP3    H210994   6.522   3.850   5.914
 3685TIP3   OH210995   4.147   5.997   5.296
 3685TIP3    H110996   4.186   5.964   5.215
 3685TIP3    H210997   4.099   5.923   5.332
 3686TIP3   OH210998   3.643   4.084   4.259
 3686TIP3    H110999   3.588   4.161   4.274
 3686TIP3    H211000   3.593   4.030   4.198
 3687TIP3   OH211001   6.716   3.926   6.282
 3687TIP3    H111002   6.786   3.991   6.269
 3687TIP3    H211003   6.732   3.860   6.215
 3688TIP3   OH211004   4.771   6.502   0.431
 3688TIP3    H111005   4.798   6.469   0.517
 3688TIP3    H211006   4.849   6.547   0.397
 3689TIP3   OH211007   1.435   6.573   6.545
 3689TIP3    H111008   1.519   6.616   6.529
 3689TIP3    H211009   1.381   6.641   6.584
 3690TIP3   OH211010   6.611   0.445   6.652
 3690TIP3    H111011   6.681   0.469   6.712
 3690TIP3    H211012   6.538   0.502   6.676
 3691TIP3   OH211013   6.224   0.507   1.313
 3691TIP3    H111014   6.289   0.447   1.348
 3691TIP3    H211015   6.152   0.504   1.376
 3692TIP3   OH211016   0.764   5.217   4.997
 3692TIP3    H111017   0.705   5.243   5.067
 3692TIP3    H211018   0.715   5.235   4.916
 3693TIP3   OH211019   2.962   0.231   6.477
 3693TIP3    H111020   2.961   0.153   6.532
 3693TIP3    H211021   3.055   0.247   6.461
 3694TIP3   OH211022   3.796   2.242   6.116
 3694TIP3    H111023   3.741   2.224   6.192
 3694TIP3    H211024   3.876   2.281   6.152
 3695TIP3   OH211025   3.559   0.131   1.379
 3695TIP3    H111026   3.596   0.056   1.426
 3695TIP3    H211027   3.474   0.145   1.419
 3696TIP3   OH211028   1.118   1.332   4.680
 3696TIP3    H111029   1.055   1.355   4.748
 3696TIP3    H211030   1.071   1.271   4.623
 3697TIP3   OH211031   0.458   4.583   3.701
 3697TIP3    H111032   0.503   4.665   3.719
 3697TIP3    H211033   0.369   4.608   3.677
 3698TIP3   OH211034   4.716   4.661   5.511
 3698TIP3    H111035   4.797   4.610   5.506
 3698TIP3    H211036   4.699   4.689   5.422
 3699TIP3   OH211037   2.512   0.511   1.655
 3699TIP3    H111038   2.541   0.551   1.737
 3699TIP3    H211039   2.545   0.421   1.660
 3700TIP3   OH211040   0.345   2.981   4.748
 3700TIP3    H111041   0.284   2.982   4.675
 3700TIP3    H211042   0.305   2.923   4.813
 3701TIP3   OH211043   1.264   3.184   2.184
 3701TIP3    H111044   1.305   3.220   2.262
 3701TIP3    H211045   1.178   3.154   2.214
 3702TIP3   OH211046   0.649   1.758   0.869
 3702TIP3    H111047   0.690   1.674   0.892
 3702TIP3    H211048   0.694   1.785   0.789
 3703TIP3   OH211049   7.553   6.969   3.482
 3703TIP3    H111050   7.473   7.003   3.442
 3703TIP3    H211051   7.527   6.946   3.571
 3704TIP3   OH211052   5.254   6.108   3.901
 3704TIP3    H111053   5.259   6.195   3.862
 3704TIP3    H211054   5.255   6.048   3.826
 3705TIP3   OH211055   0.201   6.222   1.635
 3705TIP3    H111056   0.258   6.203   1.560
 3705TIP3    H211057   0.261   6.255   1.702
 3706TIP3   OH211058   7.150   7.766   2.445
 3706TIP3    H111059   7.165   7.722   2.361
 3706TIP3    H211060   7.231   7.751   2.494
 3707TIP3   OH211061   1.678   1.689   5.341
 3707TIP3    H111062   1.649   1.606   5.303
 3707TIP3    H211063   1.724   1.734   5.270
 3708TIP3   OH211064   4.296   6.282   1.154
 3708TIP3    H111065   4.275   6.240   1.071
 3708TIP3    H211066   4.212   6.316   1.185
 3709TIP3   OH211067  -0.038   3.240   1.204
 3709TIP3    H111068   0.015   3.311   1.166
 3709TIP3    H211069   0.022   3.166   1.209
 3710TIP3   OH211070   7.955   7.385   1.733
 3710TIP3    H111071   7.915   7.348   1.655
 3710TIP3    H211072   7.994   7.467   1.704
 3711TIP3   OH211073   1.289   3.579   5.080
 3711TIP3    H111074   1.239   3.631   5.016
 3711TIP3    H211075   1.223   3.540   5.137
 3712TIP3   OH211076   6.728   0.469   2.038
 3712TIP3    H111077   6.736   0.379   2.005
 3712TIP3    H211078   6.740   0.460   2.133
 3713TIP3   OH211079   8.313   1.897   0.736
 3713TIP3    H111080   8.234   1.947   0.717
 3713TIP3    H211081   8.285   1.806   0.736
 3714TIP3   OH211082   5.144   0.871   0.423
 3714TIP3    H111083   5.065   0.902   0.467
 3714TIP3    H211084   5.142   0.912   0.337
 3715TIP3   OH211085   4.702   4.749   1.491
 3715TIP3    H111086   4.782   4.749   1.439
 3715TIP3    H211087   4.716   4.682   1.558
 3716TIP3   OH211088   3.700   3.604   0.346
 3716TIP3    H111089   3.740   3.685   0.313
 3716TIP3    H211090   3.609   3.628   0.363
 3717TIP3   OH211091   3.640   7.905   2.002
 3717TIP3    H111092   3.620   7.815   2.029
 3717TIP3    H211093   3.719   7.928   2.052
 3718TIP3   OH211094   8.173   6.360   4.746
 3718TIP3    H111095   8.192   6.422   4.676
 3718TIP3    H211096   8.230   6.388   4.819
 3719TIP3   OH211097   1.713   1.917   2.278
 3719TIP3    H111098   1.646   1.963   2.330
 3719TIP3    H211099   1.667   1.843   2.240
 3720TIP3   OH211100   6.994   7.746   6.746
 3720TIP3    H111101   6.935   7.789   6.685
 3720TIP3    H211102   7.023   7.667   6.700
 3721TIP3   OH211103   5.140   0.823   6.654
 3721TIP3    H111104   5.227   0.794   6.683
 3721TIP3    H211105   5.086   0.745   6.660
 3722TIP3   OH211106   0.314   2.311   0.170
 3722TIP3    H111107   0.315   2.226   0.215
 3722TIP3    H211108   0.267   2.369   0.229
 3723TIP3   OH211109   0.025   4.697   5.856
 3723TIP3    H111110  -0.041   4.628   5.850
 3723TIP3    H211111   0.106   4.652   5.880
 3724TIP3   OH211112   5.510   3.510   1.913
 3724TIP3    H111113   5.529   3.531   2.004
 3724TIP3    H211114   5.594   3.485   1.876
 3725TIP3   OH211115   5.853   1.820   6.577
 3725TIP3    H111116   5.920   1.877   6.616
 3725TIP3    H211117   5.771   1.863   6.600
 3726TIP3   OH211118   7.925   1.086   5.935
 3726TIP3    H111119   7.898   1.126   6.018
 3726TIP3    H211120   8.020   1.081   5.941
 3727TIP3   OH211121   5.579   5.993   4.643
 3727TIP3    H111122   5.605   5.957   4.558
 3727TIP3    H211123   5.587   5.920   4.704
 3728TIP3   OH211124   5.943   0.561   6.583
 3728TIP3    H111125   6.023   0.510   6.581
 3728TIP3    H211126   5.908   0.556   6.494
 3729TIP3   OH211127   1.207   6.197   5.380
 3729TIP3    H111128   1.168   6.130   5.324
 3729TIP3    H211129   1.300   6.176   5.382
 3730TIP3   OH211130   4.228   1.396   2.303
 3730TIP3    H111131   4.147   1.436   2.335
 3730TIP3    H211132   4.222   1.405   2.208
 3731TIP3   OH211133   0.993   4.670   1.093
 3731TIP3    H111134   1.001   4.635   1.004
 3731TIP3    H211135   0.922   4.621   1.132
 3732TIP3   OH211136   0.625   6.140   3.449
 3732TIP3    H111137   0.587   6.153   3.536
 3732TIP3    H211138   0.719   6.132   3.465
 3733TIP3   OH211139   4.153   6.812   3.314
 3733TIP3    H111140   4.089   6.764   3.367
 3733TIP3    H211141   4.133   6.904   3.330
 3734TIP3   OH211142   4.155   6.367   2.297
 3734TIP3    H111143   4.166   6.433   2.365
 3734TIP3    H211144   4.071   6.326   2.316
 3735TIP3   OH211145   7.990   7.292   6.459
 3735TIP3    H111146   8.015   7.289   6.367
 3735TIP3    H211147   7.912   7.347   6.462
 3736TIP3   OH211148   7.069   7.122   4.408
 3736TIP3    H111149   6.991   7.173   4.430
 3736TIP3    H211150   7.116   7.115   4.491
 3737TIP3   OH211151   6.217   3.076   3.747
 3737TIP3    H111152   6.198   3.062   3.840
 3737TIP3    H211153   6.131   3.087   3.707
 3738TIP3   OH211154   5.973   2.726   1.566
 3738TIP3    H111155   5.939   2.772   1.489
 3738TIP3    H211156   6.066   2.749   1.567
 3739TIP3   OH211157   0.469   0.442   4.546
 3739TIP3    H111158   0.527   0.508   4.508
 3739TIP3    H211159   0.435   0.483   4.626
 3740TIP3   OH211160   7.954   6.867   3.692
 3740TIP3    H111161   8.047   6.889   3.683
 3740TIP3    H211162   7.930   6.832   3.606
 3741TIP3   OH211163   4.628   0.200   0.853
 3741TIP3    H111164   4.658   0.291   0.860
 3741TIP3    H211165   4.533   0.206   0.858
 3742TIP3   OH211166   0.119   7.715   5.731
 3742TIP3    H111167   0.062   7.704   5.807
 3742TIP3    H211168   0.207   7.697   5.763
 3743TIP3   OH211169   6.132   0.071   5.438
 3743TIP3    H111170   6.117   0.138   5.371
 3743TIP3    H211171   6.047   0.059   5.480
 3744TIP3   OH211172   1.480   0.571   3.394
 3744TIP3    H111173   1.575   0.582   3.395
 3744TIP3    H211174   1.445   0.660   3.391
 3745TIP3   OH211175   0.380   5.155   5.178
 3745TIP3    H111176   0.457   5.211   5.186
 3745TIP3    H211177   0.336   5.163   5.262
 3746TIP3   OH211178   4.852   7.098   3.313
 3746TIP3    H111179   4.875   7.183   3.275
 3746TIP3    H211180   4.823   7.046   3.239
 3747TIP3   OH211181   1.041   7.756   5.095
 3747TIP3    H111182   1.011   7.798   5.014
 3747TIP3    H211183   1.052   7.664   5.072
 3748TIP3   OH211184   5.656   7.087   3.719
 3748TIP3    H111185   5.633   7.119   3.631
 3748TIP3    H211186   5.714   7.154   3.754
 3749TIP3   OH211187   7.597   2.624   2.239
 3749TIP3    H111188   7.684   2.658   2.217
 3749TIP3    H211189   7.546   2.701   2.264
 3750TIP3   OH211190   2.892   5.956   1.034
 3750TIP3    H111191   2.905   5.903   0.955
 3750TIP3    H211192   2.874   6.044   1.001
 3751TIP3   OH211193   7.909   4.296   0.275
 3751TIP3    H111194   7.884   4.243   0.350
 3751TIP3    H211195   7.990   4.340   0.301
 3752TIP3   OH211196   7.983   7.364   4.457
 3752TIP3    H111197   8.042   7.289   4.466
 3752TIP3    H211198   7.945   7.353   4.369
 3753TIP3   OH211199   1.756   5.692   0.477
 3753TIP3    H111200   1.696   5.765   0.494
 3753TIP3    H211201   1.778   5.701   0.384
 3754TIP3   OH211202   6.368   6.077   1.763
 3754TIP3    H111203   6.446   6.133   1.766
 3754TIP3    H211204   6.356   6.048   1.854
 3755TIP3   OH211205   3.695   6.821   1.617
 3755TIP3    H111206   3.630   6.783   1.559
 3755TIP3    H211207   3.762   6.856   1.558
 3756TIP3   OH211208   4.000   3.542   1.712
 3756TIP3    H111209   3.926   3.591   1.678
 3756TIP3    H211210   3.973   3.514   1.799
 3757TIP3   OH211211   1.689   6.389   1.567
 3757TIP3    H111212   1.687   6.398   1.662
 3757TIP3    H211213   1.621   6.324   1.548
 3758TIP3   OH211214   0.700   2.485   3.377
 3758TIP3    H111215   0.686   2.441   3.460
 3758TIP3    H211216   0.634   2.449   3.318
 3759TIP3   OH211217   6.029   7.470   1.746
 3759TIP3    H111218   5.984   7.499   1.666
 3759TIP3    H211219   5.975   7.398   1.779
 3760TIP3   OH211220   5.004   6.901   5.103
 3760TIP3    H111221   4.914   6.925   5.082
 3760TIP3    H211222   5.054   6.980   5.085
 3761TIP3   OH211223   5.010   2.898   2.214
 3761TIP3    H111224   4.986   2.805   2.212
 3761TIP3    H211225   5.080   2.906   2.149
 3762TIP3   OH211226   3.174   7.731   6.284
 3762TIP3    H111227   3.257   7.773   6.304
 3762TIP3    H211228   3.161   7.747   6.190
 3763TIP3   OH211229   1.714   7.105   5.459
 3763TIP3    H111230   1.768   7.162   5.514
 3763TIP3    H211231   1.626   7.112   5.496
 3764TIP3   OH211232   7.743   6.446   0.627
 3764TIP3    H111233   7.751   6.496   0.546
 3764TIP3    H211234   7.828   6.403   0.637
 3765TIP3   OH211235   2.778   4.204   0.039
 3765TIP3    H111236   2.695   4.166   0.067
 3765TIP3    H211237   2.843   4.138   0.060
 3766TIP3   OH211238   3.624   6.722  -0.005
 3766TIP3    H111239   3.720   6.723  -0.006
 3766TIP3    H211240   3.601   6.669   0.071
 3767TIP3   OH211241   4.060   6.270   2.617
 3767TIP3    H111242   4.154   6.288   2.608
 3767TIP3    H211243   4.026   6.344   2.668
 3768TIP3   OH211244   5.735   1.041   3.074
 3768TIP3    H111245   5.783   1.002   3.147
 3768TIP3    H211246   5.802   1.067   3.011
 3769TIP3   OH211247   8.163   2.219   6.094
 3769TIP3    H111248   8.114   2.163   6.034
 3769TIP3    H211249   8.197   2.159   6.161
 3770TIP3   OH211250   5.862   7.939   4.575
 3770TIP3    H111251   5.823   7.953   4.661
 3770TIP3    H211252   5.864   7.843   4.566
 3771TIP3   OH211253   5.694   2.698   6.629
 3771TIP3    H111254   5.743   2.648   6.563
 3771TIP3    H211255   5.607   2.709   6.591
 3772TIP3   OH211256   6.855   0.765   0.392
 3772TIP3    H111257   6.770   0.725   0.375
 3772TIP3    H211258   6.838   0.827   0.463
 3773TIP3   OH211259   5.456   7.039   6.189
 3773TIP3    H111260   5.441   7.116   6.134
 3773TIP3    H211261   5.424   6.965   6.137
 3774TIP3   OH211262   7.460   6.300   0.213
 3774TIP3    H111263   7.527   6.353   0.169
 3774TIP3    H211264   7.427   6.357   0.283
 3775TIP3   OH211265   5.764   6.563   2.562
 3775TIP3    H111266   5.772   6.636   2.500
 3775TIP3    H211267   5.751   6.486   2.507
 3776TIP3   OH211268   7.595   7.810   4.564
 3776TIP3    H111269   7.550   7.737   4.521
 3776TIP3    H211270   7.688   7.794   4.547
 3777TIP3   OH211271   0.024   2.525   1.159
 3777TIP3    H111272  -0.005   2.504   1.070
 3777TIP3    H211273   0.080   2.453   1.185
 3778TIP3   OH211274   0.977   7.244   4.228
 3778TIP3    H111275   0.987   7.148   4.231
 3778TIP3    H211276   1.028   7.271   4.152
 3779TIP3   OH211277   1.561   5.602   6.799
 3779TIP3    H111278   1.504   5.656   6.744
 3779TIP3    H211279   1.516   5.518   6.804
 3780TIP3   OH211280   3.781   4.784   4.421
 3780TIP3    H111281   3.793   4.830   4.504
 3780TIP3    H211282   3.695   4.813   4.389
 3781TIP3   OH211283   5.505   0.978   5.640
 3781TIP3    H111284   5.433   0.987   5.577
 3781TIP3    H211285   5.584   0.982   5.586
 3782TIP3   OH211286   8.378   3.394   0.329
 3782TIP3    H111287   8.380   3.367   0.421
 3782TIP3    H211288   8.343   3.483   0.330
 3783TIP3   OH211289   6.290   4.522   6.346
 3783TIP3    H111290   6.355   4.483   6.287
 3783TIP3    H211291   6.216   4.543   6.290
 3784TIP3   OH211292   2.620   3.198   6.380
 3784TIP3    H111293   2.538   3.207   6.428
 3784TIP3    H211294   2.686   3.241   6.435
 3785TIP3   OH211295   6.499   5.705   1.460
 3785TIP3    H111296   6.548   5.646   1.518
 3785TIP3    H211297   6.410   5.704   1.494
 3786TIP3   OH211298   0.958   3.775   3.420
 3786TIP3    H111299   1.022   3.705   3.410
 3786TIP3    H211300   0.903   3.748   3.494
 3787TIP3   OH211301   7.838   3.751   2.829
 3787TIP3    H111302   7.774   3.703   2.776
 3787TIP3    H211303   7.853   3.832   2.781
 3788TIP3   OH211304   5.784   0.087   3.332
 3788TIP3    H111305   5.722   0.139   3.383
 3788TIP3    H211306   5.841   0.152   3.290
 3789TIP3   OH211307   8.095   7.820   6.347
 3789TIP3    H111308   8.011   7.849   6.312
 3789TIP3    H211309   8.072   7.764   6.422
 3790TIP3   OH211310   5.026   7.582   0.545
 3790TIP3    H111311   5.077   7.504   0.523
 3790TIP3    H211312   5.051   7.603   0.634
 3791TIP3   OH211313   1.883   3.650   3.975
 3791TIP3    H111314   1.944   3.664   4.047
 3791TIP3    H211315   1.937   3.621   3.902
 3792TIP3   OH211316   4.591   3.470   6.732
 3792TIP3    H111317   4.674   3.517   6.742
 3792TIP3    H211318   4.614   3.390   6.685
 3793TIP3   OH211319   7.371   5.741   2.354
 3793TIP3    H111320   7.454   5.787   2.341
 3793TIP3    H211321   7.335   5.780   2.434
 3794TIP3   OH211322   2.875   2.074   6.004
 3794TIP3    H111323   2.949   2.016   5.987
 3794TIP3    H211324   2.833   2.084   5.918
 3795TIP3   OH211325   4.077   0.211   3.639
 3795TIP3    H111326   4.012   0.170   3.581
 3795TIP3    H211327   4.162   0.191   3.598
 3796TIP3   OH211328   5.799   7.386  -0.019
 3796TIP3    H111329   5.836   7.467   0.016
 3796TIP3    H211330   5.764   7.340   0.057
 3797TIP3   OH211331   4.078   6.131   6.640
 3797TIP3    H111332   3.987   6.161   6.643
 3797TIP3    H211333   4.108   6.155   6.552
 3798TIP3   OH211334   4.505   7.519   0.051
 3798TIP3    H111335   4.486   7.425   0.050
 3798TIP3    H211336   4.564   7.533  -0.023
 3799TIP3   OH211337   4.672   7.218   5.639
 3799TIP3    H111338   4.585   7.185   5.617
 3799TIP3    H211339   4.732   7.161   5.591
 3800TIP3   OH211340   2.292   4.588   3.073
 3800TIP3    H111341   2.264   4.628   3.155
 3800TIP3    H211342   2.359   4.525   3.100
 3801TIP3   OH211343   5.511   3.158   1.954
 3801TIP3    H111344   5.600   3.123   1.954
 3801TIP3    H211345   5.514   3.232   1.894
 3802TIP3   OH211346   5.373   0.497   0.402
 3802TIP3    H111347   5.368   0.447   0.320
 3802TIP3    H211348   5.465   0.520   0.410
 3803TIP3   OH211349   5.636   2.292   6.627
 3803TIP3    H111350   5.687   2.211   6.634
 3803TIP3    H211351   5.614   2.299   6.534
 3804TIP3   OH211352   6.452   1.206   1.502
 3804TIP3    H111353   6.422   1.160   1.579
 3804TIP3    H211354   6.514   1.271   1.535
 3805TIP3   OH211355   0.262   1.284   5.661
 3805TIP3    H111356   0.267   1.366   5.613
 3805TIP3    H211357   0.293   1.218   5.599
 3806TIP3   OH211358   5.862   4.213   4.337
 3806TIP3    H111359   5.958   4.209   4.337
 3806TIP3    H211360   5.836   4.160   4.412
 3807TIP3   OH211361   2.866   0.652   3.353
 3807TIP3    H111362   2.857   0.748   3.350
 3807TIP3    H211363   2.791   0.620   3.303
 3808TIP3   OH211364   6.040   5.382   0.413
 3808TIP3    H111365   6.035   5.464   0.363
 3808TIP3    H211366   6.052   5.314   0.347
 3809TIP3   OH211367   0.613   5.126   3.235
 3809TIP3    H111368   0.678   5.059   3.251
 3809TIP3    H211369   0.647   5.176   3.161
 3810TIP3   OH211370   6.386   7.030   1.132
 3810TIP3    H111371   6.424   6.975   1.063
 3810TIP3    H211372   6.296   7.046   1.102
 3811TIP3   OH211373   6.624   6.229   1.745
 3811TIP3    H111374   6.709   6.191   1.722
 3811TIP3    H211375   6.626   6.236   1.841
 3812TIP3   OH211376   2.905   6.791   2.257
 3812TIP3    H111377   2.947   6.839   2.186
 3812TIP3    H211378   2.849   6.727   2.212
 3813TIP3   OH211379   5.287   5.171   6.609
 3813TIP3    H111380   5.328   5.085   6.597
 3813TIP3    H211381   5.352   5.233   6.576
 3814TIP3   OH211382   5.203   2.690   5.482
 3814TIP3    H111383   5.128   2.683   5.424
 3814TIP3    H211384   5.204   2.782   5.510
 3815TIP3   OH211385   3.864   6.932   1.453
 3815TIP3    H111386   3.837   7.023   1.448
 3815TIP3    H211387   3.894   6.911   1.364
 3816TIP3   OH211388   0.459   2.117   1.821
 3816TIP3    H111389   0.369   2.123   1.854
 3816TIP3    H211390   0.481   2.024   1.827
 3817TIP3   OH211391   3.346   4.020   1.294
 3817TIP3    H111392   3.356   3.926   1.275
 3817TIP3    H211393   3.330   4.060   1.209
 3818TIP3   OH211394   3.007   6.665   1.317
 3818TIP3    H111395   2.922   6.630   1.291
 3818TIP3    H211396   3.028   6.729   1.249
 3819TIP3   OH211397   7.139   5.773   0.798
 3819TIP3    H111398   7.119   5.865   0.814
 3819TIP3    H211399   7.054   5.729   0.802
 3820TIP3   OH211400   5.690   1.491   6.798
 3820TIP3    H111401   5.619   1.502   6.861
 3820TIP3    H211402   5.733   1.577   6.796
 3821TIP3   OH211403   8.100   0.239   0.449
 3821TIP3    H111404   8.180   0.268   0.404
 3821TIP3    H211405   8.050   0.319   0.462
 3822TIP3   OH211406   1.445   1.121   5.603
 3822TIP3    H111407   1.389   1.113   5.680
 3822TIP3    H211408   1.501   1.196   5.622
 3823TIP3   OH211409   2.336   0.541   5.312
 3823TIP3    H111410   2.409   0.482   5.334
 3823TIP3    H211411   2.356   0.622   5.359
 3824TIP3   OH211412   6.691   5.531   5.422
 3824TIP3    H111413   6.775   5.576   5.415
 3824TIP3    H211414   6.701   5.472   5.497
 3825TIP3   OH211415   1.867   0.366   2.187
 3825TIP3    H111416   1.827   0.408   2.263
 3825TIP3    H211417   1.952   0.410   2.177
 3826TIP3   OH211418   5.194   1.877   6.769
 3826TIP3    H111419   5.195   1.970   6.795
 3826TIP3    H211420   5.177   1.830   6.851
 3827TIP3   OH211421   6.729   0.179   2.996
 3827TIP3    H111422   6.739   0.086   3.018
 3827TIP3    H211423   6.732   0.225   3.080
 3828TIP3   OH211424   7.552   5.784   2.057
 3828TIP3    H111425   7.520   5.782   1.966
 3828TIP3    H211426   7.540   5.874   2.085
 3829TIP3   OH211427   2.004   4.160   4.349
 3829TIP3    H111428   1.996   4.255   4.341
 3829TIP3    H211429   2.022   4.130   4.260
 3830TIP3   OH211430   1.754   1.927   2.831
 3830TIP3    H111431   1.766   2.018   2.803
 3830TIP3    H211432   1.677   1.897   2.782
 3831TIP3   OH211433   2.275   0.640   2.101
 3831TIP3    H111434   2.356   0.667   2.144
 3831TIP3    H211435   2.281   0.676   2.013
 3832TIP3   OH211436   3.927   5.002   4.606
 3832TIP3    H111437   3.946   4.982   4.698
 3832TIP3    H211438   3.853   5.063   4.610
 3833TIP3   OH211439   4.140   6.221   6.368
 3833TIP3    H111440   4.223   6.203   6.323
 3833TIP3    H211441   4.157   6.300   6.420
 3834TIP3   OH211442   4.819   2.478   2.441
 3834TIP3    H111443   4.860   2.424   2.509
 3834TIP3    H211444   4.752   2.421   2.403
 3835TIP3   OH211445   3.990   7.517   6.667
 3835TIP3    H111446   4.024   7.435   6.630
 3835TIP3    H211447   3.907   7.492   6.707
 3836TIP3   OH211448   0.926   1.811   2.730
 3836TIP3    H111449   0.908   1.784   2.820
 3836TIP3    H211450   1.021   1.813   2.723
 3837TIP3   OH211451   3.362   1.532   3.744
 3837TIP3    H111452   3.284   1.478   3.753
 3837TIP3    H211453   3.330   1.622   3.743
 3838TIP3   OH211454   1.722   4.858   4.828
 3838TIP3    H111455   1.695   4.766   4.822
 3838TIP3    H211456   1.726   4.888   4.737
 3839TIP3   OH211457   7.084   2.758   0.601
 3839TIP3    H111458   7.034   2.702   0.660
 3839TIP3    H211459   7.129   2.821   0.658
 3840TIP3   OH211460   3.512   1.543   2.797
 3840TIP3    H111461   3.575   1.611   2.776
 3840TIP3    H211462   3.441   1.555   2.734
 3841TIP3   OH211463   6.710   4.332   6.636
 3841TIP3    H111464   6.641   4.398   6.643
 3841TIP3    H211465   6.736   4.313   6.726
 3842TIP3   OH211466   6.395   0.289   1.878
 3842TIP3    H111467   6.463   0.223   1.891
 3842TIP3    H211468   6.320   0.255   1.927
 3843TIP3   OH211469   6.462   6.961   1.384
 3843TIP3    H111470   6.532   7.022   1.362
 3843TIP3    H211471   6.406   6.960   1.307
 3844TIP3   OH211472   0.216   1.550   6.696
 3844TIP3    H111473   0.149   1.610   6.664
 3844TIP3    H211474   0.213   1.558   6.791
 3845TIP3   OH211475   4.257   5.726   0.793
 3845TIP3    H111476   4.230   5.654   0.851
 3845TIP3    H211477   4.176   5.774   0.776
 3846TIP3   OH211478   4.593   6.384   5.927
 3846TIP3    H111479   4.557   6.396   5.839
 3846TIP3    H211480   4.688   6.378   5.913
 3847TIP3   OH211481   4.542   0.845   1.104
 3847TIP3    H111482   4.547   0.925   1.052
 3847TIP3    H211483   4.594   0.782   1.056
 3848TIP3   OH211484   1.494   6.832   0.701
 3848TIP3    H111485   1.414   6.812   0.652
 3848TIP3    H211486   1.471   6.907   0.756
 3849TIP3   OH211487   0.024   6.516   4.220
 3849TIP3    H111488  -0.024   6.435   4.239
 3849TIP3    H211489   0.060   6.503   4.133
 3850TIP3   OH211490   4.415   5.855   6.187
 3850TIP3    H111491   4.508   5.847   6.165
 3850TIP3    H211492   4.410   5.932   6.244
 3851TIP3   OH211493   6.869   4.348   1.043
 3851TIP3    H111494   6.957   4.312   1.054
 3851TIP3    H211495   6.850   4.391   1.126
 3852TIP3   OH211496   3.619   2.197   4.344
 3852TIP3    H111497   3.683   2.213   4.413
 3852TIP3    H211498   3.662   2.134   4.286
 3853TIP3   OH211499   3.724   2.189   2.679
 3853TIP3    H111500   3.762   2.217   2.763
 3853TIP3    H211501   3.742   2.095   2.674
 3854TIP3   OH211502   2.063   1.984   4.915
 3854TIP3    H111503   2.143   1.936   4.891
 3854TIP3    H211504   1.994   1.942   4.864
 3855TIP3   OH211505   5.271   3.929   4.324
 3855TIP3    H111506   5.244   3.931   4.232
 3855TIP3    H211507   5.361   3.896   4.322
 3856TIP3   OH211508   6.947   6.897   4.802
 3856TIP3    H111509   7.024   6.915   4.749
 3856TIP3    H211510   6.983   6.869   4.887
 3857TIP3   OH211511   7.491   0.106   3.036
 3857TIP3    H111512   7.551   0.178   3.017
 3857TIP3    H211513   7.409   0.150   3.061
 3858TIP3   OH211514   2.501   3.991   2.905
 3858TIP3    H111515   2.522   3.982   2.812
 3858TIP3    H211516   2.477   3.903   2.934
 3859TIP3   OH211517   3.191   0.144   4.448
 3859TIP3    H111518   3.211   0.105   4.363
 3859TIP3    H211519   3.234   0.229   4.447
 3860TIP3   OH211520   2.148   6.705   2.928
 3860TIP3    H111521   2.153   6.794   2.894
 3860TIP3    H211522   2.171   6.649   2.854
 3861TIP3   OH211523   7.074   3.370   2.105
 3861TIP3    H111524   7.011   3.438   2.085
 3861TIP3    H211525   7.109   3.394   2.191
 3862TIP3   OH211526   8.208   4.083   1.371
 3862TIP3    H111527   8.230   4.052   1.459
 3862TIP3    H211528   8.209   4.178   1.378
 3863TIP3   OH211529   4.639   0.621   6.736
 3863TIP3    H111530   4.630   0.590   6.826
 3863TIP3    H211531   4.601   0.552   6.683
 3864TIP3   OH211532   3.362   4.436   4.119
 3864TIP3    H111533   3.375   4.362   4.059
 3864TIP3    H211534   3.450   4.458   4.149
 3865TIP3   OH211535   0.365   6.194   6.691
 3865TIP3    H111536   0.418   6.241   6.756
 3865TIP3    H211537   0.430   6.154   6.632
 3866TIP3   OH211538   3.722   3.954   2.963
 3866TIP3    H111539   3.797   3.902   2.934
 3866TIP3    H211540   3.696   3.915   3.046
 3867TIP3   OH211541   2.902   1.521   0.160
 3867TIP3    H111542   2.905   1.431   0.194
 3867TIP3    H211543   2.830   1.562   0.207
 3868TIP3   OH211544   0.551   2.564   5.816
 3868TIP3    H111545   0.583   2.649   5.847
 3868TIP3    H211546   0.480   2.585   5.756
 3869TIP3   OH211547   0.199   0.106   1.726
 3869TIP3    H111548   0.275   0.145   1.684
 3869TIP3    H211549   0.205   0.134   1.817
 3870TIP3   OH211550   6.129   1.034   2.990
 3870TIP3    H111551   6.156   0.959   3.043
 3870TIP3    H211552   6.144   1.110   3.047
 3871TIP3   OH211553   3.916   0.691   2.726
 3871TIP3    H111554   3.943   0.663   2.639
 3871TIP3    H211555   3.866   0.771   2.712
 3872TIP3   OH211556   0.049   7.809   3.238
 3872TIP3    H111557   0.098   7.751   3.297
 3872TIP3    H211558  -0.023   7.755   3.206
 3873TIP3   OH211559   3.906   0.823   1.249
 3873TIP3    H111560   3.854   0.860   1.320
 3873TIP3    H211561   3.854   0.839   1.170
 3874TIP3   OH211562   6.055   6.438   0.390
 3874TIP3    H111563   6.062   6.418   0.483
 3874TIP3    H211564   5.980   6.388   0.360
 3875TIP3   OH211565   1.722   1.117   3.036
 3875TIP3    H111566   1.724   1.060   3.113
 3875TIP3    H211567   1.801   1.093   2.987
 3876TIP3   OH211568   8.087   0.175   5.522
 3876TIP3    H111569   8.098   0.110   5.592
 3876TIP3    H211570   8.038   0.128   5.454
 3877TIP3   OH211571   1.909   3.398   1.669
 3877TIP3    H111572   1.937   3.487   1.686
 3877TIP3    H211573   1.986   3.355   1.631
 3878TIP3   OH211574   4.293   5.971   5.079
 3878TIP3    H111575   4.319   6.011   4.996
 3878TIP3    H211576   4.348   5.893   5.087
 3879TIP3   OH211577   7.900   5.815   1.096
 3879TIP3    H111578   7.880   5.884   1.159
 3879TIP3    H211579   7.828   5.752   1.105
 3880TIP3   OH211580   3.454   0.191   4.964
 3880TIP3    H111581   3.547   0.209   4.975
 3880TIP3    H211582   3.441   0.191   4.869
 3881TIP3   OH211583   6.037   5.119   1.032
 3881TIP3    H111584   6.078   5.088   0.951
 3881TIP3    H211585   5.987   5.044   1.064
 3882TIP3   OH211586   5.872   1.325   5.001
 3882TIP3    H111587   5.818   1.361   4.931
 3882TIP3    H211588   5.961   1.327   4.967
 3883TIP3   OH211589   4.082   6.240   3.634
 3883TIP3    H111590   4.161   6.285   3.663
 3883TIP3    H211591   4.011   6.279   3.686
 3884TIP3   OH211592   7.524   1.893   2.785
 3884TIP3    H111593   7.479   1.851   2.712
 3884TIP3    H211594   7.454   1.936   2.835
 3885TIP3   OH211595   3.290   2.613   0.914
 3885TIP3    H111596   3.238   2.656   0.981
 3885TIP3    H211597   3.347   2.681   0.879
 3886TIP3   OH211598   1.705   3.305   6.829
 3886TIP3    H111599   1.761   3.246   6.880
 3886TIP3    H211600   1.619   3.263   6.829
 3887TIP3   OH211601   6.868   1.344   2.927
 3887TIP3    H111602   6.843   1.289   2.853
 3887TIP3    H211603   6.823   1.306   3.002
 3888TIP3   OH211604   0.202   1.526   4.014
 3888TIP3    H111605   0.159   1.504   3.931
 3888TIP3    H211606   0.145   1.488   4.081
 3889TIP3   OH211607   7.814   7.628   6.136
 3889TIP3    H111608   7.744   7.593   6.080
 3889TIP3    H211609   7.888   7.568   6.122
 3890TIP3   OH211610   4.713   4.242   0.683
 3890TIP3    H111611   4.637   4.213   0.633
 3890TIP3    H211612   4.677   4.276   0.765
 3891TIP3   OH211613   0.303   0.939   5.240
 3891TIP3    H111614   0.378   0.998   5.238
 3891TIP3    H211615   0.307   0.896   5.325
 3892TIP3   OH211616   0.920   2.138   5.829
 3892TIP3    H111617   0.888   2.103   5.912
 3892TIP3    H211618   0.912   2.233   5.839
 3893TIP3   OH211619   0.385   3.945   2.194
 3893TIP3    H111620   0.404   3.852   2.208
 3893TIP3    H211621   0.449   3.972   2.128
 3894TIP3   OH211622   4.911   0.143   0.994
 3894TIP3    H111623   4.859   0.211   1.037
 3894TIP3    H211624   4.849   0.074   0.971
 3895TIP3   OH211625   4.910   0.867   3.364
 3895TIP3    H111626   4.877   0.955   3.350
 3895TIP3    H211627   4.964   0.873   3.443
 3896TIP3   OH211628   3.420   6.552   2.176
 3896TIP3    H111629   3.341   6.582   2.221
 3896TIP3    H211630   3.484   6.539   2.247
 3897TIP3   OH211631   5.161   7.828   3.019
 3897TIP3    H111632   5.139   7.844   2.928
 3897TIP3    H211633   5.089   7.866   3.069
 3898TIP3   OH211634   5.615   2.473   3.421
 3898TIP3    H111635   5.593   2.406   3.485
 3898TIP3    H211636   5.643   2.548   3.473
 3899TIP3   OH211637   0.283   1.287   2.776
 3899TIP3    H111638   0.260   1.378   2.761
 3899TIP3    H211639   0.311   1.255   2.691
 3900TIP3   OH211640   6.242   7.516   6.624
 3900TIP3    H111641   6.312   7.549   6.566
 3900TIP3    H211642   6.166   7.507   6.566
 3901TIP3   OH211643   4.648   6.839   2.565
 3901TIP3    H111644   4.591   6.914   2.578
 3901TIP3    H211645   4.590   6.771   2.531
 3902TIP3   OH211646   8.080   3.297   3.988
 3902TIP3    H111647   8.009   3.262   4.041
 3902TIP3    H211648   8.156   3.244   4.011
 3903TIP3   OH211649   3.754   7.310   2.721
 3903TIP3    H111650   3.687   7.295   2.654
 3903TIP3    H211651   3.821   7.362   2.678
 3904TIP3   OH211652   3.963   4.239   4.823
 3904TIP3    H111653   3.966   4.146   4.799
 3904TIP3    H211654   3.935   4.239   4.914
 3905TIP3   OH211655   7.623   0.818   4.259
 3905TIP3    H111656   7.635   0.912   4.269
 3905TIP3    H211657   7.537   0.800   4.298
 3906TIP3   OH211658   4.558   2.508   4.203
 3906TIP3    H111659   4.568   2.590   4.155
 3906TIP3    H211660   4.507   2.452   4.144
 3907TIP3   OH211661   3.768   7.203   1.408
 3907TIP3    H111662   3.717   7.279   1.433
 3907TIP3    H211663   3.859   7.232   1.414
 3908TIP3   OH211664   3.223   1.577   1.129
 3908TIP3    H111665   3.177   1.551   1.209
 3908TIP3    H211666   3.168   1.543   1.058
 3909TIP3   OH211667   1.884   1.321   5.406
 3909TIP3    H111668   1.954   1.267   5.369
 3909TIP3    H211669   1.845   1.363   5.329
 3910TIP3   OH211670   1.801   0.169   6.141
 3910TIP3    H111671   1.868   0.207   6.197
 3910TIP3    H211672   1.837   0.083   6.116
 3911TIP3   OH211673   1.509   1.805   3.029
 3911TIP3    H111674   1.534   1.772   3.115
 3911TIP3    H211675   1.500   1.900   3.041
 3912TIP3   OH211676   3.926   3.732   5.336
 3912TIP3    H111677   3.965   3.710   5.420
 3912TIP3    H211678   3.893   3.821   5.347
 3913TIP3   OH211679   4.748   1.109   3.998
 3913TIP3    H111680   4.744   1.029   3.946
 3913TIP3    H211681   4.811   1.165   3.953
 3914TIP3   OH211682   7.881   7.452   3.009
 3914TIP3    H111683   7.954   7.455   3.071
 3914TIP3    H211684   7.806   7.424   3.062
 3915TIP3   OH211685   0.090   1.342   1.792
 3915TIP3    H111686   0.019   1.360   1.731
 3915TIP3    H211687   0.049   1.344   1.878
 3916TIP3   OH211688   4.032   0.255   1.555
 3916TIP3    H111689   4.057   0.171   1.517
 3916TIP3    H211690   3.961   0.286   1.499
 3917TIP3   OH211691   1.624   1.686   3.526
 3917TIP3    H111692   1.547   1.677   3.582
 3917TIP3    H211693   1.670   1.603   3.535
 3918TIP3   OH211694   6.795   4.198   1.425
 3918TIP3    H111695   6.846   4.256   1.482
 3918TIP3    H211696   6.744   4.144   1.486
 3919TIP3   OH211697   3.095   6.202   0.246
 3919TIP3    H111698   3.128   6.122   0.287
 3919TIP3    H211699   3.094   6.267   0.316
 3920TIP3   OH211700   2.899   6.071   6.077
 3920TIP3    H111701   2.982   6.026   6.059
 3920TIP3    H211702   2.850   6.064   5.996
 3921TIP3   OH211703   1.893   1.713   5.067
 3921TIP3    H111704   1.917   1.769   5.141
 3921TIP3    H211705   1.977   1.685   5.030
 3922TIP3   OH211706   7.013   3.327   0.982
 3922TIP3    H111707   6.977   3.242   1.009
 3922TIP3    H211708   7.106   3.321   1.003
 3923TIP3   OH211709   2.232   2.774   1.669
 3923TIP3    H111710   2.146   2.732   1.668
 3923TIP3    H211711   2.220   2.854   1.617
 3924TIP3   OH211712   6.210   3.617   5.516
 3924TIP3    H111713   6.128   3.569   5.504
 3924TIP3    H211714   6.277   3.550   5.524
 3925TIP3   OH211715   4.141   7.855   2.506
 3925TIP3    H111716   4.199   7.931   2.505
 3925TIP3    H211717   4.165   7.807   2.586
 3926TIP3   OH211718   5.697   0.021   6.073
 3926TIP3    H111719   5.654   0.032   6.158
 3926TIP3    H211720   5.685  -0.071   6.052
 3927TIP3   OH211721   7.403   2.252   3.447
 3927TIP3    H111722   7.462   2.247   3.522
 3927TIP3    H211723   7.384   2.161   3.425
 3928TIP3   OH211724   7.632   0.609   4.811
 3928TIP3    H111725   7.706   0.647   4.762
 3928TIP3    H211726   7.664   0.604   4.901
 3929TIP3   OH211727   1.869   6.249   6.439
 3929TIP3    H111728   1.962   6.270   6.430
 3929TIP3    H211729   1.862   6.211   6.527
 3930TIP3   OH211730   2.998   7.786   3.845
 3930TIP3    H111731   3.024   7.793   3.753
 3930TIP3    H211732   2.906   7.759   3.842
 3931TIP3   OH211733   3.465   0.880   0.894
 3931TIP3    H111734   3.511   0.903   0.975
 3931TIP3    H211735   3.381   0.846   0.923
 3932TIP3   OH211736   0.178   4.958   5.076
 3932TIP3    H111737   0.101   4.991   5.029
 3932TIP3    H211738   0.231   5.036   5.092
 3933TIP3   OH211739   3.439   3.382   0.863
 3933TIP3    H111740   3.398   3.411   0.944
 3933TIP3    H211741   3.533   3.392   0.879
 3934TIP3   OH211742   4.036   4.440   4.623
 3934TIP3    H111743   3.953   4.479   4.598
 3934TIP3    H211744   4.012   4.359   4.668
 3935TIP3   OH211745   3.438   3.366   0.554
 3935TIP3    H111746   3.464   3.274   0.546
 3935TIP3    H211747   3.432   3.382   0.648
 3936TIP3   OH211748   1.214   6.577   1.310
 3936TIP3    H111749   1.128   6.551   1.344
 3936TIP3    H211750   1.276   6.545   1.375
 3937TIP3   OH211751   1.307   3.334   5.447
 3937TIP3    H111752   1.383   3.305   5.397
 3937TIP3    H211753   1.232   3.295   5.402
 3938TIP3   OH211754   7.240   2.795   5.654
 3938TIP3    H111755   7.253   2.883   5.690
 3938TIP3    H211756   7.220   2.740   5.730
 3939TIP3   OH211757   0.435   1.620   3.443
 3939TIP3    H111758   0.413   1.546   3.386
 3939TIP3    H211759   0.378   1.610   3.519
 3940TIP3   OH211760   5.852   3.560   6.116
 3940TIP3    H111761   5.909   3.550   6.040
 3940TIP3    H211762   5.901   3.615   6.177
 3941TIP3   OH211763   2.599   3.760   6.202
 3941TIP3    H111764   2.534   3.749   6.132
 3941TIP3    H211765   2.557   3.722   6.279
 3942TIP3   OH211766   0.980   7.676   5.578
 3942TIP3    H111767   1.019   7.701   5.494
 3942TIP3    H211768   1.050   7.627   5.623
 3943TIP3   OH211769   7.328   6.939   0.035
 3943TIP3    H111770   7.278   7.020   0.045
 3943TIP3    H211771   7.269   6.871   0.066
 3944TIP3   OH211772   6.151   1.083   5.434
 3944TIP3    H111773   6.108   1.086   5.349
 3944TIP3    H211774   6.087   1.118   5.495
 3945TIP3   OH211775   0.787   2.102   3.933
 3945TIP3    H111776   0.830   2.184   3.957
 3945TIP3    H211777   0.826   2.077   3.850
 3946TIP3   OH211778   7.913   0.035   0.787
 3946TIP3    H111779   7.862   0.109   0.754
 3946TIP3    H211780   7.972   0.013   0.715
 3947TIP3   OH211781   7.154   1.504   4.274
 3947TIP3    H111782   7.197   1.575   4.228
 3947TIP3    H211783   7.168   1.427   4.218
 3948TIP3   OH211784   4.094   4.045   1.032
 3948TIP3    H111785   4.135   3.963   1.059
 3948TIP3    H211786   4.106   4.048   0.937
 3949TIP3   OH211787   7.180   7.089   4.638
 3949TIP3    H111788   7.185   7.180   4.667
 3949TIP3    H211789   7.214   7.038   4.712
 3950TIP3   OH211790   4.488   0.806   1.711
 3950TIP3    H111791   4.448   0.753   1.779
 3950TIP3    H211792   4.554   0.858   1.756
 3951TIP3   OH211793   4.500   7.715   1.129
 3951TIP3    H111794   4.551   7.698   1.050
 3951TIP3    H211795   4.414   7.743   1.098
 3952TIP3   OH211796   0.420   6.519   1.570
 3952TIP3    H111797   0.433   6.454   1.500
 3952TIP3    H211798   0.383   6.595   1.525
 3953TIP3   OH211799   7.087   2.853   1.295
 3953TIP3    H111800   7.061   2.769   1.257
 3953TIP3    H211801   7.106   2.832   1.387
 3954TIP3   OH211802   1.197   4.397   3.622
 3954TIP3    H111803   1.224   4.438   3.704
 3954TIP3    H211804   1.133   4.459   3.585
 3955TIP3   OH211805   5.666   3.073   3.609
 3955TIP3    H111806   5.696   3.002   3.551
 3955TIP3    H211807   5.606   3.125   3.555
 3956TIP3   OH211808   3.900   6.918   3.003
 3956TIP3    H111809   3.867   7.005   2.983
 3956TIP3    H211810   3.959   6.931   3.077
 3957TIP3   OH211811   5.535   2.713   1.801
 3957TIP3    H111812   5.550   2.674   1.715
 3957TIP3    H211813   5.452   2.761   1.791
 3958TIP3   OH211814   1.922   2.050   3.996
 3958TIP3    H111815   1.939   2.139   4.029
 3958TIP3    H211816   1.864   2.063   3.922
 3959TIP3   OH211817   3.607   6.641   3.389
 3959TIP3    H111818   3.688   6.632   3.339
 3959TIP3    H211819   3.577   6.731   3.371
 3960TIP3   OH211820   0.849   1.456   5.706
 3960TIP3    H111821   0.772   1.422   5.661
 3960TIP3    H211822   0.855   1.547   5.677
 3961TIP3   OH211823   1.381   4.932   4.545
 3961TIP3    H111824   1.448   4.885   4.495
 3961TIP3    H211825   1.376   4.885   4.628
 3962TIP3   OH211826   1.814   4.221   2.729
 3962TIP3    H111827   1.791   4.278   2.803
 3962TIP3    H211828   1.730   4.187   2.698
 3963TIP3   OH211829   3.182   5.002   4.434
 3963TIP3    H111830   3.138   5.006   4.519
 3963TIP3    H211831   3.110   5.003   4.370
 3964TIP3   OH211832   0.033   2.724   1.859
 3964TIP3    H111833  -0.009   2.639   1.853
 3964TIP3    H211834   0.122   2.706   1.888
 3965TIP3   OH211835   4.223   1.827   5.323
 3965TIP3    H111836   4.132   1.830   5.351
 3965TIP3    H211837   4.272   1.866   5.396
 3966TIP3   OH211838   4.276   7.405   1.868
 3966TIP3    H111839   4.259   7.315   1.842
 3966TIP3    H211840   4.313   7.398   1.956
 3967TIP3   OH211841   5.510   1.368   4.178
 3967TIP3    H111842   5.519   1.275   4.198
 3967TIP3    H211843   5.469   1.371   4.092
 3968TIP3   OH211844   2.250   6.806   6.144
 3968TIP3    H111845   2.223   6.756   6.067
 3968TIP3    H211846   2.178   6.797   6.205
 3969TIP3   OH211847   2.986   7.195   4.680
 3969TIP3    H111848   2.957   7.203   4.771
 3969TIP3    H211849   2.905   7.195   4.629
 3970TIP3   OH211850   5.843   0.660   3.513
 3970TIP3    H111851   5.776   0.677   3.578
 3970TIP3    H211852   5.873   0.747   3.485
 3971TIP3   OH211853   5.778   6.738   1.205
 3971TIP3    H111854   5.686   6.758   1.190
 3971TIP3    H211855   5.788   6.647   1.178
 3972TIP3   OH211856   7.288   6.329   6.113
 3972TIP3    H111857   7.204   6.367   6.140
 3972TIP3    H211858   7.353   6.388   6.151
 3973TIP3   OH211859   6.172   6.854   3.599
 3973TIP3    H111860   6.244   6.798   3.573
 3973TIP3    H211861   6.104   6.793   3.629
 3974TIP3   OH211862   6.750   7.711   6.374
 3974TIP3    H111863   6.742   7.737   6.282
 3974TIP3    H211864   6.736   7.616   6.373
 3975TIP3   OH211865   7.618   4.362   2.098
 3975TIP3    H111866   7.593   4.368   2.006
 3975TIP3    H211867   7.684   4.293   2.101
 3976TIP3   OH211868   7.344   3.457   4.078
 3976TIP3    H111869   7.388   3.521   4.135
 3976TIP3    H211870   7.282   3.510   4.027
 3977TIP3   OH211871   4.498   2.320   4.018
 3977TIP3    H111872   4.427   2.261   3.996
 3977TIP3    H211873   4.546   2.331   3.936
 3978TIP3   OH211874   4.742   2.476   5.871
 3978TIP3    H111875   4.825   2.485   5.824
 3978TIP3    H211876   4.726   2.382   5.873
 3979TIP3   OH211877   4.849   7.122   6.752
 3979TIP3    H111878   4.846   7.210   6.790
 3979TIP3    H211879   4.877   7.065   6.824
 3980TIP3   OH211880   5.625   4.223   0.995
 3980TIP3    H111881   5.676   4.304   1.006
 3980TIP3    H211882   5.684   4.154   1.024
 3981TIP3   OH211883   6.607   2.367   5.599
 3981TIP3    H111884   6.641   2.336   5.515
 3981TIP3    H211885   6.582   2.288   5.646
 3982TIP3   OH211886   1.528   6.822   2.993
 3982TIP3    H111887   1.451   6.880   3.003
 3982TIP3    H211888   1.519   6.759   3.064
 3983TIP3   OH211889   1.020   3.261   3.772
 3983TIP3    H111890   0.998   3.256   3.679
 3983TIP3    H211891   0.975   3.340   3.803
 3984TIP3   OH211892   2.106   5.896   6.460
 3984TIP3    H111893   2.083   5.853   6.377
 3984TIP3    H211894   2.172   5.961   6.437
 3985TIP3   OH211895   5.489   3.423   3.692
 3985TIP3    H111896   5.462   3.419   3.601
 3985TIP3    H211897   5.513   3.515   3.706
 3986TIP3   OH211898   0.177   3.394   2.239
 3986TIP3    H111899   0.111   3.370   2.305
 3986TIP3    H211900   0.256   3.348   2.267
 3987TIP3   OH211901   6.397   2.824   3.914
 3987TIP3    H111902   6.380   2.913   3.884
 3987TIP3    H211903   6.342   2.815   3.993
 3988TIP3   OH211904   0.959   2.275   3.485
 3988TIP3    H111905   0.901   2.310   3.552
 3988TIP3    H211906   0.912   2.199   3.450
 3989TIP3   OH211907   7.555   1.234   4.862
 3989TIP3    H111908   7.591   1.180   4.932
 3989TIP3    H211909   7.501   1.299   4.907
 3990TIP3   OH211910   3.936   1.659   5.212
 3990TIP3    H111911   3.997   1.595   5.249
 3990TIP3    H211912   3.852   1.614   5.210
 3991TIP3   OH211913   8.314   0.173   1.705
 3991TIP3    H111914   8.396   0.202   1.666
 3991TIP3    H211915   8.281   0.249   1.752
 3992TIP3   OH211916   7.987   6.958   6.737
 3992TIP3    H111917   8.066   7.004   6.766
 3992TIP3    H211918   7.983   6.974   6.643
 3993TIP3   OH211919   1.043   3.890   1.074
 3993TIP3    H111920   0.954   3.882   1.109
 3993TIP3    H211921   1.075   3.973   1.111
 3994TIP3   OH211922   7.031   3.317   4.382
 3994TIP3    H111923   7.054   3.335   4.291
 3994TIP3    H211924   7.114   3.293   4.423
 3995TIP3   OH211925   2.791   5.736   5.896
 3995TIP3    H111926   2.775   5.825   5.866
 3995TIP3    H211927   2.789   5.741   5.991
 3996TIP3   OH211928   4.352   4.892   0.388
 3996TIP3    H111929   4.306   4.963   0.343
 3996TIP3    H211930   4.442   4.923   0.396
 3997TIP3   OH211931   2.541   5.066   1.677
 3997TIP3    H111932   2.544   5.034   1.587
 3997TIP3    H211933   2.633   5.079   1.702
 3998TIP3   OH211934   6.518   1.172   4.237
 3998TIP3    H111935   6.543   1.248   4.183
 3998TIP3    H211936   6.458   1.208   4.301
 3999TIP3   OH211937   0.654   7.382   0.152
 3999TIP3    H111938   0.621   7.336   0.075
 3999TIP3    H211939   0.607   7.343   0.225
 4000TIP3   OH211940   0.519   7.119   2.448
 4000TIP3    H111941   0.459   7.182   2.488
 4000TIP3    H211942   0.472   7.036   2.448
 4001TIP3   OH211943   5.999   4.475   3.634
 4001TIP3    H111944   5.999   4.381   3.617
 4001TIP3    H211945   5.943   4.511   3.565
 4002TIP3   OH211946   7.348   5.031   2.180
 4002TIP3    H111947   7.343   5.045   2.086
 4002TIP3    H211948   7.330   5.117   2.218
 4003TIP3   OH211949   3.513   0.051   0.448
 4003TIP3    H111950   3.564   0.112   0.500
 4003TIP3    H211951   3.568   0.032   0.372
 4004TIP3   OH211952   1.432   0.843   1.937
 4004TIP3    H111953   1.463   0.933   1.943
 4004TIP3    H211954   1.398   0.823   2.024
 4005TIP3   OH211955   4.928   1.546   1.581
 4005TIP3    H111956   4.903   1.563   1.490
 4005TIP3    H211957   4.896   1.458   1.599
 4006TIP3   OH211958   0.486   6.596   0.555
 4006TIP3    H111959   0.461   6.687   0.536
 4006TIP3    H211960   0.572   6.604   0.597
 4007TIP3   OH211961   4.921   7.579   5.780
 4007TIP3    H111962   4.887   7.527   5.852
 4007TIP3    H211963   5.015   7.583   5.796
 4008TIP3   OH211964   0.787   3.808   3.829
 4008TIP3    H111965   0.804   3.774   3.742
 4008TIP3    H211966   0.722   3.878   3.816
 4009TIP3   OH211967   2.369   0.105   6.546
 4009TIP3    H111968   2.341   0.190   6.578
 4009TIP3    H211969   2.408   0.124   6.460
 4010TIP3   OH211970   3.551   1.023   2.270
 4010TIP3    H111971   3.643   1.030   2.248
 4010TIP3    H211972   3.545   0.945   2.325
 4011TIP3   OH211973   4.025   1.873   2.265
 4011TIP3    H111974   4.007   1.797   2.209
 4011TIP3    H211975   4.065   1.937   2.206
 4012TIP3   OH211976   8.110   7.467   6.645
 4012TIP3    H111977   8.091   7.448   6.737
 4012TIP3    H211978   8.070   7.395   6.596
 4013TIP3   OH211979   4.116   1.305   1.811
 4013TIP3    H111980   4.074   1.294   1.725
 4013TIP3    H211981   4.207   1.279   1.797
 4014TIP3   OH211982   3.634   0.497   3.838
 4014TIP3    H111983   3.714   0.467   3.794
 4014TIP3    H211984   3.658   0.502   3.931
 4015TIP3   OH211985   3.443   4.122   3.076
 4015TIP3    H111986   3.448   4.104   2.982
 4015TIP3    H211987   3.415   4.214   3.081
 4016TIP3   OH211988   4.666   2.154   1.894
 4016TIP3    H111989   4.642   2.117   1.979
 4016TIP3    H211990   4.621   2.238   1.890
 4017TIP3   OH211991   1.562   5.150   4.965
 4017TIP3    H111992   1.499   5.161   4.893
 4017TIP3    H211993   1.648   5.159   4.924
 4018TIP3   OH211994   1.436   3.217   6.819
 4018TIP3    H111995   1.396   3.213   6.732
 4018TIP3    H211996   1.389   3.286   6.864
 4019TIP3   OH211997   3.832   2.091   2.048
 4019TIP3    H111998   3.783   2.169   2.024
 4019TIP3    H211999   3.809   2.026   1.983
 4020TIP3   OH212000   0.684   0.968   4.303
 4020TIP3    H112001   0.711   0.892   4.252
 4020TIP3    H212002   0.589   0.959   4.311
 4021TIP3   OH212003   7.113   2.410   3.518
 4021TIP3    H112004   7.196   2.366   3.497
 4021TIP3    H212005   7.065   2.345   3.570
 4022TIP3   OH212006   3.911   0.996   6.249
 4022TIP3    H112007   3.999   1.000   6.286
 4022TIP3    H212008   3.902   0.906   6.218
 4023TIP3   OH212009   3.238   0.553   2.418
 4023TIP3    H112010   3.304   0.611   2.455
 4023TIP3    H212011   3.235   0.478   2.478
 4024TIP3   OH212012   6.318   2.880   4.751
 4024TIP3    H112013   6.414   2.873   4.758
 4024TIP3    H212014   6.293   2.804   4.698
 4025TIP3   OH212015   6.976   3.001   4.145
 4025TIP3    H112016   6.990   3.032   4.056
 4025TIP3    H212017   6.968   2.906   4.137
 4026TIP3   OH212018   2.691   1.280   1.128
 4026TIP3    H112019   2.766   1.242   1.084
 4026TIP3    H212020   2.674   1.223   1.203
 4027TIP3   OH212021   6.163   0.392   4.159
 4027TIP3    H112022   6.211   0.384   4.077
 4027TIP3    H212023   6.118   0.307   4.168
 4028TIP3   OH212024   2.740   2.670   3.461
 4028TIP3    H112025   2.755   2.742   3.522
 4028TIP3    H212026   2.698   2.602   3.514
 4029TIP3   OH212027   4.064   5.843   4.073
 4029TIP3    H112028   4.043   5.780   4.142
 4029TIP3    H212029   3.980   5.867   4.035
 4030TIP3   OH212030   0.135   0.626   2.461
 4030TIP3    H112031   0.116   0.697   2.400
 4030TIP3    H212032   0.204   0.660   2.518
 4031TIP3   OH212033   2.444   0.719   1.071
 4031TIP3    H112034   2.402   0.798   1.036
 4031TIP3    H212035   2.450   0.660   0.996
 4032TIP3   OH212036   7.145   5.297   5.606
 4032TIP3    H112037   7.214   5.234   5.582
 4032TIP3    H212038   7.190   5.381   5.611
 4033TIP3   OH212039   7.682   5.697   6.284
 4033TIP3    H112040   7.733   5.762   6.331
 4033TIP3    H212041   7.708   5.707   6.193
 4034TIP3   OH212042   0.305   0.419   4.155
 4034TIP3    H112043   0.262   0.430   4.240
 4034TIP3    H212044   0.375   0.484   4.155
 4035TIP3   OH212045   1.372   6.009   3.269
 4035TIP3    H112046   1.368   5.973   3.180
 4035TIP3    H212047   1.282   6.008   3.300
 4036TIP3   OH212048   4.491   3.801   6.151
 4036TIP3    H112049   4.434   3.858   6.203
 4036TIP3    H212050   4.500   3.846   6.068
 4037TIP3   OH212051   0.811   6.510   6.314
 4037TIP3    H112052   0.792   6.521   6.221
 4037TIP3    H212053   0.905   6.524   6.322
 4038TIP3   OH212054   1.089   7.504   2.722
 4038TIP3    H112055   1.099   7.410   2.713
 4038TIP3    H212056   1.091   7.520   2.817
 4039TIP3   OH212057   1.577   2.287   2.875
 4039TIP3    H112058   1.556   2.230   2.948
 4039TIP3    H212059   1.525   2.366   2.891
 4040TIP3   OH212060   2.049   2.941   1.108
 4040TIP3    H112061   2.036   2.920   1.201
 4040TIP3    H212062   2.122   2.885   1.081
 4041TIP3   OH212063   2.492   7.660   1.722
 4041TIP3    H112064   2.436   7.737   1.716
 4041TIP3    H212065   2.485   7.632   1.813
 4042TIP3   OH212066   6.337   6.987   0.473
 4042TIP3    H112067   6.355   7.030   0.389
 4042TIP3    H212068   6.421   6.948   0.498
 4043TIP3   OH212069   5.042   7.853   2.357
 4043TIP3    H112070   4.965   7.896   2.320
 4043TIP3    H212071   5.112   7.917   2.349
 4044TIP3   OH212072   2.718   3.978   4.019
 4044TIP3    H112073   2.684   4.055   3.974
 4044TIP3    H212074   2.652   3.957   4.085
 4045TIP3   OH212075   3.079   7.028   0.880
 4045TIP3    H112076   3.124   6.973   0.815
 4045TIP3    H212077   3.145   7.091   0.908
 4046TIP3   OH212078   7.879   7.866   5.625
 4046TIP3    H112079   7.804   7.815   5.593
 4046TIP3    H212080   7.896   7.830   5.712
 4047TIP3   OH212081   6.723   1.297   0.182
 4047TIP3    H112082   6.745   1.213   0.141
 4047TIP3    H212083   6.808   1.336   0.203
 4048TIP3   OH212084   0.347   4.486   4.447
 4048TIP3    H112085   0.410   4.492   4.519
 4048TIP3    H212086   0.397   4.451   4.374
 4049TIP3   OH212087   2.258   0.673   4.124
 4049TIP3    H112088   2.312   0.733   4.071
 4049TIP3    H212089   2.230   0.726   4.198
 4050TIP3   OH212090   0.995   1.388   6.233
 4050TIP3    H112091   0.996   1.298   6.202
 4050TIP3    H212092   1.075   1.427   6.199
 4051TIP3   OH212093   1.840   2.488   1.309
 4051TIP3    H112094   1.823   2.459   1.399
 4051TIP3    H212095   1.787   2.430   1.255
 4052TIP3   OH212096   7.622   7.723   2.837
 4052TIP3    H112097   7.673   7.689   2.764
 4052TIP3    H212098   7.573   7.797   2.801
 4053TIP3   OH212099   6.177   6.215   3.355
 4053TIP3    H112100   6.208   6.295   3.314
 4053TIP3    H212101   6.256   6.171   3.387
 4054TIP3   OH212102   4.662   3.562   1.502
 4054TIP3    H112103   4.715   3.588   1.577
 4054TIP3    H212104   4.678   3.468   1.493
 4055TIP3   OH212105   4.252   0.234   2.514
 4055TIP3    H112106   4.307   0.259   2.588
 4055TIP3    H212107   4.167   0.213   2.554
 4056TIP3   OH212108   1.408   0.584   4.870
 4056TIP3    H112109   1.407   0.678   4.852
 4056TIP3    H212110   1.367   0.544   4.794
 4057TIP3   OH212111   1.601   3.730   3.214
 4057TIP3    H112112   1.649   3.808   3.186
 4057TIP3    H212113   1.606   3.732   3.309
 4058TIP3   OH212114   0.349   3.476   4.639
 4058TIP3    H112115   0.297   3.471   4.719
 4058TIP3    H212116   0.426   3.528   4.664
 4059TIP3   OH212117   1.579   5.120   4.514
 4059TIP3    H112118   1.590   5.207   4.552
 4059TIP3    H212119   1.553   5.065   4.588
 4060TIP3   OH212120   1.695   5.550   6.218
 4060TIP3    H112121   1.603   5.554   6.242
 4060TIP3    H212122   1.696   5.559   6.122
 4061TIP3   OH212123   0.653   2.726   2.359
 4061TIP3    H112124   0.593   2.785   2.405
 4061TIP3    H212125   0.627   2.734   2.267
 4062TIP3   OH212126   2.177   2.592   5.862
 4062TIP3    H112127   2.224   2.579   5.944
 4062TIP3    H212128   2.185   2.685   5.843
 4063TIP3   OH212129   6.865   2.892   0.950
 4063TIP3    H112130   6.924   2.827   0.912
 4063TIP3    H212131   6.837   2.946   0.876
 4064TIP3   OH212132   5.770   1.735   2.886
 4064TIP3    H112133   5.740   1.823   2.865
 4064TIP3    H212134   5.850   1.749   2.938
 4065TIP3   OH212135   3.777   1.873   4.088
 4065TIP3    H112136   3.846   1.871   4.021
 4065TIP3    H212137   3.765   1.782   4.113
 4066TIP3   OH212138   0.066   1.866   3.329
 4066TIP3    H112139  -0.004   1.809   3.361
 4066TIP3    H212140   0.021   1.934   3.280
 4067TIP3   OH212141   4.964   1.873   4.635
 4067TIP3    H112142   4.952   1.786   4.674
 4067TIP3    H212143   4.884   1.889   4.585
 4068TIP3   OH212144   8.121   6.985   0.891
 4068TIP3    H112145   8.039   6.941   0.913
 4068TIP3    H212146   8.153   7.019   0.974
 4069TIP3   OH212147   3.884   7.218   6.783
 4069TIP3    H112148   3.891   7.242   6.876
 4069TIP3    H212149   3.814   7.273   6.749
 4070TIP3   OH212150   5.010   4.202   1.512
 4070TIP3    H112151   4.927   4.231   1.474
 4070TIP3    H212152   5.025   4.116   1.473
 4071TIP3   OH212153   7.647   0.697   5.272
 4071TIP3    H112154   7.593   0.626   5.307
 4071TIP3    H212155   7.585   0.766   5.250
 4072TIP3   OH212156   3.543   1.315   4.733
 4072TIP3    H112157   3.637   1.326   4.744
 4072TIP3    H212158   3.534   1.268   4.651
 4073TIP3   OH212159   2.410   1.985   1.442
 4073TIP3    H112160   2.352   2.061   1.436
 4073TIP3    H212161   2.372   1.920   1.384
 4074TIP3   OH212162   5.537   7.679   1.193
 4074TIP3    H112163   5.497   7.743   1.134
 4074TIP3    H212164   5.559   7.606   1.136
 4075TIP3   OH212165   4.216   6.344   0.628
 4075TIP3    H112166   4.256   6.429   0.612
 4075TIP3    H212167   4.143   6.340   0.568
 4076TIP3   OH212168   5.579   5.999   2.219
 4076TIP3    H112169   5.512   5.934   2.197
 4076TIP3    H212170   5.655   5.974   2.167
 4077TIP3   OH212171   7.996   1.395   4.903
 4077TIP3    H112172   8.078   1.351   4.925
 4077TIP3    H212173   7.933   1.323   4.893
 4078TIP3   OH212174   2.631   4.006   5.778
 4078TIP3    H112175   2.562   3.947   5.748
 4078TIP3    H212176   2.645   4.066   5.704
 4079TIP3   OH212177   2.082   5.830   5.875
 4079TIP3    H112178   2.084   5.743   5.835
 4079TIP3    H212179   2.152   5.878   5.833
 4080TIP3   OH212180   6.586   0.570   6.099
 4080TIP3    H112181   6.526   0.594   6.169
 4080TIP3    H212182   6.635   0.495   6.133
 4081TIP3   OH212183   8.138   7.737   3.386
 4081TIP3    H112184   8.150   7.771   3.297
 4081TIP3    H212185   8.068   7.790   3.423
 4082TIP3   OH212186   7.174   4.908   6.672
 4082TIP3    H112187   7.154   4.910   6.766
 4082TIP3    H212188   7.125   4.982   6.636
 4083TIP3   OH212189   8.260   7.531   3.503
 4083TIP3    H112190   8.193   7.507   3.568
 4083TIP3    H212191   8.226   7.611   3.463
 4084TIP3   OH212192   6.409   6.852   3.082
 4084TIP3    H112193   6.350   6.792   3.128
 4084TIP3    H212194   6.395   6.937   3.124
 4085TIP3   OH212195   1.494   7.526   5.796
 4085TIP3    H112196   1.551   7.600   5.816
 4085TIP3    H212197   1.487   7.479   5.879
 4086TIP3   OH212198   1.987   7.081   2.816
 4086TIP3    H112199   1.943   7.158   2.851
 4086TIP3    H212200   1.933   7.007   2.845
 4087TIP3   OH212201   4.343   2.713   5.861
 4087TIP3    H112202   4.399   2.649   5.905
 4087TIP3    H212203   4.386   2.728   5.776
 4088TIP3   OH212204   3.270   5.844   4.449
 4088TIP3    H112205   3.299   5.924   4.404
 4088TIP3    H212206   3.230   5.791   4.381
 4089TIP3   OH212207   6.207   5.664   1.268
 4089TIP3    H112208   6.271   5.726   1.233
 4089TIP3    H212209   6.233   5.580   1.231
 4090TIP3   OH212210   2.670   7.062   0.856
 4090TIP3    H112211   2.602   7.015   0.904
 4090TIP3    H212212   2.631   7.081   0.771
 4091TIP3   OH212213   0.190   6.099   4.049
 4091TIP3    H112214   0.117   6.056   4.094
 4091TIP3    H212215   0.252   6.028   4.031
 4092TIP3   OH212216   6.653   5.373   6.454
 4092TIP3    H112217   6.557   5.382   6.452
 4092TIP3    H212218   6.684   5.438   6.390
 4093TIP3   OH212219   1.101   7.525   0.658
 4093TIP3    H112220   1.014   7.559   0.639
 4093TIP3    H212221   1.138   7.587   0.721
 4094TIP3   OH212222   3.146   4.195   4.078
 4094TIP3    H112223   3.090   4.272   4.067
 4094TIP3    H212224   3.210   4.202   4.008
 4095TIP3   OH212225   2.713   4.845   4.797
 4095TIP3    H112226   2.743   4.896   4.872
 4095TIP3    H212227   2.787   4.787   4.776
 4096TIP3   OH212228   3.605   1.003   6.453
 4096TIP3    H112229   3.568   0.941   6.390
 4096TIP3    H212230   3.529   1.036   6.500
 4097TIP3   OH212231   6.748   5.755   5.065
 4097TIP3    H112232   6.675   5.707   5.104
 4097TIP3    H212233   6.826   5.708   5.093
 4098TIP3   OH212234   6.035   1.696   0.639
 4098TIP3    H112235   6.047   1.672   0.547
 4098TIP3    H212236   6.103   1.762   0.655
 4099TIP3   OH212237   4.440   7.040   4.352
 4099TIP3    H112238   4.374   7.108   4.364
 4099TIP3    H212239   4.407   6.986   4.280
 4100TIP3   OH212240   3.638   5.017   4.638
 4100TIP3    H112241   3.583   4.960   4.692
 4100TIP3    H212242   3.587   5.031   4.559
 4101TIP3   OH212243   4.762   5.658   6.715
 4101TIP3    H112244   4.850   5.680   6.686
 4101TIP3    H212245   4.736   5.585   6.659
 4102TIP3   OH212246   0.265   4.555   5.879
 4102TIP3    H112247   0.276   4.468   5.917
 4102TIP3    H212248   0.314   4.552   5.796
 4103TIP3   OH212249   7.277   0.238   4.668
 4103TIP3    H112250   7.276   0.324   4.709
 4103TIP3    H212251   7.360   0.199   4.696
 4104TIP3   OH212252   0.863   7.427   5.859
 4104TIP3    H112253   0.944   7.474   5.840
 4104TIP3    H212254   0.811   7.488   5.910
 4105TIP3   OH212255   1.410   4.414   0.323
 4105TIP3    H112256   1.505   4.398   0.331
 4105TIP3    H212257   1.403   4.507   0.305
 4106TIP3   OH212258   8.175   5.473   6.213
 4106TIP3    H112259   8.190   5.541   6.279
 4106TIP3    H212260   8.262   5.441   6.191
 4107TIP3   OH212261   0.586   1.082   5.117
 4107TIP3    H112262   0.593   0.991   5.088
 4107TIP3    H212263   0.610   1.080   5.209
 4108TIP3   OH212264   6.926   2.105   4.659
 4108TIP3    H112265   6.895   2.131   4.573
 4108TIP3    H212266   6.851   2.120   4.717
 4109TIP3   OH212267   3.790   6.861   2.363
 4109TIP3    H112268   3.864   6.802   2.354
 4109TIP3    H212269   3.771   6.889   2.273
 4110TIP3   OH212270   4.192   3.004   2.261
 4110TIP3    H112271   4.138   2.933   2.227
 4110TIP3    H212272   4.260   3.017   2.195
 4111TIP3   OH212273   5.276   5.435   4.626
 4111TIP3    H112274   5.351   5.455   4.569
 4111TIP3    H212275   5.312   5.377   4.694
 4112TIP3   OH212276   6.408   1.617   6.805
 4112TIP3    H112277   6.335   1.558   6.826
 4112TIP3    H212278   6.396   1.692   6.862
 4113TIP3   OH212279   3.597   5.319   3.945
 4113TIP3    H112280   3.658   5.318   3.871
 4113TIP3    H212281   3.584   5.227   3.968
 4114TIP3   OH212282   3.867   3.590   3.660
 4114TIP3    H112283   3.889   3.504   3.697
 4114TIP3    H212284   3.910   3.590   3.574
 4115TIP3   OH212285   5.553   3.892   6.084
 4115TIP3    H112286   5.587   3.847   6.161
 4115TIP3    H212287   5.630   3.936   6.046
 4116TIP3   OH212288   4.312   4.482   2.834
 4116TIP3    H112289   4.384   4.432   2.873
 4116TIP3    H212290   4.344   4.572   2.832
 4117TIP3   OH212291   0.605   4.026   1.222
 4117TIP3    H112292   0.607   3.949   1.165
 4117TIP3    H212293   0.566   3.994   1.304
 4118TIP3   OH212294   1.291   6.571   4.826
 4118TIP3    H112295   1.278   6.557   4.920
 4118TIP3    H212296   1.345   6.497   4.798
 4119TIP3   OH212297   0.889   2.362   3.962
 4119TIP3    H112298   0.950   2.374   3.889
 4119TIP3    H212299   0.817   2.422   3.943
 4120TIP3   OH212300   7.922   3.224   6.641
 4120TIP3    H112301   8.008   3.207   6.679
 4120TIP3    H212302   7.908   3.318   6.655
 4121TIP3   OH212303   2.658   5.933   6.803
 4121TIP3    H112304   2.606   6.014   6.806
 4121TIP3    H212305   2.592   5.864   6.792
 4122TIP3   OH212306   5.231   1.325   2.946
 4122TIP3    H112307   5.167   1.349   2.879
 4122TIP3    H212308   5.243   1.404   2.998
 4123TIP3   OH212309   1.323   1.051   4.091
 4123TIP3    H112310   1.290   1.073   4.178
 4123TIP3    H212311   1.397   1.110   4.078
 4124TIP3   OH212312   0.837   0.051   2.908
 4124TIP3    H112313   0.854   0.042   2.814
 4124TIP3    H212314   0.764  -0.009   2.926
 4125TIP3   OH212315   2.859   1.304   1.399
 4125TIP3    H112316   2.805   1.343   1.331
 4125TIP3    H212317   2.947   1.302   1.363
 4126TIP3   OH212318   0.540   2.378   1.860
 4126TIP3    H112319   0.507   2.288   1.853
 4126TIP3    H212320   0.599   2.375   1.935
 4127TIP3   OH212321   4.403   4.841   0.023
 4127TIP3    H112322   4.468   4.909   0.043
 4127TIP3    H212323   4.447   4.759   0.043
 4128TIP3   OH212324   2.086   6.783   3.819
 4128TIP3    H112325   2.158   6.746   3.768
 4128TIP3    H212326   2.112   6.772   3.910
 4129TIP3   OH212327   5.610   3.227   0.578
 4129TIP3    H112328   5.535   3.184   0.619
 4129TIP3    H212329   5.679   3.161   0.579
 4130TIP3   OH212330   0.483   5.752   4.436
 4130TIP3    H112331   0.567   5.751   4.482
 4130TIP3    H212332   0.449   5.663   4.448
 4131TIP3   OH212333   1.742   6.783   0.543
 4131TIP3    H112334   1.818   6.778   0.600
 4131TIP3    H212335   1.668   6.798   0.602
 4132TIP3   OH212336   7.601   1.564   5.549
 4132TIP3    H112337   7.685   1.592   5.513
 4132TIP3    H212338   7.600   1.469   5.538
 4133TIP3   OH212339   6.740   3.732   6.099
 4133TIP3    H112340   6.791   3.656   6.073
 4133TIP3    H212341   6.701   3.764   6.017
 4134TIP3   OH212342   1.573   3.631   5.599
 4134TIP3    H112343   1.622   3.591   5.527
 4134TIP3    H212344   1.482   3.629   5.570
 4135TIP3   OH212345   2.793   3.639   0.373
 4135TIP3    H112346   2.719   3.581   0.359
 4135TIP3    H212347   2.767   3.723   0.334
 4136TIP3   OH212348   3.425   2.685   4.284
 4136TIP3    H112349   3.426   2.771   4.326
 4136TIP3    H212350   3.517   2.665   4.268
 4137TIP3   OH212351   4.876   3.751   5.126
 4137TIP3    H112352   4.911   3.809   5.193
 4137TIP3    H212353   4.818   3.691   5.174
 4138TIP3   OH212354   7.374   4.563   1.896
 4138TIP3    H112355   7.463   4.591   1.916
 4138TIP3    H212356   7.368   4.569   1.800
 4139TIP3   OH212357   7.229   2.523   4.646
 4139TIP3    H112358   7.221   2.560   4.558
 4139TIP3    H212359   7.222   2.428   4.633
 4140TIP3   OH212360   2.274   6.137   5.024
 4140TIP3    H112361   2.202   6.131   5.086
 4140TIP3    H212362   2.338   6.194   5.067
 4141TIP3   OH212363   2.462   1.201   0.027
 4141TIP3    H112364   2.457   1.212  -0.068
 4141TIP3    H212365   2.496   1.285   0.058
 4142TIP3   OH212366   5.419   3.123   6.463
 4142TIP3    H112367   5.460   3.195   6.512
 4142TIP3    H212368   5.490   3.086   6.411
 4143TIP3   OH212369   0.238   2.323   6.683
 4143TIP3    H112370   0.231   2.406   6.635
 4143TIP3    H212371   0.165   2.325   6.745
 4144TIP3   OH212372   5.255   4.019   2.272
 4144TIP3    H112373   5.159   4.022   2.279
 4144TIP3    H212374   5.284   3.987   2.358
 4145TIP3   OH212375   2.058   5.241   2.246
 4145TIP3    H112376   2.066   5.185   2.324
 4145TIP3    H212377   2.076   5.183   2.173
 4146TIP3   OH212378   7.811   0.063   5.788
 4146TIP3    H112379   7.816   0.148   5.746
 4146TIP3    H212380   7.899   0.048   5.823
 4147TIP3   OH212381   0.448   2.887   2.472
 4147TIP3    H112382   0.384   2.946   2.433
 4147TIP3    H212383   0.430   2.892   2.566
 4148TIP3   OH212384   6.137   5.056   4.887
 4148TIP3    H112385   6.223   5.077   4.924
 4148TIP3    H212386   6.142   5.085   4.796
 4149TIP3   OH212387   3.433   2.263   1.260
 4149TIP3    H112388   3.350   2.226   1.290
 4149TIP3    H212389   3.475   2.193   1.210
 4150TIP3   OH212390   3.462   2.990   6.603
 4150TIP3    H112391   3.519   2.920   6.572
 4150TIP3    H212392   3.480   3.064   6.544
 4151TIP3   OH212393   1.201   6.020   5.125
 4151TIP3    H112394   1.263   5.993   5.058
 4151TIP3    H212395   1.167   5.937   5.160
 4152TIP3   OH212396   0.379   3.605   4.398
 4152TIP3    H112397   0.353   3.696   4.412
 4152TIP3    H212398   0.356   3.561   4.480
 4153TIP3   OH212399   1.719   1.909   1.135
 4153TIP3    H112400   1.792   1.849   1.119
 4153TIP3    H212401   1.759   1.996   1.137
 4154TIP3   OH212402   2.978   5.488   4.257
 4154TIP3    H112403   2.906   5.532   4.301
 4154TIP3    H212404   2.942   5.460   4.173
 4155TIP3   OH212405   0.819   4.124   5.226
 4155TIP3    H112406   0.895   4.066   5.228
 4155TIP3    H212407   0.854   4.211   5.245
 4156TIP3   OH212408   5.652   3.049   1.493
 4156TIP3    H112409   5.606   3.012   1.568
 4156TIP3    H212410   5.582   3.078   1.434
 4157TIP3   OH212411   0.145   6.825   6.197
 4157TIP3    H112412   0.168   6.853   6.285
 4157TIP3    H212413   0.204   6.752   6.179
 4158TIP3   OH212414   2.340   6.885   5.367
 4158TIP3    H112415   2.314   6.794   5.383
 4158TIP3    H212416   2.365   6.888   5.275
 4159TIP3   OH212417   2.971   6.667   2.009
 4159TIP3    H112418   3.053   6.625   1.983
 4159TIP3    H212419   2.993   6.760   2.014
 4160TIP3   OH212420   0.969   6.903   0.856
 4160TIP3    H112421   0.911   6.836   0.819
 4160TIP3    H212422   1.052   6.856   0.871
 4161TIP3   OH212423   1.435   6.793   5.398
 4161TIP3    H112424   1.494   6.820   5.469
 4161TIP3    H212425   1.349   6.825   5.425
 4162TIP3   OH212426   5.970   1.469   1.382
 4162TIP3    H112427   5.875   1.473   1.372
 4162TIP3    H212428   6.000   1.559   1.371
 4163TIP3   OH212429   1.262   7.602   2.041
 4163TIP3    H112430   1.249   7.686   2.085
 4163TIP3    H212431   1.272   7.539   2.112
 4164TIP3   OH212432   8.340   0.849   0.416
 4164TIP3    H112433   8.293   0.797   0.482
 4164TIP3    H212434   8.274   0.912   0.386
 4165TIP3   OH212435   7.165   7.861   0.366
 4165TIP3    H112436   7.099   7.836   0.431
 4165TIP3    H212437   7.198   7.946   0.398
 4166TIP3   OH212438   2.464   6.149   6.769
 4166TIP3    H112439   2.501   6.190   6.691
 4166TIP3    H212440   2.376   6.121   6.743
 4167TIP3   OH212441   3.845   6.131   4.984
 4167TIP3    H112442   3.866   6.037   4.979
 4167TIP3    H212443   3.930   6.174   4.992
 4168TIP3   OH212444   4.376   0.011   6.846
 4168TIP3    H112445   4.327  -0.071   6.848
 4168TIP3    H212446   4.466  -0.015   6.826
 4169TIP3   OH212447   1.763   3.849   1.015
 4169TIP3    H112448   1.716   3.900   1.082
 4169TIP3    H212449   1.708   3.772   1.001
 4170TIP3   OH212450   2.985   4.149   4.785
 4170TIP3    H112451   3.047   4.097   4.836
 4170TIP3    H212452   3.016   4.143   4.695
 4171TIP3   OH212453   7.923   5.543   4.610
 4171TIP3    H112454   7.985   5.606   4.647
 4171TIP3    H212455   7.887   5.588   4.534
 4172TIP3   OH212456   2.365   5.760   5.592
 4172TIP3    H112457   2.448   5.789   5.554
 4172TIP3    H212458   2.298   5.796   5.534
 4173TIP3   OH212459   2.487   6.408   0.551
 4173TIP3    H112460   2.502   6.455   0.469
 4173TIP3    H212461   2.433   6.468   0.603
 4174TIP3   OH212462   1.273   6.194   4.107
 4174TIP3    H112463   1.340   6.188   4.039
 4174TIP3    H212464   1.279   6.110   4.153
 4175TIP3   OH212465   1.517   0.093   6.216
 4175TIP3    H112466   1.585   0.158   6.198
 4175TIP3    H212467   1.507   0.046   6.133
 4176TIP3   OH212468   4.431   1.759   0.424
 4176TIP3    H112469   4.350   1.810   0.425
 4176TIP3    H212470   4.448   1.743   0.331
 4177TIP3   OH212471   0.551   0.611   1.052
 4177TIP3    H112472   0.588   0.698   1.036
 4177TIP3    H212473   0.609   0.552   1.004
 4178TIP3   OH212474   5.065   0.432   1.508
 4178TIP3    H112475   4.982   0.465   1.542
 4178TIP3    H212476   5.121   0.510   1.501
 4179TIP3   OH212477   1.475   7.236   1.646
 4179TIP3    H112478   1.511   7.159   1.601
 4179TIP3    H212479   1.411   7.272   1.585
 4180TIP3   OH212480   8.294   0.709   1.680
 4180TIP3    H112481   8.210   0.718   1.635
 4180TIP3    H212482   8.277   0.741   1.769
 4181TIP3   OH212483   4.493   3.061   6.455
 4181TIP3    H112484   4.466   3.147   6.487
 4181TIP3    H212485   4.551   3.027   6.523
 4182TIP3   OH212486   8.386   4.221   6.094
 4182TIP3    H112487   8.304   4.248   6.053
 4182TIP3    H212488   8.375   4.243   6.186
 4183TIP3   OH212489   7.578   2.424   0.684
 4183TIP3    H112490   7.580   2.331   0.659
 4183TIP3    H212491   7.657   2.437   0.735
 4184TIP3   OH212492   0.789   3.798   5.301
 4184TIP3    H112493   0.857   3.774   5.364
 4184TIP3    H212494   0.714   3.744   5.325
 4185TIP3   OH212495   6.486   4.275   0.572
 4185TIP3    H112496   6.508   4.348   0.630
 4185TIP3    H212497   6.491   4.312   0.484
 4186TIP3   OH212498   0.734   1.499   0.963
 4186TIP3    H112499   0.645   1.467   0.977
 4186TIP3    H212500   0.751   1.557   1.037
 4187TIP3   OH212501   5.396   0.963   6.148
 4187TIP3    H112502   5.352   0.938   6.067
 4187TIP3    H212503   5.446   1.041   6.124
 4188TIP3   OH212504   0.632   4.321   1.247
 4188TIP3    H112505   0.606   4.241   1.200
 4188TIP3    H212506   0.556   4.342   1.302
 4189TIP3   OH212507   1.269   5.019   6.509
 4189TIP3    H112508   1.262   5.021   6.414
 4189TIP3    H212509   1.261   5.111   6.535
 4190TIP3   OH212510   6.149   5.162   2.797
 4190TIP3    H112511   6.192   5.192   2.717
 4190TIP3    H212512   6.170   5.229   2.862
 4191TIP3   OH212513   1.459   6.298   0.625
 4191TIP3    H112514   1.504   6.243   0.561
 4191TIP3    H212515   1.510   6.379   0.626
 4192TIP3   OH212516   1.076   2.159   0.627
 4192TIP3    H112517   1.009   2.157   0.696
 4192TIP3    H212518   1.144   2.099   0.658
 4193TIP3   OH212519   1.162   5.412   3.141
 4193TIP3    H112520   1.155   5.494   3.189
 4193TIP3    H212521   1.128   5.345   3.201
 4194TIP3   OH212522   0.944   6.303   5.368
 4194TIP3    H112523   1.034   6.293   5.399
 4194TIP3    H212524   0.928   6.224   5.316
 4195TIP3   OH212525   6.591   5.557   4.573
 4195TIP3    H112526   6.498   5.576   4.585
 4195TIP3    H212527   6.593   5.470   4.533
 4196TIP3   OH212528   0.445   2.936   3.327
 4196TIP3    H112529   0.396   2.991   3.265
 4196TIP3    H212530   0.516   2.898   3.275
 4197TIP3   OH212531   1.159   4.820   2.137
 4197TIP3    H112532   1.236   4.822   2.081
 4197TIP3    H212533   1.134   4.912   2.146
 4198TIP3   OH212534   4.933   3.230   2.548
 4198TIP3    H112535   4.912   3.271   2.464
 4198TIP3    H212536   5.027   3.245   2.559
 4199TIP3   OH212537   6.367   2.834   5.892
 4199TIP3    H112538   6.443   2.782   5.862
 4199TIP3    H212539   6.297   2.812   5.830
 4200TIP3   OH212540   3.926   7.692   1.803
 4200TIP3    H112541   3.954   7.688   1.895
 4200TIP3    H212542   3.981   7.760   1.764
 4201TIP3   OH212543   0.070   3.505   4.213
 4201TIP3    H112544   0.080   3.596   4.241
 4201TIP3    H212545   0.036   3.511   4.124
 4202TIP3   OH212546   0.128   6.071   0.915
 4202TIP3    H112547   0.195   6.047   0.978
 4202TIP3    H212548   0.116   6.165   0.926
 4203TIP3   OH212549   3.999   4.568   3.570
 4203TIP3    H112550   3.950   4.561   3.652
 4203TIP3    H212551   3.971   4.492   3.519
 4204TIP3   OH212552   1.922   2.173   2.137
 4204TIP3    H112553   1.896   2.161   2.228
 4204TIP3    H212554   1.841   2.165   2.088
 4205TIP3   OH212555   6.580   1.411   1.610
 4205TIP3    H112556   6.590   1.499   1.573
 4205TIP3    H212557   6.592   1.423   1.704
 4206TIP3   OH212558   2.929   5.771   4.840
 4206TIP3    H112559   2.911   5.844   4.900
 4206TIP3    H212560   2.980   5.810   4.769
 4207TIP3   OH212561   5.147   4.674   2.861
 4207TIP3    H112562   5.137   4.739   2.931
 4207TIP3    H212563   5.227   4.699   2.816
 4208TIP3   OH212564   1.886   5.135   3.800
 4208TIP3    H112565   1.822   5.162   3.867
 4208TIP3    H212566   1.935   5.064   3.842
 4209TIP3   OH212567   1.078   6.582   0.518
 4209TIP3    H112568   0.991   6.579   0.479
 4209TIP3    H212569   1.063   6.582   0.613
 4210TIP3   OH212570   5.715   5.484   6.402
 4210TIP3    H112571   5.664   5.563   6.383
 4210TIP3    H212572   5.768   5.470   6.323
 4211TIP3   OH212573   5.952   7.325   4.427
 4211TIP3    H112574   6.044   7.299   4.433
 4211TIP3    H212575   5.954   7.420   4.426
 4212TIP3   OH212576   5.141   1.852   1.047
 4212TIP3    H112577   5.236   1.847   1.042
 4212TIP3    H212578   5.114   1.879   0.959
 4213TIP3   OH212579   1.997   0.746   5.508
 4213TIP3    H112580   2.041   0.825   5.539
 4213TIP3    H212581   1.938   0.777   5.439
 4214TIP3   OH212582   1.441   1.973   4.674
 4214TIP3    H112583   1.433   1.905   4.607
 4214TIP3    H212584   1.375   1.950   4.740
 4215TIP3   OH212585   7.849   6.100   5.833
 4215TIP3    H112586   7.903   6.070   5.761
 4215TIP3    H212587   7.888   6.182   5.861
 4216TIP3   OH212588   8.379   2.486   3.480
 4216TIP3    H112589   8.403   2.569   3.440
 4216TIP3    H212590   8.288   2.497   3.507
 4217TIP3   OH212591   3.710   6.614   1.178
 4217TIP3    H112592   3.624   6.653   1.195
 4217TIP3    H212593   3.730   6.643   1.089
 4218TIP3   OH212594   6.477   4.292   4.244
 4218TIP3    H112595   6.456   4.380   4.214
 4218TIP3    H212596   6.393   4.247   4.248
 4219TIP3   OH212597   5.318   2.295   6.459
 4219TIP3    H112598   5.264   2.370   6.436
 4219TIP3    H212599   5.274   2.220   6.419
 4220TIP3   OH212600   1.052   0.365   5.926
 4220TIP3    H112601   1.066   0.286   5.979
 4220TIP3    H212602   1.117   0.427   5.958
 4221TIP3   OH212603   8.115   0.399   1.602
 4221TIP3    H112604   8.138   0.418   1.693
 4221TIP3    H212605   8.191   0.430   1.552
 4222TIP3   OH212606   6.745   1.207   6.314
 4222TIP3    H112607   6.791   1.283   6.350
 4222TIP3    H212608   6.788   1.191   6.230
 4223TIP3   OH212609   0.690   1.374   0.270
 4223TIP3    H112610   0.728   1.415   0.192
 4223TIP3    H212611   0.663   1.287   0.241
 4224TIP3   OH212612   6.038   1.063   2.191
 4224TIP3    H112613   6.114   1.006   2.200
 4224TIP3    H212614   6.026   1.101   2.278
 4225TIP3   OH212615   0.922   4.459   4.854
 4225TIP3    H112616   0.948   4.545   4.822
 4225TIP3    H212617   0.847   4.476   4.910
 4226TIP3   OH212618   6.280   6.396   1.756
 4226TIP3    H112619   6.266   6.487   1.782
 4226TIP3    H212620   6.340   6.361   1.821
 4227TIP3   OH212621   1.282   5.589   1.255
 4227TIP3    H112622   1.289   5.517   1.192
 4227TIP3    H212623   1.301   5.548   1.340
 4228TIP3   OH212624   4.376   4.577   6.772
 4228TIP3    H112625   4.397   4.650   6.830
 4228TIP3    H212626   4.283   4.562   6.784
 4229TIP3   OH212627   7.563   3.762   3.065
 4229TIP3    H112628   7.574   3.857   3.070
 4229TIP3    H212629   7.652   3.729   3.052
 4230TIP3   OH212630   2.068   7.409   2.088
 4230TIP3    H112631   2.110   7.334   2.046
 4230TIP3    H212632   2.130   7.435   2.157
 4231TIP3   OH212633   3.327   4.096   4.710
 4231TIP3    H112634   3.255   4.086   4.648
 4231TIP3    H212635   3.299   4.167   4.768
 4232TIP3   OH212636   6.320   4.565   5.847
 4232TIP3    H112637   6.324   4.605   5.934
 4232TIP3    H212638   6.355   4.631   5.788
 4233TIP3   OH212639   6.755   2.558   3.077
 4233TIP3    H112640   6.671   2.524   3.109
 4233TIP3    H212641   6.821   2.501   3.118
 4234TIP3   OH212642   6.401   0.809   6.287
 4234TIP3    H112643   6.415   0.873   6.357
 4234TIP3    H212644   6.457   0.840   6.216
 4235TIP3   OH212645   6.570   3.004   2.003
 4235TIP3    H112646   6.571   3.093   2.037
 4235TIP3    H212647   6.622   2.953   2.066
 4236TIP3   OH212648   5.363   0.083   0.119
 4236TIP3    H112649   5.347   0.008   0.176
 4236TIP3    H212650   5.278   0.104   0.081
 4237TIP3   OH212651   5.405   4.168   1.694
 4237TIP3    H112652   5.415   4.104   1.624
 4237TIP3    H212653   5.426   4.121   1.774
 4238TIP3   OH212654   7.130   1.365   2.726
 4238TIP3    H112655   7.054   1.308   2.723
 4238TIP3    H212656   7.182   1.333   2.800
 4239TIP3   OH212657   4.620   3.161   4.592
 4239TIP3    H112658   4.620   3.238   4.534
 4239TIP3    H212659   4.575   3.191   4.671
 4240TIP3   OH212660   4.337   4.519   5.921
 4240TIP3    H112661   4.272   4.584   5.950
 4240TIP3    H212662   4.350   4.464   5.998
 4241TIP3   OH212663   4.164   0.403   3.843
 4241TIP3    H112664   4.108   0.340   3.797
 4241TIP3    H212665   4.219   0.440   3.774
 4242TIP3   OH212666   6.853   7.168   2.885
 4242TIP3    H112667   6.794   7.237   2.915
 4242TIP3    H212668   6.804   7.122   2.816
 4243TIP3   OH212669   1.695   0.743   3.996
 4243TIP3    H112670   1.768   0.689   3.966
 4243TIP3    H212671   1.621   0.717   3.942
 4244TIP3   OH212672   7.055   1.616   0.852
 4244TIP3    H112673   7.021   1.629   0.763
 4244TIP3    H212674   7.054   1.703   0.891
 4245TIP3   OH212675   4.424   6.776   5.115
 4245TIP3    H112676   4.443   6.682   5.111
 4245TIP3    H212677   4.494   6.816   5.063
 4246TIP3   OH212678   2.380   3.743   4.313
 4246TIP3    H112679   2.326   3.673   4.350
 4246TIP3    H212680   2.454   3.751   4.373
 4247TIP3   OH212681   8.015   0.949   0.178
 4247TIP3    H112682   7.991   0.945   0.271
 4247TIP3    H212683   8.096   0.898   0.173
 4248TIP3   OH212684   7.066   2.608   1.540
 4248TIP3    H112685   7.040   2.676   1.604
 4248TIP3    H212686   6.983   2.574   1.506
 4249TIP3   OH212687   0.781   2.424   1.633
 4249TIP3    H112688   0.804   2.466   1.716
 4249TIP3    H212689   0.764   2.497   1.573
 4250TIP3   OH212690   7.871   7.086   3.834
 4250TIP3    H112691   7.906   7.010   3.786
 4250TIP3    H212692   7.844   7.147   3.766
 4251TIP3   OH212693   4.326   1.060   4.840
 4251TIP3    H112694   4.244   1.109   4.831
 4251TIP3    H212695   4.391   1.115   4.796
 4252TIP3   OH212696   7.283   7.723   6.550
 4252TIP3    H112697   7.267   7.817   6.559
 4252TIP3    H212698   7.195   7.684   6.553
 4253TIP3   OH212699   5.250   3.814   4.992
 4253TIP3    H112700   5.160   3.814   4.959
 4253TIP3    H212701   5.280   3.724   4.978
 4254TIP3   OH212702   6.512   5.364   3.125
 4254TIP3    H112703   6.566   5.382   3.202
 4254TIP3    H212704   6.439   5.313   3.159
 4255TIP3   OH212705   6.020   2.986   0.006
 4255TIP3    H112706   6.045   3.026   0.090
 4255TIP3    H212707   6.014   3.059  -0.055
 4256TIP3   OH212708   3.033   4.799   5.058
 4256TIP3    H112709   3.053   4.893   5.053
 4256TIP3    H212710   2.971   4.792   5.131
 4257TIP3   OH212711   4.234   5.088   0.203
 4257TIP3    H112712   4.146   5.058   0.179
 4257TIP3    H212713   4.278   5.104   0.119
 4258TIP3   OH212714   1.829   5.548   1.509
 4258TIP3    H112715   1.746   5.579   1.472
 4258TIP3    H212716   1.846   5.608   1.582
 4259TIP3   OH212717   1.505   1.556   5.575
 4259TIP3    H112718   1.566   1.616   5.533
 4259TIP3    H212719   1.558   1.478   5.594
 4260TIP3   OH212720   1.892   2.444   0.263
 4260TIP3    H112721   1.842   2.427   0.183
 4260TIP3    H212722   1.833   2.495   0.318
 4261TIP3   OH212723   2.118   0.884   3.132
 4261TIP3    H112724   2.211   0.870   3.149
 4261TIP3    H212725   2.103   0.976   3.153
 4262TIP3   OH212726   6.104   5.924   0.821
 4262TIP3    H112727   6.188   5.944   0.779
 4262TIP3    H212728   6.079   6.006   0.865
 4263TIP3   OH212729   5.164   5.921   1.950
 4263TIP3    H112730   5.128   6.007   1.926
 4263TIP3    H212731   5.127   5.861   1.885
 4264TIP3   OH212732   3.713   4.491   0.951
 4264TIP3    H112733   3.716   4.395   0.944
 4264TIP3    H212734   3.620   4.512   0.944
 4265TIP3   OH212735   0.216   3.906   0.052
 4265TIP3    H112736   0.123   3.923   0.038
 4265TIP3    H212737   0.218   3.822   0.099
 4266TIP3   OH212738   3.510   6.410   6.721
 4266TIP3    H112739   3.423   6.433   6.689
 4266TIP3    H212740   3.497   6.331   6.773
 4267TIP3   OH212741   5.252   4.301   6.813
 4267TIP3    H112742   5.289   4.214   6.828
 4267TIP3    H212743   5.326   4.354   6.784
 4268TIP3   OH212744   3.513   0.414   6.370
 4268TIP3    H112745   3.548   0.461   6.294
 4268TIP3    H212746   3.498   0.325   6.339
 4269TIP3   OH212747   5.152   6.511   3.465
 4269TIP3    H112748   5.142   6.553   3.550
 4269TIP3    H212749   5.219   6.445   3.478
 4270TIP3   OH212750   2.902   7.449   2.521
 4270TIP3    H112751   2.992   7.444   2.553
 4270TIP3    H212752   2.885   7.542   2.509
 4271TIP3   OH212753   1.074   7.811   5.351
 4271TIP3    H112754   1.063   7.778   5.262
 4271TIP3    H212755   1.112   7.898   5.340
 4272TIP3   OH212756   2.447   2.093   4.636
 4272TIP3    H112757   2.420   2.162   4.575
 4272TIP3    H212758   2.538   2.074   4.612
 4273TIP3   OH212759   7.438   7.100   3.953
 4273TIP3    H112760   7.356   7.058   3.928
 4273TIP3    H212761   7.504   7.062   3.896
 4274TIP3   OH212762   0.397   6.341   0.690
 4274TIP3    H112763   0.419   6.431   0.667
 4274TIP3    H212764   0.311   6.327   0.650
 4275TIP3   OH212765   7.915   6.824   6.267
 4275TIP3    H112766   7.941   6.737   6.298
 4275TIP3    H212767   7.967   6.838   6.188
 4276TIP3   OH212768   1.966   2.400   6.134
 4276TIP3    H112769   2.006   2.395   6.048
 4276TIP3    H212770   2.018   2.465   6.181
 4277TIP3   OH212771   4.480   5.064   2.913
 4277TIP3    H112772   4.458   5.110   2.832
 4277TIP3    H212773   4.476   4.971   2.889
 4278TIP3   OH212774   4.119   0.558   6.350
 4278TIP3    H112775   4.178   0.592   6.416
 4278TIP3    H212776   4.032   0.568   6.389
 4279TIP3   OH212777   7.084   4.329   1.286
 4279TIP3    H112778   7.121   4.275   1.357
 4279TIP3    H212779   7.004   4.366   1.324
 4280TIP3   OH212780   0.140   5.982   1.380
 4280TIP3    H112781   0.099   5.981   1.466
 4280TIP3    H212782   0.228   6.017   1.396
 4281TIP3   OH212783   7.463   6.479   6.394
 4281TIP3    H112784   7.536   6.432   6.354
 4281TIP3    H212785   7.401   6.410   6.420
 4282TIP3   OH212786   3.954   5.637   3.684
 4282TIP3    H112787   3.960   5.646   3.589
 4282TIP3    H212788   3.913   5.718   3.713
 4283TIP3   OH212789   3.878   6.620   2.011
 4283TIP3    H112790   3.867   6.556   1.940
 4283TIP3    H212791   3.788   6.642   2.036
 4284TIP3   OH212792   5.956   7.586   6.631
 4284TIP3    H112793   5.970   7.545   6.716
 4284TIP3    H212794   5.861   7.593   6.624
 4285TIP3   OH212795   6.653   6.856   2.958
 4285TIP3    H112796   6.567   6.870   2.998
 4285TIP3    H212797   6.660   6.924   2.891
 4286TIP3   OH212798   6.939   0.635   2.247
 4286TIP3    H112799   6.958   0.547   2.213
 4286TIP3    H212800   6.990   0.642   2.327
 4287TIP3   OH212801   3.619   5.614   5.548
 4287TIP3    H112802   3.653   5.697   5.515
 4287TIP3    H212803   3.696   5.558   5.555
 4288TIP3   OH212804   4.820   4.750   6.018
 4288TIP3    H112805   4.783   4.830   5.980
 4288TIP3    H212806   4.757   4.723   6.085
 4289TIP3   OH212807   4.479   1.037   3.628
 4289TIP3    H112808   4.392   1.076   3.628
 4289TIP3    H212809   4.535   1.103   3.587
 4290TIP3   OH212810   4.976   0.618   6.134
 4290TIP3    H112811   5.066   0.594   6.159
 4290TIP3    H212812   4.947   0.545   6.078
 4291TIP3   OH212813   3.092   3.039   5.196
 4291TIP3    H112814   3.094   2.973   5.265
 4291TIP3    H212815   3.183   3.066   5.186
 4292TIP3   OH212816   0.649   4.059   5.423
 4292TIP3    H112817   0.718   4.091   5.365
 4292TIP3    H212818   0.696   4.014   5.494
 4293TIP3   OH212819   1.007   5.686   6.408
 4293TIP3    H112820   0.934   5.682   6.346
 4293TIP3    H212821   0.965   5.691   6.494
 4294TIP3   OH212822   5.208   5.754   5.309
 4294TIP3    H112823   5.176   5.724   5.224
 4294TIP3    H212824   5.141   5.815   5.340
 4295TIP3   OH212825   5.352   4.861   2.805
 4295TIP3    H112826   5.366   4.947   2.766
 4295TIP3    H212827   5.289   4.877   2.875
 4296TIP3   OH212828   0.458   5.404   5.531
 4296TIP3    H112829   0.374   5.399   5.578
 4296TIP3    H212830   0.462   5.493   5.497
 4297TIP3   OH212831   2.683   3.248   5.176
 4297TIP3    H112832   2.601   3.294   5.192
 4297TIP3    H212833   2.676   3.167   5.227
 4298TIP3   OH212834   7.128   6.596   0.877
 4298TIP3    H112835   7.112   6.690   0.875
 4298TIP3    H212836   7.045   6.558   0.904
 4299TIP3   OH212837   0.912   6.579   3.241
 4299TIP3    H112838   0.825   6.544   3.222
 4299TIP3    H212839   0.952   6.593   3.155
 4300TIP3   OH212840   3.773   0.293   3.296
 4300TIP3    H112841   3.755   0.364   3.358
 4300TIP3    H212842   3.846   0.325   3.243
 4301TIP3   OH212843   0.467   1.256   1.253
 4301TIP3    H112844   0.371   1.261   1.254
 4301TIP3    H212845   0.486   1.176   1.204
 4302TIP3   OH212846   7.607   5.917   2.309
 4302TIP3    H112847   7.605   6.013   2.310
 4302TIP3    H212848   7.580   5.891   2.397
 4303TIP3   OH212849   7.725   2.905   1.730
 4303TIP3    H112850   7.659   2.835   1.730
 4303TIP3    H212851   7.758   2.907   1.640
 4304TIP3   OH212852   3.821   5.248   3.092
 4304TIP3    H112853   3.781   5.166   3.121
 4304TIP3    H212854   3.780   5.266   3.007
 4305TIP3   OH212855   4.498   3.741   1.842
 4305TIP3    H112856   4.538   3.739   1.929
 4305TIP3    H212857   4.435   3.669   1.843
 4306TIP3   OH212858   3.154   4.588   1.171
 4306TIP3    H112859   3.205   4.665   1.194
 4306TIP3    H212860   3.209   4.514   1.197
 4307TIP3   OH212861   2.971   2.395   0.755
 4307TIP3    H112862   2.956   2.394   0.661
 4307TIP3    H212863   3.001   2.485   0.773
 4308TIP3   OH212864   7.179   1.529   1.261
 4308TIP3    H112865   7.247   1.571   1.314
 4308TIP3    H212866   7.218   1.447   1.231
 4309TIP3   OH212867   5.184   4.713   1.640
 4309TIP3    H112868   5.126   4.680   1.571
 4309TIP3    H212869   5.172   4.651   1.712
 4310TIP3   OH212870   0.393   7.741   3.377
 4310TIP3    H112871   0.434   7.677   3.435
 4310TIP3    H212872   0.310   7.700   3.351
 4311TIP3   OH212873   4.131   4.893   2.082
 4311TIP3    H112874   4.187   4.967   2.058
 4311TIP3    H212875   4.072   4.929   2.148
 4312TIP3   OH212876   4.955   2.717   1.029
 4312TIP3    H112877   4.892   2.646   1.021
 4312TIP3    H212878   4.912   2.792   0.987
 4313TIP3   OH212879   6.404   5.100   3.182
 4313TIP3    H112880   6.379   5.079   3.093
 4313TIP3    H212881   6.328   5.076   3.235
 4314TIP3   OH212882   3.127   5.465   6.706
 4314TIP3    H112883   3.144   5.556   6.727
 4314TIP3    H212884   3.161   5.416   6.781
 4315TIP3   OH212885   4.317   3.518   1.868
 4315TIP3    H112886   4.252   3.465   1.914
 4315TIP3    H212887   4.267   3.563   1.800
 4316TIP3   OH212888   1.867   2.106   0.910
 4316TIP3    H112889   1.854   2.150   0.826
 4316TIP3    H212890   1.934   2.039   0.892
 4317TIP3   OH212891   2.724   3.458   4.569
 4317TIP3    H112892   2.804   3.487   4.525
 4317TIP3    H212893   2.747   3.373   4.607
 4318TIP3   OH212894   3.543   6.142   4.074
 4318TIP3    H112895   3.499   6.058   4.060
 4318TIP3    H212896   3.474   6.200   4.106
 4319TIP3   OH212897   4.576   5.742   1.702
 4319TIP3    H112898   4.553   5.824   1.658
 4319TIP3    H212899   4.611   5.687   1.632
 4320TIP3   OH212900   1.353   6.595   6.287
 4320TIP3    H112901   1.382   6.568   6.374
 4320TIP3    H212902   1.405   6.543   6.226
 4321TIP3   OH212903   3.490   0.181   6.626
 4321TIP3    H112904   3.513   0.165   6.717
 4321TIP3    H212905   3.572   0.169   6.578
 4322TIP3   OH212906   0.853   0.282   5.710
 4322TIP3    H112907   0.899   0.211   5.664
 4322TIP3    H212908   0.917   0.315   5.773
 4323TIP3   OH212909   5.362   2.677   1.207
 4323TIP3    H112910   5.453   2.697   1.183
 4323TIP3    H212911   5.350   2.586   1.180
 4324TIP3   OH212912   6.833   7.339   1.700
 4324TIP3    H112913   6.813   7.246   1.689
 4324TIP3    H212914   6.928   7.344   1.699
 4325TIP3   OH212915   5.502   2.593   4.985
 4325TIP3    H112916   5.434   2.578   5.051
 4325TIP3    H212917   5.459   2.647   4.919
 4326TIP3   OH212918   4.086   5.274   3.176
 4326TIP3    H112919   4.147   5.214   3.133
 4326TIP3    H212920   3.999   5.241   3.153
 4327TIP3   OH212921   0.561   5.089   2.461
 4327TIP3    H112922   0.623   5.145   2.415
 4327TIP3    H212923   0.486   5.146   2.479
 4328TIP3   OH212924   5.945   1.598   5.997
 4328TIP3    H112925   6.015   1.626   6.056
 4328TIP3    H212926   5.973   1.628   5.911
 4329TIP3   OH212927   0.397   5.685   1.028
 4329TIP3    H112928   0.353   5.600   1.035
 4329TIP3    H212929   0.332   5.742   0.987
 4330TIP3   OH212930   2.568   4.140   2.513
 4330TIP3    H112931   2.496   4.082   2.537
 4330TIP3    H212932   2.638   4.121   2.576
 4331TIP3   OH212933   1.314   4.916   6.794
 4331TIP3    H112934   1.249   4.928   6.724
 4331TIP3    H212935   1.328   4.822   6.797
 4332TIP3   OH212936   1.768   6.505   0.025
 4332TIP3    H112937   1.835   6.552  -0.025
 4332TIP3    H212938   1.696   6.567   0.033
 4333TIP3   OH212939   0.723   0.604   3.062
 4333TIP3    H112940   0.748   0.696   3.051
 4333TIP3    H212941   0.639   0.608   3.108
 4334TIP3   OH212942   3.074   2.712   3.707
 4334TIP3    H112943   3.060   2.637   3.649
 4334TIP3    H212944   2.989   2.754   3.713
 4335TIP3   OH212945   3.838   2.820   5.781
 4335TIP3    H112946   3.900   2.769   5.728
 4335TIP3    H212947   3.829   2.769   5.862
 4336TIP3   OH212948   7.765   2.493   4.347
 4336TIP3    H112949   7.849   2.530   4.372
 4336TIP3    H212950   7.705   2.522   4.416
 4337TIP3   OH212951   7.112   1.769   2.141
 4337TIP3    H112952   7.047   1.804   2.202
 4337TIP3    H212953   7.075   1.686   2.112
 4338TIP3   OH212954   0.285   5.211   0.009
 4338TIP3    H112955   0.323   5.232   0.095
 4338TIP3    H212956   0.227   5.285  -0.010
 4339TIP3   OH212957   6.732   5.476   6.209
 4339TIP3    H112958   6.704   5.564   6.184
 4339TIP3    H212959   6.696   5.419   6.140
 4340TIP3   OH212960   2.186   2.726   2.263
 4340TIP3    H112961   2.143   2.744   2.179
 4340TIP3    H212962   2.274   2.763   2.253
 4341TIP3   OH212963   5.446   2.031   3.657
 4341TIP3    H112964   5.363   1.983   3.649
 4341TIP3    H212965   5.513   1.967   3.637
 4342TIP3   OH212966   2.030   2.262   4.763
 4342TIP3    H112967   2.018   2.171   4.788
 4342TIP3    H212968   2.035   2.310   4.846
 4343TIP3   OH212969   5.162   2.893   0.223
 4343TIP3    H112970   5.207   2.913   0.305
 4343TIP3    H212971   5.215   2.935   0.156
 4344TIP3   OH212972   5.174   5.018   0.053
 4344TIP3    H112973   5.237   5.032  -0.017
 4344TIP3    H212974   5.177   4.924   0.070
 4345TIP3   OH212975   3.742   2.918   6.541
 4345TIP3    H112976   3.813   2.860   6.514
 4345TIP3    H212977   3.779   3.006   6.534
 4346TIP3   OH212978   7.073   1.738   4.867
 4346TIP3    H112979   7.072   1.674   4.938
 4346TIP3    H212980   7.142   1.801   4.892
 4347TIP3   OH212981   7.331   5.506   5.932
 4347TIP3    H112982   7.406   5.541   5.979
 4347TIP3    H212983   7.259   5.565   5.953
 4348TIP3   OH212984   3.734   0.044   0.302
 4348TIP3    H112985   3.760  -0.019   0.235
 4348TIP3    H212986   3.801   0.037   0.370
 4349TIP3   OH212987   4.960   7.641   6.161
 4349TIP3    H112988   4.960   7.669   6.253
 4349TIP3    H212989   4.905   7.706   6.117
 4350TIP3   OH212990   1.642   2.645   6.203
 4350TIP3    H112991   1.630   2.582   6.132
 4350TIP3    H212992   1.565   2.702   6.199
 4351TIP3   OH212993   6.825   7.053   2.460
 4351TIP3    H112994   6.765   7.127   2.472
 4351TIP3    H212995   6.819   7.033   2.367
 4352TIP3   OH212996   2.868   1.094   3.171
 4352TIP3    H112997   2.828   1.135   3.094
 4352TIP3    H212998   2.959   1.079   3.144
 4353TIP3   OH212999   8.270   7.585   2.641
 4353TIP3    H113000   8.244   7.497   2.670
 4353TIP3    H213001   8.222   7.599   2.560
 4354TIP3   OH213002   1.863   2.957   0.755
 4354TIP3    H113003   1.959   2.966   0.748
 4354TIP3    H213004   1.836   2.927   0.669
 4355TIP3   OH213005   2.901   1.623   3.395
 4355TIP3    H113006   2.911   1.533   3.427
 4355TIP3    H213007   2.943   1.621   3.309
 4356TIP3   OH213008   3.864   4.473   3.811
 4356TIP3    H113009   3.836   4.393   3.766
 4356TIP3    H213010   3.925   4.443   3.878
 4357TIP3   OH213011   4.480   6.969   6.758
 4357TIP3    H113012   4.554   6.934   6.709
 4357TIP3    H213013   4.520   7.014   6.832
 4358TIP3   OH213014   1.556   3.803   2.616
 4358TIP3    H113015   1.553   3.709   2.634
 4358TIP3    H213016   1.479   3.839   2.660
 4359TIP3   OH213017   1.316   2.221   1.666
 4359TIP3    H113018   1.289   2.154   1.729
 4359TIP3    H213019   1.313   2.303   1.715
 4360TIP3   OH213020   3.717   1.479   1.095
 4360TIP3    H113021   3.718   1.538   1.019
 4360TIP3    H213022   3.624   1.469   1.116
 4361TIP3   OH213023   1.413   1.422   3.455
 4361TIP3    H113024   1.480   1.402   3.391
 4361TIP3    H213025   1.330   1.411   3.408
 4362TIP3   OH213026   6.224   4.900   3.260
 4362TIP3    H113027   6.181   4.824   3.298
 4362TIP3    H213028   6.298   4.864   3.211
 4363TIP3   OH213029   0.655   3.079   2.776
 4363TIP3    H113030   0.575   3.038   2.744
 4363TIP3    H213031   0.627   3.166   2.807
 4364TIP3   OH213032   6.077   0.825   5.187
 4364TIP3    H113033   6.043   0.775   5.112
 4364TIP3    H213034   6.100   0.910   5.151
 4365TIP3   OH213035   1.689   2.824   2.308
 4365TIP3    H113036   1.670   2.730   2.305
 4365TIP3    H213037   1.782   2.829   2.327
 4366TIP3   OH213038   4.558   4.596   4.701
 4366TIP3    H113039   4.523   4.561   4.619
 4366TIP3    H213040   4.524   4.538   4.769
 4367TIP3   OH213041   6.289   2.397   6.064
 4367TIP3    H113042   6.375   2.356   6.072
 4367TIP3    H213043   6.296   2.452   5.986
 4368TIP3   OH213044   0.586   7.281   6.739
 4368TIP3    H113045   0.566   7.201   6.691
 4368TIP3    H213046   0.513   7.291   6.800
 4369TIP3   OH213047   7.714   4.833   5.975
 4369TIP3    H113048   7.748   4.894   6.040
 4369TIP3    H213049   7.693   4.754   6.025
 4370TIP3   OH213050   4.598   4.714   3.201
 4370TIP3    H113051   4.519   4.660   3.215
 4370TIP3    H213052   4.602   4.726   3.106
 4371TIP3   OH213053   3.737   7.584   0.573
 4371TIP3    H113054   3.807   7.619   0.629
 4371TIP3    H213055   3.657   7.601   0.622
 4372TIP3   OH213056   4.910   4.476   1.862
 4372TIP3    H113057   4.949   4.551   1.907
 4372TIP3    H213058   4.972   4.405   1.876
 4373TIP3   OH213059   2.678   3.407   1.948
 4373TIP3    H113060   2.589   3.409   1.983
 4373TIP3    H213061   2.688   3.321   1.909
 4374TIP3   OH213062   0.623   4.641   0.093
 4374TIP3    H113063   0.607   4.610   0.183
 4374TIP3    H213064   0.591   4.570   0.038
 4375TIP3   OH213065   2.924   5.525   2.353
 4375TIP3    H113066   2.993   5.469   2.317
 4375TIP3    H213067   2.925   5.602   2.297
 4376TIP3   OH213068   3.829   3.770   4.137
 4376TIP3    H113069   3.796   3.680   4.145
 4376TIP3    H213070   3.777   3.809   4.067
 4377TIP3   OH213071   0.603   3.311   1.097
 4377TIP3    H113072   0.590   3.343   1.008
 4377TIP3    H213073   0.536   3.244   1.108
 4378TIP3   OH213074   2.656   4.608   4.019
 4378TIP3    H113075   2.645   4.592   4.113
 4378TIP3    H213076   2.745   4.577   4.001
 4379TIP3   OH213077   2.050   0.757   1.326
 4379TIP3    H113078   2.084   0.668   1.317
 4379TIP3    H213079   1.974   0.759   1.268
 4380TIP3   OH213080   3.542   6.058   2.149
 4380TIP3    H113081   3.522   6.052   2.056
 4380TIP3    H213082   3.473   6.113   2.185
 4381TIP3   OH213083   4.984   1.152   5.321
 4381TIP3    H113084   4.966   1.116   5.234
 4381TIP3    H213085   4.900   1.145   5.368
 4382TIP3   OH213086   4.212   5.508   3.005
 4382TIP3    H113087   4.200   5.452   3.082
 4382TIP3    H213088   4.172   5.592   3.031
 4383TIP3   OH213089   3.648   4.483   5.994
 4383TIP3    H113090   3.683   4.465   6.082
 4383TIP3    H213091   3.642   4.397   5.953
 4384TIP3   OH213092   4.705   2.301   5.038
 4384TIP3    H113093   4.638   2.233   5.039
 4384TIP3    H213094   4.665   2.375   5.083
 4385TIP3   OH213095   1.267   6.446   5.199
 4385TIP3    H113096   1.354   6.411   5.218
 4385TIP3    H213097   1.229   6.383   5.137
 4386TIP3   OH213098   5.445   5.306   4.848
 4386TIP3    H113099   5.469   5.219   4.880
 4386TIP3    H213100   5.529   5.349   4.830
 4387TIP3   OH213101   6.952   0.958   0.638
 4387TIP3    H113102   7.045   0.977   0.631
 4387TIP3    H213103   6.947   0.882   0.695
 4388TIP3   OH213104   3.349   1.303   2.529
 4388TIP3    H113105   3.261   1.295   2.564
 4388TIP3    H213106   3.337   1.307   2.434
 4389TIP3   OH213107   3.395   4.882   1.369
 4389TIP3    H113108   3.315   4.897   1.319
 4389TIP3    H213109   3.463   4.867   1.302
 4390TIP3   OH213110   6.874   4.731   6.359
 4390TIP3    H113111   6.792   4.744   6.406
 4390TIP3    H213112   6.903   4.643   6.385
 4391TIP3   OH213113   7.824   7.096   6.039
 4391TIP3    H113114   7.835   7.027   5.974
 4391TIP3    H213115   7.881   7.167   6.008
 4392TIP3   OH213116   8.164   1.340   3.847
 4392TIP3    H113117   8.134   1.403   3.913
 4392TIP3    H213118   8.152   1.385   3.763
 4393TIP3   OH213119   4.664   5.603   0.406
 4393TIP3    H113120   4.574   5.624   0.433
 4393TIP3    H213121   4.708   5.688   0.401
 4394TIP3   OH213122   0.631   1.145   0.022
 4394TIP3    H113123   0.542   1.147  -0.012
 4394TIP3    H213124   0.655   1.052   0.024
 4395TIP3   OH213125   5.689   2.628   0.467
 4395TIP3    H113126   5.595   2.612   0.474
 4395TIP3    H213127   5.713   2.665   0.552
 4396TIP3   OH213128   2.825   6.571   4.090
 4396TIP3    H113129   2.848   6.479   4.075
 4396TIP3    H213130   2.737   6.567   4.129
 4397TIP3   OH213131   7.641   6.149   6.455
 4397TIP3    H113132   7.637   6.229   6.403
 4397TIP3    H213133   7.582   6.088   6.410
 4398TIP3   OH213134   8.265   3.451   5.848
 4398TIP3    H113135   8.174   3.466   5.875
 4398TIP3    H213136   8.291   3.372   5.897
 4399TIP3   OH213137   6.307   2.272   5.117
 4399TIP3    H113138   6.332   2.340   5.180
 4399TIP3    H213139   6.388   2.223   5.101
 4400TIP3   OH213140   3.822   1.861   3.592
 4400TIP3    H113141   3.830   1.947   3.634
 4400TIP3    H213142   3.750   1.872   3.530
 4401TIP3   OH213143   4.028   3.658   3.458
 4401TIP3    H113144   4.062   3.690   3.374
 4401TIP3    H213145   4.066   3.571   3.467
 4402TIP3   OH213146   5.454   6.894   0.982
 4402TIP3    H113147   5.520   6.825   0.974
 4402TIP3    H213148   5.498   6.973   0.951
 4403TIP3   OH213149   2.602   7.123   6.476
 4403TIP3    H113150   2.559   7.113   6.561
 4403TIP3    H213151   2.628   7.215   6.473
 4404TIP3   OH213152   5.027   4.923   3.912
 4404TIP3    H113153   4.938   4.890   3.906
 4404TIP3    H213154   5.035   4.986   3.840
 4405TIP3   OH213155   5.618   0.901   1.594
 4405TIP3    H113156   5.562   0.951   1.535
 4405TIP3    H213157   5.688   0.867   1.537
 4406TIP3   OH213158   3.180   7.728   2.880
 4406TIP3    H113159   3.165   7.801   2.939
 4406TIP3    H213160   3.222   7.661   2.935
 4407TIP3   OH213161   7.404   2.470   2.553
 4407TIP3    H113162   7.401   2.411   2.628
 4407TIP3    H213163   7.472   2.434   2.496
 4408TIP3   OH213164   3.265   5.155   1.351
 4408TIP3    H113165   3.171   5.170   1.366
 4408TIP3    H213166   3.296   5.113   1.431
 4409TIP3   OH213167   2.035   2.817   4.618
 4409TIP3    H113168   2.098   2.838   4.687
 4409TIP3    H213169   1.994   2.901   4.597
 4410TIP3   OH213170   5.679   3.798   1.862
 4410TIP3    H113171   5.694   3.729   1.926
 4410TIP3    H213172   5.747   3.785   1.795
 4411TIP3   OH213173   2.016   4.520   1.103
 4411TIP3    H113174   2.037   4.445   1.158
 4411TIP3    H213175   2.060   4.594   1.145
 4412TIP3   OH213176   1.396   3.920   3.754
 4412TIP3    H113177   1.438   3.861   3.693
 4412TIP3    H213178   1.303   3.898   3.749
 4413TIP3   OH213179   1.442   7.904   1.180
 4413TIP3    H113180   1.374   7.883   1.116
 4413TIP3    H213181   1.397   7.957   1.246
 4414TIP3   OH213182   3.049   7.207   4.339
 4414TIP3    H113183   3.006   7.276   4.388
 4414TIP3    H213184   2.980   7.170   4.283
 4415TIP3   OH213185   1.119   3.132   4.495
 4415TIP3    H113186   1.067   3.075   4.440
 4415TIP3    H213187   1.133   3.211   4.442
 4416TIP3   OH213188   6.794   4.765   1.735
 4416TIP3    H113189   6.772   4.688   1.682
 4416TIP3    H213190   6.734   4.761   1.809
 4417TIP3   OH213191   4.954   6.453   2.419
 4417TIP3    H113192   4.898   6.469   2.343
 4417TIP3    H213193   4.905   6.487   2.494
 4418TIP3   OH213194   4.393   1.978   0.611
 4418TIP3    H113195   4.365   1.927   0.687
 4418TIP3    H213196   4.446   1.917   0.559
 4419TIP3   OH213197   5.861   6.506   0.056
 4419TIP3    H113198   5.833   6.499  -0.035
 4419TIP3    H213199   5.791   6.555   0.099
 4420TIP3   OH213200   5.084   3.892   5.623
 4420TIP3    H113201   5.048   3.974   5.657
 4420TIP3    H213202   5.102   3.839   5.701
 4421TIP3   OH213203   2.373   1.736   6.431
 4421TIP3    H113204   2.347   1.824   6.455
 4421TIP3    H213205   2.378   1.688   6.514
 4422TIP3   OH213206   0.464   4.737   6.422
 4422TIP3    H113207   0.433   4.707   6.336
 4422TIP3    H213208   0.462   4.658   6.476
 4423TIP3   OH213209   5.743   3.982   5.877
 4423TIP3    H113210   5.680   3.942   5.818
 4423TIP3    H213211   5.802   4.031   5.820
 4424TIP3   OH213212   1.939   7.483   5.886
 4424TIP3    H113213   1.985   7.530   5.955
 4424TIP3    H213214   1.935   7.393   5.917
 4425TIP3   OH213215   7.447   4.602   2.992
 4425TIP3    H113216   7.471   4.514   2.964
 4425TIP3    H213217   7.512   4.660   2.952
 4426TIP3   OH213218   5.330   7.681   5.079
 4426TIP3    H113219   5.411   7.731   5.090
 4426TIP3    H213220   5.354   7.592   5.102
 4427TIP3   OH213221   0.217   3.953   6.610
 4427TIP3    H113222   0.163   4.003   6.671
 4427TIP3    H213223   0.234   3.871   6.655
 4428TIP3   OH213224   4.554   2.751   4.864
 4428TIP3    H113225   4.530   2.842   4.850
 4428TIP3    H213226   4.650   2.752   4.872
 4429TIP3   OH213227   8.229   1.046   5.991
 4429TIP3    H113228   8.284   1.123   5.999
 4429TIP3    H213229   8.282   0.984   5.941
 4430TIP3   OH213230   2.034   4.103   5.060
 4430TIP3    H113231   1.939   4.095   5.049
 4430TIP3    H213232   2.047   4.103   5.154
 4431TIP3   OH213233   7.091   0.470   3.229
 4431TIP3    H113234   7.010   0.495   3.184
 4431TIP3    H213235   7.063   0.409   3.297
 4432TIP3   OH213236   0.335   2.004   3.009
 4432TIP3    H113237   0.392   2.035   2.938
 4432TIP3    H213238   0.249   2.041   2.988
 4433TIP3   OH213239   0.389   5.946   1.682
 4433TIP3    H113240   0.372   5.978   1.771
 4433TIP3    H213241   0.396   6.025   1.629
 4434TIP3   OH213242   7.581   5.891   3.959
 4434TIP3    H113243   7.668   5.876   3.996
 4434TIP3    H213244   7.597   5.908   3.866
 4435TIP3   OH213245   3.910   3.177   6.595
 4435TIP3    H113246   3.949   3.157   6.510
 4435TIP3    H213247   3.923   3.271   6.606
 4436TIP3   OH213248   2.205   4.343   5.113
 4436TIP3    H113249   2.252   4.324   5.194
 4436TIP3    H213250   2.147   4.268   5.100
 4437TIP3   OH213251   3.682   1.865   4.963
 4437TIP3    H113252   3.734   1.938   4.997
 4437TIP3    H213253   3.645   1.824   5.040
 4438TIP3   OH213254   7.087   7.038   2.487
 4438TIP3    H113255   7.117   6.947   2.478
 4438TIP3    H213256   6.992   7.034   2.473
 4439TIP3   OH213257   1.567   2.201   4.824
 4439TIP3    H113258   1.520   2.151   4.757
 4439TIP3    H213259   1.526   2.173   4.907
 4440TIP3   OH213260   6.082   1.100   0.128
 4440TIP3    H113261   6.126   1.158   0.067
 4440TIP3    H213262   5.991   1.096   0.097
 4441TIP3   OH213263   5.475   1.668   3.546
 4441TIP3    H113264   5.430   1.619   3.478
 4441TIP3    H213265   5.407   1.723   3.586
 4442TIP3   OH213266   5.506   3.028   5.370
 4442TIP3    H113267   5.576   3.039   5.306
 4442TIP3    H213268   5.481   2.936   5.363
 4443TIP3   OH213269   1.167   5.700   3.261
 4443TIP3    H113270   1.151   5.688   3.167
 4443TIP3    H213271   1.152   5.794   3.276
 4444TIP3   OH213272   7.561   4.876   2.512
 4444TIP3    H113273   7.594   4.863   2.423
 4444TIP3    H213274   7.551   4.788   2.548
 4445TIP3   OH213275   3.286   4.347   3.022
 4445TIP3    H113276   3.306   4.431   3.063
 4445TIP3    H213277   3.273   4.368   2.930
 4446TIP3   OH213278   7.981   3.166   5.668
 4446TIP3    H113279   7.940   3.143   5.752
 4446TIP3    H213280   8.051   3.102   5.657
 4447TIP3   OH213281   1.555   6.739   3.880
 4447TIP3    H113282   1.642   6.767   3.851
 4447TIP3    H213283   1.523   6.811   3.935
 4448TIP3   OH213284   2.682   2.993   5.291
 4448TIP3    H113285   2.682   2.902   5.261
 4448TIP3    H213286   2.624   2.993   5.367
 4449TIP3   OH213287   1.403   0.424   5.262
 4449TIP3    H113288   1.373   0.515   5.269
 4449TIP3    H213289   1.323   0.373   5.260
 4450TIP3   OH213290   1.275   2.597   0.796
 4450TIP3    H113291   1.327   2.671   0.825
 4450TIP3    H213292   1.329   2.520   0.815
 4451TIP3   OH213293   6.137   6.745   5.556
 4451TIP3    H113294   6.130   6.705   5.469
 4451TIP3    H213295   6.231   6.750   5.573
 4452TIP3   OH213296   5.106   6.686   3.729
 4452TIP3    H113297   5.085   6.731   3.810
 4452TIP3    H213298   5.140   6.600   3.756
 4453TIP3   OH213299   4.020   0.857   4.477
 4453TIP3    H113300   4.018   0.812   4.393
 4453TIP3    H213301   4.110   0.890   4.484
 4454TIP3   OH213302   2.394   2.666   3.538
 4454TIP3    H113303   2.333   2.731   3.503
 4454TIP3    H213304   2.354   2.637   3.620
 4455TIP3   OH213305   2.864   3.723   2.666
 4455TIP3    H113306   2.926   3.669   2.715
 4455TIP3    H213307   2.791   3.664   2.646
 4456TIP3   OH213308   3.697   0.203   4.678
 4456TIP3    H113309   3.730   0.232   4.593
 4456TIP3    H213310   3.601   0.205   4.667
 4457TIP3   OH213311   5.397   3.534   4.282
 4457TIP3    H113312   5.424   3.460   4.337
 4457TIP3    H213313   5.307   3.513   4.257
 4458TIP3   OH213314   4.174   5.537   0.407
 4458TIP3    H113315   4.136   5.554   0.493
 4458TIP3    H213316   4.170   5.622   0.362
 4459TIP3   OH213317   2.710   7.816   3.253
 4459TIP3    H113318   2.800   7.801   3.284
 4459TIP3    H213319   2.674   7.728   3.241
 4460TIP3   OH213320   4.979   1.636   4.885
 4460TIP3    H113321   4.890   1.637   4.921
 4460TIP3    H213322   5.035   1.622   4.962
 4461TIP3   OH213323   4.792   4.556   3.635
 4461TIP3    H113324   4.866   4.615   3.625
 4461TIP3    H213325   4.730   4.584   3.568
 4462TIP3   OH213326   1.635   2.593   4.773
 4462TIP3    H113327   1.666   2.519   4.721
 4462TIP3    H213328   1.555   2.623   4.729
 4463TIP3   OH213329   0.726   5.624   5.749
 4463TIP3    H113330   0.789   5.613   5.821
 4463TIP3    H213331   0.701   5.534   5.726
 4464TIP3   OH213332   7.692   7.167   5.408
 4464TIP3    H113333   7.757   7.148   5.476
 4464TIP3    H213334   7.735   7.139   5.327
 4465TIP3   OH213335   5.472   3.647   1.686
 4465TIP3    H113336   5.468   3.572   1.745
 4465TIP3    H213337   5.535   3.707   1.727
 4466TIP3   OH213338   0.429   2.101   6.623
 4466TIP3    H113339   0.352   2.135   6.668
 4466TIP3    H213340   0.479   2.179   6.599
 4467TIP3   OH213341   3.013   7.682   0.579
 4467TIP3    H113342   2.966   7.764   0.597
 4467TIP3    H213343   2.983   7.656   0.491
 4468TIP3   OH213344   2.823   2.363   1.885
 4468TIP3    H113345   2.730   2.383   1.873
 4468TIP3    H213346   2.831   2.347   1.979
 4469TIP3   OH213347   1.724   0.053   3.094
 4469TIP3    H113348   1.757   0.011   3.014
 4469TIP3    H213349   1.714   0.145   3.070
 4470TIP3   OH213350   7.416   6.246   2.446
 4470TIP3    H113351   7.455   6.334   2.444
 4470TIP3    H213352   7.484   6.188   2.413
 4471TIP3   OH213353   7.608   4.965   5.212
 4471TIP3    H113354   7.621   5.023   5.137
 4471TIP3    H213355   7.689   4.972   5.262
 4472TIP3   OH213356   7.777   3.331   5.153
 4472TIP3    H113357   7.826   3.409   5.179
 4472TIP3    H213358   7.781   3.273   5.229
 4473TIP3   OH213359   1.168   6.329   3.137
 4473TIP3    H113360   1.252   6.357   3.173
 4473TIP3    H213361   1.136   6.406   3.090
 4474TIP3   OH213362   7.484   1.639   2.279
 4474TIP3    H113363   7.447   1.727   2.281
 4474TIP3    H213364   7.519   1.626   2.367
 4475TIP3   OH213365   3.337   6.075   4.875
 4475TIP3    H113366   3.273   6.086   4.945
 4475TIP3    H213367   3.410   6.030   4.917
 4476TIP3   OH213368   3.598   0.846   4.616
 4476TIP3    H113369   3.535   0.908   4.652
 4476TIP3    H213370   3.665   0.839   4.684
 4477TIP3   OH213371   5.115   5.353   3.637
 4477TIP3    H113372   5.154   5.295   3.572
 4477TIP3    H213373   5.107   5.438   3.592
 4478TIP3   OH213374   6.987   6.063   4.818
 4478TIP3    H113375   7.025   6.094   4.901
 4478TIP3    H213376   7.048   6.095   4.751
 4479TIP3   OH213377   3.577   5.755   0.040
 4479TIP3    H113378   3.552   5.668   0.071
 4479TIP3    H213379   3.500   5.788  -0.005
 4480TIP3   OH213380   6.520   1.483   6.611
 4480TIP3    H113381   6.501   1.531   6.530
 4480TIP3    H213382   6.478   1.535   6.680
 4481TIP3   OH213383   2.565   5.602   2.085
 4481TIP3    H113384   2.576   5.512   2.055
 4481TIP3    H213385   2.540   5.594   2.177
 4482TIP3   OH213386   5.964   6.859   5.000
 4482TIP3    H113387   5.912   6.781   5.020
 4482TIP3    H213388   5.909   6.909   4.940
 4483TIP3   OH213389   4.261   5.513   3.312
 4483TIP3    H113390   4.276   5.422   3.287
 4483TIP3    H213391   4.311   5.525   3.392
 4484TIP3   OH213392   4.572   2.765   3.695
 4484TIP3    H113393   4.590   2.859   3.694
 4484TIP3    H213394   4.658   2.724   3.703
 4485TIP3   OH213395   6.422   4.776   1.215
 4485TIP3    H113396   6.492   4.835   1.242
 4485TIP3    H213397   6.346   4.832   1.199
 4486TIP3   OH213398   4.020   7.323   1.444
 4486TIP3    H113399   4.010   7.365   1.529
 4486TIP3    H213400   4.100   7.270   1.453
 4487TIP3   OH213401   4.446   7.172   3.610
 4487TIP3    H113402   4.412   7.124   3.685
 4487TIP3    H213403   4.449   7.108   3.539
 4488TIP3   OH213404   6.096   0.559   5.339
 4488TIP3    H113405   6.067   0.495   5.404
 4488TIP3    H213406   6.045   0.637   5.357
 4489TIP3   OH213407   0.378   4.134   0.054
 4489TIP3    H113408   0.357   4.189  -0.021
 4489TIP3    H213409   0.315   4.062   0.049
 4490TIP3   OH213410   4.928   4.343   3.333
 4490TIP3    H113411   4.891   4.430   3.351
 4490TIP3    H213412   4.853   4.290   3.305
 4491TIP3   OH213413   7.936   4.545   6.592
 4491TIP3    H113414   7.938   4.638   6.567
 4491TIP3    H213415   7.970   4.499   6.516
 4492TIP3   OH213416   2.830   7.279   0.640
 4492TIP3    H113417   2.873   7.256   0.722
 4492TIP3    H213418   2.750   7.226   0.639
 4493TIP3   OH213419   1.577   0.754   0.539
 4493TIP3    H113420   1.578   0.688   0.608
 4493TIP3    H213421   1.589   0.837   0.586
 4494TIP3   OH213422   1.159   2.502   0.018
 4494TIP3    H113423   1.247   2.536   0.001
 4494TIP3    H213424   1.159   2.483   0.112
 4495TIP3   OH213425   6.292   2.824   6.182
 4495TIP3    H113426   6.316   2.849   6.092
 4495TIP3    H213427   6.233   2.894   6.210
 4496TIP3   OH213428   6.633   3.226   0.832
 4496TIP3    H113429   6.620   3.299   0.772
 4496TIP3    H213430   6.706   3.177   0.795
 4497TIP3   OH213431   4.905   5.767   5.933
 4497TIP3    H113432   4.947   5.793   5.851
 4497TIP3    H213433   4.905   5.671   5.930
 4498TIP3   OH213434   7.619   4.340   6.182
 4498TIP3    H113435   7.534   4.353   6.224
 4498TIP3    H213436   7.644   4.251   6.207
 4499TIP3   OH213437   1.641   6.358   1.188
 4499TIP3    H113438   1.575   6.311   1.239
 4499TIP3    H213439   1.614   6.346   1.097
 4500TIP3   OH213440   4.342   4.015   0.039
 4500TIP3    H113441   4.277   4.066   0.087
 4500TIP3    H213442   4.291   3.959  -0.019
 4501TIP3   OH213443   5.082   0.207   5.769
 4501TIP3    H113444   5.055   0.136   5.712
 4501TIP3    H213445   5.176   0.218   5.751
 4502TIP3   OH213446   7.332   5.094   6.259
 4502TIP3    H113447   7.271   5.118   6.328
 4502TIP3    H213448   7.277   5.057   6.190
 4503TIP3   OH213449   4.698   0.596   4.272
 4503TIP3    H113450   4.695   0.682   4.231
 4503TIP3    H213451   4.609   0.583   4.307
 4504TIP3   OH213452   8.010   5.239   4.480
 4504TIP3    H113453   7.933   5.203   4.437
 4504TIP3    H213454   7.975   5.301   4.544
 4505TIP3   OH213455   4.044   7.312   0.955
 4505TIP3    H113456   4.114   7.252   0.929
 4505TIP3    H213457   4.085   7.399   0.951
 4506TIP3   OH213458   0.605   5.348   5.183
 4506TIP3    H113459   0.598   5.443   5.190
 4506TIP3    H213460   0.669   5.324   5.250
 4507TIP3   OH213461   4.794   2.085   3.564
 4507TIP3    H113462   4.713   2.057   3.523
 4507TIP3    H213463   4.863   2.039   3.517
 4508TIP3   OH213464   3.307   1.500   0.073
 4508TIP3    H113465   3.268   1.431   0.127
 4508TIP3    H213466   3.232   1.553   0.046
 4509TIP3   OH213467   6.632   0.659   4.466
 4509TIP3    H113468   6.713   0.641   4.420
 4509TIP3    H213469   6.590   0.730   4.416
 4510TIP3   OH213470   7.472   4.618   2.518
 4510TIP3    H113471   7.432   4.569   2.589
 4510TIP3    H213472   7.478   4.556   2.446
 4511TIP3   OH213473   7.900   3.469   1.586
 4511TIP3    H113474   7.987   3.476   1.546
 4511TIP3    H213475   7.884   3.375   1.592
 4512TIP3   OH213476   5.635   0.450   6.496
 4512TIP3    H113477   5.712   0.484   6.452
 4512TIP3    H213478   5.568   0.444   6.428
 4513TIP3   OH213479   3.205   4.657   6.821
 4513TIP3    H113480   3.110   4.660   6.812
 4513TIP3    H213481   3.236   4.731   6.769
 4514TIP3   OH213482   8.063   0.161   3.560
 4514TIP3    H113483   8.139   0.205   3.523
 4514TIP3    H213484   8.079   0.068   3.544
 4515TIP3   OH213485   1.678   7.824   6.527
 4515TIP3    H113486   1.725   7.888   6.580
 4515TIP3    H213487   1.585   7.846   6.539
 4516TIP3   OH213488   8.340   6.924   1.915
 4516TIP3    H113489   8.254   6.948   1.881
 4516TIP3    H213490   8.348   6.830   1.897
 4517TIP3   OH213491   1.562   5.518   5.488
 4517TIP3    H113492   1.493   5.503   5.552
 4517TIP3    H213493   1.579   5.432   5.450
 4518TIP3   OH213494   3.772   6.711   3.133
 4518TIP3    H113495   3.784   6.783   3.070
 4518TIP3    H213496   3.701   6.659   3.096
 4519TIP3   OH213497   6.903   4.388   2.244
 4519TIP3    H113498   6.983   4.377   2.296
 4519TIP3    H213499   6.905   4.480   2.218
 4520TIP3   OH213500   5.907   0.224   3.614
 4520TIP3    H113501   5.916   0.318   3.634
 4520TIP3    H213502   5.814   0.212   3.598
 4521TIP3   OH213503   1.506   0.031   6.481
 4521TIP3    H113504   1.517   0.057   6.389
 4521TIP3    H213505   1.412   0.012   6.489
 4522TIP3   OH213506   3.048   2.444   2.781
 4522TIP3    H113507   3.000   2.501   2.721
 4522TIP3    H213508   3.140   2.455   2.758
 4523TIP3   OH213509   2.125   2.522   1.300
 4523TIP3    H113510   2.158   2.453   1.358
 4523TIP3    H213511   2.034   2.498   1.283
 4524TIP3   OH213512   5.343   0.971   5.406
 4524TIP3    H113513   5.375   0.882   5.395
 4524TIP3    H213514   5.365   1.015   5.325
 4525TIP3   OH213515   4.440   7.321   0.341
 4525TIP3    H113516   4.363   7.363   0.379
 4525TIP3    H213517   4.436   7.230   0.371
 4526TIP3   OH213518   1.121   6.888   6.065
 4526TIP3    H113519   1.064   6.811   6.065
 4526TIP3    H213520   1.207   6.853   6.040
 4527TIP3   OH213521   3.902   3.677   0.933
 4527TIP3    H113522   3.883   3.769   0.955
 4527TIP3    H213523   3.875   3.670   0.841
 4528TIP3   OH213524   3.581   7.446   6.493
 4528TIP3    H113525   3.553   7.537   6.506
 4528TIP3    H213526   3.674   7.447   6.516
 4529TIP3   OH213527   2.538   0.230   0.997
 4529TIP3    H113528   2.465   0.236   1.059
 4529TIP3    H213529   2.612   0.200   1.049
 4530TIP3   OH213530   5.752   2.499   5.050
 4530TIP3    H113531   5.760   2.404   5.051
 4530TIP3    H213532   5.673   2.516   4.997
 4531TIP3   OH213533   1.765   5.377   6.399
 4531TIP3    H113534   1.730   5.445   6.342
 4531TIP3    H213535   1.858   5.398   6.406
 4532TIP3   OH213536   7.963   4.440   1.173
 4532TIP3    H113537   7.957   4.347   1.198
 4532TIP3    H213538   7.888   4.481   1.217
 4533TIP3   OH213539   6.528   2.195   0.758
 4533TIP3    H113540   6.577   2.258   0.810
 4533TIP3    H213541   6.449   2.178   0.810
 4534TIP3   OH213542   5.338   2.038   0.093
 4534TIP3    H113543   5.355   1.944   0.094
 4534TIP3    H213544   5.347   2.064   0.185
 4535TIP3   OH213545   7.020   1.000   6.535
 4535TIP3    H113546   7.108   1.023   6.566
 4535TIP3    H213547   7.013   0.906   6.551
 4536TIP3   OH213548   4.586   4.654   1.139
 4536TIP3    H113549   4.610   4.732   1.190
 4536TIP3    H213550   4.542   4.689   1.062
 4537TIP3   OH213551   5.123   1.598   2.820
 4537TIP3    H113552   5.188   1.586   2.890
 4537TIP3    H213553   5.169   1.571   2.740
 4538TIP3   OH213554   5.185   0.186   6.479
 4538TIP3    H113555   5.097   0.182   6.442
 4538TIP3    H213556   5.181   0.260   6.540
 4539TIP3   OH213557   5.822   5.321   6.588
 4539TIP3    H113558   5.739   5.327   6.636
 4539TIP3    H213559   5.826   5.403   6.538
 4540TIP3   OH213560   3.617   6.047   0.895
 4540TIP3    H113561   3.687   6.096   0.852
 4540TIP3    H213562   3.637   6.054   0.988
 4541TIP3   OH213563   4.254   6.464   3.003
 4541TIP3    H113564   4.303   6.445   2.923
 4541TIP3    H213565   4.316   6.449   3.074
 4542TIP3   OH213566   7.244   6.164   1.806
 4542TIP3    H113567   7.284   6.129   1.885
 4542TIP3    H213568   7.179   6.099   1.780
 4543TIP3   OH213569   4.508   0.601   3.955
 4543TIP3    H113570   4.463   0.657   3.892
 4543TIP3    H213571   4.480   0.633   4.040
 4544TIP3   OH213572   6.489   6.494   3.376
 4544TIP3    H113573   6.446   6.451   3.302
 4544TIP3    H213574   6.570   6.530   3.339
 4545TIP3   OH213575   6.864   0.295   6.596
 4545TIP3    H113576   6.956   0.303   6.572
 4545TIP3    H213577   6.817   0.345   6.530
 4546TIP3   OH213578   7.104   0.218   5.655
 4546TIP3    H113579   7.088   0.263   5.573
 4546TIP3    H213580   7.052   0.266   5.720
 4547TIP3   OH213581   5.690   4.911   1.623
 4547TIP3    H113582   5.644   4.912   1.707
 4547TIP3    H213583   5.631   4.864   1.564
 4548TIP3   OH213584   3.355   1.849   4.926
 4548TIP3    H113585   3.368   1.771   4.980
 4548TIP3    H213586   3.444   1.874   4.899
 4549TIP3   OH213587   0.805   2.268   6.159
 4549TIP3    H113588   0.778   2.198   6.218
 4549TIP3    H213589   0.727   2.323   6.149
 4550TIP3   OH213590   3.387   6.307   4.449
 4550TIP3    H113591   3.407   6.350   4.533
 4550TIP3    H213592   3.305   6.346   4.421
 4551TIP3   OH213593   6.645   1.649   5.145
 4551TIP3    H113594   6.558   1.667   5.181
 4551TIP3    H213595   6.667   1.728   5.094
 4552TIP3   OH213596   0.950   7.418   1.480
 4552TIP3    H113597   0.990   7.505   1.486
 4552TIP3    H213598   0.917   7.400   1.568
 4553TIP3   OH213599   7.404   3.133   4.703
 4553TIP3    H113600   7.416   3.038   4.701
 4553TIP3    H213601   7.345   3.149   4.777
 4554TIP3   OH213602   7.593   0.206   5.069
 4554TIP3    H113603   7.596   0.190   5.164
 4554TIP3    H213604   7.506   0.243   5.054
 4555TIP3   OH213605   3.656   3.355   5.392
 4555TIP3    H113606   3.671   3.406   5.312
 4555TIP3    H213607   3.603   3.280   5.363
 4556TIP3   OH213608   5.243   7.623   2.245
 4556TIP3    H113609   5.158   7.625   2.288
 4556TIP3    H213610   5.307   7.639   2.314
 4557TIP3   OH213611   5.144   2.745   4.348
 4557TIP3    H113612   5.091   2.669   4.323
 4557TIP3    H213613   5.232   2.710   4.361
 4558TIP3   OH213614   6.046   0.262   3.869
 4558TIP3    H113615   6.130   0.298   3.840
 4558TIP3    H213616   5.997   0.249   3.788
 4559TIP3   OH213617   5.260   4.113   4.045
 4559TIP3    H113618   5.259   4.177   4.116
 4559TIP3    H213619   5.352   4.093   4.031
 4560TIP3   OH213620   6.888   7.226   2.013
 4560TIP3    H113621   6.941   7.305   2.024
 4560TIP3    H213622   6.801   7.250   2.046
 4561TIP3   OH213623   3.763   1.895   2.732
 4561TIP3    H113624   3.699   1.841   2.685
 4561TIP3    H213625   3.740   1.884   2.824
 4562TIP3   OH213626   2.210   1.433   5.476
 4562TIP3    H113627   2.175   1.452   5.388
 4562TIP3    H213628   2.234   1.519   5.511
 4563TIP3   OH213629   8.366   1.910   5.039
 4563TIP3    H113630   8.330   1.830   5.076
 4563TIP3    H213631   8.460   1.894   5.034
 4564TIP3   OH213632   5.139   4.747   4.487
 4564TIP3    H113633   5.049   4.760   4.458
 4564TIP3    H213634   5.176   4.835   4.490
 4565TIP3   OH213635   1.657   2.459   5.014
 4565TIP3    H113636   1.658   2.483   4.922
 4565TIP3    H213637   1.599   2.383   5.018
 4566TIP3   OH213638   6.223   7.749   2.896
 4566TIP3    H113639   6.190   7.825   2.847
 4566TIP3    H213640   6.148   7.722   2.950
 4567TIP3   OH213641   7.533   1.277   0.367
 4567TIP3    H113642   7.606   1.216   0.377
 4567TIP3    H213643   7.544   1.313   0.278
 4568TIP3   OH213644   6.289   4.999   4.270
 4568TIP3    H113645   6.384   4.982   4.270
 4568TIP3    H213646   6.279   5.080   4.320
 4569TIP3   OH213647   8.273   1.143   4.233
 4569TIP3    H113648   8.309   1.071   4.181
 4569TIP3    H213649   8.183   1.153   4.201
 4570TIP3   OH213650   1.867   4.255   6.243
 4570TIP3    H113651   1.772   4.252   6.236
 4570TIP3    H213652   1.896   4.165   6.230
 4571TIP3   OH213653   1.974   4.311   6.010
 4571TIP3    H113654   1.912   4.283   6.077
 4571TIP3    H213655   1.922   4.318   5.930
 4572TIP3   OH213656   7.171   5.209   0.902
 4572TIP3    H113657   7.169   5.165   0.817
 4572TIP3    H213658   7.186   5.301   0.880
 4573TIP3   OH213659   6.864   1.576   4.626
 4573TIP3    H113660   6.772   1.604   4.618
 4573TIP3    H213661   6.913   1.658   4.633
 4574TIP3   OH213662   3.825   1.891   5.793
 4574TIP3    H113663   3.789   1.941   5.720
 4574TIP3    H213664   3.920   1.893   5.779
 4575TIP3   OH213665   8.272   2.188   6.691
 4575TIP3    H113666   8.254   2.158   6.780
 4575TIP3    H213667   8.186   2.210   6.656
 4576TIP3   OH213668   4.708   0.935   4.773
 4576TIP3    H113669   4.776   1.000   4.793
 4576TIP3    H213670   4.738   0.854   4.815
 4577TIP3   OH213671   0.801   5.673   1.556
 4577TIP3    H113672   0.719   5.723   1.554
 4577TIP3    H213673   0.777   5.587   1.591
 4578TIP3   OH213674   5.119   2.379   6.182
 4578TIP3    H113675   5.071   2.339   6.109
 4578TIP3    H213676   5.139   2.468   6.152
 4579TIP3   OH213677   3.333   0.849   0.500
 4579TIP3    H113678   3.302   0.819   0.414
 4579TIP3    H213679   3.369   0.771   0.541
 4580TIP3   OH213680   6.958   5.034   6.548
 4580TIP3    H113681   6.989   5.089   6.476
 4580TIP3    H213682   6.876   4.996   6.516
 4581TIP3   OH213683   7.103   7.327   6.428
 4581TIP3    H113684   7.149   7.312   6.346
 4581TIP3    H213685   7.139   7.260   6.487
 4582TIP3   OH213686   8.018   1.353   1.726
 4582TIP3    H113687   8.075   1.410   1.777
 4582TIP3    H213688   7.983   1.409   1.656
 4583TIP3   OH213689   1.714   0.742   1.843
 4583TIP3    H113690   1.758   0.816   1.801
 4583TIP3    H213691   1.635   0.780   1.881
 4584TIP3   OH213692   3.321   5.212   6.564
 4584TIP3    H113693   3.405   5.257   6.576
 4584TIP3    H213694   3.341   5.139   6.506
 4585TIP3   OH213695   0.634   1.822   1.410
 4585TIP3    H113696   0.564   1.858   1.465
 4585TIP3    H213697   0.710   1.878   1.427
 4586TIP3   OH213698   7.822   3.683   3.094
 4586TIP3    H113699   7.856   3.690   3.004
 4586TIP3    H213700   7.849   3.765   3.136
 4587TIP3   OH213701   5.894   3.618   0.950
 4587TIP3    H113702   5.800   3.625   0.938
 4587TIP3    H213703   5.928   3.705   0.930
 4588TIP3   OH213704   0.439   7.795   2.443
 4588TIP3    H113705   0.533   7.814   2.438
 4588TIP3    H213706   0.435   7.702   2.465
 4589TIP3   OH213707   3.528   2.369   6.041
 4589TIP3    H113708   3.526   2.439   5.976
 4589TIP3    H213709   3.619   2.341   6.044
 4590TIP3   OH213710   6.866   0.934   5.991
 4590TIP3    H113711   6.874   1.029   6.002
 4590TIP3    H213712   6.940   0.910   5.935
 4591TIP3   OH213713   5.850   1.456   3.315
 4591TIP3    H113714   5.759   1.428   3.323
 4591TIP3    H213715   5.849   1.550   3.332
 4592TIP3   OH213716   6.877   6.851   2.609
 4592TIP3    H113717   6.813   6.873   2.677
 4592TIP3    H213718   6.858   6.911   2.537
 4593TIP3   OH213719   4.975   2.981   1.606
 4593TIP3    H113720   5.020   2.971   1.522
 4593TIP3    H213721   4.941   3.071   1.604
 4594TIP3   OH213722   6.087   7.173   6.814
 4594TIP3    H113723   6.063   7.107   6.880
 4594TIP3    H213724   6.047   7.142   6.733
 4595TIP3   OH213725   8.084   0.301   2.573
 4595TIP3    H113726   8.040   0.288   2.489
 4595TIP3    H213727   8.169   0.340   2.549
 4596TIP3   OH213728   0.457   6.132   3.969
 4596TIP3    H113729   0.502   6.093   4.043
 4596TIP3    H213730   0.468   6.226   3.981
 4597TIP3   OH213731   4.461   2.568   2.331
 4597TIP3    H113732   4.419   2.485   2.311
 4597TIP3    H213733   4.390   2.626   2.356
 4598TIP3   OH213734   5.672   3.605   3.482
 4598TIP3    H113735   5.753   3.656   3.474
 4598TIP3    H213736   5.635   3.605   3.394
 4599TIP3   OH213737   4.988   3.416   5.184
 4599TIP3    H113738   4.924   3.486   5.194
 4599TIP3    H213739   5.012   3.393   5.274
 4600TIP3   OH213740   2.392   5.327   4.541
 4600TIP3    H113741   2.434   5.286   4.465
 4600TIP3    H213742   2.465   5.356   4.596
 4601TIP3   OH213743   6.258   4.809   6.155
 4601TIP3    H113744   6.338   4.805   6.103
 4601TIP3    H213745   6.195   4.756   6.107
 4602TIP3   OH213746   4.465   0.278   3.552
 4602TIP3    H113747   4.486   0.189   3.580
 4602TIP3    H213748   4.549   0.325   3.555
 4603TIP3   OH213749   0.018   6.014   2.657
 4603TIP3    H113750  -0.012   5.927   2.632
 4603TIP3    H213751   0.103   6.023   2.614
 4604TIP3   OH213752   4.212   1.703   4.033
 4604TIP3    H113753   4.233   1.632   3.972
 4604TIP3    H213754   4.126   1.734   4.004
 4605TIP3   OH213755   6.890   1.186   6.055
 4605TIP3    H113756   6.804   1.185   6.012
 4605TIP3    H213757   6.926   1.272   6.033
 4606TIP3   OH213758   5.459   5.616   0.641
 4606TIP3    H113759   5.441   5.524   0.661
 4606TIP3    H213760   5.529   5.640   0.702
 4607TIP3   OH213761   0.237   4.742   4.347
 4607TIP3    H113762   0.270   4.768   4.261
 4607TIP3    H213763   0.274   4.654   4.361
 4608TIP3   OH213764   2.180   4.150   2.085
 4608TIP3    H113765   2.196   4.056   2.092
 4608TIP3    H213766   2.085   4.157   2.077
 4609TIP3   OH213767   0.823   2.660   6.052
 4609TIP3    H113768   0.804   2.618   5.968
 4609TIP3    H213769   0.738   2.668   6.095
 4610TIP3   OH213770   6.881   1.574   1.067
 4610TIP3    H113771   6.820   1.520   1.017
 4610TIP3    H213772   6.957   1.584   1.010
 4611TIP3   OH213773   6.232   5.773   6.452
 4611TIP3    H113774   6.270   5.820   6.526
 4611TIP3    H213775   6.207   5.842   6.390
 4612TIP3   OH213776   3.430   2.850   0.325
 4612TIP3    H113777   3.498   2.859   0.259
 4612TIP3    H213778   3.451   2.916   0.391
 4613TIP3   OH213779   5.189   6.375   0.667
 4613TIP3    H113780   5.225   6.462   0.681
 4613TIP3    H213781   5.265   6.320   0.646
 4614TIP3   OH213782   6.558   1.121   0.947
 4614TIP3    H113783   6.500   1.103   1.021
 4614TIP3    H213784   6.500   1.123   0.871
 4615TIP3   OH213785   4.465   4.298   0.787
 4615TIP3    H113786   4.499   4.381   0.820
 4615TIP3    H213787   4.452   4.244   0.865
 4616TIP3   OH213788   2.849   6.899   4.497
 4616TIP3    H113789   2.795   6.978   4.494
 4616TIP3    H213790   2.838   6.866   4.586
 4617TIP3   OH213791   5.617   2.991   6.316
 4617TIP3    H113792   5.622   2.896   6.330
 4617TIP3    H213793   5.678   3.008   6.245
 4618TIP3   OH213794   8.040   2.616   3.971
 4618TIP3    H113795   8.065   2.609   3.879
 4618TIP3    H213796   8.110   2.571   4.018
 4619TIP3   OH213797   7.946   5.964   0.243
 4619TIP3    H113798   8.023   5.908   0.237
 4619TIP3    H213799   7.934   5.998   0.154
 4620TIP3   OH213800   8.103   2.178   2.812
 4620TIP3    H113801   8.026   2.204   2.863
 4620TIP3    H213802   8.155   2.124   2.872
 4621TIP3   OH213803   2.805   3.363   6.523
 4621TIP3    H113804   2.884   3.311   6.538
 4621TIP3    H213805   2.756   3.359   6.605
 4622TIP3   OH213806   5.670   0.779   3.750
 4622TIP3    H113807   5.663   0.738   3.837
 4622TIP3    H213808   5.625   0.863   3.759
 4623TIP3   OH213809   2.852   4.736   3.562
 4623TIP3    H113810   2.758   4.721   3.558
 4623TIP3    H213811   2.886   4.699   3.480
 4624TIP3   OH213812   3.941   7.351   5.588
 4624TIP3    H113813   4.032   7.328   5.608
 4624TIP3    H213814   3.914   7.408   5.660
 4625TIP3   OH213815   6.781   5.765   6.380
 4625TIP3    H113816   6.701   5.723   6.414
 4625TIP3    H213817   6.831   5.787   6.458
 4626TIP3   OH213818   5.621   2.285   3.630
 4626TIP3    H113819   5.704   2.268   3.674
 4626TIP3    H213820   5.556   2.237   3.682
 4627TIP3   OH213821   2.197   1.212   4.191
 4627TIP3    H113822   2.113   1.184   4.155
 4627TIP3    H213823   2.242   1.255   4.118
 4628TIP3   OH213824   2.740   1.816   4.227
 4628TIP3    H113825   2.721   1.725   4.206
 4628TIP3    H213826   2.667   1.865   4.190
 4629TIP3   OH213827   2.009   3.329   4.737
 4629TIP3    H113828   1.956   3.387   4.683
 4629TIP3    H213829   1.975   3.340   4.825
 4630TIP3   OH213830   4.627   3.538   4.485
 4630TIP3    H113831   4.553   3.478   4.489
 4630TIP3    H213832   4.644   3.562   4.576
 4631TIP3   OH213833   3.820   0.373   6.679
 4631TIP3    H113834   3.790   0.401   6.592
 4631TIP3    H213835   3.773   0.429   6.740
 4632TIP3   OH213836   6.704   2.909   5.824
 4632TIP3    H113837   6.796   2.915   5.798
 4632TIP3    H213838   6.677   2.821   5.798
 4633TIP3   OH213839   2.768   5.551   3.021
 4633TIP3    H113840   2.709   5.528   3.093
 4633TIP3    H213841   2.844   5.591   3.064
 4634TIP3   OH213842   5.419   4.438   0.568
 4634TIP3    H113843   5.336   4.424   0.522
 4634TIP3    H213844   5.394   4.478   0.651
 4635TIP3   OH213845   0.850   3.707   5.734
 4635TIP3    H113846   0.933   3.727   5.778
 4635TIP3    H213847   0.861   3.619   5.700
 4636TIP3   OH213848   5.770   5.443   1.065
 4636TIP3    H113849   5.698   5.390   1.030
 4636TIP3    H213850   5.806   5.488   0.989
 4637TIP3   OH213851   5.251   6.932   5.236
 4637TIP3    H113852   5.307   6.902   5.309
 4637TIP3    H213853   5.177   6.872   5.238
 4638TIP3   OH213854   7.490   1.633   5.281
 4638TIP3    H113855   7.461   1.545   5.259
 4638TIP3    H213856   7.538   1.623   5.363
 4639TIP3   OH213857   5.993   6.122   3.160
 4639TIP3    H113858   6.045   6.170   3.225
 4639TIP3    H213859   5.951   6.190   3.108
 4640TIP3   OH213860   3.583   0.066   4.153
 4640TIP3    H113861   3.614  -0.018   4.119
 4640TIP3    H213862   3.488   0.056   4.160
 4641TIP3   OH213863   7.976   5.929   6.196
 4641TIP3    H113864   7.944   5.917   6.285
 4641TIP3    H213865   7.899   5.920   6.141
 4642TIP3   OH213866   3.697   7.439   5.061
 4642TIP3    H113867   3.669   7.357   5.021
 4642TIP3    H213868   3.615   7.484   5.084
 4643TIP3   OH213869   6.668   3.839   4.101
 4643TIP3    H113870   6.649   3.919   4.053
 4643TIP3    H213871   6.687   3.869   4.190
 4644TIP3   OH213872   6.075   1.953   6.670
 4644TIP3    H113873   6.113   2.008   6.738
 4644TIP3    H213874   6.150   1.912   6.628
 4645TIP3   OH213875   6.788   6.170   0.544
 4645TIP3    H113876   6.851   6.239   0.525
 4645TIP3    H213877   6.832   6.089   0.517
 4646TIP3   OH213878   7.015   6.501   4.183
 4646TIP3    H113879   7.083   6.521   4.247
 4646TIP3    H213880   7.022   6.407   4.169
 4647TIP3   OH213881   3.518   5.133   0.952
 4647TIP3    H113882   3.473   5.203   0.998
 4647TIP3    H213883   3.449   5.072   0.927
 4648TIP3   OH213884   2.322   1.106   3.351
 4648TIP3    H113885   2.347   1.020   3.318
 4648TIP3    H213886   2.271   1.146   3.281
 4649TIP3   OH213887   4.828   0.704   3.662
 4649TIP3    H113888   4.787   0.671   3.582
 4649TIP3    H213889   4.895   0.764   3.631
 4650TIP3   OH213890   5.674   6.443   3.101
 4650TIP3    H113891   5.676   6.525   3.151
 4650TIP3    H213892   5.619   6.384   3.153
 4651TIP3   OH213893   4.993   7.071   5.730
 4651TIP3    H113894   5.016   7.137   5.796
 4651TIP3    H213895   4.953   7.000   5.780
 4652TIP3   OH213896   1.724   1.094   5.467
 4652TIP3    H113897   1.757   1.183   5.456
 4652TIP3    H213898   1.641   1.105   5.513
 4653TIP3   OH213899   0.571   2.373   6.034
 4653TIP3    H113900   0.544   2.424   5.957
 4653TIP3    H213901   0.489   2.344   6.074
 4654TIP3   OH213902   3.994   4.449   2.569
 4654TIP3    H113903   3.918   4.394   2.589
 4654TIP3    H213904   3.961   4.514   2.507
 4655TIP3   OH213905   4.553   5.167   0.412
 4655TIP3    H113906   4.466   5.205   0.403
 4655TIP3    H213907   4.613   5.237   0.387
 4656TIP3   OH213908   7.556   6.851   6.050
 4656TIP3    H113909   7.594   6.872   6.135
 4656TIP3    H213910   7.577   6.758   6.038
 4657TIP3   OH213911   5.668   6.624   1.755
 4657TIP3    H113912   5.691   6.709   1.718
 4657TIP3    H213913   5.592   6.595   1.703
 4658TIP3   OH213914   1.331   3.169   6.543
 4658TIP3    H113915   1.399   3.102   6.554
 4658TIP3    H213916   1.316   3.173   6.449
 4659TIP3   OH213917   2.489   3.422   3.342
 4659TIP3    H113918   2.536   3.372   3.275
 4659TIP3    H213919   2.543   3.499   3.357
 4660TIP3   OH213920   5.494   7.776   6.498
 4660TIP3    H113921   5.493   7.872   6.498
 4660TIP3    H213922   5.495   7.752   6.405
 4661TIP3   OH213923   0.549   3.425   6.130
 4661TIP3    H113924   0.615   3.435   6.061
 4661TIP3    H213925   0.596   3.442   6.212
 4662TIP3   OH213926   5.237   0.705   4.161
 4662TIP3    H113927   5.204   0.791   4.135
 4662TIP3    H213928   5.171   0.643   4.128
 4663TIP3   OH213929   3.777   0.633   0.453
 4663TIP3    H113930   3.686   0.631   0.422
 4663TIP3    H213931   3.828   0.601   0.378
 4664TIP3   OH213932   4.551   1.443   0.356
 4664TIP3    H113933   4.524   1.528   0.321
 4664TIP3    H213934   4.595   1.400   0.284
 4665TIP3   OH213935   4.456   3.596   5.669
 4665TIP3    H113936   4.549   3.596   5.690
 4665TIP3    H213937   4.414   3.635   5.746
 4666TIP3   OH213938   0.123   4.180   1.205
 4666TIP3    H113939   0.053   4.117   1.189
 4666TIP3    H213940   0.185   4.134   1.261
 4667TIP3   OH213941   3.872   6.637   1.745
 4667TIP3    H113942   3.795   6.683   1.712
 4667TIP3    H213943   3.939   6.705   1.754
 4668TIP3   OH213944   6.792   2.813   3.792
 4668TIP3    H113945   6.867   2.755   3.781
 4668TIP3    H213946   6.729   2.785   3.725
 4669TIP3   OH213947   3.348   1.755   6.176
 4669TIP3    H113948   3.391   1.678   6.140
 4669TIP3    H213949   3.338   1.815   6.102
 4670TIP3   OH213950   1.299   5.391   1.066
 4670TIP3    H113951   1.254   5.464   1.025
 4670TIP3    H213952   1.286   5.318   1.006
 4671TIP3   OH213953   0.718   4.287   0.766
 4671TIP3    H113954   0.756   4.349   0.704
 4671TIP3    H213955   0.789   4.227   0.788
 4672TIP3   OH213956   5.989   6.404   2.311
 4672TIP3    H113957   6.001   6.402   2.216
 4672TIP3    H213958   5.990   6.312   2.337
 4673TIP3   OH213959   1.558   2.046   4.184
 4673TIP3    H113960   1.613   1.968   4.183
 4673TIP3    H213961   1.572   2.084   4.271
 4674TIP3   OH213962   4.727   6.934   0.890
 4674TIP3    H113963   4.641   6.894   0.906
 4674TIP3    H213964   4.765   6.946   0.976
 4675TIP3   OH213965   7.572   0.440   1.970
 4675TIP3    H113966   7.510   0.495   1.922
 4675TIP3    H213967   7.624   0.398   1.901
 4676TIP3   OH213968   2.740   5.662   4.342
 4676TIP3    H113969   2.679   5.612   4.288
 4676TIP3    H213970   2.799   5.704   4.279
 4677TIP3   OH213971   1.114   1.415   1.274
 4677TIP3    H113972   1.207   1.430   1.258
 4677TIP3    H213973   1.104   1.425   1.369
 4678TIP3   OH213974   0.862   2.970   1.176
 4678TIP3    H113975   0.896   2.880   1.171
 4678TIP3    H213976   0.940   3.024   1.192
 4679TIP3   OH213977   0.213   4.902   4.775
 4679TIP3    H113978   0.245   4.914   4.865
 4679TIP3    H213979   0.277   4.948   4.721
 4680TIP3   OH213980   5.003   0.830   4.691
 4680TIP3    H113981   5.035   0.749   4.731
 4680TIP3    H213982   4.980   0.805   4.602
 4681TIP3   OH213983   1.110   6.562   5.403
 4681TIP3    H113984   1.175   6.526   5.343
 4681TIP3    H213985   1.128   6.656   5.405
 4682TIP3   OH213986   4.968   7.843   3.718
 4682TIP3    H113987   4.951   7.774   3.653
 4682TIP3    H213988   5.053   7.819   3.756
 4683TIP3   OH213989   6.675   3.438   5.683
 4683TIP3    H113990   6.608   3.500   5.714
 4683TIP3    H213991   6.648   3.354   5.719
 4684TIP3   OH213992   6.921   1.211   2.642
 4684TIP3    H113993   6.953   1.121   2.632
 4684TIP3    H213994   6.835   1.201   2.684
 4685TIP3   OH213995   4.149   5.735   0.234
 4685TIP3    H113996   4.179   5.826   0.239
 4685TIP3    H213997   4.062   5.740   0.196
 4686TIP3   OH213998   6.936   4.531   0.394
 4686TIP3    H113999   6.886   4.450   0.381
 4686TIP3    H214000   6.892   4.576   0.466
 4687TIP3   OH214001   1.651   4.778   1.651
 4687TIP3    H114002   1.646   4.836   1.575
 4687TIP3    H214003   1.625   4.692   1.618
 4688TIP3   OH214004   2.526   7.597   4.595
 4688TIP3    H114005   2.564   7.678   4.628
 4688TIP3    H214006   2.598   7.535   4.595
 4689TIP3   OH214007   6.569   7.681   2.289
 4689TIP3    H114008   6.548   7.618   2.220
 4689TIP3    H214009   6.605   7.756   2.241
 4690TIP3   OH214010   5.960   7.881   3.769
 4690TIP3    H114011   5.875   7.878   3.726
 4690TIP3    H214012   6.017   7.925   3.706
 4691TIP3   OH214013   0.147   3.808   4.022
 4691TIP3    H114014   0.116   3.890   3.984
 4691TIP3    H214015   0.169   3.830   4.112
 4692TIP3   OH214016   2.274   6.594   5.024
 4692TIP3    H114017   2.311   6.641   4.949
 4692TIP3    H214018   2.181   6.585   5.005
 4693TIP3   OH214019   6.267   0.511   6.109
 4693TIP3    H114020   6.252   0.479   6.020
 4693TIP3    H214021   6.272   0.432   6.162
 4694TIP3   OH214022   1.448   3.557   3.086
 4694TIP3    H114023   1.472   3.467   3.105
 4694TIP3    H214024   1.494   3.609   3.152
 4695TIP3   OH214025   0.065   1.020   5.446
 4695TIP3    H114026   0.072   0.996   5.354
 4695TIP3    H214027   0.018   0.947   5.486
 4696TIP3   OH214028   0.884   5.865   6.036
 4696TIP3    H114029   0.979   5.867   6.028
 4696TIP3    H214030   0.860   5.953   6.067
 4697TIP3   OH214031   6.461   1.572   5.635
 4697TIP3    H114032   6.376   1.539   5.664
 4697TIP3    H214033   6.489   1.510   5.567
 4698TIP3   OH214034   0.505   6.473   3.974
 4698TIP3    H114035   0.537   6.560   3.995
 4698TIP3    H214036   0.457   6.445   4.052
 4699TIP3   OH214037   7.994   4.517   0.490
 4699TIP3    H114038   7.923   4.470   0.534
 4699TIP3    H214039   7.969   4.609   0.497
 4700TIP3   OH214040   7.013   6.414   5.898
 4700TIP3    H114041   6.918   6.414   5.890
 4700TIP3    H214042   7.034   6.332   5.943
 4701TIP3   OH214043   4.975   5.447   5.154
 4701TIP3    H114044   5.053   5.393   5.161
 4701TIP3    H214045   4.914   5.395   5.102
 4702TIP3   OH214046   3.014   0.250   2.718
 4702TIP3    H114047   2.920   0.263   2.736
 4702TIP3    H214048   3.034   0.165   2.759
 4703TIP3   OH214049   5.574   1.793   5.266
 4703TIP3    H114050   5.516   1.718   5.278
 4703TIP3    H214051   5.518   1.859   5.224
 4704TIP3   OH214052   3.014   3.791   4.419
 4704TIP3    H114053   3.076   3.780   4.492
 4704TIP3    H214054   2.966   3.871   4.440
 4705TIP3   OH214055   6.810   6.257   0.818
 4705TIP3    H114056   6.789   6.236   0.727
 4705TIP3    H214057   6.801   6.174   0.865
 4706TIP3   OH214058   0.616   1.416   4.346
 4706TIP3    H114059   0.659   1.498   4.322
 4706TIP3    H214060   0.547   1.405   4.281
 4707TIP3   OH214061   4.126   6.582   0.254
 4707TIP3    H114062   4.053   6.538   0.209
 4707TIP3    H214063   4.204   6.555   0.206
 4708TIP3   OH214064   6.781   0.871   2.720
 4708TIP3    H114065   6.869   0.877   2.683
 4708TIP3    H214066   6.792   0.816   2.798
 4709TIP3   OH214067   3.571   0.424   2.187
 4709TIP3    H114068   3.623   0.345   2.202
 4709TIP3    H214069   3.525   0.407   2.105
 4710TIP3   OH214070   2.350   5.834   6.712
 4710TIP3    H114071   2.404   5.825   6.633
 4710TIP3    H214072   2.296   5.911   6.695
 4711TIP3   OH214073   3.664   7.423   0.172
 4711TIP3    H114074   3.686   7.513   0.196
 4711TIP3    H214075   3.719   7.369   0.229
 4712TIP3   OH214076   5.462   1.989   5.121
 4712TIP3    H114077   5.398   2.055   5.095
 4712TIP3    H214078   5.529   1.992   5.054
 4713TIP3   OH214079   4.641   3.259   1.499
 4713TIP3    H114080   4.607   3.247   1.588
 4713TIP3    H214081   4.581   3.209   1.444
 4714TIP3   OH214082   4.790   4.103   5.504
 4714TIP3    H114083   4.696   4.098   5.492
 4714TIP3    H214084   4.802   4.157   5.582
 4715TIP3   OH214085   5.451   1.815   4.149
 4715TIP3    H114086   5.502   1.894   4.169
 4715TIP3    H214087   5.379   1.846   4.095
 4716TIP3   OH214088   4.886   6.159   5.564
 4716TIP3    H114089   4.952   6.204   5.512
 4716TIP3    H214090   4.802   6.188   5.527
 4717TIP3   OH214091   3.476   5.428   5.976
 4717TIP3    H114092   3.467   5.523   5.967
 4717TIP3    H214093   3.471   5.412   6.070
 4718TIP3   OH214094   2.389   4.356   5.301
 4718TIP3    H114095   2.472   4.400   5.284
 4718TIP3    H214096   2.404   4.265   5.274
 4719TIP3   OH214097   0.457   1.408   0.087
 4719TIP3    H114098   0.531   1.350   0.070
 4719TIP3    H214099   0.496   1.496   0.094
 4720TIP3   OH214100   2.383   4.765   0.738
 4720TIP3    H114101   2.296   4.798   0.761
 4720TIP3    H214102   2.389   4.681   0.783
 4721TIP3   OH214103   3.783   0.510   4.711
 4721TIP3    H114104   3.796   0.451   4.785
 4721TIP3    H214105   3.869   0.512   4.668
 4722TIP3   OH214106   3.471   4.437   1.880
 4722TIP3    H114107   3.448   4.363   1.823
 4722TIP3    H214108   3.444   4.410   1.967
 4723TIP3   OH214109   8.036   4.079   0.085
 4723TIP3    H114110   8.051   4.049  -0.004
 4723TIP3    H214111   8.071   4.168   0.086
 4724TIP3   OH214112   7.369   7.375   5.348
 4724TIP3    H114113   7.365   7.339   5.259
 4724TIP3    H214114   7.304   7.325   5.397
 4725TIP3   OH214115   6.109   2.124   5.388
 4725TIP3    H114116   6.021   2.157   5.368
 4725TIP3    H214117   6.122   2.144   5.481
 4726TIP3   OH214118   3.997   5.589   0.617
 4726TIP3    H114119   3.978   5.683   0.610
 4726TIP3    H214120   3.974   5.566   0.707
 4727TIP3   OH214121   5.515   3.394   6.289
 4727TIP3    H114122   5.477   3.340   6.219
 4727TIP3    H214123   5.541   3.332   6.356
 4728TIP3   OH214124   4.689   7.652   1.815
 4728TIP3    H114125   4.600   7.664   1.782
 4728TIP3    H214126   4.683   7.674   1.908
 4729TIP3   OH214127   7.890   1.978   0.500
 4729TIP3    H114128   7.796   1.958   0.494
 4729TIP3    H214129   7.909   1.974   0.594
 4730TIP3   OH214130   3.804   6.600   2.766
 4730TIP3    H114131   3.862   6.601   2.691
 4730TIP3    H214132   3.862   6.587   2.841
 4731TIP3   OH214133   0.148   6.964   3.371
 4731TIP3    H114134   0.065   7.003   3.398
 4731TIP3    H214135   0.123   6.880   3.332
 4732TIP3   OH214136   3.023   0.332   5.533
 4732TIP3    H114137   3.070   0.274   5.594
 4732TIP3    H214138   3.034   0.291   5.447
 4733TIP3   OH214139   7.169   7.168   4.147
 4733TIP3    H114140   7.208   7.253   4.166
 4733TIP3    H214141   7.148   7.132   4.233
 4734TIP3   OH214142   2.691   3.308   2.283
 4734TIP3    H114143   2.619   3.345   2.231
 4734TIP3    H214144   2.648   3.255   2.350
 4735TIP3   OH214145   1.769   4.438   1.016
 4735TIP3    H114146   1.717   4.517   1.006
 4735TIP3    H214147   1.854   4.469   1.049
 4736TIP3   OH214148   4.679   2.475   0.738
 4736TIP3    H114149   4.734   2.516   0.672
 4736TIP3    H214150   4.590   2.500   0.714
 4737TIP3   OH214151   5.710   5.405   5.850
 4737TIP3    H114152   5.783   5.450   5.808
 4737TIP3    H214153   5.727   5.312   5.835
 4738TIP3   OH214154   4.554   4.024   3.941
 4738TIP3    H114155   4.631   4.064   3.982
 4738TIP3    H214156   4.503   3.990   4.014
 4739TIP3   OH214157   0.426   5.625   2.419
 4739TIP3    H114158   0.492   5.678   2.464
 4739TIP3    H214159   0.470   5.592   2.341
 4740TIP3   OH214160   1.064   3.114   1.539
 4740TIP3    H114161   1.157   3.106   1.563
 4740TIP3    H214162   1.062   3.098   1.444
 4741TIP3   OH214163   1.224   5.595   4.876
 4741TIP3    H114164   1.317   5.578   4.862
 4741TIP3    H214165   1.213   5.592   4.971
 4742TIP3   OH214166   2.867   6.792   4.748
 4742TIP3    H114167   2.892   6.705   4.778
 4742TIP3    H214168   2.781   6.807   4.789
 4743TIP3   OH214169   2.440   1.659   5.300
 4743TIP3    H114170   2.431   1.645   5.394
 4743TIP3    H214171   2.351   1.677   5.270
 4744TIP3   OH214172   1.797   2.418   2.027
 4744TIP3    H114173   1.724   2.407   1.966
 4744TIP3    H214174   1.772   2.368   2.104
 4745TIP3   OH214175   5.357   6.298   5.011
 4745TIP3    H114176   5.351   6.361   4.939
 4745TIP3    H214177   5.451   6.280   5.019
 4746TIP3   OH214178   6.196   6.585   2.175
 4746TIP3    H114179   6.172   6.519   2.111
 4746TIP3    H214180   6.214   6.535   2.255
 4747TIP3   OH214181   0.448   1.172   0.631
 4747TIP3    H114182   0.529   1.217   0.607
 4747TIP3    H214183   0.418   1.132   0.549
 4748TIP3   OH214184   3.391   6.271   0.452
 4748TIP3    H114185   3.465   6.220   0.419
 4748TIP3    H214186   3.360   6.320   0.375
 4749TIP3   OH214187   6.952   1.728   6.042
 4749TIP3    H114188   6.979   1.800   5.986
 4749TIP3    H214189   7.015   1.729   6.114
 4750TIP3   OH214190   6.668   3.677   1.280
 4750TIP3    H114191   6.750   3.647   1.240
 4750TIP3    H214192   6.609   3.691   1.206
 4751TIP3   OH214193   0.678   4.100   6.284
 4751TIP3    H114194   0.651   4.013   6.254
 4751TIP3    H214195   0.762   4.115   6.241
 4752TIP3   OH214196   4.434   3.097   5.585
 4752TIP3    H114197   4.517   3.108   5.630
 4752TIP3    H214198   4.457   3.095   5.492
 4753TIP3   OH214199   6.075   6.159   1.003
 4753TIP3    H114200   6.032   6.233   1.045
 4753TIP3    H214201   6.155   6.146   1.054
 4754TIP3   OH214202   5.455   4.158   0.551
 4754TIP3    H114203   5.516   4.160   0.477
 4754TIP3    H214204   5.440   4.250   0.572
 4755TIP3   OH214205   3.334   6.873   6.651
 4755TIP3    H114206   3.416   6.830   6.624
 4755TIP3    H214207   3.358   6.921   6.731
 4756TIP3   OH214208   0.194   0.169   5.975
 4756TIP3    H114209   0.285   0.201   5.971
 4756TIP3    H214210   0.148   0.222   5.910
 4757TIP3   OH214211   4.143   2.265   5.834
 4757TIP3    H114212   4.234   2.268   5.865
 4757TIP3    H214213   4.119   2.356   5.822
 4758TIP3   OH214214   7.483   5.234   4.972
 4758TIP3    H114215   7.565   5.184   4.968
 4758TIP3    H214216   7.475   5.259   5.064
 4759TIP3   OH214217   6.460   5.394   4.906
 4759TIP3    H114218   6.550   5.424   4.893
 4759TIP3    H214219   6.408   5.475   4.906
 4760TIP3   OH214220   2.452   7.544   0.528
 4760TIP3    H114221   2.391   7.600   0.576
 4760TIP3    H214222   2.411   7.531   0.442
 4761TIP3   OH214223   0.937   7.093   1.074
 4761TIP3    H114224   0.878   7.058   1.008
 4761TIP3    H214225   1.014   7.035   1.070
 4762TIP3   OH214226   0.598   7.304   3.168
 4762TIP3    H114227   0.635   7.240   3.229
 4762TIP3    H214228   0.555   7.251   3.101
 4763TIP3   OH214229   7.183   7.049   3.915
 4763TIP3    H114230   7.179   7.102   3.995
 4763TIP3    H214231   7.117   6.982   3.928
 4764TIP3   OH214232   6.581   6.307   2.585
 4764TIP3    H114233   6.617   6.243   2.523
 4764TIP3    H214234   6.531   6.367   2.531
 4765TIP3   OH214235   5.074   2.308   4.584
 4765TIP3    H114236   4.979   2.299   4.572
 4765TIP3    H214237   5.090   2.402   4.578
 4766TIP3   OH214238   5.672   6.528   1.064
 4766TIP3    H114239   5.587   6.562   1.036
 4766TIP3    H214240   5.652   6.464   1.131
 4767TIP3   OH214241   3.722   3.943   1.797
 4767TIP3    H114242   3.705   4.035   1.817
 4767TIP3    H214243   3.805   3.944   1.748
 4768TIP3   OH214244   7.238   0.966   0.608
 4768TIP3    H114245   7.239   1.019   0.528
 4768TIP3    H214246   7.326   0.976   0.644
 4769TIP3   OH214247   4.032   4.291   5.671
 4769TIP3    H114248   3.944   4.320   5.649
 4769TIP3    H214249   4.064   4.357   5.733
 4770TIP3   OH214250   3.456   3.688   4.057
 4770TIP3    H114251   3.516   3.614   4.045
 4770TIP3    H214252   3.385   3.671   3.995
 4771TIP3   OH214253   3.786   4.501   1.260
 4771TIP3    H114254   3.754   4.504   1.170
 4771TIP3    H214255   3.800   4.407   1.277
 4772TIP3   OH214256   3.438   1.561   5.348
 4772TIP3    H114257   3.495   1.569   5.425
 4772TIP3    H214258   3.350   1.572   5.383
 4773TIP3   OH214259   4.202   0.213   6.870
 4773TIP3    H114260   4.273   0.150   6.860
 4773TIP3    H214261   4.200   0.261   6.787
 4774TIP3   OH214262   0.096   7.075   3.041
 4774TIP3    H114263   0.171   7.017   3.026
 4774TIP3    H214264   0.120   7.157   2.999
 4775TIP3   OH214265   0.918   5.754   0.729
 4775TIP3    H114266   0.973   5.816   0.682
 4775TIP3    H214267   0.979   5.700   0.779
 4776TIP3   OH214268   5.930   1.264   2.419
 4776TIP3    H114269   5.856   1.301   2.467
 4776TIP3    H214270   5.994   1.335   2.416
 4777TIP3   OH214271   2.540   5.754   0.393
 4777TIP3    H114272   2.631   5.769   0.366
 4777TIP3    H214273   2.517   5.670   0.352
 4778TIP3   OH214274   0.932   2.607   3.309
 4778TIP3    H114275   0.923   2.695   3.345
 4778TIP3    H214276   0.854   2.561   3.342
 4779TIP3   OH214277   1.980   2.071   6.346
 4779TIP3    H114278   2.015   2.029   6.425
 4779TIP3    H214279   1.913   2.011   6.314
 4780TIP3   OH214280   6.730   2.964   3.376
 4780TIP3    H114281   6.705   2.963   3.284
 4780TIP3    H214282   6.791   3.038   3.383
 4781TIP3   OH214283   4.589   1.468   4.172
 4781TIP3    H114284   4.517   1.453   4.233
 4781TIP3    H214285   4.647   1.392   4.184
 4782TIP3   OH214286   1.058   3.097   2.901
 4782TIP3    H114287   1.129   3.096   2.965
 4782TIP3    H214288   0.979   3.114   2.952
 4783TIP3   OH214289   7.432   6.161   2.032
 4783TIP3    H114290   7.462   6.235   2.086
 4783TIP3    H214291   7.447   6.190   1.942
 4784TIP3   OH214292   2.417   2.090   2.686
 4784TIP3    H114293   2.504   2.056   2.708
 4784TIP3    H214294   2.359   2.050   2.750
 4785TIP3   OH214295   6.320   0.820   3.981
 4785TIP3    H114296   6.329   0.765   3.903
 4785TIP3    H214297   6.396   0.878   3.980
 4786TIP3   OH214298   4.326   0.352   0.858
 4786TIP3    H114299   4.234   0.363   0.836
 4786TIP3    H214300   4.349   0.432   0.906
 4787TIP3   OH214301   0.388   1.330   6.155
 4787TIP3    H114302   0.343   1.305   6.236
 4787TIP3    H214303   0.481   1.317   6.174
 4788TIP3   OH214304   2.554   6.196   5.444
 4788TIP3    H114305   2.490   6.128   5.466
 4788TIP3    H214306   2.504   6.278   5.447
 4789TIP3   OH214307   6.446   0.827   1.431
 4789TIP3    H114308   6.542   0.825   1.425
 4789TIP3    H214309   6.427   0.806   1.522
 4790TIP3   OH214310   3.947   3.798   2.097
 4790TIP3    H114311   3.962   3.880   2.051
 4790TIP3    H214312   3.862   3.768   2.065
 4791TIP3   OH214313   7.476   6.310   0.637
 4791TIP3    H114314   7.481   6.370   0.563
 4791TIP3    H214315   7.565   6.305   0.671
 4792TIP3   OH214316   5.025   1.406   0.659
 4792TIP3    H114317   4.989   1.491   0.636
 4792TIP3    H214318   5.017   1.353   0.580
 4793TIP3   OH214319   8.244   4.405   0.466
 4793TIP3    H114320   8.158   4.441   0.442
 4793TIP3    H214321   8.240   4.314   0.438
 4794TIP3   OH214322   6.412   5.425   6.323
 4794TIP3    H114323   6.343   5.436   6.259
 4794TIP3    H214324   6.392   5.343   6.367
 4795TIP3   OH214325   2.109   3.240   0.195
 4795TIP3    H114326   2.027   3.288   0.192
 4795TIP3    H214327   2.176   3.308   0.210
 4796TIP3   OH214328   2.583   7.265   3.864
 4796TIP3    H114329   2.538   7.225   3.938
 4796TIP3    H214330   2.632   7.338   3.903
 4797TIP3   OH214331   2.452   7.633   4.883
 4797TIP3    H114332   2.465   7.606   4.792
 4797TIP3    H214333   2.470   7.727   4.883
 4798TIP3   OH214334   5.310   5.751   3.105
 4798TIP3    H114335   5.231   5.725   3.152
 4798TIP3    H214336   5.346   5.669   3.071
 4799TIP3   OH214337   3.813   5.224   0.075
 4799TIP3    H114338   3.764   5.260   0.001
 4799TIP3    H214339   3.745   5.196   0.137
 4800TIP3   OH214340   2.325   7.591   2.744
 4800TIP3    H114341   2.416   7.613   2.727
 4800TIP3    H214342   2.324   7.556   2.833
 4801TIP3   OH214343   2.869   5.731   4.111
 4801TIP3    H114344   2.789   5.761   4.067
 4801TIP3    H214345   2.910   5.672   4.048
 4802TIP3   OH214346   2.095   5.872   2.824
 4802TIP3    H114347   2.094   5.941   2.891
 4802TIP3    H214348   2.011   5.827   2.834
 4803TIP3   OH214349   3.834   5.440   0.408
 4803TIP3    H114350   3.891   5.507   0.445
 4803TIP3    H214351   3.853   5.361   0.459
 4804TIP3   OH214352   0.379   7.126   0.916
 4804TIP3    H114353   0.311   7.192   0.901
 4804TIP3    H214354   0.351   7.081   0.996
 4805TIP3   OH214355   2.738   5.697   6.610
 4805TIP3    H114356   2.784   5.616   6.591
 4805TIP3    H214357   2.808   5.760   6.628
 4806TIP3   OH214358   0.519   1.359   1.986
 4806TIP3    H114359   0.474   1.357   2.071
 4806TIP3    H214360   0.505   1.272   1.949
 4807TIP3   OH214361   5.872   2.700   5.491
 4807TIP3    H114362   5.822   2.736   5.417
 4807TIP3    H214363   5.921   2.627   5.454
 4808TIP3   OH214364   6.482   1.444   4.428
 4808TIP3    H114365   6.478   1.508   4.357
 4808TIP3    H214366   6.422   1.478   4.495
 4809TIP3   OH214367   5.297   7.297   3.732
 4809TIP3    H114368   5.350   7.249   3.796
 4809TIP3    H214369   5.316   7.255   3.649
 4810TIP3   OH214370   7.497   3.004   4.137
 4810TIP3    H114371   7.537   3.034   4.219
 4810TIP3    H214372   7.437   3.074   4.113
 4811TIP3   OH214373   7.109   2.433   5.035
 4811TIP3    H114374   7.018   2.448   5.010
 4811TIP3    H214375   7.123   2.339   5.020
 4812TIP3   OH214376   6.685   0.620   2.329
 4812TIP3    H114377   6.779   0.631   2.313
 4812TIP3    H214378   6.681   0.580   2.416
 4813TIP3   OH214379   1.558   2.405   3.676
 4813TIP3    H114380   1.517   2.361   3.602
 4813TIP3    H214381   1.486   2.431   3.732
 4814TIP3   OH214382   6.023   7.007   0.682
 4814TIP3    H114383   6.046   7.029   0.592
 4814TIP3    H214384   5.929   6.986   0.678
 4815TIP3   OH214385   6.960   5.567   4.851
 4815TIP3    H114386   7.055   5.580   4.854
 4815TIP3    H214387   6.933   5.564   4.942
 4816TIP3   OH214388   1.494   7.334   2.680
 4816TIP3    H114389   1.520   7.244   2.661
 4816TIP3    H214390   1.576   7.384   2.673
 4817TIP3   OH214391   1.666   0.989   3.285
 4817TIP3    H114392   1.749   0.941   3.293
 4817TIP3    H214393   1.652   1.028   3.372
 4818TIP3   OH214394   8.265   3.468   3.046
 4818TIP3    H114395   8.311   3.546   3.016
 4818TIP3    H214396   8.249   3.483   3.140
 4819TIP3   OH214397   1.106   0.184   2.297
 4819TIP3    H114398   1.127   0.159   2.207
 4819TIP3    H214399   1.115   0.279   2.298
 4820TIP3   OH214400   5.203   7.664   4.319
 4820TIP3    H114401   5.216   7.569   4.310
 4820TIP3    H214402   5.176   7.676   4.410
 4821TIP3   OH214403   3.295   3.060   3.929
 4821TIP3    H114404   3.285   2.967   3.947
 4821TIP3    H214405   3.219   3.083   3.876
 4822TIP3   OH214406   2.471   7.777   0.299
 4822TIP3    H114407   2.419   7.713   0.249
 4822TIP3    H214408   2.406   7.827   0.348
 4823TIP3   OH214409   0.180   6.765   3.736
 4823TIP3    H114410   0.147   6.826   3.802
 4823TIP3    H214411   0.105   6.709   3.715
 4824TIP3   OH214412   7.958   2.874   4.854
 4824TIP3    H114413   7.877   2.913   4.823
 4824TIP3    H214414   7.936   2.836   4.939
 4825TIP3   OH214415   4.025   4.851   1.157
 4825TIP3    H114416   4.110   4.813   1.178
 4825TIP3    H214417   3.996   4.893   1.238
 4826TIP3   OH214418   7.376   2.760   4.133
 4826TIP3    H114419   7.426   2.731   4.209
 4826TIP3    H214420   7.385   2.855   4.133
 4827TIP3   OH214421   5.896   0.832   1.118
 4827TIP3    H114422   5.910   0.900   1.184
 4827TIP3    H214423   5.984   0.805   1.092
 4828TIP3   OH214424   4.547   0.181   4.078
 4828TIP3    H114425   4.610   0.245   4.045
 4828TIP3    H214426   4.601   0.115   4.122
 4829TIP3   OH214427   7.522   3.736   1.076
 4829TIP3    H114428   7.449   3.785   1.114
 4829TIP3    H214429   7.601   3.779   1.110
 4830TIP3   OH214430   5.307   1.881   5.536
 4830TIP3    H114431   5.335   1.941   5.466
 4830TIP3    H214432   5.375   1.814   5.538
 4831TIP3   OH214433   8.404   2.175   5.090
 4831TIP3    H114434   8.316   2.204   5.114
 4831TIP3    H214435   8.396   2.081   5.080
 4832TIP3   OH214436   6.728   5.260   1.008
 4832TIP3    H114437   6.759   5.207   1.082
 4832TIP3    H214438   6.808   5.290   0.965
 4833TIP3   OH214439   1.461   4.239   6.855
 4833TIP3    H114440   1.482   4.322   6.898
 4833TIP3    H214441   1.444   4.263   6.764
 4834TIP3   OH214442   2.220   1.686   3.347
 4834TIP3    H114443   2.166   1.692   3.426
 4834TIP3    H214444   2.191   1.760   3.293
 4835TIP3   OH214445   2.940   2.962   5.693
 4835TIP3    H114446   2.972   2.955   5.783
 4835TIP3    H214447   2.961   2.877   5.653
 4836TIP3   OH214448   1.770   2.868   6.314
 4836TIP3    H114449   1.702   2.876   6.381
 4836TIP3    H214450   1.749   2.787   6.267
 4837TIP3   OH214451   4.976   5.644   5.427
 4837TIP3    H114452   4.976   5.740   5.421
 4837TIP3    H214453   4.980   5.615   5.336
 4838TIP3   OH214454   5.141   4.172   5.999
 4838TIP3    H114455   5.188   4.118   6.063
 4838TIP3    H214456   5.052   4.138   6.001
 4839TIP3   OH214457   2.114   2.968   0.643
 4839TIP3    H114458   2.169   2.892   0.662
 4839TIP3    H214459   2.144   2.998   0.557
 4840TIP3   OH214460   0.108   2.450   2.046
 4840TIP3    H114461   0.141   2.451   2.136
 4840TIP3    H214462   0.023   2.407   2.052
 4841TIP3   OH214463   3.308   0.581   3.318
 4841TIP3    H114464   3.230   0.531   3.296
 4841TIP3    H214465   3.286   0.671   3.295
 4842TIP3   OH214466   4.733   1.821   5.901
 4842TIP3    H114467   4.671   1.894   5.902
 4842TIP3    H214468   4.721   1.778   5.986
 4843TIP3   OH214469   0.602   3.050   5.317
 4843TIP3    H114470   0.547   2.992   5.370
 4843TIP3    H214471   0.546   3.076   5.243
 4844TIP3   OH214472   8.417   7.591   2.886
 4844TIP3    H114473   8.361   7.612   2.960
 4844TIP3    H214474   8.364   7.612   2.809
 4845TIP3   OH214475   3.427   5.394   3.662
 4845TIP3    H114476   3.365   5.454   3.622
 4845TIP3    H214477   3.503   5.395   3.604
 4846TIP3   OH214478   4.031   0.195   5.667
 4846TIP3    H114479   4.039   0.179   5.761
 4846TIP3    H214480   3.947   0.241   5.658
 4847TIP3   OH214481   6.964   1.454   5.956
 4847TIP3    H114482   6.914   1.536   5.952
 4847TIP3    H214483   7.053   1.481   5.978
 4848TIP3   OH214484   4.597   7.529   1.300
 4848TIP3    H114485   4.672   7.501   1.248
 4848TIP3    H214486   4.561   7.604   1.251
 4849TIP3   OH214487   7.641   5.277   5.706
 4849TIP3    H114488   7.561   5.278   5.758
 4849TIP3    H214489   7.712   5.273   5.770
 4850TIP3   OH214490   7.427   0.667   2.744
 4850TIP3    H114491   7.497   0.699   2.802
 4850TIP3    H214492   7.422   0.733   2.675
 4851TIP3   OH214493   1.631   6.516   0.570
 4851TIP3    H114494   1.670   6.587   0.622
 4851TIP3    H214495   1.706   6.474   0.527
 4852TIP3   OH214496   4.068   5.053   2.940
 4852TIP3    H114497   4.154   5.045   2.982
 4852TIP3    H214498   4.006   5.060   3.012
 4853TIP3   OH214499   7.214   0.578   4.370
 4853TIP3    H114500   7.309   0.584   4.374
 4853TIP3    H214501   7.185   0.585   4.461
 4854TIP3   OH214502   1.669   1.192   5.889
 4854TIP3    H114503   1.585   1.216   5.928
 4854TIP3    H214504   1.697   1.115   5.938
 4855TIP3   OH214505   6.085   2.732   2.933
 4855TIP3    H114506   6.035   2.733   2.851
 4855TIP3    H214507   6.132   2.816   2.933
 4856TIP3   OH214508   5.043   1.037   2.809
 4856TIP3    H114509   5.114   0.999   2.861
 4856TIP3    H214510   5.008   1.107   2.864
 4857TIP3   OH214511   4.825   0.520   1.539
 4857TIP3    H114512   4.783   0.599   1.574
 4857TIP3    H214513   4.760   0.451   1.549
 4858TIP3   OH214514   0.412   6.442   3.703
 4858TIP3    H114515   0.425   6.456   3.797
 4858TIP3    H214516   0.443   6.522   3.662
 4859TIP3   OH214517   5.135   2.952   6.131
 4859TIP3    H114518   5.151   2.943   6.037
 4859TIP3    H214519   5.044   2.980   6.138
 4860TIP3   OH214520   8.276   7.870   2.631
 4860TIP3    H114521   8.338   7.803   2.602
 4860TIP3    H214522   8.206   7.822   2.675
 4861TIP3   OH214523   4.382   0.608   0.953
 4861TIP3    H114524   4.376   0.608   1.049
 4861TIP3    H214525   4.324   0.679   0.926
 4862TIP3   OH214526   6.802   3.151   1.852
 4862TIP3    H114527   6.725   3.098   1.832
 4862TIP3    H214528   6.846   3.163   1.768
 4863TIP3   OH214529   2.065   4.962   3.974
 4863TIP3    H114530   2.081   4.869   3.992
 4863TIP3    H214531   2.128   5.008   4.029
 4864TIP3   OH214532   6.818   7.307   5.144
 4864TIP3    H114533   6.878   7.361   5.196
 4864TIP3    H214534   6.875   7.242   5.103
 4865TIP3   OH214535   0.950   2.171   4.480
 4865TIP3    H114536   0.995   2.141   4.402
 4865TIP3    H214537   0.882   2.106   4.496
 4866TIP3   OH214538   5.719   6.530   2.167
 4866TIP3    H114539   5.648   6.593   2.156
 4866TIP3    H214540   5.677   6.444   2.156
 4867TIP3   OH214541   0.579   5.451   1.303
 4867TIP3    H114542   0.551   5.360   1.304
 4867TIP3    H214543   0.499   5.501   1.319
 4868TIP3   OH214544   4.073   1.464   3.813
 4868TIP3    H114545   3.998   1.524   3.817
 4868TIP3    H214546   4.036   1.379   3.838
 4869TIP3   OH214547   3.190   3.508   4.998
 4869TIP3    H114548   3.278   3.544   4.990
 4869TIP3    H214549   3.187   3.470   5.086
 4870TIP3   OH214550   4.818   5.017   4.149
 4870TIP3    H114551   4.788   4.984   4.064
 4870TIP3    H214552   4.788   4.951   4.212
 4871TIP3   OH214553   2.432   4.250   2.105
 4871TIP3    H114554   2.359   4.192   2.126
 4871TIP3    H214555   2.506   4.191   2.089
 4872TIP3   OH214556   1.655   2.641   2.728
 4872TIP3    H114557   1.663   2.707   2.660
 4872TIP3    H214558   1.668   2.557   2.682
 4873TIP3   OH214559   0.272   5.116   6.668
 4873TIP3    H114560   0.242   5.096   6.757
 4873TIP3    H214561   0.301   5.031   6.634
 4874TIP3   OH214562   5.860   3.297   1.651
 4874TIP3    H114563   5.805   3.319   1.726
 4874TIP3    H214564   5.946   3.279   1.688
 4875TIP3   OH214565   3.211   0.405   4.711
 4875TIP3    H114566   3.290   0.458   4.724
 4875TIP3    H214567   3.235   0.343   4.642
 4876TIP3   OH214568   4.705   4.549   3.964
 4876TIP3    H114569   4.725   4.460   3.935
 4876TIP3    H214570   4.624   4.572   3.919
 4877TIP3   OH214571   1.902   4.170   2.059
 4877TIP3    H114572   1.867   4.117   2.131
 4877TIP3    H214573   1.855   4.253   2.065
 4878TIP3   OH214574   3.287   3.012   0.603
 4878TIP3    H114575   3.347   3.052   0.540
 4878TIP3    H214576   3.246   3.085   0.648
 4879TIP3   OH214577   8.101   4.057   0.933
 4879TIP3    H114578   8.110   4.046   1.028
 4879TIP3    H214579   8.136   4.144   0.916
 4880TIP3   OH214580   4.487   1.484   3.119
 4880TIP3    H114581   4.491   1.464   3.025
 4880TIP3    H214582   4.503   1.578   3.124
 4881TIP3   OH214583   4.928   1.963   2.260
 4881TIP3    H114584   4.965   1.910   2.330
 4881TIP3    H214585   4.961   2.052   2.276
 4882TIP3   OH214586   3.286   2.248   6.345
 4882TIP3    H114587   3.334   2.192   6.405
 4882TIP3    H214588   3.227   2.189   6.298
 4883TIP3   OH214589   5.054   3.252   5.449
 4883TIP3    H114590   5.024   3.182   5.390
 4883TIP3    H214591   5.149   3.254   5.436
 4884TIP3   OH214592   2.130   0.894   5.801
 4884TIP3    H114593   2.124   0.950   5.724
 4884TIP3    H214594   2.149   0.807   5.766
 4885TIP3   OH214595   0.745   5.136   0.045
 4885TIP3    H114596   0.690   5.080  -0.009
 4885TIP3    H214597   0.823   5.153  -0.008
 4886TIP3   OH214598   6.240   2.298   2.543
 4886TIP3    H114599   6.221   2.211   2.508
 4886TIP3    H214600   6.237   2.287   2.638
 4887TIP3   OH214601   3.645   5.659   4.308
 4887TIP3    H114602   3.621   5.631   4.397
 4887TIP3    H214603   3.570   5.633   4.254
 4888TIP3   OH214604   2.285   0.898   0.025
 4888TIP3    H114605   2.367   0.850   0.028
 4888TIP3    H214606   2.272   0.931   0.114
 4889TIP3   OH214607   3.471   2.096   1.779
 4889TIP3    H114608   3.411   2.045   1.834
 4889TIP3    H214609   3.471   2.049   1.695
 4890TIP3   OH214610   6.524   1.625   0.866
 4890TIP3    H114611   6.502   1.597   0.955
 4890TIP3    H214612   6.583   1.557   0.834
 4891TIP3   OH214613   0.440   0.482   2.589
 4891TIP3    H114614   0.477   0.491   2.501
 4891TIP3    H214615   0.371   0.548   2.593
 4892TIP3   OH214616   1.968   2.935   6.146
 4892TIP3    H114617   1.909   2.942   6.072
 4892TIP3    H214618   1.910   2.924   6.222
 4893TIP3   OH214619   1.106   1.260   3.537
 4893TIP3    H114620   1.010   1.257   3.540
 4893TIP3    H214621   1.125   1.296   3.450
 4894TIP3   OH214622   6.437   2.185   6.184
 4894TIP3    H114623   6.492   2.255   6.220
 4894TIP3    H214624   6.431   2.121   6.255
 4895TIP3   OH214625   1.957   2.965   1.492
 4895TIP3    H114626   2.015   2.896   1.459
 4895TIP3    H214627   1.894   2.979   1.422
 4896TIP3   OH214628   5.791   6.865   6.266
 4896TIP3    H114629   5.724   6.916   6.312
 4896TIP3    H214630   5.809   6.791   6.323
 4897TIP3   OH214631   3.104   6.503   2.564
 4897TIP3    H114632   3.101   6.420   2.516
 4897TIP3    H214633   3.193   6.508   2.596
 4898TIP3   OH214634   2.198   5.072   5.066
 4898TIP3    H114635   2.247   5.075   4.983
 4898TIP3    H214636   2.109   5.098   5.041
 4899TIP3   OH214637   6.173   6.689   4.549
 4899TIP3    H114638   6.084   6.716   4.528
 4899TIP3    H214639   6.177   6.692   4.645
 4900TIP3   OH214640   1.823   5.163   0.361
 4900TIP3    H114641   1.820   5.079   0.315
 4900TIP3    H214642   1.806   5.228   0.293
 4901TIP3   OH214643   7.306   5.541   6.679
 4901TIP3    H114644   7.363   5.543   6.602
 4901TIP3    H214645   7.321   5.454   6.717
 4902TIP3   OH214646   1.297   6.857   6.634
 4902TIP3    H114647   1.213   6.858   6.588
 4902TIP3    H214648   1.361   6.886   6.568
 4903TIP3   OH214649   2.470   7.185   6.110
 4903TIP3    H114650   2.541   7.245   6.134
 4903TIP3    H214651   2.425   7.166   6.192
 4904TIP3   OH214652   2.970   1.655   6.100
 4904TIP3    H114653   2.941   1.745   6.085
 4904TIP3    H214654   2.899   1.601   6.066
 4905TIP3   OH214655   2.132   2.602   6.247
 4905TIP3    H114656   2.179   2.656   6.182
 4905TIP3    H214657   2.100   2.665   6.311
 4906TIP3   OH214658   6.871   5.123   1.262
 4906TIP3    H114659   6.792   5.076   1.288
 4906TIP3    H214660   6.937   5.098   1.326
 4907TIP3   OH214661   3.899   3.311   3.025
 4907TIP3    H114662   3.857   3.224   3.028
 4907TIP3    H214663   3.936   3.316   2.937
 4908TIP3   OH214664   5.317   2.739   3.604
 4908TIP3    H114665   5.368   2.758   3.526
 4908TIP3    H214666   5.377   2.692   3.661
 4909TIP3   OH214667   3.042   5.232   6.507
 4909TIP3    H114668   2.998   5.161   6.554
 4909TIP3    H214669   3.130   5.233   6.543
 4910TIP3   OH214670   2.955   6.006   4.201
 4910TIP3    H114671   2.959   5.913   4.226
 4910TIP3    H214672   2.882   6.041   4.253
 4911TIP3   OH214673   3.643   3.266   6.552
 4911TIP3    H114674   3.725   3.223   6.577
 4911TIP3    H214675   3.671   3.345   6.505
 4912TIP3   OH214676   0.485   0.824   1.485
 4912TIP3    H114677   0.566   0.873   1.500
 4912TIP3    H214678   0.514   0.734   1.472
 4913TIP3   OH214679   7.252   0.830   2.941
 4913TIP3    H114680   7.287   0.804   3.026
 4913TIP3    H214681   7.269   0.756   2.883
 4914TIP3   OH214682   4.468   5.048   6.758
 4914TIP3    H114683   4.529   5.117   6.730
 4914TIP3    H214684   4.400   5.048   6.690
 4915TIP3   OH214685   0.855   6.517   0.322
 4915TIP3    H114686   0.889   6.467   0.247
 4915TIP3    H214687   0.781   6.465   0.353
 4916TIP3   OH214688   6.284   4.308   4.017
 4916TIP3    H114689   6.283   4.394   4.059
 4916TIP3    H214690   6.332   4.322   3.935
 4917TIP3   OH214691   1.084   5.956   4.157
 4917TIP3    H114692   1.079   5.971   4.062
 4917TIP3    H214693   0.999   5.919   4.179
 4918TIP3   OH214694   0.636   6.795   0.871
 4918TIP3    H114695   0.543   6.793   0.893
 4918TIP3    H214696   0.666   6.705   0.887
 4919TIP3   OH214697   1.199   7.764   4.603
 4919TIP3    H114698   1.178   7.852   4.573
 4919TIP3    H214699   1.141   7.707   4.552
 4920TIP3   OH214700   1.201   5.565   6.175
 4920TIP3    H114701   1.130   5.625   6.150
 4920TIP3    H214702   1.159   5.501   6.232
 4921TIP3   OH214703   5.634   4.580   5.921
 4921TIP3    H114704   5.583   4.514   5.970
 4921TIP3    H214705   5.682   4.529   5.856
 4922TIP3   OH214706   2.236   2.425   3.219
 4922TIP3    H114707   2.272   2.336   3.219
 4922TIP3    H214708   2.303   2.479   3.260
 4923TIP3   OH214709   6.489   6.754   2.398
 4923TIP3    H114710   6.454   6.819   2.337
 4923TIP3    H214711   6.556   6.708   2.348
 4924TIP3   OH214712   1.395   0.932   1.523
 4924TIP3    H114713   1.317   0.879   1.532
 4924TIP3    H214714   1.399   0.984   1.603
 4925TIP3   OH214715   1.906   7.290   5.573
 4925TIP3    H114716   1.967   7.287   5.647
 4925TIP3    H214717   1.854   7.368   5.588
 4926TIP3   OH214718   4.444   0.180   2.857
 4926TIP3    H114719   4.522   0.212   2.813
 4926TIP3    H214720   4.422   0.098   2.813
 4927TIP3   OH214721   7.113   0.471   0.606
 4927TIP3    H114722   7.125   0.547   0.663
 4927TIP3    H214723   7.101   0.508   0.519
 4928TIP3   OH214724   1.930   7.046   2.538
 4928TIP3    H114725   1.871   7.107   2.495
 4928TIP3    H214726   1.936   7.078   2.628
 4929TIP3   OH214727   0.590   3.776   1.405
 4929TIP3    H114728   0.534   3.717   1.456
 4929TIP3    H214729   0.605   3.851   1.463
 4930TIP3   OH214730   7.945   2.433   5.236
 4930TIP3    H114731   7.862   2.386   5.234
 4930TIP3    H214732   7.956   2.461   5.327
 4931TIP3   OH214733   4.852   2.105   6.048
 4931TIP3    H114734   4.859   2.159   6.126
 4931TIP3    H214735   4.942   2.079   6.028
 4932TIP3   OH214736   6.770   7.656   4.625
 4932TIP3    H114737   6.815   7.676   4.707
 4932TIP3    H214738   6.833   7.680   4.556
 4933TIP3   OH214739   6.855   1.752   1.283
 4933TIP3    H114740   6.760   1.751   1.285
 4933TIP3    H214741   6.878   1.694   1.210
 4934TIP3   OH214742   3.507   4.561   2.515
 4934TIP3    H114743   3.415   4.588   2.520
 4934TIP3    H214744   3.549   4.629   2.462
 4935TIP3   OH214745   2.364   3.954   6.740
 4935TIP3    H114746   2.369   3.859   6.725
 4935TIP3    H214747   2.271   3.974   6.734
 4936TIP3   OH214748   1.272   1.851   4.853
 4936TIP3    H114749   1.195   1.815   4.808
 4936TIP3    H214750   1.306   1.777   4.904
 4937TIP3   OH214751   7.624   3.496   1.006
 4937TIP3    H114752   7.576   3.459   0.932
 4937TIP3    H214753   7.584   3.583   1.019
 4938TIP3   OH214754   7.650   4.634   6.510
 4938TIP3    H114755   7.563   4.634   6.468
 4938TIP3    H214756   7.669   4.542   6.525
 4939TIP3   OH214757   2.082   1.826   3.945
 4939TIP3    H114758   2.102   1.855   3.855
 4939TIP3    H214759   2.019   1.890   3.977
 4940TIP3   OH214760   6.826   1.232   3.185
 4940TIP3    H114761   6.767   1.199   3.252
 4940TIP3    H214762   6.874   1.303   3.228
 4941TIP3   OH214763   6.814   2.488   4.709
 4941TIP3    H114764   6.875   2.491   4.635
 4941TIP3    H214765   6.781   2.577   4.717
 4942TIP3   OH214766   5.865   7.294   1.875
 4942TIP3    H114767   5.905   7.208   1.858
 4942TIP3    H214768   5.772   7.282   1.856
 4943TIP3   OH214769   1.889   4.586   6.479
 4943TIP3    H114770   1.945   4.517   6.444
 4943TIP3    H214771   1.948   4.644   6.527
 4944TIP3   OH214772   8.213   5.197   2.983
 4944TIP3    H114773   8.148   5.146   3.032
 4944TIP3    H214774   8.282   5.134   2.962
 4945TIP3   OH214775   6.441   1.062   0.053
 4945TIP3    H114776   6.366   1.086  -0.001
 4945TIP3    H214777   6.464   1.143   0.099
 4946TIP3   OH214778   1.270   5.885   1.201
 4946TIP3    H114779   1.283   5.791   1.207
 4946TIP3    H214780   1.177   5.896   1.179
 4947TIP3   OH214781   1.466   5.277   2.274
 4947TIP3    H114782   1.402   5.282   2.202
 4947TIP3    H214783   1.549   5.260   2.230
 4948TIP3   OH214784   7.429   2.703   5.986
 4948TIP3    H114785   7.434   2.608   5.979
 4948TIP3    H214786   7.380   2.718   6.067
 4949TIP3   OH214787   5.030   1.938   0.506
 4949TIP3    H114788   5.034   1.914   0.414
 4949TIP3    H214789   5.007   2.031   0.506
 4950TIP3   OH214790   7.852   3.938   2.613
 4950TIP3    H114791   7.935   3.985   2.601
 4950TIP3    H214792   7.801   3.958   2.535
 4951TIP3   OH214793   6.345   5.425   1.490
 4951TIP3    H114794   6.408   5.427   1.418
 4951TIP3    H214795   6.398   5.403   1.567
 4952TIP3   OH214796   1.949   2.632   3.540
 4952TIP3    H114797   1.858   2.627   3.570
 4952TIP3    H214798   1.976   2.541   3.529
 4953TIP3   OH214799   1.890   5.239   0.800
 4953TIP3    H114800   1.909   5.203   0.886
 4953TIP3    H214801   1.941   5.187   0.739
 4954TIP3   OH214802   5.559   4.113   2.725
 4954TIP3    H114803   5.503   4.035   2.720
 4954TIP3    H214804   5.632   4.086   2.781
 4955TIP3   OH214805   1.526   3.859   4.690
 4955TIP3    H114806   1.608   3.836   4.647
 4955TIP3    H214807   1.502   3.780   4.739
 4956TIP3   OH214808   0.909   6.297   1.704
 4956TIP3    H114809   0.896   6.213   1.748
 4956TIP3    H214810   0.829   6.346   1.720
 4957TIP3   OH214811   8.355   5.833   0.562
 4957TIP3    H114812   8.324   5.910   0.609
 4957TIP3    H214813   8.282   5.810   0.505
 4958TIP3   OH214814   1.881   7.568   3.065
 4958TIP3    H114815   1.879   7.512   3.142
 4958TIP3    H214816   1.790   7.573   3.037
 4959TIP3   OH214817   6.417   2.044   2.713
 4959TIP3    H114818   6.421   2.086   2.627
 4959TIP3    H214819   6.496   1.989   2.716
 4960TIP3   OH214820   4.958   4.957   4.413
 4960TIP3    H114821   4.991   5.007   4.339
 4960TIP3    H214822   4.875   5.000   4.436
 4961TIP3   OH214823   7.392   2.003   3.353
 4961TIP3    H114824   7.406   2.004   3.259
 4961TIP3    H214825   7.368   1.912   3.373
 4962TIP3   OH214826   7.860   7.126   2.102
 4962TIP3    H114827   7.835   7.039   2.131
 4962TIP3    H214828   7.949   7.138   2.135
 4963TIP3   OH214829   5.893   2.833   4.763
 4963TIP3    H114830   5.846   2.888   4.826
 4963TIP3    H214831   5.860   2.744   4.779
 4964TIP3   OH214832   0.291   3.889   4.429
 4964TIP3    H114833   0.295   3.936   4.512
 4964TIP3    H214834   0.355   3.933   4.373
 4965TIP3   OH214835   3.144   5.999   6.000
 4965TIP3    H114836   3.135   6.064   5.930
 4965TIP3    H214837   3.200   6.041   6.065
 4966TIP3   OH214838   5.930   2.140   2.747
 4966TIP3    H114839   5.853   2.090   2.771
 4966TIP3    H214840   5.956   2.185   2.828
 4967TIP3   OH214841   1.528   3.604   1.574
 4967TIP3    H114842   1.456   3.549   1.607
 4967TIP3    H214843   1.523   3.595   1.479
 4968TIP3   OH214844   2.852   1.575   4.759
 4968TIP3    H114845   2.813   1.599   4.674
 4968TIP3    H214846   2.786   1.601   4.823
 4969TIP3   OH214847   5.386   7.134   2.863
 4969TIP3    H114848   5.456   7.074   2.889
 4969TIP3    H214849   5.394   7.141   2.768
 4970TIP3   OH214850   5.453   6.764   2.419
 4970TIP3    H114851   5.476   6.702   2.349
 4970TIP3    H214852   5.466   6.850   2.380
 4971TIP3   OH214853   6.181   1.862   4.503
 4971TIP3    H114854   6.269   1.901   4.500
 4971TIP3    H214855   6.128   1.919   4.446
 4972TIP3   OH214856   7.274   4.197   2.983
 4972TIP3    H114857   7.186   4.230   3.004
 4972TIP3    H214858   7.261   4.147   2.902
 4973TIP3   OH214859   5.175   3.027   2.758
 4973TIP3    H114860   5.162   3.056   2.668
 4973TIP3    H214861   5.123   2.946   2.765
 4974TIP3   OH214862   3.292   6.095   2.603
 4974TIP3    H114863   3.309   6.002   2.585
 4974TIP3    H214864   3.315   6.106   2.695
 4975TIP3   OH214865   3.238   2.517   3.961
 4975TIP3    H114866   3.310   2.469   4.001
 4975TIP3    H214867   3.195   2.453   3.905
 4976TIP3   OH214868   7.842   0.363   1.788
 4976TIP3    H114869   7.936   0.362   1.809
 4976TIP3    H214870   7.821   0.455   1.776
 4977TIP3   OH214871   4.868   3.253   3.591
 4977TIP3    H114872   4.962   3.266   3.605
 4977TIP3    H214873   4.859   3.161   3.567
 4978TIP3   OH214874   7.360   4.505   5.222
 4978TIP3    H114875   7.451   4.523   5.244
 4978TIP3    H214876   7.363   4.476   5.131
 4979TIP3   OH214877   7.261   6.336   2.235
 4979TIP3    H114878   7.339   6.351   2.182
 4979TIP3    H214879   7.295   6.308   2.320
 4980TIP3   OH214880   7.848   4.762   6.357
 4980TIP3    H114881   7.766   4.713   6.362
 4980TIP3    H214882   7.828   4.839   6.305
 4981TIP3   OH214883   3.686   6.298   3.119
 4981TIP3    H114884   3.732   6.365   3.169
 4981TIP3    H214885   3.754   6.235   3.094
 4982TIP3   OH214886   5.001   0.297   0.289
 4982TIP3    H114887   4.987   0.326   0.379
 4982TIP3    H214888   4.952   0.214   0.282
 4983TIP3   OH214889   1.344   2.439   1.417
 4983TIP3    H114890   1.309   2.388   1.344
 4983TIP3    H214891   1.323   2.530   1.394
 4984TIP3   OH214892   3.724   7.494   6.767
 4984TIP3    H114893   3.632   7.514   6.748
 4984TIP3    H214894   3.747   7.552   6.839
 4985TIP3   OH214895   0.532   3.226   0.711
 4985TIP3    H114896   0.503   3.183   0.791
 4985TIP3    H214897   0.627   3.233   0.721
 4986TIP3   OH214898   5.777   5.756   4.707
 4986TIP3    H114899   5.834   5.830   4.687
 4986TIP3    H214900   5.750   5.722   4.621
 4987TIP3   OH214901   0.691   0.809   3.352
 4987TIP3    H114902   0.679   0.722   3.389
 4987TIP3    H214903   0.690   0.868   3.427
 4988TIP3   OH214904   4.326   6.419   6.465
 4988TIP3    H114905   4.404   6.456   6.506
 4988TIP3    H214906   4.276   6.495   6.435
 4989TIP3   OH214907   7.526   0.800   1.326
 4989TIP3    H114908   7.530   0.886   1.369
 4989TIP3    H214909   7.499   0.740   1.396
 4990TIP3   OH214910   3.408   0.763   2.186
 4990TIP3    H114911   3.484   0.747   2.242
 4990TIP3    H214912   3.445   0.788   2.102
 4991TIP3   OH214913   2.411   6.945   4.313
 4991TIP3    H114914   2.491   6.953   4.365
 4991TIP3    H214915   2.387   6.853   4.321
 4992TIP3   OH214916   5.665   7.308   0.204
 4992TIP3    H114917   5.696   7.276   0.289
 4992TIP3    H214918   5.574   7.279   0.200
 4993TIP3   OH214919   3.696   3.856   4.431
 4993TIP3    H114920   3.608   3.891   4.444
 4993TIP3    H214921   3.718   3.879   4.340
 4994TIP3   OH214922   6.786   6.554   0.540
 4994TIP3    H114923   6.800   6.627   0.479
 4994TIP3    H214924   6.867   6.504   0.539
 4995TIP3   OH214925   3.338   1.295   3.260
 4995TIP3    H114926   3.287   1.236   3.317
 4995TIP3    H214927   3.340   1.378   3.307
 4996TIP3   OH214928   3.154   0.881   5.083
 4996TIP3    H114929   3.079   0.911   5.031
 4996TIP3    H214930   3.114   0.833   5.155
 4997TIP3   OH214931   6.494   3.887   1.123
 4997TIP3    H114932   6.431   3.864   1.055
 4997TIP3    H214933   6.442   3.896   1.203
 4998TIP3   OH214934   2.924   2.271   4.525
 4998TIP3    H114935   2.974   2.196   4.556
 4998TIP3    H214936   2.976   2.347   4.550
 4999TIP3   OH214937   1.816   2.800   5.359
 4999TIP3    H114938   1.881   2.754   5.307
 4999TIP3    H214939   1.732   2.759   5.335
 5000TIP3   OH214940   0.380   7.197   3.898
 5000TIP3    H114941   0.365   7.235   3.985
 5000TIP3    H214942   0.313   7.129   3.890
 5001TIP3   OH214943   7.296   6.450   5.381
 5001TIP3    H114944   7.356   6.486   5.446
 5001TIP3    H214945   7.341   6.374   5.346
 5002TIP3   OH214946   5.478   5.218   4.245
 5002TIP3    H114947   5.536   5.180   4.312
 5002TIP3    H214948   5.449   5.143   4.194
 5003TIP3   OH214949   0.364   6.195   2.638
 5003TIP3    H114950   0.379   6.241   2.556
 5003TIP3    H214951   0.348   6.104   2.613
 5004TIP3   OH214952   3.231   5.595   3.924
 5004TIP3    H114953   3.215   5.613   3.832
 5004TIP3    H214954   3.246   5.681   3.964
 5005TIP3   OH214955   6.519   7.080   0.801
 5005TIP3    H114956   6.478   7.011   0.853
 5005TIP3    H214957   6.447   7.120   0.753
 5006TIP3   OH214958   7.449   2.817   1.434
 5006TIP3    H114959   7.520   2.770   1.478
 5006TIP3    H214960   7.404   2.749   1.384
 5007TIP3   OH214961   6.021   2.042   4.326
 5007TIP3    H114962   5.980   2.032   4.241
 5007TIP3    H214963   5.955   2.086   4.380
 5008TIP3   OH214964   2.203   3.423   3.945
 5008TIP3    H114965   2.287   3.376   3.948
 5008TIP3    H214966   2.210   3.488   4.015
 5009TIP3   OH214967   5.290   2.493   5.650
 5009TIP3    H114968   5.264   2.407   5.616
 5009TIP3    H214969   5.300   2.547   5.572
 5010TIP3   OH214970   5.582   3.836   5.670
 5010TIP3    H114971   5.615   3.747   5.654
 5010TIP3    H214972   5.496   3.837   5.628
 5011TIP3   OH214973   7.618   7.168   1.933
 5011TIP3    H114974   7.574   7.251   1.954
 5011TIP3    H214975   7.679   7.154   2.007
 5012TIP3   OH214976   8.024   1.906   0.277
 5012TIP3    H114977   7.966   1.907   0.353
 5012TIP3    H214978   8.034   1.998   0.253
 5013TIP3   OH214979   1.568   4.450   6.409
 5013TIP3    H114980   1.648   4.402   6.389
 5013TIP3    H214981   1.529   4.469   6.324
 5014TIP3   OH214982   7.997   5.649   0.837
 5014TIP3    H114983   7.974   5.557   0.848
 5014TIP3    H214984   8.075   5.649   0.782
 5015TIP3   OH214985   1.189   5.048   4.257
 5015TIP3    H114986   1.278   5.013   4.262
 5015TIP3    H214987   1.153   5.009   4.178
 5016TIP3   OH214988   2.799   6.996   0.023
 5016TIP3    H114989   2.764   7.084   0.038
 5016TIP3    H214990   2.786   6.951   0.107
 5017TIP3   OH214991   0.182   5.126   0.470
 5017TIP3    H114992   0.210   5.145   0.380
 5017TIP3    H214993   0.105   5.180   0.483
 5018TIP3   OH214994   6.084   1.989   4.812
 5018TIP3    H114995   6.124   1.904   4.832
 5018TIP3    H214996   6.009   1.967   4.756
 5019TIP3   OH214997   6.389   0.607   2.433
 5019TIP3    H114998   6.349   0.669   2.495
 5019TIP3    H214999   6.479   0.639   2.422
 5020TIP3   OH215000   4.047   2.419   0.930
 5020TIP3    H115001   4.048   2.433   1.025
 5020TIP3    H215002   3.969   2.465   0.899
 5021TIP3   OH215003   7.530   2.246   3.680
 5021TIP3    H115004   7.531   2.342   3.681
 5021TIP3    H215005   7.610   2.221   3.726
 5022TIP3   OH215006   4.273   1.592   2.897
 5022TIP3    H115007   4.187   1.633   2.897
 5022TIP3    H215008   4.265   1.519   2.835
 5023TIP3   OH215009   2.870   1.336   3.333
 5023TIP3    H115010   2.843   1.389   3.258
 5023TIP3    H215011   2.831   1.250   3.315
 5024TIP3   OH215012   2.218   0.610   6.723
 5024TIP3    H115013   2.256   0.654   6.799
 5024TIP3    H215014   2.261   0.652   6.647
 5025TIP3   OH215015   6.220   7.386   2.130
 5025TIP3    H115016   6.199   7.301   2.091
 5025TIP3    H215017   6.247   7.440   2.056
 5026TIP3   OH215018   5.906   2.269   3.603
 5026TIP3    H115019   5.896   2.218   3.522
 5026TIP3    H215020   5.926   2.204   3.670
 5027TIP3   OH215021   4.872   7.069   0.332
 5027TIP3    H115022   4.874   7.163   0.314
 5027TIP3    H215023   4.940   7.056   0.398
 5028TIP3   OH215024   6.781   3.231   4.755
 5028TIP3    H115025   6.774   3.319   4.720
 5028TIP3    H215026   6.874   3.210   4.751
 5029TIP3   OH215027   4.164   6.299   4.226
 5029TIP3    H115028   4.105   6.284   4.300
 5029TIP3    H215029   4.237   6.349   4.262
 5030TIP3   OH215030   1.763   2.275   0.579
 5030TIP3    H115031   1.851   2.251   0.549
 5030TIP3    H215032   1.749   2.362   0.542
 5031TIP3   OH215033   4.188   6.832   5.001
 5031TIP3    H115034   4.138   6.751   5.012
 5031TIP3    H215035   4.272   6.814   5.043
 5032TIP3   OH215036   3.742   7.575   4.810
 5032TIP3    H115037   3.723   7.524   4.889
 5032TIP3    H215038   3.837   7.582   4.809
 5033TIP3   OH215039   6.739   2.862   3.061
 5033TIP3    H115040   6.788   2.787   3.095
 5033TIP3    H215041   6.807   2.924   3.034
 5034TIP3   OH215042   4.036   0.326   0.060
 5034TIP3    H115043   4.123   0.333   0.021
 5034TIP3    H215044   4.021   0.232   0.070
 5035TIP3   OH215045   0.908   2.423   1.323
 5035TIP3    H115046   0.930   2.379   1.405
 5035TIP3    H215047   0.946   2.511   1.333
 5036TIP3   OH215048   8.385   5.095   3.237
 5036TIP3    H115049   8.314   5.132   3.290
 5036TIP3    H215050   8.434   5.171   3.206
 5037TIP3   OH215051   3.834   3.209   5.015
 5037TIP3    H115052   3.812   3.118   5.034
 5037TIP3    H215053   3.755   3.258   5.035
 5038TIP3   OH215054   7.345   3.059   1.544
 5038TIP3    H115055   7.404   3.133   1.526
 5038TIP3    H215056   7.393   2.982   1.513
 5039TIP3   OH215057   1.538   2.081   3.907
 5039TIP3    H115058   1.571   2.066   3.996
 5039TIP3    H215059   1.489   2.002   3.887
 5040TIP3   OH215060   7.714   2.320   5.272
 5040TIP3    H115061   7.723   2.274   5.355
 5040TIP3    H215062   7.699   2.251   5.208
 5041TIP3   OH215063   1.233   0.710   1.408
 5041TIP3    H115064   1.148   0.669   1.395
 5041TIP3    H215065   1.280   0.650   1.468
 5042TIP3   OH215066   3.212   0.266   2.009
 5042TIP3    H115067   3.197   0.320   2.086
 5042TIP3    H215068   3.269   0.196   2.040
 5043TIP3   OH215069   8.010   3.757   4.738
 5043TIP3    H115070   7.988   3.834   4.686
 5043TIP3    H215071   8.065   3.705   4.680
 5044TIP3   OH215072   8.148   0.021   6.783
 5044TIP3    H115073   8.054   0.027   6.768
 5044TIP3    H215074   8.160  -0.061   6.831
 5045TIP3   OH215075   3.756   6.653   0.923
 5045TIP3    H115076   3.722   6.573   0.883
 5045TIP3    H215077   3.845   6.661   0.888
 5046TIP3   OH215078   6.697   6.388   3.118
 5046TIP3    H115079   6.696   6.482   3.136
 5046TIP3    H215080   6.678   6.381   3.024
 5047TIP3   OH215081   3.078   0.479   1.605
 5047TIP3    H115082   3.022   0.529   1.546
 5047TIP3    H215083   3.136   0.545   1.644
 5048TIP3   OH215084   5.781   5.306   3.507
 5048TIP3    H115085   5.873   5.329   3.514
 5048TIP3    H215086   5.735   5.390   3.517
 5049TIP3   OH215087   2.808   2.742   3.847
 5049TIP3    H115088   2.731   2.704   3.890
 5049TIP3    H215089   2.772   2.795   3.776
 5050TIP3   OH215090   7.886   0.401   3.674
 5050TIP3    H115091   7.914   0.326   3.622
 5050TIP3    H215092   7.801   0.425   3.636
 5051TIP3   OH215093   1.103   3.748   2.784
 5051TIP3    H115094   1.038   3.799   2.833
 5051TIP3    H215095   1.121   3.673   2.841
 5052TIP3   OH215096   2.152   6.476   4.472
 5052TIP3    H115097   2.122   6.492   4.562
 5052TIP3    H215098   2.077   6.437   4.429
 5053TIP3   OH215099   4.502   6.127   1.269
 5053TIP3    H115100   4.410   6.151   1.267
 5053TIP3    H215101   4.542   6.176   1.197
 5054TIP3   OH215102   1.421   5.341   6.792
 5054TIP3    H115103   1.379   5.313   6.712
 5054TIP3    H215104   1.484   5.272   6.812
 5055TIP3   OH215105   5.755   7.728   4.791
 5055TIP3    H115106   5.791   7.796   4.848
 5055TIP3    H215107   5.670   7.763   4.762
 5056TIP3   OH215108   0.564   6.536   2.942
 5056TIP3    H115109   0.507   6.459   2.946
 5056TIP3    H215110   0.544   6.576   2.857
 5057TIP3   OH215111   8.264   0.834   1.921
 5057TIP3    H115112   8.204   0.839   1.995
 5057TIP3    H215113   8.349   0.815   1.959
 5058TIP3   OH215114   6.046   1.908   4.012
 5058TIP3    H115115   6.087   1.847   4.074
 5058TIP3    H215116   5.952   1.899   4.028
 5059TIP3   OH215117   6.511   5.939   4.860
 5059TIP3    H115118   6.591   5.982   4.890
 5059TIP3    H215119   6.493   5.873   4.927
 5060TIP3   OH215120   4.125   5.649   6.701
 5060TIP3    H115121   4.039   5.650   6.744
 5060TIP3    H215122   4.139   5.558   6.678
 5061TIP3   OH215123   4.340   6.848   5.363
 5061TIP3    H115124   4.387   6.857   5.280
 5061TIP3    H215125   4.401   6.803   5.421
 5062TIP3   OH215126   7.756   0.683   0.346
 5062TIP3    H115127   7.751   0.673   0.251
 5062TIP3    H215128   7.670   0.716   0.371
 5063TIP3   OH215129   5.453   5.751   2.161
 5063TIP3    H115130   5.425   5.721   2.075
 5063TIP3    H215131   5.503   5.679   2.198
 5064TIP3   OH215132   2.179   7.795   2.045
 5064TIP3    H115133   2.240   7.866   2.024
 5064TIP3    H215134   2.215   7.719   1.999
 5065TIP3   OH215135   7.170   2.967   2.248
 5065TIP3    H115136   7.176   3.032   2.178
 5065TIP3    H215137   7.145   3.017   2.326
 5066TIP3   OH215138   1.404   1.198   5.323
 5066TIP3    H115139   1.385   1.106   5.342
 5066TIP3    H215140   1.472   1.195   5.255
 5067TIP3   OH215141   3.163   7.594   1.228
 5067TIP3    H115142   3.252   7.559   1.219
 5067TIP3    H215143   3.122   7.537   1.294
 5068TIP3   OH215144   6.989   3.562   1.514
 5068TIP3    H115145   6.895   3.577   1.504
 5068TIP3    H215146   7.016   3.526   1.429
 5069TIP3   OH215147   3.580   2.072   1.130
 5069TIP3    H115148   3.630   2.129   1.071
 5069TIP3    H215149   3.532   2.013   1.071
 5070TIP3   OH215150   5.138   5.517   1.792
 5070TIP3    H115151   5.164   5.433   1.755
 5070TIP3    H215152   5.098   5.565   1.719
 5071TIP3   OH215153   5.519   0.175   2.599
 5071TIP3    H115154   5.491   0.087   2.624
 5071TIP3    H215155   5.460   0.200   2.528
 5072TIP3   OH215156   3.625   0.947   0.352
 5072TIP3    H115157   3.558   0.928   0.418
 5072TIP3    H215158   3.610   1.038   0.328
 5073TIP3   OH215159   5.966   1.403   2.875
 5073TIP3    H115160   5.975   1.425   2.968
 5073TIP3    H215161   5.912   1.325   2.874
 5074TIP3   OH215162   3.556   5.078   6.302
 5074TIP3    H115163   3.556   5.023   6.380
 5074TIP3    H215164   3.464   5.089   6.280
 5075TIP3   OH215165   2.451   2.680   2.512
 5075TIP3    H115166   2.502   2.729   2.447
 5075TIP3    H215167   2.461   2.589   2.486
 5076TIP3   OH215168   2.775   1.872   1.704
 5076TIP3    H115169   2.731   1.810   1.762
 5076TIP3    H215170   2.849   1.904   1.755
 5077TIP3   OH215171   5.708   7.706   6.669
 5077TIP3    H115172   5.629   7.725   6.619
 5077TIP3    H215173   5.747   7.791   6.686
 5078TIP3   OH215174   0.245   1.696   4.853
 5078TIP3    H115175   0.172   1.638   4.872
 5078TIP3    H215176   0.314   1.638   4.819
 5079TIP3   OH215177   5.907   3.444   1.429
 5079TIP3    H115178   5.993   3.471   1.459
 5079TIP3    H215179   5.876   3.384   1.497
 5080TIP3   OH215180   7.060   4.054   5.506
 5080TIP3    H115181   7.128   4.114   5.477
 5080TIP3    H215182   7.051   3.992   5.435
 5081TIP3   OH215183   4.411   4.116   4.473
 5081TIP3    H115184   4.417   4.064   4.554
 5081TIP3    H215185   4.428   4.206   4.501
 5082TIP3   OH215186   5.606   5.922   6.098
 5082TIP3    H115187   5.682   5.962   6.140
 5082TIP3    H215188   5.642   5.845   6.054
 5083TIP3   OH215189   1.706   6.301   2.281
 5083TIP3    H115190   1.718   6.207   2.296
 5083TIP3    H215191   1.752   6.318   2.199
 5084TIP3   OH215192   4.430   6.054   6.634
 5084TIP3    H115193   4.386   6.120   6.687
 5084TIP3    H215194   4.452   5.984   6.696
 5085TIP3   OH215195   2.610   1.777   3.615
 5085TIP3    H115196   2.656   1.792   3.698
 5085TIP3    H215197   2.539   1.841   3.614
 5086TIP3   OH215198   3.473   3.952   2.096
 5086TIP3    H115199   3.530   4.023   2.067
 5086TIP3    H215200   3.448   3.977   2.185
 5087TIP3   OH215201   3.228   1.640   6.875
 5087TIP3    H115202   3.136   1.666   6.873
 5087TIP3    H215203   3.248   1.614   6.785
 5088TIP3   OH215204   1.793   3.761   2.137
 5088TIP3    H115205   1.800   3.677   2.183
 5088TIP3    H215206   1.739   3.742   2.060
 5089TIP3   OH215207   6.459   0.368   1.089
 5089TIP3    H115208   6.544   0.360   1.132
 5089TIP3    H215209   6.459   0.456   1.052
 5090TIP3   OH215210   2.466   2.732   6.333
 5090TIP3    H115211   2.404   2.800   6.358
 5090TIP3    H215212   2.540   2.780   6.295
 5091TIP3   OH215213   4.800   2.276   6.263
 5091TIP3    H115214   4.832   2.248   6.349
 5091TIP3    H215215   4.816   2.370   6.262
 5092TIP3   OH215216   3.179   4.350   0.527
 5092TIP3    H115217   3.159   4.433   0.483
 5092TIP3    H215218   3.177   4.284   0.458
 5093TIP3   OH215219   2.365   5.082   0.809
 5093TIP3    H115220   2.446   5.111   0.768
 5093TIP3    H215221   2.296   5.131   0.763
 5094TIP3   OH215222   1.445   1.735   4.507
 5094TIP3    H115223   1.471   1.705   4.420
 5094TIP3    H215224   1.429   1.655   4.556
 5095TIP3   OH215225   3.359   0.727   5.591
 5095TIP3    H115226   3.432   0.673   5.621
 5095TIP3    H215227   3.369   0.730   5.496
 5096TIP3   OH215228   6.804   6.707   1.537
 5096TIP3    H115229   6.796   6.791   1.493
 5096TIP3    H215230   6.862   6.655   1.481
 5097TIP3   OH215231   8.103   1.754   2.721
 5097TIP3    H115232   8.140   1.666   2.719
 5097TIP3    H215233   8.160   1.802   2.782
 5098TIP3   OH215234   6.243   1.893   0.675
 5098TIP3    H115235   6.308   1.865   0.611
 5098TIP3    H215236   6.295   1.925   0.749
 5099TIP3   OH215237   6.710   2.631   6.083
 5099TIP3    H115238   6.770   2.685   6.032
 5099TIP3    H215239   6.647   2.693   6.120
 5100TIP3   OH215240   7.067   0.522   6.756
 5100TIP3    H115241   7.154   0.559   6.741
 5100TIP3    H215242   7.083   0.428   6.769
 5101TIP3   OH215243   7.852   3.185   4.132
 5101TIP3    H115244   7.791   3.157   4.200
 5101TIP3    H215245   7.852   3.114   4.068
 5102TIP3   OH215246   5.119   2.617   0.133
 5102TIP3    H115247   5.096   2.693   0.185
 5102TIP3    H215248   5.037   2.591   0.091
 5103TIP3   OH215249   5.958   5.900   6.612
 5103TIP3    H115250   5.981   5.818   6.656
 5103TIP3    H215251   5.867   5.887   6.583
 5104TIP3   OH215252   0.557   1.631   5.356
 5104TIP3    H115253   0.542   1.664   5.445
 5104TIP3    H215254   0.652   1.623   5.349
 5105TIP3   OH215255   1.733   7.237   2.441
 5105TIP3    H115256   1.661   7.299   2.450
 5105TIP3    H215257   1.793   7.278   2.378
 5106TIP3   OH215258   6.219   2.714   5.118
 5106TIP3    H115259   6.290   2.711   5.053
 5106TIP3    H215260   6.173   2.631   5.107
 5107TIP3   OH215261   6.602   1.423   2.641
 5107TIP3    H115262   6.650   1.457   2.716
 5107TIP3    H215263   6.649   1.457   2.565
 5108TIP3   OH215264   2.358   4.178   6.599
 5108TIP3    H115265   2.366   4.118   6.673
 5108TIP3    H215266   2.273   4.220   6.612
 5109TIP3   OH215267   2.896   1.637   6.692
 5109TIP3    H115268   2.919   1.556   6.647
 5109TIP3    H215269   2.917   1.620   6.784
 5110TIP3   OH215270   4.755   1.940   4.468
 5110TIP3    H115271   4.713   1.856   4.453
 5110TIP3    H215272   4.688   2.005   4.449
 5111TIP3   OH215273   1.915   6.608   2.130
 5111TIP3    H115274   1.831   6.645   2.155
 5111TIP3    H215275   1.980   6.669   2.165
 5112TIP3   OH215276   4.833   2.310   2.706
 5112TIP3    H115277   4.920   2.343   2.686
 5112TIP3    H215278   4.820   2.332   2.798
 5113TIP3   OH215279   4.903   6.693   6.222
 5113TIP3    H115280   4.969   6.624   6.219
 5113TIP3    H215281   4.947   6.767   6.263
 5114TIP3   OH215282   0.922   5.396   0.993
 5114TIP3    H115283   0.836   5.436   1.006
 5114TIP3    H215284   0.947   5.364   1.080
 5115TIP3   OH215285   1.456   3.187   1.504
 5115TIP3    H115286   1.440   3.102   1.545
 5115TIP3    H215287   1.543   3.212   1.536
 5116TIP3   OH215288   7.671   1.411   2.149
 5116TIP3    H115289   7.678   1.469   2.072
 5116TIP3    H215290   7.717   1.458   2.218
 5117TIP3   OH215291   0.952   3.304   6.824
 5117TIP3    H115292   0.906   3.361   6.885
 5117TIP3    H215293   0.933   3.215   6.855
 5118TIP3   OH215294   4.395   7.838   6.807
 5118TIP3    H115295   4.399   7.859   6.900
 5118TIP3    H215296   4.372   7.745   6.805
 5119TIP3   OH215297   2.003   7.024   1.574
 5119TIP3    H115298   1.945   7.085   1.618
 5119TIP3    H215299   2.009   7.057   1.484
 5120TIP3   OH215300   1.431   3.678   0.069
 5120TIP3    H115301   1.457   3.588   0.048
 5120TIP3    H215302   1.397   3.673   0.158
 5121TIP3   OH215303   7.494   7.258   4.711
 5121TIP3    H115304   7.478   7.253   4.805
 5121TIP3    H215305   7.589   7.267   4.703
 5122TIP3   OH215306   5.000   5.045   0.312
 5122TIP3    H115307   4.968   5.062   0.223
 5122TIP3    H215308   4.965   4.958   0.333
 5123TIP3   OH215309   0.507   1.788   5.953
 5123TIP3    H115310   0.421   1.767   5.916
 5123TIP3    H215311   0.554   1.704   5.952
 5124TIP3   OH215312   0.870   0.200   6.274
 5124TIP3    H115313   0.923   0.241   6.342
 5124TIP3    H215314   0.780   0.225   6.295
 5125TIP3   OH215315   4.050   3.440   0.911
 5125TIP3    H115316   3.999   3.519   0.929
 5125TIP3    H215317   4.033   3.421   0.818
 5126TIP3   OH215318   6.629   4.628   3.038
 5126TIP3    H115319   6.554   4.598   2.986
 5126TIP3    H215320   6.607   4.604   3.128
 5127TIP3   OH215321   0.125   2.076   1.593
 5127TIP3    H115322   0.141   2.073   1.688
 5127TIP3    H215323   0.205   2.115   1.557
 5128TIP3   OH215324   6.564   5.096   1.911
 5128TIP3    H115325   6.512   5.025   1.873
 5128TIP3    H215326   6.574   5.159   1.840
 5129TIP3   OH215327   4.782   6.502   3.358
 5129TIP3    H115328   4.843   6.561   3.315
 5129TIP3    H215329   4.823   6.416   3.352
 5130TIP3   OH215330   3.867   3.863   3.619
 5130TIP3    H115331   3.869   3.769   3.604
 5130TIP3    H215332   3.896   3.874   3.709
 5131TIP3   OH215333   1.931   4.793   6.052
 5131TIP3    H115334   1.865   4.857   6.078
 5131TIP3    H215335   1.925   4.724   6.118
 5132TIP3   OH215336   2.543   2.332   0.358
 5132TIP3    H115337   2.526   2.403   0.297
 5132TIP3    H215338   2.461   2.321   0.406
 5133TIP3   OH215339   1.671   6.435   6.408
 5133TIP3    H115340   1.743   6.373   6.404
 5133TIP3    H215341   1.595   6.382   6.434
 5134TIP3   OH215342   2.800   3.037   6.832
 5134TIP3    H115343   2.865   3.009   6.897
 5134TIP3    H215344   2.721   3.055   6.883
 5135TIP3   OH215345   3.525   5.491   0.088
 5135TIP3    H115346   3.517   5.409   0.138
 5135TIP3    H215347   3.521   5.464  -0.004
 5136TIP3   OH215348   7.189   0.029   2.224
 5136TIP3    H115349   7.230   0.115   2.231
 5136TIP3    H215350   7.217  -0.017   2.303
 5137TIP3   OH215351   5.457   2.651   0.778
 5137TIP3    H115352   5.407   2.672   0.700
 5137TIP3    H215353   5.510   2.729   0.795
 5138TIP3   OH215354   2.389   6.560   1.571
 5138TIP3    H115355   2.308   6.564   1.623
 5138TIP3    H215356   2.359   6.573   1.480
 5139TIP3   OH215357   7.328   1.339   6.441
 5139TIP3    H115358   7.384   1.286   6.384
 5139TIP3    H215359   7.239   1.310   6.420
 5140TIP3   OH215360   3.911   6.104   6.213
 5140TIP3    H115361   3.985   6.058   6.253
 5140TIP3    H215362   3.892   6.175   6.274
 5141TIP3   OH215363   0.835   0.473   2.511
 5141TIP3    H115364   0.883   0.512   2.584
 5141TIP3    H215365   0.838   0.379   2.528
 5142TIP3   OH215366   2.868   7.510   0.036
 5142TIP3    H115367   2.921   7.532   0.113
 5142TIP3    H215368   2.784   7.553   0.052
 5143TIP3   OH215369   8.356   1.861   1.598
 5143TIP3    H115370   8.413   1.937   1.605
 5143TIP3    H215371   8.345   1.848   1.503
 5144TIP3   OH215372   8.176   2.816   6.844
 5144TIP3    H115373   8.259   2.864   6.839
 5144TIP3    H215374   8.199   2.732   6.882
 5145TIP3   OH215375   0.729   4.395   5.702
 5145TIP3    H115376   0.811   4.424   5.661
 5145TIP3    H215377   0.758   4.343   5.777
 5146TIP3   OH215378   8.022   7.091   3.073
 5146TIP3    H115379   8.082   7.156   3.036
 5146TIP3    H215380   7.945   7.093   3.017
 5147TIP3   OH215381   6.901   2.261   4.419
 5147TIP3    H115382   6.926   2.338   4.471
 5147TIP3    H215383   6.829   2.292   4.365
 5148TIP3   OH215384   5.603   6.275   2.173
 5148TIP3    H115385   5.582   6.182   2.181
 5148TIP3    H215386   5.517   6.318   2.167
 5149TIP3   OH215387   1.272   2.405   2.388
 5149TIP3    H115388   1.190   2.368   2.421
 5149TIP3    H215389   1.284   2.365   2.302
 5150TIP3   OH215390   3.113   0.809   6.771
 5150TIP3    H115391   3.030   0.817   6.818
 5150TIP3    H215392   3.103   0.728   6.720
 5151TIP3   OH215393   3.213   6.363   6.025
 5151TIP3    H115394   3.250   6.424   6.089
 5151TIP3    H215395   3.286   6.307   6.000
 5152TIP3   OH215396   1.735   6.520   4.379
 5152TIP3    H115397   1.691   6.532   4.463
 5152TIP3    H215398   1.734   6.606   4.338
 5153TIP3   OH215399   4.591   4.389   3.340
 5153TIP3    H115400   4.642   4.309   3.347
 5153TIP3    H215401   4.513   4.364   3.290
 5154TIP3   OH215402   1.058   6.338   4.484
 5154TIP3    H115403   1.062   6.369   4.574
 5154TIP3    H215404   1.118   6.264   4.481
 5155TIP3   OH215405   1.973   1.481   4.406
 5155TIP3    H115406   1.899   1.535   4.435
 5155TIP3    H215407   2.021   1.461   4.486
 5156TIP3   OH215408   7.003   1.080   1.501
 5156TIP3    H115409   7.055   1.160   1.509
 5156TIP3    H215410   6.912   1.112   1.499
 5157TIP3   OH215411   3.436   4.191   6.625
 5157TIP3    H115412   3.382   4.166   6.700
 5157TIP3    H215413   3.397   4.272   6.593
 5158TIP3   OH215414   0.752   4.827   2.921
 5158TIP3    H115415   0.847   4.822   2.908
 5158TIP3    H215416   0.726   4.909   2.878
 5159TIP3   OH215417   2.970   0.927   5.514
 5159TIP3    H115418   2.930   1.003   5.558
 5159TIP3    H215419   3.060   0.927   5.544
 5160TIP3   OH215420   3.643   2.276   1.931
 5160TIP3    H115421   3.615   2.203   1.875
 5160TIP3    H215422   3.575   2.342   1.919
 5161TIP3   OH215423   7.614   0.927   2.385
 5161TIP3    H115424   7.616   0.888   2.298
 5161TIP3    H215425   7.670   1.005   2.377
 5162TIP3   OH215426   0.959   7.859   4.850
 5162TIP3    H115427   0.917   7.867   4.764
 5162TIP3    H215428   1.050   7.885   4.835
 5163TIP3   OH215429   2.539   4.969   3.185
 5163TIP3    H115430   2.498   5.050   3.155
 5163TIP3    H215431   2.563   4.922   3.105
 5164TIP3   OH215432   8.327   4.029   3.693
 5164TIP3    H115433   8.233   4.044   3.684
 5164TIP3    H215434   8.335   3.936   3.716
 5165TIP3   OH215435   7.538   0.022   3.889
 5165TIP3    H115436   7.627  -0.005   3.865
 5165TIP3    H215437   7.548   0.064   3.975
 5166TIP3   OH215438   7.334   7.573   1.920
 5166TIP3    H115439   7.344   7.650   1.864
 5166TIP3    H215440   7.424   7.548   1.943
 5167TIP3   OH215441   1.963   3.779   0.836
 5167TIP3    H115442   1.923   3.800   0.920
 5167TIP3    H215443   1.976   3.684   0.838
 5168TIP3   OH215444   5.706   3.772   4.830
 5168TIP3    H115445   5.780   3.712   4.826
 5168TIP3    H215446   5.681   3.784   4.738
 5169TIP3   OH215447   1.950   7.744   0.656
 5169TIP3    H115448   1.866   7.718   0.694
 5169TIP3    H215449   1.943   7.839   0.646
 5170TIP3   OH215450   7.803   3.860   5.285
 5170TIP3    H115451   7.807   3.765   5.293
 5170TIP3    H215452   7.874   3.892   5.341
 5171TIP3   OH215453   6.592   1.833   2.666
 5171TIP3    H115454   6.538   1.754   2.657
 5171TIP3    H215455   6.676   1.809   2.626
 5172TIP3   OH215456   7.438   5.281   5.870
 5172TIP3    H115457   7.387   5.359   5.891
 5172TIP3    H215458   7.374   5.210   5.873
 5173TIP3   OH215459   0.649   6.701   1.546
 5173TIP3    H115460   0.636   6.609   1.567
 5173TIP3    H215461   0.676   6.701   1.454
 5174TIP3   OH215462   3.491   4.953   3.727
 5174TIP3    H115463   3.396   4.945   3.719
 5174TIP3    H215464   3.521   4.981   3.640
 5175TIP3   OH215465   0.481   0.422   5.729
 5175TIP3    H115466   0.442   0.344   5.769
 5175TIP3    H215467   0.482   0.487   5.800
 5176TIP3   OH215468   7.671   3.808   4.251
 5176TIP3    H115469   7.689   3.741   4.185
 5176TIP3    H215470   7.591   3.851   4.222
 5177TIP3   OH215471   2.721   6.242   0.512
 5177TIP3    H115472   2.631   6.214   0.494
 5177TIP3    H215473   2.713   6.295   0.592
 5178TIP3   OH215474   1.642   1.466   1.949
 5178TIP3    H115475   1.655   1.372   1.962
 5178TIP3    H215476   1.573   1.471   1.883
 5179TIP3   OH215477   6.044   2.076   0.221
 5179TIP3    H115478   6.102   2.147   0.195
 5179TIP3    H215479   5.985   2.114   0.286
 5180TIP3   OH215480   8.258   4.494   4.464
 5180TIP3    H115481   8.267   4.405   4.498
 5180TIP3    H215482   8.212   4.483   4.381
 5181TIP3   OH215483   6.698   7.510   6.183
 5181TIP3    H115484   6.667   7.549   6.102
 5181TIP3    H215485   6.622   7.465   6.219
 5182TIP3   OH215486   1.905   1.460   0.761
 5182TIP3    H115487   1.876   1.407   0.835
 5182TIP3    H215488   1.893   1.404   0.685
 5183TIP3   OH215489   1.762   3.130   5.156
 5183TIP3    H115490   1.750   3.041   5.123
 5183TIP3    H215491   1.827   3.122   5.226
 5184TIP3   OH215492   5.316   0.737   3.160
 5184TIP3    H115493   5.286   0.647   3.149
 5184TIP3    H215494   5.388   0.731   3.222
 5185TIP3   OH215495   5.725   4.809   2.577
 5185TIP3    H115496   5.792   4.828   2.642
 5185TIP3    H215497   5.734   4.715   2.559
 5186TIP3   OH215498   1.064   7.264   2.020
 5186TIP3    H115499   1.081   7.287   2.111
 5186TIP3    H215500   0.989   7.203   2.024
 5187TIP3   OH215501   4.512   6.598   2.514
 5187TIP3    H115502   4.561   6.590   2.432
 5187TIP3    H215503   4.579   6.590   2.582
 5188TIP3   OH215504   4.965   0.728   5.795
 5188TIP3    H115505   4.959   0.649   5.850
 5188TIP3    H215506   4.977   0.694   5.707
 5189TIP3   OH215507   4.734   5.388   2.269
 5189TIP3    H115508   4.776   5.467   2.303
 5189TIP3    H215509   4.698   5.413   2.184
 5190TIP3   OH215510   1.044   6.432   6.791
 5190TIP3    H115511   1.136   6.435   6.819
 5190TIP3    H215512   1.048   6.401   6.701
 5191TIP3   OH215513   1.736   0.570   5.788
 5191TIP3    H115514   1.730   0.511   5.862
 5191TIP3    H215515   1.779   0.648   5.823
 5192TIP3   OH215516   5.087   5.322   6.089
 5192TIP3    H115517   5.093   5.387   6.019
 5192TIP3    H215518   5.138   5.361   6.161
 5193TIP3   OH215519   8.211   6.835   5.099
 5193TIP3    H115520   8.225   6.923   5.064
 5193TIP3    H215521   8.220   6.845   5.193
 5194TIP3   OH215522   6.633   7.659   0.574
 5194TIP3    H115523   6.664   7.623   0.491
 5194TIP3    H215524   6.680   7.609   0.641
 5195TIP3   OH215525   0.839   5.433   0.369
 5195TIP3    H115526   0.898   5.471   0.305
 5195TIP3    H215527   0.786   5.506   0.401
 5196TIP3   OH215528   1.325   1.419   1.911
 5196TIP3    H115529   1.340   1.415   2.005
 5196TIP3    H215530   1.340   1.511   1.887
 5197TIP3   OH215531   5.187   7.556   6.604
 5197TIP3    H115532   5.273   7.551   6.647
 5197TIP3    H215533   5.190   7.488   6.538
 5198TIP3   OH215534   4.371   5.571   2.531
 5198TIP3    H115535   4.437   5.504   2.513
 5198TIP3    H215536   4.420   5.653   2.532
 5199TIP3   OH215537   7.349   7.487   0.351
 5199TIP3    H115538   7.362   7.541   0.273
 5199TIP3    H215539   7.378   7.399   0.324
 5200TIP3   OH215540   3.392   4.107   2.325
 5200TIP3    H115541   3.480   4.141   2.315
 5200TIP3    H215542   3.344   4.176   2.372
 5201TIP3   OH215543   7.076   2.686   5.907
 5201TIP3    H115544   7.079   2.717   5.997
 5201TIP3    H215545   7.136   2.611   5.906
 5202TIP3   OH215546   5.709   1.523   5.662
 5202TIP3    H115547   5.698   1.605   5.710
 5202TIP3    H215548   5.644   1.464   5.701
 5203TIP3   OH215549   3.881   6.100   5.282
 5203TIP3    H115550   3.935   6.025   5.256
 5203TIP3    H215551   3.902   6.114   5.374
 5204TIP3   OH215552   1.002   3.767   1.796
 5204TIP3    H115553   1.026   3.832   1.862
 5204TIP3    H215554   1.074   3.704   1.798
 5205TIP3   OH215555   6.153   2.844   0.204
 5205TIP3    H115556   6.199   2.760   0.207
 5205TIP3    H215557   6.210   2.901   0.153
 5206TIP3   OH215558   1.152   4.491   6.574
 5206TIP3    H115559   1.071   4.442   6.586
 5206TIP3    H215560   1.124   4.575   6.536
 5207TIP3   OH215561   3.572   4.629   5.632
 5207TIP3    H115562   3.560   4.567   5.560
 5207TIP3    H215563   3.483   4.655   5.656
 5208TIP3   OH215564   7.421   4.411   3.347
 5208TIP3    H115565   7.442   4.408   3.440
 5208TIP3    H215566   7.422   4.505   3.325
 5209TIP3   OH215567   0.075   5.182   6.451
 5209TIP3    H115568   0.087   5.191   6.546
 5209TIP3    H215569   0.131   5.108   6.427
 5210TIP3   OH215570   1.930   1.182   2.857
 5210TIP3    H115571   1.957   1.273   2.853
 5210TIP3    H215572   2.010   1.134   2.879
 5211TIP3   OH215573   7.828   4.994   5.356
 5211TIP3    H115574   7.905   5.039   5.392
 5211TIP3    H215575   7.827   4.909   5.400
 5212TIP3   OH215576   2.455   7.884   4.327
 5212TIP3    H115577   2.419   7.802   4.362
 5212TIP3    H215578   2.549   7.876   4.341
 5213TIP3   OH215579   5.107   7.313   5.287
 5213TIP3    H115580   5.109   7.267   5.370
 5213TIP3    H215581   5.032   7.277   5.240
 5214TIP3   OH215582   4.642   7.838   4.671
 5214TIP3    H115583   4.714   7.793   4.627
 5214TIP3    H215584   4.680   7.920   4.701
 5215TIP3   OH215585   7.727   3.825   6.328
 5215TIP3    H115586   7.654   3.772   6.360
 5215TIP3    H215587   7.791   3.823   6.399
 5216TIP3   OH215588   5.677   0.709   3.056
 5216TIP3    H115589   5.633   0.694   3.139
 5216TIP3    H215590   5.704   0.801   3.059
 5217TIP3   OH215591   5.670   6.031   5.650
 5217TIP3    H115592   5.608   6.024   5.722
 5217TIP3    H215593   5.633   5.976   5.581
 5218TIP3   OH215594   5.184   4.117   3.501
 5218TIP3    H115595   5.221   4.081   3.582
 5218TIP3    H215596   5.182   4.212   3.516
 5219TIP3   OH215597   3.818   2.973   4.071
 5219TIP3    H115598   3.725   2.985   4.051
 5219TIP3    H215599   3.863   3.005   3.993
 5220TIP3   OH215600   5.087   6.654   5.021
 5220TIP3    H115601   5.034   6.634   4.944
 5220TIP3    H215602   5.047   6.731   5.059
 5221TIP3   OH215603   4.200   1.175   6.030
 5221TIP3    H115604   4.170   1.199   6.117
 5221TIP3    H215605   4.194   1.079   6.028
 5222TIP3   OH215606   3.677   7.429   1.539
 5222TIP3    H115607   3.753   7.475   1.573
 5222TIP3    H215608   3.604   7.490   1.551
 5223TIP3   OH215609   7.425   1.958   3.083
 5223TIP3    H115610   7.413   1.865   3.102
 5223TIP3    H215611   7.520   1.969   3.076
 5224TIP3   OH215612   3.022   5.543   0.157
 5224TIP3    H115613   2.951   5.606   0.140
 5224TIP3    H215614   2.982   5.476   0.213
 5225TIP3   OH215615   6.567   6.195   4.689
 5225TIP3    H115616   6.533   6.116   4.730
 5225TIP3    H215617   6.626   6.233   4.755
 5226TIP3   OH215618   5.729   1.689   1.302
 5226TIP3    H115619   5.767   1.777   1.300
 5226TIP3    H215620   5.671   1.689   1.378
 5227TIP3   OH215621   4.737   7.157   2.818
 5227TIP3    H115622   4.667   7.222   2.832
 5227TIP3    H215623   4.751   7.158   2.723
 5228TIP3   OH215624   3.945   4.555   6.266
 5228TIP3    H115625   3.891   4.480   6.289
 5228TIP3    H215626   4.017   4.517   6.215
 5229TIP3   OH215627   5.503   3.720   4.543
 5229TIP3    H115628   5.537   3.654   4.484
 5229TIP3    H215629   5.427   3.679   4.584
 5230TIP3   OH215630   6.673   2.040   3.407
 5230TIP3    H115631   6.682   2.094   3.486
 5230TIP3    H215632   6.580   2.017   3.405
 5231TIP3   OH215633   7.758   7.040   0.341
 5231TIP3    H115634   7.835   6.987   0.319
 5231TIP3    H215635   7.694   6.978   0.376
 5232TIP3   OH215636   3.823   5.279   1.286
 5232TIP3    H115637   3.744   5.228   1.301
 5232TIP3    H215638   3.848   5.260   1.196
 5233TIP3   OH215639   5.324   2.426   3.737
 5233TIP3    H115640   5.262   2.467   3.796
 5233TIP3    H215641   5.410   2.446   3.774
 5234TIP3   OH215642   2.776   3.781   1.885
 5234TIP3    H115643   2.775   3.868   1.844
 5234TIP3    H215644   2.695   3.740   1.856
 5235TIP3   OH215645   3.444   2.029   6.551
 5235TIP3    H115646   3.473   2.082   6.626
 5235TIP3    H215647   3.369   1.980   6.584
 5236TIP3   OH215648   5.762   0.009   2.050
 5236TIP3    H115649   5.784   0.082   2.107
 5236TIP3    H215650   5.829   0.010   1.982
 5237TIP3   OH215651   5.675   0.808   1.267
 5237TIP3    H115652   5.715   0.788   1.352
 5237TIP3    H215653   5.746   0.800   1.204
 5238TIP3   OH215654   1.283   1.990   0.656
 5238TIP3    H115655   1.326   2.018   0.737
 5238TIP3    H215656   1.317   2.051   0.590
 5239TIP3   OH215657   8.078   3.196   1.775
 5239TIP3    H115658   8.151   3.139   1.798
 5239TIP3    H215659   8.040   3.222   1.859
 5240TIP3   OH215660   2.534   4.599   4.812
 5240TIP3    H115661   2.444   4.567   4.807
 5240TIP3    H215662   2.585   4.524   4.841
 5241TIP3   OH215663   2.000   7.787   2.935
 5241TIP3    H115664   1.907   7.795   2.953
 5241TIP3    H215665   2.033   7.729   3.004
 5242TIP3   OH215666   3.587   2.060   4.045
 5242TIP3    H115667   3.637   2.111   3.982
 5242TIP3    H215668   3.643   1.986   4.066
 5243TIP3   OH215669   3.776   3.332   1.720
 5243TIP3    H115670   3.815   3.384   1.790
 5243TIP3    H215671   3.722   3.395   1.671
 5244TIP3   OH215672   1.991   0.639   4.038
 5244TIP3    H115673   2.073   0.643   4.086
 5244TIP3    H215674   1.946   0.562   4.072
 5245TIP3   OH215675   5.646   1.279   6.603
 5245TIP3    H115676   5.668   1.334   6.678
 5245TIP3    H215677   5.568   1.319   6.566
 5246TIP3   OH215678   4.780   1.615   4.049
 5246TIP3    H115679   4.720   1.611   3.975
 5246TIP3    H215680   4.728   1.586   4.124
 5247TIP3   OH215681   3.270   6.806   2.821
 5247TIP3    H115682   3.245   6.898   2.819
 5247TIP3    H215683   3.258   6.776   2.730
 5248TIP3   OH215684   1.824   6.681   3.833
 5248TIP3    H115685   1.907   6.726   3.815
 5248TIP3    H215686   1.790   6.658   3.747
 5249TIP3   OH215687   6.470   2.262   1.121
 5249TIP3    H115688   6.487   2.177   1.161
 5249TIP3    H215689   6.451   2.320   1.195
 5250TIP3   OH215690   6.236   0.635   2.879
 5250TIP3    H115691   6.189   0.666   2.802
 5250TIP3    H215692   6.182   0.564   2.914
 5251TIP3   OH215693   7.346   1.449   3.467
 5251TIP3    H115694   7.262   1.495   3.469
 5251TIP3    H215695   7.387   1.476   3.385
 5252TIP3   OH215696   7.502   1.116   1.352
 5252TIP3    H115697   7.515   1.146   1.442
 5252TIP3    H215698   7.479   1.195   1.303
 5253TIP3   OH215699   2.764   2.488   5.183
 5253TIP3    H115700   2.697   2.476   5.250
 5253TIP3    H215701   2.727   2.554   5.124
 5254TIP3   OH215702   5.856   3.034   6.454
 5254TIP3    H115703   5.828   3.015   6.544
 5254TIP3    H215704   5.774   3.056   6.409
 5255TIP3   OH215705   7.161   4.601   5.448
 5255TIP3    H115706   7.170   4.622   5.355
 5255TIP3    H215707   7.251   4.600   5.481
 5256TIP3   OH215708   7.386   7.659   5.827
 5256TIP3    H115709   7.367   7.747   5.793
 5256TIP3    H215710   7.314   7.606   5.794
 5257TIP3   OH215711   0.443   0.810   1.931
 5257TIP3    H115712   0.477   0.807   2.021
 5257TIP3    H215713   0.448   0.720   1.900
 5258TIP3   OH215714   3.746   7.262   5.811
 5258TIP3    H115715   3.713   7.348   5.837
 5258TIP3    H215716   3.702   7.244   5.728
 5259TIP3   OH215717   6.276   3.119   0.082
 5259TIP3    H115718   6.372   3.122   0.074
 5259TIP3    H215719   6.246   3.098  -0.006
 5260TIP3   OH215720   3.125   5.355   5.842
 5260TIP3    H115721   3.085   5.401   5.916
 5260TIP3    H215722   3.124   5.419   5.770
 5261TIP3   OH215723   1.212   5.669   6.771
 5261TIP3    H115724   1.205   5.608   6.844
 5261TIP3    H215725   1.254   5.746   6.808
 5262TIP3   OH215726   4.972   4.639   5.798
 5262TIP3    H115727   4.909   4.704   5.831
 5262TIP3    H215728   5.057   4.668   5.832
 5263TIP3   OH215729   4.003   2.241   0.670
 5263TIP3    H115730   3.986   2.280   0.756
 5263TIP3    H215731   4.095   2.261   0.652
 5264TIP3   OH215732   5.601   6.971   2.918
 5264TIP3    H115733   5.668   7.036   2.937
 5264TIP3    H215734   5.648   6.888   2.913
 5265TIP3   OH215735   6.309   6.757   4.019
 5265TIP3    H115736   6.265   6.829   3.974
 5265TIP3    H215737   6.335   6.794   4.104
 5266TIP3   OH215738   4.594   1.453   1.116
 5266TIP3    H115739   4.565   1.391   1.182
 5266TIP3    H215740   4.556   1.537   1.143
 5267TIP3   OH215741   7.338   0.770   6.120
 5267TIP3    H115742   7.250   0.792   6.149
 5267TIP3    H215743   7.391   0.769   6.200
 5268TIP3   OH215744   8.222   2.576   1.436
 5268TIP3    H115745   8.251   2.552   1.347
 5268TIP3    H215746   8.290   2.539   1.493
 5269TIP3   OH215747   5.505   7.534   5.386
 5269TIP3    H115748   5.511   7.489   5.301
 5269TIP3    H215749   5.595   7.537   5.417
 5270TIP3   OH215750   6.625   5.319   6.003
 5270TIP3    H115751   6.556   5.373   5.965
 5270TIP3    H215752   6.670   5.282   5.927
 5271TIP3   OH215753   1.464   6.256   2.141
 5271TIP3    H115754   1.529   6.306   2.190
 5271TIP3    H215755   1.398   6.233   2.206
 5272TIP3   OH215756   7.702   5.641   1.159
 5272TIP3    H115757   7.641   5.703   1.120
 5272TIP3    H215758   7.670   5.629   1.248
 5273TIP3   OH215759   7.895   3.424   4.592
 5273TIP3    H115760   7.945   3.428   4.511
 5273TIP3    H215761   7.960   3.410   4.661
 5274TIP3   OH215762   2.326   4.835   2.364
 5274TIP3    H115763   2.273   4.819   2.286
 5274TIP3    H215764   2.344   4.930   2.361
 5275TIP3   OH215765   0.086   7.501   1.351
 5275TIP3    H115766   0.171   7.540   1.374
 5275TIP3    H215767   0.086   7.499   1.256
 5276TIP3   OH215768   0.820   3.822   4.650
 5276TIP3    H115769   0.824   3.880   4.726
 5276TIP3    H215770   0.868   3.744   4.678
 5277TIP3   OH215771   4.939   2.359   4.907
 5277TIP3    H115772   4.854   2.340   4.947
 5277TIP3    H215773   4.962   2.278   4.860
 5278TIP3   OH215774   6.498   3.614   3.395
 5278TIP3    H115775   6.573   3.646   3.446
 5278TIP3    H215776   6.535   3.550   3.335
 5279TIP3   OH215777   0.024   6.582   6.475
 5279TIP3    H115778  -0.014   6.669   6.485
 5279TIP3    H215779   0.058   6.560   6.562
 5280TIP3   OH215780   4.270   0.270   6.308
 5280TIP3    H115781   4.277   0.294   6.400
 5280TIP3    H215782   4.236   0.348   6.264
 5281TIP3   OH215783   7.562   6.587   6.023
 5281TIP3    H115784   7.607   6.539   5.954
 5281TIP3    H215785   7.568   6.531   6.100
 5282TIP3   OH215786   4.138   5.467   3.788
 5282TIP3    H115787   4.111   5.477   3.879
 5282TIP3    H215788   4.088   5.532   3.739
 5283TIP3   OH215789   5.606   3.607   0.853
 5283TIP3    H115790   5.618   3.592   0.759
 5283TIP3    H215791   5.536   3.672   0.859
 5284TIP3   OH215792   1.682   7.460   2.210
 5284TIP3    H115793   1.595   7.439   2.245
 5284TIP3    H215794   1.681   7.426   2.120
 5285TIP3   OH215795   6.252   0.499   3.280
 5285TIP3    H115796   6.192   0.566   3.310
 5285TIP3    H215797   6.338   0.541   3.279
 5286TIP3   OH215798   1.152   1.987   3.578
 5286TIP3    H115799   1.228   1.936   3.550
 5286TIP3    H215800   1.142   2.054   3.511
 5287TIP3   OH215801   6.128   3.769   3.925
 5287TIP3    H115802   6.157   3.838   3.986
 5287TIP3    H215803   6.096   3.699   3.982
 5288TIP3   OH215804   5.981   2.365   0.960
 5288TIP3    H115805   5.955   2.392   0.872
 5288TIP3    H215806   5.991   2.446   1.009
 5289TIP3   OH215807   6.156   2.767   5.748
 5289TIP3    H115808   6.140   2.708   5.674
 5289TIP3    H215809   6.103   2.732   5.819
 5290TIP3   OH215810   3.922   0.596   5.714
 5290TIP3    H115811   3.970   0.553   5.643
 5290TIP3    H215812   3.893   0.679   5.677
 5291TIP3   OH215813   0.060   3.192   5.212
 5291TIP3    H115814   0.086   3.100   5.210
 5291TIP3    H215815  -0.018   3.194   5.267
 5292TIP3   OH215816   7.454   6.381   1.541
 5292TIP3    H115817   7.444   6.456   1.600
 5292TIP3    H215818   7.376   6.384   1.485
 5293TIP3   OH215819   6.579   2.830   1.619
 5293TIP3    H115820   6.656   2.846   1.673
 5293TIP3    H215821   6.582   2.898   1.552
 5294TIP3   OH215822   7.840   7.604   2.746
 5294TIP3    H115823   7.916   7.661   2.734
 5294TIP3    H215824   7.875   7.527   2.790
 5295TIP3   OH215825   6.379   7.750   6.398
 5295TIP3    H115826   6.395   7.655   6.406
 5295TIP3    H215827   6.408   7.786   6.481
 5296TIP3   OH215828   1.523   3.392   1.777
 5296TIP3    H115829   1.566   3.311   1.806
 5296TIP3    H215830   1.467   3.417   1.851
 5297TIP3   OH215831   5.996   0.636   5.971
 5297TIP3    H115832   5.993   0.553   6.018
 5297TIP3    H215833   6.025   0.700   6.036
 5298TIP3   OH215834   4.287   1.066   2.878
 5298TIP3    H115835   4.216   1.130   2.876
 5298TIP3    H215836   4.330   1.074   2.793
 5299TIP3   OH215837   3.603   3.796   5.396
 5299TIP3    H115838   3.564   3.709   5.403
 5299TIP3    H215839   3.689   3.787   5.436
 5300TIP3   OH215840   4.015   7.332   1.954
 5300TIP3    H115841   3.997   7.271   2.026
 5300TIP3    H215842   4.109   7.323   1.937
 5301TIP3   OH215843   1.970   5.989   4.958
 5301TIP3    H115844   1.928   5.942   4.885
 5301TIP3    H215845   2.006   6.069   4.918
 5302TIP3   OH215846   4.772   2.407   2.953
 5302TIP3    H115847   4.801   2.375   3.039
 5302TIP3    H215848   4.678   2.390   2.952
 5303TIP3   OH215849   0.360   5.859   4.703
 5303TIP3    H115850   0.299   5.879   4.632
 5303TIP3    H215851   0.435   5.915   4.686
 5304TIP3   OH215852   2.143   5.821   6.184
 5304TIP3    H115853   2.214   5.756   6.194
 5304TIP3    H215854   2.129   5.826   6.089
 5305TIP3   OH215855   6.640   6.345   4.461
 5305TIP3    H115856   6.620   6.432   4.495
 5305TIP3    H215857   6.604   6.284   4.525
 5306TIP3   OH215858   2.827   5.280   4.922
 5306TIP3    H115859   2.858   5.238   5.002
 5306TIP3    H215860   2.804   5.369   4.949
 5307TIP3   OH215861   6.535   1.136   1.265
 5307TIP3    H115862   6.499   1.164   1.349
 5307TIP3    H215863   6.472   1.071   1.233
 5308TIP3   OH215864   5.342   7.180   1.489
 5308TIP3    H115865   5.376   7.101   1.447
 5308TIP3    H215866   5.356   7.164   1.583
 5309TIP3   OH215867   3.770   1.342   1.734
 5309TIP3    H115868   3.688   1.321   1.690
 5309TIP3    H215869   3.837   1.330   1.666
 5310TIP3   OH215870   2.364   5.469   0.279
 5310TIP3    H115871   2.310   5.547   0.266
 5310TIP3    H215872   2.322   5.422   0.351
 5311TIP3   OH215873   0.868   6.046   5.174
 5311TIP3    H115874   0.776   6.022   5.182
 5311TIP3    H215875   0.878   6.076   5.084
 5312TIP3   OH215876   5.565   5.397   1.796
 5312TIP3    H115877   5.622   5.473   1.799
 5312TIP3    H215878   5.624   5.322   1.792
 5313TIP3   OH215879   1.210   3.711   6.085
 5313TIP3    H115880   1.297   3.672   6.090
 5313TIP3    H215881   1.226   3.805   6.081
 5314TIP3   OH215882   3.109   4.729   5.563
 5314TIP3    H115883   3.202   4.734   5.586
 5314TIP3    H215884   3.066   4.788   5.624
 5315TIP3   OH215885   7.083   1.657   0.541
 5315TIP3    H115886   7.058   1.603   0.466
 5315TIP3    H215887   7.012   1.721   0.549
 5316TIP3   OH215888   2.486   2.025   3.614
 5316TIP3    H115889   2.576   2.057   3.617
 5316TIP3    H215890   2.432   2.104   3.608
 5317TIP3   OH215891   5.169   5.003   2.393
 5317TIP3    H115892   5.258   5.025   2.364
 5317TIP3    H215893   5.116   5.011   2.314
 5318TIP3   OH215894   7.049   7.852   5.993
 5318TIP3    H115895   7.063   7.857   5.899
 5318TIP3    H215896   7.107   7.780   6.022
 5319TIP3   OH215897   0.645   7.050   0.928
 5319TIP3    H115898   0.666   6.957   0.916
 5319TIP3    H215899   0.551   7.055   0.908
 5320TIP3   OH215900   4.762   1.791   0.526
 5320TIP3    H115901   4.854   1.815   0.517
 5320TIP3    H215902   4.716   1.846   0.463
 5321TIP3   OH215903   6.218   0.394   5.857
 5321TIP3    H115904   6.189   0.451   5.786
 5321TIP3    H215905   6.162   0.316   5.849
 5322TIP3   OH215906   6.968   1.451   3.272
 5322TIP3    H115907   6.900   1.516   3.258
 5322TIP3    H215908   7.043   1.500   3.306
 5323TIP3   OH215909   8.081   5.879   1.428
 5323TIP3    H115910   8.131   5.947   1.381
 5323TIP3    H215911   8.014   5.928   1.476
 5324TIP3   OH215912   5.982   6.086   6.305
 5324TIP3    H115913   6.058   6.117   6.354
 5324TIP3    H215914   5.978   6.141   6.228
 5325TIP3   OH215915   3.456   0.593   3.035
 5325TIP3    H115916   3.384   0.652   3.060
 5325TIP3    H215917   3.534   0.633   3.074
 5326TIP3   OH215918   6.229   3.930   0.327
 5326TIP3    H115919   6.170   3.894   0.394
 5326TIP3    H215920   6.183   3.916   0.244
 5327TIP3   OH215921   5.633   7.806   0.270
 5327TIP3    H115922   5.703   7.751   0.236
 5327TIP3    H215923   5.607   7.860   0.196
 5328TIP3   OH215924   1.087   1.425   5.200
 5328TIP3    H115925   0.994   1.403   5.197
 5328TIP3    H215926   1.130   1.353   5.154
 5329TIP3   OH215927   2.203   2.100   1.235
 5329TIP3    H115928   2.215   2.159   1.309
 5329TIP3    H215929   2.129   2.137   1.186
 5330TIP3   OH215930   7.423   2.965   0.449
 5330TIP3    H115931   7.419   3.060   0.452
 5330TIP3    H215932   7.372   2.936   0.524
 5331TIP3   OH215933   7.646   3.927   0.598
 5331TIP3    H115934   7.576   3.862   0.604
 5331TIP3    H215935   7.609   3.999   0.548
 5332TIP3   OH215936   1.350   5.877   4.925
 5332TIP3    H115937   1.257   5.882   4.903
 5332TIP3    H215938   1.395   5.885   4.841
 5333TIP3   OH215939   5.113   3.553   0.259
 5333TIP3    H115940   5.149   3.559   0.348
 5333TIP3    H215941   5.020   3.536   0.272
 5334TIP3   OH215942   7.352   2.328   0.839
 5334TIP3    H115943   7.389   2.362   0.758
 5334TIP3    H215944   7.336   2.235   0.821
 5335TIP3   OH215945   1.033   1.205   2.176
 5335TIP3    H115946   1.074   1.239   2.256
 5335TIP3    H215947   1.047   1.111   2.180
 5336TIP3   OH215948   3.856   7.381   4.591
 5336TIP3    H115949   3.809   7.415   4.515
 5336TIP3    H215950   3.795   7.390   4.664
 5337TIP3   OH215951   6.202   4.973   3.802
 5337TIP3    H115952   6.274   4.981   3.865
 5337TIP3    H215953   6.185   5.063   3.775
 5338TIP3   OH215954   1.400   2.088   3.097
 5338TIP3    H115955   1.433   2.171   3.131
 5338TIP3    H215956   1.320   2.072   3.148
 5339TIP3   OH215957   1.678   0.995   4.135
 5339TIP3    H115958   1.670   0.929   4.066
 5339TIP3    H215959   1.710   0.947   4.211
 5340TIP3   OH215960   5.976   3.659   3.701
 5340TIP3    H115961   6.017   3.718   3.764
 5340TIP3    H215962   5.900   3.708   3.668
 5341TIP3   OH215963   1.583   6.926   0.346
 5341TIP3    H115964   1.506   6.871   0.332
 5341TIP3    H215965   1.623   6.890   0.426
 5342TIP3   OH215966   6.256   5.383   2.931
 5342TIP3    H115967   6.307   5.429   2.998
 5342TIP3    H215968   6.317   5.370   2.859
 5343TIP3   OH215969   4.877   0.408   2.292
 5343TIP3    H115970   4.839   0.495   2.304
 5343TIP3    H215971   4.828   0.352   2.353
 5344TIP3   OH215972   8.318   7.062   3.477
 5344TIP3    H115973   8.355   7.150   3.480
 5344TIP3    H215974   8.229   7.075   3.445
 5345TIP3   OH215975   0.966   0.123   3.239
 5345TIP3    H115976   0.905   0.195   3.224
 5345TIP3    H215977   0.967   0.074   3.157
 5346TIP3   OH215978   6.072   7.089   1.766
 5346TIP3    H115979   6.160   7.107   1.735
 5346TIP3    H215980   6.016   7.104   1.689
 5347TIP3   OH215981   6.812   3.203   5.220
 5347TIP3    H115982   6.844   3.142   5.287
 5347TIP3    H215983   6.801   3.286   5.267
 5348TIP3   OH215984   3.667   4.774   2.406
 5348TIP3    H115985   3.692   4.820   2.326
 5348TIP3    H215986   3.588   4.820   2.436
 5349TIP3   OH215987   6.261   4.577   0.612
 5349TIP3    H115988   6.280   4.670   0.601
 5349TIP3    H215989   6.311   4.534   0.542
 5350TIP3   OH215990   2.993   2.525   5.349
 5350TIP3    H115991   2.905   2.510   5.314
 5350TIP3    H215992   3.049   2.463   5.302
 5351TIP3   OH215993   5.504   3.443   5.049
 5351TIP3    H115994   5.425   3.476   5.008
 5351TIP3    H215995   5.548   3.521   5.084
 5352TIP3   OH215996   7.721   5.616   2.285
 5352TIP3    H115997   7.635   5.593   2.323
 5352TIP3    H215998   7.704   5.694   2.233
 5353TIP3   OH215999   1.099   2.144   4.022
 5353TIP3    H116000   1.051   2.211   3.972
 5353TIP3    H216001   1.183   2.184   4.041
 5354TIP3   OH216002   8.291   3.989   3.413
 5354TIP3    H116003   8.333   4.030   3.489
 5354TIP3    H216004   8.264   4.063   3.358
 5355TIP3   OH216005   2.427   3.599   4.832
 5355TIP3    H116006   2.462   3.514   4.806
 5355TIP3    H216007   2.498   3.642   4.879
 5356TIP3   OH216008   4.067   4.572   1.630
 5356TIP3    H116009   3.998   4.507   1.642
 5356TIP3    H216010   4.088   4.568   1.536
 5357TIP3   OH216011   0.314   0.079   5.440
 5357TIP3    H116012   0.251   0.126   5.495
 5357TIP3    H216013   0.363   0.024   5.501
 5358TIP3   OH216014   4.364   3.524   2.562
 5358TIP3    H116015   4.308   3.517   2.485
 5358TIP3    H216016   4.350   3.612   2.595
 5359TIP3   OH216017   0.305   4.337   0.397
 5359TIP3    H116018   0.332   4.414   0.346
 5359TIP3    H216019   0.342   4.263   0.348
 5360TIP3   OH216020   5.016   3.933   1.484
 5360TIP3    H116021   4.960   3.888   1.421
 5360TIP3    H216022   5.065   3.864   1.527
 5361TIP3   OH216023   3.120   2.177   2.515
 5361TIP3    H116024   3.067   2.154   2.592
 5361TIP3    H216025   3.137   2.093   2.472
 5362TIP3   OH216026   3.830   4.192   3.837
 5362TIP3    H116027   3.900   4.171   3.899
 5362TIP3    H216028   3.785   4.109   3.822
 5363TIP3   OH216029   8.231   7.225   4.507
 5363TIP3    H116030   8.258   7.265   4.424
 5363TIP3    H216031   8.286   7.148   4.516
 5364TIP3   OH216032   1.620   0.813   3.656
 5364TIP3    H116033   1.643   0.849   3.570
 5364TIP3    H216034   1.630   0.887   3.716
 5365TIP3   OH216035   4.229   4.406   6.240
 5365TIP3    H116036   4.322   4.412   6.220
 5365TIP3    H216037   4.221   4.328   6.296
 5366TIP3   OH216038   4.812   4.776   0.119
 5366TIP3    H116039   4.729   4.743   0.085
 5366TIP3    H216040   4.866   4.789   0.041
 5367TIP3   OH216041   6.369   5.984   3.950
 5367TIP3    H116042   6.377   5.897   3.912
 5367TIP3    H216043   6.359   5.969   4.044
 5368TIP3   OH216044   6.653   4.272   4.489
 5368TIP3    H116045   6.568   4.258   4.446
 5368TIP3    H216046   6.632   4.271   4.583
 5369TIP3   OH216047   1.365   6.705   5.131
 5369TIP3    H116048   1.385   6.722   5.223
 5369TIP3    H216049   1.327   6.617   5.131
 5370TIP3   OH216050   3.171   7.090   2.867
 5370TIP3    H116051   3.126   7.174   2.875
 5370TIP3    H216052   3.249   7.098   2.921
 5371TIP3   OH216053   7.615   3.791   0.289
 5371TIP3    H116054   7.532   3.816   0.329
 5371TIP3    H216055   7.679   3.849   0.329
 5372TIP3   OH216056   6.029   3.386   2.943
 5372TIP3    H116057   5.972   3.333   2.999
 5372TIP3    H216058   6.107   3.402   2.996
 5373TIP3   OH216059   0.881   2.862   2.324
 5373TIP3    H116060   0.801   2.824   2.359
 5373TIP3    H216061   0.949   2.797   2.342
 5374TIP3   OH216062   1.297   7.463   1.249
 5374TIP3    H116063   1.231   7.417   1.197
 5374TIP3    H216064   1.280   7.556   1.233
 5375TIP3   OH216065   4.299   1.526   1.653
 5375TIP3    H116066   4.288   1.546   1.560
 5375TIP3    H216067   4.217   1.555   1.694
 5376TIP3   OH216068   5.260   5.003   0.653
 5376TIP3    H116069   5.285   4.961   0.570
 5376TIP3    H216070   5.269   5.097   0.636
 5377TIP3   OH216071   3.822   4.111   0.205
 5377TIP3    H116072   3.829   4.072   0.118
 5377TIP3    H216073   3.888   4.180   0.206
 5378TIP3   OH216074   2.985   0.822   4.675
 5378TIP3    H116075   3.045   0.764   4.722
 5378TIP3    H216076   2.928   0.858   4.743
 5379TIP3   OH216077   4.068   1.182   4.346
 5379TIP3    H116078   4.081   1.141   4.431
 5379TIP3    H216079   3.981   1.221   4.350
 5380TIP3   OH216080   6.044   1.714   6.316
 5380TIP3    H116081   6.119   1.691   6.260
 5380TIP3    H216082   6.020   1.802   6.289
 5381TIP3   OH216083   1.307   2.282   1.164
 5381TIP3    H116084   1.226   2.322   1.132
 5381TIP3    H216085   1.363   2.274   1.087
 5382TIP3   OH216086   2.510   1.058   4.003
 5382TIP3    H116087   2.535   1.150   4.002
 5382TIP3    H216088   2.591   1.012   3.979
 5383TIP3   OH216089   6.178   4.038   5.189
 5383TIP3    H116090   6.093   4.075   5.212
 5383TIP3    H216091   6.184   4.049   5.094
 5384TIP3   OH216092   5.952   4.491   0.451
 5384TIP3    H116093   5.930   4.580   0.480
 5384TIP3    H216094   6.006   4.504   0.374
 5385TIP3   OH216095   1.295   5.939   3.026
 5385TIP3    H116096   1.323   5.907   2.939
 5385TIP3    H216097   1.220   5.995   3.008
 5386TIP3   OH216098   6.380   1.543   2.073
 5386TIP3    H116099   6.349   1.631   2.049
 5386TIP3    H216100   6.455   1.527   2.016
 5387TIP3   OH216101   0.648   5.115   0.755
 5387TIP3    H116102   0.712   5.093   0.822
 5387TIP3    H216103   0.564   5.117   0.802
 5388TIP3   OH216104   3.898   7.561   5.786
 5388TIP3    H116105   3.810   7.541   5.817
 5388TIP3    H216106   3.946   7.591   5.863
 5389TIP3   OH216107   0.743   2.217   5.480
 5389TIP3    H116108   0.778   2.129   5.494
 5389TIP3    H216109   0.737   2.255   5.567
 5390TIP3   OH216110   0.043   5.710   6.136
 5390TIP3    H116111  -0.017   5.784   6.123
 5390TIP3    H216112   0.007   5.664   6.212
 5391TIP3   OH216113   1.563   6.768   6.159
 5391TIP3    H116114   1.657   6.773   6.141
 5391TIP3    H216115   1.550   6.681   6.196
 5392TIP3   OH216116   6.295   5.630   4.555
 5392TIP3    H116117   6.297   5.715   4.599
 5392TIP3    H216118   6.206   5.598   4.569
 5393TIP3   OH216119   3.305   1.506   6.350
 5393TIP3    H116120   3.395   1.476   6.364
 5393TIP3    H216121   3.315   1.597   6.320
 5394TIP3   OH216122   4.487   1.682   3.491
 5394TIP3    H116123   4.515   1.603   3.445
 5394TIP3    H216124   4.435   1.649   3.565
 5395TIP3   OH216125   1.195   4.286   1.928
 5395TIP3    H116126   1.237   4.202   1.943
 5395TIP3    H216127   1.251   4.350   1.972
 5396TIP3   OH216128   3.580   4.060   0.331
 5396TIP3    H116129   3.568   3.967   0.310
 5396TIP3    H216130   3.663   4.084   0.289
 5397TIP3   OH216131   5.176   5.383   5.818
 5397TIP3    H116132   5.267   5.413   5.825
 5397TIP3    H216133   5.180   5.290   5.841
 5398TIP3   OH216134   4.494   0.718   5.582
 5398TIP3    H116135   4.524   0.711   5.491
 5398TIP3    H216136   4.399   0.708   5.575
 5399TIP3   OH216137   4.934   6.573   4.374
 5399TIP3    H116138   4.927   6.631   4.298
 5399TIP3    H216139   5.028   6.566   4.391
 5400TIP3   OH216140   3.929   4.271   1.370
 5400TIP3    H116141   4.019   4.240   1.360
 5400TIP3    H216142   3.928   4.315   1.455
 5401TIP3   OH216143   7.293   5.843   5.830
 5401TIP3    H116144   7.225   5.776   5.815
 5401TIP3    H216145   7.280   5.906   5.759
 5402TIP3   OH216146   0.951   5.336   1.268
 5402TIP3    H116147   0.948   5.274   1.341
 5402TIP3    H216148   0.922   5.419   1.306
 5403TIP3   OH216149   3.165   3.878   2.895
 5403TIP3    H116150   3.182   3.841   2.982
 5403TIP3    H216151   3.252   3.890   2.857
 5404TIP3   OH216152   5.106   2.656   3.079
 5404TIP3    H116153   5.142   2.697   3.000
 5404TIP3    H216154   5.176   2.597   3.108
 5405TIP3   OH216155   4.301   4.594   0.788
 5405TIP3    H116156   4.265   4.545   0.863
 5405TIP3    H216157   4.345   4.669   0.828
 5406TIP3   OH216158   5.185   7.643   4.610
 5406TIP3    H116159   5.107   7.591   4.627
 5406TIP3    H216160   5.220   7.663   4.697
 5407TIP3   OH216161   4.793   0.820   3.013
 5407TIP3    H116162   4.731   0.852   2.947
 5407TIP3    H216163   4.741   0.762   3.068
 5408TIP3   OH216164   3.669   0.001   0.947
 5408TIP3    H116165   3.600  -0.025   0.886
 5408TIP3    H216166   3.623   0.049   1.016
 5409TIP3   OH216167   0.926   4.263   6.596
 5409TIP3    H116168   1.002   4.221   6.638
 5409TIP3    H216169   0.858   4.195   6.597
 5410TIP3   OH216170   3.713   4.921   3.488
 5410TIP3    H116171   3.646   4.853   3.493
 5410TIP3    H216172   3.795   4.874   3.500
 5411TIP3   OH216173   3.148   2.423   4.626
 5411TIP3    H116174   3.199   2.490   4.580
 5411TIP3    H216175   3.199   2.343   4.617
 5412TIP3   OH216176   4.562   6.371   6.880
 5412TIP3    H116177   4.469   6.394   6.878
 5412TIP3    H216178   4.605   6.441   6.830
 5413TIP3   OH216179   4.744   2.047   0.362
 5413TIP3    H116180   4.820   2.093   0.327
 5413TIP3    H216181   4.709   2.105   0.430
 5414TIP3   OH216182   5.178   2.642   6.113
 5414TIP3    H116183   5.244   2.663   6.048
 5414TIP3    H216184   5.140   2.727   6.136
 5415TIP3   OH216185   1.651   3.438   4.036
 5415TIP3    H116186   1.556   3.438   4.021
 5415TIP3    H216187   1.670   3.526   4.069
 5416TIP3   OH216188   0.218   5.169   5.398
 5416TIP3    H116189   0.261   5.169   5.484
 5416TIP3    H216190   0.148   5.105   5.406
 5417TIP3   OH216191   2.268   0.291   4.986
 5417TIP3    H116192   2.260   0.223   5.053
 5417TIP3    H216193   2.312   0.248   4.913
 5418TIP3   OH216194   2.811   7.441   4.646
 5418TIP3    H116195   2.858   7.436   4.563
 5418TIP3    H216196   2.848   7.518   4.691
 5419TIP3   OH216197   0.124   0.513   3.032
 5419TIP3    H116198   0.156   0.504   2.942
 5419TIP3    H216199   0.038   0.553   3.023
 5420TIP3   OH216200   5.991   2.526   4.785
 5420TIP3    H116201   6.066   2.584   4.794
 5420TIP3    H216202   6.029   2.439   4.769
 5421TIP3   OH216203   0.735   5.612   6.324
 5421TIP3    H116204   0.681   5.539   6.354
 5421TIP3    H216205   0.693   5.690   6.360
 5422TIP3   OH216206   4.089   5.458   6.249
 5422TIP3    H116207   4.015   5.480   6.192
 5422TIP3    H216208   4.090   5.528   6.315
 5423TIP3   OH216209   3.230   4.384   6.615
 5423TIP3    H116210   3.162   4.345   6.561
 5423TIP3    H216211   3.232   4.476   6.588
 5424TIP3   OH216212   1.879   0.929   3.486
 5424TIP3    H116213   1.864   0.851   3.433
 5424TIP3    H216214   1.905   0.896   3.572
 5425TIP3   OH216215   1.743   5.379   3.553
 5425TIP3    H116216   1.666   5.431   3.578
 5425TIP3    H216217   1.707   5.296   3.521
 5426TIP3   OH216218   0.714   3.515   6.354
 5426TIP3    H116219   0.695   3.577   6.425
 5426TIP3    H216220   0.780   3.560   6.301
 5427TIP3   OH216221   7.436   7.505   6.210
 5427TIP3    H116222   7.430   7.426   6.264
 5427TIP3    H216223   7.495   7.563   6.258
 5428TIP3   OH216224   0.985   5.118   2.879
 5428TIP3    H116225   1.011   5.026   2.882
 5428TIP3    H216226   0.892   5.115   2.858
 5429TIP3   OH216227   5.130   7.169   2.922
 5429TIP3    H116228   5.117   7.111   2.847
 5429TIP3    H216229   5.223   7.162   2.942
 5430TIP3   OH216230   7.309   3.578   3.330
 5430TIP3    H116231   7.320   3.638   3.403
 5430TIP3    H216232   7.308   3.634   3.253
 5431TIP3   OH216233   8.311   6.324   6.430
 5431TIP3    H116234   8.388   6.284   6.470
 5431TIP3    H216235   8.328   6.418   6.435
 5432TIP3   OH216236   3.627   3.676   2.854
 5432TIP3    H116237   3.606   3.651   2.764
 5432TIP3    H216238   3.723   3.682   2.855
 5433TIP3   OH216239   7.278   0.613   1.197
 5433TIP3    H116240   7.333   0.692   1.198
 5433TIP3    H216241   7.296   0.573   1.112
 5434TIP3   OH216242   7.187   3.553   6.729
 5434TIP3    H116243   7.194   3.457   6.727
 5434TIP3    H216244   7.103   3.570   6.772
 5435TIP3   OH216245   3.934   4.963   6.380
 5435TIP3    H116246   3.952   4.968   6.286
 5435TIP3    H216247   3.848   4.921   6.386
 5436TIP3   OH216248   0.373   1.869   5.509
 5436TIP3    H116249   0.407   1.893   5.423
 5436TIP3    H216250   0.442   1.816   5.549
 5437TIP3   OH216251   8.323   6.001   5.310
 5437TIP3    H116252   8.413   6.017   5.340
 5437TIP3    H216253   8.330   5.999   5.215
 5438TIP3   OH216254   0.020   7.254   3.731
 5438TIP3    H116255   0.014   7.284   3.640
 5438TIP3    H216256   0.085   7.312   3.771
 5439TIP3   OH216257   6.072   4.731   5.575
 5439TIP3    H116258   6.114   4.810   5.542
 5439TIP3    H216259   6.003   4.712   5.511
 5440TIP3   OH216260   8.007   1.925   6.152
 5440TIP3    H116261   7.929   1.871   6.145
 5440TIP3    H216262   8.002   1.986   6.078
 5441TIP3   OH216263   5.314   0.647   6.391
 5441TIP3    H116264   5.337   0.643   6.484
 5441TIP3    H216265   5.228   0.604   6.385
 5442TIP3   OH216266   1.764   2.864   4.320
 5442TIP3    H116267   1.844   2.911   4.299
 5442TIP3    H216268   1.793   2.776   4.342
 5443TIP3   OH216269   6.368   5.176   1.178
 5443TIP3    H116270   6.385   5.146   1.089
 5443TIP3    H216271   6.445   5.149   1.227
 5444TIP3   OH216272   1.351   0.234   1.121
 5444TIP3    H116273   1.401   0.170   1.071
 5444TIP3    H216274   1.350   0.198   1.210
 5445TIP3   OH216275   6.299   0.180   4.299
 5445TIP3    H116276   6.243   0.119   4.250
 5445TIP3    H216277   6.282   0.265   4.259
 5446TIP3   OH216278   4.777   1.004   3.617
 5446TIP3    H116279   4.740   0.960   3.694
 5446TIP3    H216280   4.709   0.997   3.551
 5447TIP3   OH216281   0.355   4.071   4.667
 5447TIP3    H116282   0.406   4.033   4.738
 5447TIP3    H216283   0.336   4.160   4.697
 5448TIP3   OH216284   7.336   0.284   0.641
 5448TIP3    H116285   7.268   0.350   0.658
 5448TIP3    H216286   7.309   0.241   0.561
 5449TIP3   OH216287   7.246   1.283   2.456
 5449TIP3    H116288   7.203   1.329   2.528
 5449TIP3    H216289   7.176   1.271   2.391
 5450TIP3   OH216290   5.224   0.003   1.437
 5450TIP3    H116291   5.231   0.097   1.454
 5450TIP3    H216292   5.138  -0.008   1.396
 5451TIP3   OH216293   0.263   5.414   6.403
 5451TIP3    H116294   0.192   5.362   6.442
 5451TIP3    H216295   0.298   5.358   6.334
 5452TIP3   OH216296   2.494   6.888   0.981
 5452TIP3    H116297   2.453   6.865   1.064
 5452TIP3    H216298   2.527   6.805   0.946
 5453TIP3   OH216299   4.980   4.051   2.225
 5453TIP3    H116300   4.928   4.132   2.228
 5453TIP3    H216301   4.933   3.994   2.164
 5454TIP3   OH216302   6.493   5.180   0.651
 5454TIP3    H116303   6.411   5.185   0.602
 5454TIP3    H216304   6.541   5.108   0.611
 5455TIP3   OH216305   2.643   1.987   2.826
 5455TIP3    H116306   2.670   2.007   2.916
 5455TIP3    H216307   2.685   1.903   2.807
 5456TIP3   OH216308   4.535   3.329   6.444
 5456TIP3    H116309   4.560   3.293   6.359
 5456TIP3    H216310   4.532   3.424   6.431
 5457TIP3   OH216311   2.709   1.278   6.713
 5457TIP3    H116312   2.711   1.331   6.793
 5457TIP3    H216313   2.647   1.323   6.656
 5458TIP3   OH216314   2.678   6.561   0.973
 5458TIP3    H116315   2.583   6.568   0.976
 5458TIP3    H216316   2.706   6.636   0.920
 5459TIP3   OH216317   4.327   6.556   2.146
 5459TIP3    H116318   4.277   6.637   2.132
 5459TIP3    H216319   4.267   6.498   2.193
 5460TIP3   OH216320   4.413   2.086   3.730
 5460TIP3    H116321   4.368   2.164   3.763
 5460TIP3    H216322   4.445   2.111   3.644
 5461TIP3   OH216323   5.882   6.149   5.425
 5461TIP3    H116324   5.840   6.090   5.362
 5461TIP3    H216325   5.810   6.182   5.478
 5462TIP3   OH216326   2.995   0.930   2.938
 5462TIP3    H116327   3.042   0.980   2.872
 5462TIP3    H216328   3.031   0.960   3.021
 5463TIP3   OH216329   1.481   5.432   2.788
 5463TIP3    H116330   1.460   5.346   2.826
 5463TIP3    H216331   1.455   5.495   2.855
 5464TIP3   OH216332   1.252   6.854   4.793
 5464TIP3    H116333   1.168   6.843   4.838
 5464TIP3    H216334   1.291   6.767   4.792
 5465TIP3   OH216335   2.829   3.975   4.571
 5465TIP3    H116336   2.752   4.020   4.605
 5465TIP3    H216337   2.899   4.040   4.577
 5466TIP3   OH216338   7.006   6.934   4.231
 5466TIP3    H116339   6.933   6.875   4.251
 5466TIP3    H216340   7.014   6.990   4.308
 5467TIP3   OH216341   2.845   1.271   0.263
 5467TIP3    H116342   2.872   1.184   0.234
 5467TIP3    H216343   2.852   1.267   0.359
 5468TIP3   OH216344   6.581   3.539   3.127
 5468TIP3    H116345   6.605   3.632   3.127
 5468TIP3    H216346   6.637   3.500   3.195
 5469TIP3   OH216347   3.520   0.741   1.468
 5469TIP3    H116348   3.589   0.805   1.479
 5469TIP3    H216349   3.448   0.772   1.523
 5470TIP3   OH216350   5.937   0.033   3.043
 5470TIP3    H116351   5.978   0.102   3.096
 5470TIP3    H216352   5.843   0.051   3.049
 5471TIP3   OH216353   4.342   6.787   6.459
 5471TIP3    H116354   4.273   6.834   6.506
 5471TIP3    H216355   4.387   6.854   6.409
 5472TIP3   OH216356   2.269   1.844   5.095
 5472TIP3    H116357   2.305   1.890   5.020
 5472TIP3    H216358   2.209   1.779   5.058
 5473TIP3   OH216359   6.302   0.846   2.614
 5473TIP3    H116360   6.288   0.924   2.561
 5473TIP3    H216361   6.344   0.879   2.694
 5474TIP3   OH216362   6.050   1.728   1.385
 5474TIP3    H116363   5.978   1.791   1.381
 5474TIP3    H216364   6.069   1.719   1.479
 5475TIP3   OH216365   3.802   6.067   4.249
 5475TIP3    H116366   3.864   6.108   4.310
 5475TIP3    H216367   3.719   6.066   4.296
 5476TIP3   OH216368   6.334   2.664   3.556
 5476TIP3    H116369   6.256   2.678   3.610
 5476TIP3    H216370   6.371   2.751   3.543
 5477TIP3   OH216371   3.994   5.013   0.074
 5477TIP3    H116372   3.971   5.013  -0.019
 5477TIP3    H216373   3.951   5.091   0.109
 5478TIP3   OH216374   3.241   5.387   1.652
 5478TIP3    H116375   3.329   5.396   1.616
 5478TIP3    H216376   3.183   5.402   1.576
 5479TIP3   OH216377   2.677   6.637   2.112
 5479TIP3    H116378   2.608   6.582   2.149
 5479TIP3    H216379   2.695   6.597   2.027
 5480TIP3   OH216380   3.128   1.710   3.662
 5480TIP3    H116381   3.086   1.680   3.742
 5480TIP3    H216382   3.058   1.752   3.612
 5481TIP3   OH216383   7.956   2.377   6.179
 5481TIP3    H116384   8.016   2.386   6.253
 5481TIP3    H216385   7.990   2.302   6.130
 5482TIP3   OH216386   1.409   4.500   5.447
 5482TIP3    H116387   1.406   4.570   5.381
 5482TIP3    H216388   1.482   4.524   5.504
 5483TIP3   OH216389   7.337   4.017   0.989
 5483TIP3    H116390   7.380   4.018   1.075
 5483TIP3    H216391   7.408   4.036   0.927
 5484TIP3   OH216392   2.157   6.646   0.425
 5484TIP3    H116393   2.066   6.673   0.436
 5484TIP3    H216394   2.175   6.659   0.332
 5485TIP3   OH216395   4.957   5.476   3.107
 5485TIP3    H116396   5.007   5.549   3.143
 5485TIP3    H216397   4.953   5.412   3.178
 5486TIP3   OH216398   3.941   1.326   0.298
 5486TIP3    H116399   3.869   1.262   0.296
 5486TIP3    H216400   3.952   1.346   0.391
 5487TIP3   OH216401   2.103   0.359   3.802
 5487TIP3    H116402   2.115   0.298   3.875
 5487TIP3    H216403   2.033   0.321   3.749
 5488TIP3   OH216404   7.843   3.738   0.730
 5488TIP3    H116405   7.884   3.814   0.689
 5488TIP3    H216406   7.750   3.761   0.735
 5489TIP3   OH216407   2.536   7.409   0.764
 5489TIP3    H116408   2.585   7.452   0.833
 5489TIP3    H216409   2.452   7.455   0.761
 5490TIP3   OH216410   6.639   4.450   0.319
 5490TIP3    H116411   6.688   4.532   0.329
 5490TIP3    H216412   6.702   4.391   0.277
 5491TIP3   OH216413   8.335   0.786   3.518
 5491TIP3    H116414   8.290   0.832   3.589
 5491TIP3    H216415   8.370   0.707   3.558
 5492TIP3   OH216416   3.779   2.302   1.045
 5492TIP3    H116417   3.774   2.375   1.107
 5492TIP3    H216418   3.768   2.342   0.959
 5493TIP3   OH216419   4.819   2.398   1.186
 5493TIP3    H116420   4.883   2.353   1.130
 5493TIP3    H216421   4.800   2.479   1.140
 5494TIP3   OH216422   7.518   5.341   6.292
 5494TIP3    H116423   7.446   5.279   6.283
 5494TIP3    H216424   7.480   5.414   6.343
 5495TIP3   OH216425   1.027   4.331   0.113
 5495TIP3    H116426   1.070   4.396   0.058
 5495TIP3    H216427   1.049   4.247   0.073
 5496TIP3   OH216428   6.568   5.937   4.457
 5496TIP3    H116429   6.501   5.933   4.525
 5496TIP3    H216430   6.650   5.940   4.505
 5497TIP3   OH216431   5.348   3.915   6.399
 5497TIP3    H116432   5.403   3.974   6.451
 5497TIP3    H216433   5.394   3.831   6.401
 5498TIP3   OH216434   4.355   1.846   5.926
 5498TIP3    H116435   4.281   1.790   5.902
 5498TIP3    H216436   4.344   1.924   5.873
 5499TIP3   OH216437   4.033   0.545   6.734
 5499TIP3    H116438   3.981   0.603   6.790
 5499TIP3    H216439   3.969   0.500   6.679
 5500TIP3   OH216440  -0.004   7.253   6.151
 5500TIP3    H116441  -0.016   7.184   6.086
 5500TIP3    H216442   0.090   7.268   6.154
 5501TIP3   OH216443   4.089   1.537   4.237
 5501TIP3    H116444   4.157   1.494   4.186
 5501TIP3    H216445   4.117   1.629   4.241
 5502TIP3   OH216446   5.596   7.257   1.357
 5502TIP3    H116447   5.569   7.341   1.396
 5502TIP3    H216448   5.556   7.191   1.413
 5503TIP3   OH216449   7.904   7.811   1.752
 5503TIP3    H116450   7.896   7.898   1.791
 5503TIP3    H216451   7.927   7.754   1.826
 5504TIP3   OH216452   4.187   6.728   1.150
 5504TIP3    H116453   4.166   6.752   1.240
 5504TIP3    H216454   4.255   6.661   1.158
 5505TIP3   OH216455   4.995   2.994   3.541
 5505TIP3    H116456   4.954   2.941   3.473
 5505TIP3    H216457   5.057   3.050   3.493
 5506TIP3   OH216458   5.730   4.078   1.619
 5506TIP3    H116459   5.680   4.004   1.584
 5506TIP3    H216460   5.731   4.141   1.547
 5507TIP3   OH216461   4.418   4.185   6.644
 5507TIP3    H116462   4.475   4.160   6.572
 5507TIP3    H216463   4.347   4.235   6.602
 5508TIP3   OH216464   6.639   3.161   5.752
 5508TIP3    H116465   6.632   3.200   5.839
 5508TIP3    H216466   6.636   3.067   5.767
 5509TIP3   OH216467   8.330   5.754   2.588
 5509TIP3    H116468   8.419   5.721   2.576
 5509TIP3    H216469   8.278   5.676   2.606
 5510TIP3   OH216470   3.905   5.464   0.877
 5510TIP3    H116471   3.885   5.539   0.933
 5510TIP3    H216472   3.832   5.404   0.890
 5511TIP3   OH216473   6.461   4.803   2.368
 5511TIP3    H116474   6.392   4.823   2.432
 5511TIP3    H216475   6.427   4.837   2.285
 5512TIP3   OH216476   2.916   0.138   1.958
 5512TIP3    H116477   2.967   0.199   1.905
 5512TIP3    H216478   2.888   0.070   1.897
 5513TIP3   OH216479   5.185   5.094   4.935
 5513TIP3    H116480   5.206   5.042   4.857
 5513TIP3    H216481   5.181   5.030   5.006
 5514TIP3   OH216482   4.970   7.379   2.813
 5514TIP3    H116483   5.025   7.406   2.740
 5514TIP3    H216484   5.021   7.312   2.859
 5515TIP3   OH216485   5.389   6.078   1.244
 5515TIP3    H116486   5.479   6.050   1.265
 5515TIP3    H216487   5.394   6.108   1.153
 5516TIP3   OH216488   3.723   6.520   5.933
 5516TIP3    H116489   3.749   6.499   6.023
 5516TIP3    H216490   3.759   6.607   5.917
 5517TIP3   OH216491   4.397   3.824   6.704
 5517TIP3    H116492   4.486   3.832   6.670
 5517TIP3    H216493   4.388   3.895   6.767
 5518TIP3   OH216494   8.374   6.270   2.230
 5518TIP3    H116495   8.363   6.182   2.267
 5518TIP3    H216496   8.383   6.327   2.306
 5519TIP3   OH216497   7.497   4.730   5.114
 5519TIP3    H116498   7.540   4.808   5.150
 5519TIP3    H216499   7.413   4.726   5.160
 5520TIP3   OH216500   6.038   5.297   3.099
 5520TIP3    H116501   6.099   5.341   3.039
 5520TIP3    H216502   5.969   5.361   3.114
 5521TIP3   OH216503   3.144   3.807   4.665
 5521TIP3    H116504   3.073   3.826   4.726
 5521TIP3    H216505   3.221   3.798   4.720
 5522TIP3   OH216506   3.643   0.370   3.018
 5522TIP3    H116507   3.714   0.429   2.993
 5522TIP3    H216508   3.662   0.347   3.109
 5523TIP3   OH216509   7.122   7.861   4.818
 5523TIP3    H116510   7.210   7.875   4.852
 5523TIP3    H216511   7.132   7.786   4.759
 5524TIP3   OH216512   1.850   0.058   2.841
 5524TIP3    H116513   1.795   0.134   2.824
 5524TIP3    H216514   1.931   0.094   2.877
 5525TIP3   OH216515   6.726   1.793   1.021
 5525TIP3    H116516   6.759   1.706   1.043
 5525TIP3    H216517   6.650   1.776   0.964
 5526TIP3   OH216518   3.031   1.675   4.422
 5526TIP3    H116519   3.061   1.654   4.510
 5526TIP3    H216520   3.097   1.636   4.364
 5527TIP3   OH216521   3.736   0.750   4.867
 5527TIP3    H116522   3.666   0.716   4.923
 5527TIP3    H216523   3.765   0.674   4.817
 5528TIP3   OH216524   1.484   3.127   5.013
 5528TIP3    H116525   1.537   3.048   4.999
 5528TIP3    H216526   1.394   3.095   5.012
 5529TIP3   OH216527   6.706   7.047   6.800
 5529TIP3    H116528   6.732   6.969   6.751
 5529TIP3    H216529   6.788   7.078   6.840
 5530TIP3   OH216530   6.661   7.572   2.751
 5530TIP3    H116531   6.574   7.604   2.730
 5530TIP3    H216532   6.697   7.541   2.668
 5531TIP3   OH216533   0.921   1.758   4.410
 5531TIP3    H116534   0.948   1.815   4.338
 5531TIP3    H216535   0.989   1.769   4.476
 5532TIP3   OH216536   2.548   0.001   6.738
 5532TIP3    H116537   2.485  -0.035   6.800
 5532TIP3    H216538   2.501   0.071   6.693
 5533TIP3   OH216539   3.645   7.063   6.654
 5533TIP3    H116540   3.736   7.035   6.666
 5533TIP3    H216541   3.622   7.033   6.566
 5534TIP3   OH216542   2.074   2.631   3.169
 5534TIP3    H116543   2.134   2.557   3.167
 5534TIP3    H216544   1.987   2.591   3.172
 5535TIP3   OH216545   6.966   6.050   2.121
 5535TIP3    H116546   7.049   6.024   2.160
 5535TIP3    H216547   6.902   6.037   2.190
 5536TIP3   OH216548   0.042   7.266   1.509
 5536TIP3    H116549  -0.025   7.270   1.578
 5536TIP3    H216550   0.052   7.357   1.480
 5537TIP3   OH216551   3.521   0.705   0.670
 5537TIP3    H116552   3.487   0.746   0.750
 5537TIP3    H216553   3.508   0.611   0.685
 5538TIP3   OH216554   5.706   6.984   6.037
 5538TIP3    H116555   5.648   7.032   6.095
 5538TIP3    H216556   5.757   6.928   6.095
 5539TIP3   OH216557   5.672   1.328   3.778
 5539TIP3    H116558   5.623   1.284   3.847
 5539TIP3    H216559   5.612   1.393   3.742
 5540TIP3   OH216560   0.484   7.337   1.296
 5540TIP3    H116561   0.405   7.283   1.304
 5540TIP3    H216562   0.548   7.294   1.352
 5541TIP3   OH216563   5.430   5.181   5.346
 5541TIP3    H116564   5.416   5.240   5.420
 5541TIP3    H216565   5.343   5.146   5.326
 5542TIP3   OH216566   2.515   7.514   5.915
 5542TIP3    H116567   2.490   7.426   5.945
 5542TIP3    H216568   2.441   7.542   5.861
 5543TIP3   OH216569   3.803   2.035   0.539
 5543TIP3    H116570   3.782   1.963   0.600
 5543TIP3    H216571   3.850   2.098   0.593
 5544TIP3   OH216572   6.557   0.456   3.984
 5544TIP3    H116573   6.646   0.433   4.011
 5544TIP3    H216574   6.536   0.535   4.033
 5545TIP3   OH216575   0.226   2.297   5.249
 5545TIP3    H116576   0.156   2.256   5.200
 5545TIP3    H216577   0.301   2.295   5.190
 5546TIP3   OH216578   6.650   4.042   0.475
 5546TIP3    H116579   6.581   4.082   0.528
 5546TIP3    H216580   6.715   4.011   0.539
 5547TIP3   OH216581   3.782   6.746   3.876
 5547TIP3    H116582   3.835   6.782   3.947
 5547TIP3    H216583   3.711   6.699   3.920
 5548TIP3   OH216584   2.683   6.005   1.503
 5548TIP3    H116585   2.593   6.026   1.531
 5548TIP3    H216586   2.674   5.976   1.412
 5549TIP3   OH216587   3.130   1.330   6.785
 5549TIP3    H116588   3.070   1.360   6.716
 5549TIP3    H216589   3.072   1.309   6.859
 5550TIP3   OH216590   6.319   4.293   5.949
 5550TIP3    H116591   6.332   4.312   6.042
 5550TIP3    H216592   6.322   4.379   5.906
 5551TIP3   OH216593   1.815   6.332   0.824
 5551TIP3    H116594   1.845   6.389   0.894
 5551TIP3    H216595   1.815   6.245   0.862
 5552TIP3   OH216596   5.932   4.605   5.876
 5552TIP3    H116597   5.837   4.618   5.876
 5552TIP3    H216598   5.950   4.563   5.793
 5553TIP3   OH216599   5.454   7.537   6.651
 5553TIP3    H116600   5.453   7.622   6.608
 5553TIP3    H216601   5.498   7.479   6.588
 5554TIP3   OH216602   7.379   2.784   0.044
 5554TIP3    H116603   7.366   2.692   0.067
 5554TIP3    H216604   7.434   2.819   0.114
 5555TIP3   OH216605   2.287   2.704   4.509
 5555TIP3    H116606   2.352   2.739   4.570
 5555TIP3    H216607   2.204   2.713   4.555
 5556TIP3   OH216608   4.295   3.273   2.683
 5556TIP3    H116609   4.301   3.363   2.649
 5556TIP3    H216610   4.316   3.218   2.607
 5557TIP3   OH216611   7.762   1.376   4.174
 5557TIP3    H116612   7.785   1.411   4.088
 5557TIP3    H216613   7.667   1.389   4.181
 5558TIP3   OH216614   7.647   2.205   6.304
 5558TIP3    H116615   7.681   2.288   6.271
 5558TIP3    H216616   7.599   2.168   6.231
 5559TIP3   OH216617   4.094   0.358   4.117
 5559TIP3    H116618   4.122   0.391   4.031
 5559TIP3    H216619   4.008   0.399   4.131
 5560TIP3   OH216620   2.708   2.971   0.991
 5560TIP3    H116621   2.717   2.989   1.085
 5560TIP3    H216622   2.614   2.967   0.976
 5561TIP3   OH216623   6.514   5.681   3.167
 5561TIP3    H116624   6.552   5.741   3.103
 5561TIP3    H216625   6.537   5.594   3.135
 5562TIP3   OH216626   3.793   2.036   3.321
 5562TIP3    H116627   3.801   2.120   3.276
 5562TIP3    H216628   3.882   2.017   3.352
 5563TIP3   OH216629   2.562   0.099   0.100
 5563TIP3    H116630   2.599   0.027   0.152
 5563TIP3    H216631   2.628   0.117   0.033
 5564TIP3   OH216632   4.406   0.844   2.264
 5564TIP3    H116633   4.450   0.852   2.348
 5564TIP3    H216634   4.411   0.931   2.226
 5565TIP3   OH216635   6.851   2.447   4.995
 5565TIP3    H116636   6.851   2.433   4.900
 5565TIP3    H216637   6.759   2.461   5.017
 5566TIP3   OH216638   2.876   1.009   0.185
 5566TIP3    H116639   2.909   0.964   0.108
 5566TIP3    H216640   2.783   0.987   0.188
 5567TIP3   OH216641   3.220   3.239   0.722
 5567TIP3    H116642   3.184   3.318   0.681
 5567TIP3    H216643   3.274   3.272   0.794
 5568TIP3   OH216644   0.077   2.947   4.851
 5568TIP3    H116645   0.079   3.030   4.898
 5568TIP3    H216646   0.060   2.970   4.760
 5569TIP3   OH216647   2.417   0.575   0.603
 5569TIP3    H116648   2.492   0.553   0.548
 5569TIP3    H216649   2.437   0.661   0.638
 5570TIP3   OH216650   1.974   3.578   1.364
 5570TIP3    H116651   2.058   3.586   1.409
 5570TIP3    H216652   1.975   3.491   1.324
 5571TIP3   OH216653   0.241   4.070   3.211
 5571TIP3    H116654   0.187   4.096   3.286
 5571TIP3    H216655   0.296   4.147   3.194
 5572TIP3   OH216656   4.467   5.117   2.404
 5572TIP3    H116657   4.433   5.102   2.316
 5572TIP3    H216658   4.498   5.031   2.433
 5573TIP3   OH216659   4.188   5.592   5.827
 5573TIP3    H116660   4.165   5.501   5.845
 5573TIP3    H216661   4.205   5.630   5.914
 5574TIP3   OH216662   5.824   7.610   4.562
 5574TIP3    H116663   5.758   7.543   4.543
 5574TIP3    H216664   5.801   7.644   4.648
 5575TIP3   OH216665   4.459   6.503   3.926
 5575TIP3    H116666   4.518   6.431   3.946
 5575TIP3    H216667   4.516   6.572   3.893
 5576TIP3   OH216668   6.251  -0.021   1.805
 5576TIP3    H116669   6.324  -0.017   1.866
 5576TIP3    H216670   6.256   0.061   1.756
 5577TIP3   OH216671   1.408   7.325   0.011
 5577TIP3    H116672   1.355   7.320   0.091
 5577TIP3    H216673   1.476   7.260   0.024
 5578TIP3   OH216674   4.140   4.772   0.107
 5578TIP3    H116675   4.232   4.796   0.095
 5578TIP3    H216676   4.093   4.855   0.099
 5579TIP3   OH216677   6.475   6.925   4.160
 5579TIP3    H116678   6.562   6.885   4.156
 5579TIP3    H216679   6.461   6.944   4.252
 5580TIP3   OH216680   8.378   7.927   5.180
 5580TIP3    H116681   8.348   7.963   5.264
 5580TIP3    H216682   8.370   7.832   5.191
 5581TIP3   OH216683   8.124   4.964   6.174
 5581TIP3    H116684   8.129   5.031   6.105
 5581TIP3    H216685   8.158   5.008   6.252
 5582TIP3   OH216686   6.903   0.710   1.079
 5582TIP3    H116687   6.887   0.785   1.137
 5582TIP3    H216688   6.906   0.635   1.139
 5583TIP3   OH216689   7.128   2.501   2.105
 5583TIP3    H116690   7.110   2.548   2.186
 5583TIP3    H216691   7.186   2.558   2.055
 5584TIP3   OH216692   0.356   7.876   0.913
 5584TIP3    H116693   0.263   7.860   0.897
 5584TIP3    H216694   0.393   7.790   0.934
 5585TIP3   OH216695   3.264   4.231   5.231
 5585TIP3    H116696   3.261   4.142   5.266
 5585TIP3    H216697   3.344   4.233   5.178
 5586TIP3   OH216698   3.232   2.855   6.365
 5586TIP3    H116699   3.151   2.829   6.321
 5586TIP3    H216700   3.212   2.939   6.406
 5587TIP3   OH216701   2.209   6.760   0.192
 5587TIP3    H116702   2.247   6.737   0.107
 5587TIP3    H216703   2.284   6.787   0.245
 5588TIP3   OH216704   3.421   5.177   2.222
 5588TIP3    H116705   3.393   5.246   2.162
 5588TIP3    H216706   3.508   5.204   2.250
 5589TIP3   OH216707   2.922   4.802   3.008
 5589TIP3    H116708   2.973   4.883   3.016
 5589TIP3    H216709   2.980   4.734   3.043
 5590TIP3   OH216710   0.036   2.518   4.315
 5590TIP3    H116711  -0.045   2.468   4.318
 5590TIP3    H216712   0.102   2.461   4.355
 5591TIP3   OH216713   1.840   6.820   6.107
 5591TIP3    H116714   1.884   6.855   6.030
 5591TIP3    H216715   1.902   6.836   6.179
 5592TIP3   OH216716   7.666   3.296   0.341
 5592TIP3    H116717   7.588   3.277   0.288
 5592TIP3    H216718   7.683   3.389   0.326
 5593TIP3   OH216719   2.405   6.293   6.041
 5593TIP3    H116720   2.356   6.311   5.961
 5593TIP3    H216721   2.385   6.201   6.062
 5594TIP3   OH216722   6.919   1.413   1.289
 5594TIP3    H116723   7.008   1.446   1.274
 5594TIP3    H216724   6.869   1.445   1.214
 5595TIP3   OH216725   5.341   4.032   3.147
 5595TIP3    H116726   5.385   3.947   3.139
 5595TIP3    H216727   5.249   4.013   3.129
 5596TIP3   OH216728   3.105   0.247   5.263
 5596TIP3    H116729   3.035   0.245   5.198
 5596TIP3    H216730   3.177   0.199   5.222
 5597TIP3   OH216731   6.112   0.129   3.460
 5597TIP3    H116732   6.029   0.126   3.508
 5597TIP3    H216733   6.131   0.037   3.440
 5598TIP3   OH216734   2.595   4.643   5.440
 5598TIP3    H116735   2.569   4.576   5.503
 5598TIP3    H216736   2.657   4.698   5.488
 5599TIP3   OH216737   6.595   4.099   5.117
 5599TIP3    H116738   6.683   4.071   5.088
 5599TIP3    H216739   6.605   4.191   5.141
 5600TIP3   OH216740   5.819   6.177   1.866
 5600TIP3    H116741   5.776   6.224   1.937
 5600TIP3    H216742   5.912   6.179   1.888
 5601TIP3   OH216743   7.590   4.735   1.982
 5601TIP3    H116744   7.585   4.830   1.992
 5601TIP3    H216745   7.681   4.719   1.956
 5602TIP3   OH216746   1.894   3.336   4.983
 5602TIP3    H116747   1.905   3.292   5.067
 5602TIP3    H216748   1.801   3.325   4.961
 5603TIP3   OH216749   3.987   0.827   3.745
 5603TIP3    H116750   4.006   0.733   3.742
 5603TIP3    H216751   4.042   0.861   3.815
 5604TIP3   OH216752   8.222   1.025   1.690
 5604TIP3    H116753   8.235   0.973   1.769
 5604TIP3    H216754   8.311   1.050   1.662
 5605TIP3   OH216755   2.149   5.895   4.635
 5605TIP3    H116756   2.115   5.984   4.642
 5605TIP3    H216757   2.234   5.899   4.681
 5606TIP3   OH216758   1.976   7.793   0.948
 5606TIP3    H116759   1.963   7.733   0.874
 5606TIP3    H216760   1.887   7.822   0.970
 5607TIP3   OH216761   5.396   4.584   1.525
 5607TIP3    H116762   5.347   4.507   1.498
 5607TIP3    H216763   5.336   4.633   1.580
 5608TIP3   OH216764   3.702   7.642   1.938
 5608TIP3    H116765   3.757   7.675   2.009
 5608TIP3    H216766   3.756   7.654   1.859
 5609TIP3   OH216767   0.849   2.070   2.427
 5609TIP3    H116768   0.845   2.088   2.521
 5609TIP3    H216769   0.772   2.016   2.409
 5610TIP3   OH216770   4.738   3.429   0.034
 5610TIP3    H116771   4.697   3.514   0.021
 5610TIP3    H216772   4.804   3.423  -0.035
 5611TIP3   OH216773   6.005   5.324   1.208
 5611TIP3    H116774   6.025   5.264   1.137
 5611TIP3    H216775   5.925   5.369   1.181
 5612TIP3   OH216776   4.118   2.819   1.658
 5612TIP3    H116777   4.167   2.769   1.723
 5612TIP3    H216778   4.158   2.906   1.660
 5613TIP3   OH216779   2.119   1.929   3.148
 5613TIP3    H116780   2.084   1.926   3.237
 5613TIP3    H216781   2.050   1.889   3.094
 5614TIP3   OH216782   0.623   0.236   5.532
 5614TIP3    H116783   0.644   0.310   5.475
 5614TIP3    H216784   0.670   0.253   5.613
 5615TIP3   OH216785   5.190   3.560   3.697
 5615TIP3    H116786   5.283   3.544   3.713
 5615TIP3    H216787   5.157   3.477   3.663
 5616TIP3   OH216788   0.735   4.752   6.059
 5616TIP3    H116789   0.655   4.730   6.010
 5616TIP3    H216790   0.787   4.671   6.056
 5617TIP3   OH216791   5.874   3.700   4.569
 5617TIP3    H116792   5.936   3.634   4.599
 5617TIP3    H216793   5.929   3.771   4.535
 5618TIP3   OH216794   4.611   1.226   3.468
 5618TIP3    H116795   4.616   1.321   3.458
 5618TIP3    H216796   4.630   1.192   3.381
 5619TIP3   OH216797   1.834   0.977   1.442
 5619TIP3    H116798   1.765   0.921   1.406
 5619TIP3    H216799   1.839   1.050   1.381
 5620TIP3   OH216800   6.223   5.435   5.645
 5620TIP3    H116801   6.241   5.528   5.660
 5620TIP3    H216802   6.181   5.433   5.559
 5621TIP3   OH216803   4.696   5.517   0.134
 5621TIP3    H116804   4.682   5.542   0.225
 5621TIP3    H216805   4.648   5.435   0.124
 5622TIP3   OH216806   8.125   2.176   3.897
 5622TIP3    H116807   8.168   2.097   3.928
 5622TIP3    H216808   8.134   2.239   3.969
 5623TIP3   OH216809   1.345   6.337   1.870
 5623TIP3    H116810   1.389   6.303   1.949
 5623TIP3    H216811   1.302   6.261   1.833
 5624TIP3   OH216812   2.171   5.323   1.412
 5624TIP3    H116813   2.238   5.322   1.343
 5624TIP3    H216814   2.106   5.386   1.380
 5625TIP3   OH216815   0.947   1.035   5.063
 5625TIP3    H116816   0.924   1.128   5.068
 5625TIP3    H216817   0.959   1.019   4.969
 5626TIP3   OH216818   5.096   4.286   1.799
 5626TIP3    H116819   5.068   4.249   1.715
 5626TIP3    H216820   5.129   4.211   1.849
 5627TIP3   OH216821   1.323   3.987   5.776
 5627TIP3    H116822   1.265   4.063   5.779
 5627TIP3    H216823   1.338   3.971   5.683
 5628TIP3   OH216824   0.445   1.648   3.990
 5628TIP3    H116825   0.352   1.636   4.009
 5628TIP3    H216826   0.455   1.618   3.900
 5629TIP3   OH216827   3.655   0.633   6.254
 5629TIP3    H116828   3.717   0.684   6.203
 5629TIP3    H216829   3.587   0.695   6.279
 5630TIP3   OH216830   2.067   2.928   4.908
 5630TIP3    H116831   2.017   2.847   4.913
 5630TIP3    H216832   2.003   2.997   4.921
 5631TIP3   OH216833   0.195   3.474   3.674
 5631TIP3    H116834   0.222   3.553   3.720
 5631TIP3    H216835   0.204   3.404   3.739
 5632TIP3   OH216836   2.293   0.158   4.561
 5632TIP3    H116837   2.315   0.162   4.654
 5632TIP3    H216838   2.287   0.064   4.542
 5633TIP3   OH216839   5.905   7.421   3.541
 5633TIP3    H116840   5.945   7.453   3.460
 5633TIP3    H216841   5.978   7.413   3.603
 5634TIP3   OH216842   7.015   1.031   1.831
 5634TIP3    H116843   6.950   1.002   1.766
 5634TIP3    H216844   7.092   0.977   1.813
 5635TIP3   OH216845   6.811   2.204   5.816
 5635TIP3    H116846   6.812   2.256   5.896
 5635TIP3    H216847   6.727   2.224   5.775
 5636TIP3   OH216848   3.986   2.893   6.411
 5636TIP3    H116849   3.975   2.799   6.393
 5636TIP3    H216850   4.074   2.899   6.448
 5637TIP3   OH216851   2.844   0.637   3.933
 5637TIP3    H116852   2.757   0.613   3.901
 5637TIP3    H216853   2.841   0.733   3.940
 5638TIP3   OH216854   5.785   3.338   3.507
 5638TIP3    H116855   5.726   3.284   3.454
 5638TIP3    H216856   5.730   3.410   3.538
 5639TIP3   OH216857   0.678   0.060   5.316
 5639TIP3    H116858   0.625   0.111   5.377
 5639TIP3    H216859   0.692  -0.024   5.360
 5640TIP3   OH216860   5.435   3.812   2.116
 5640TIP3    H116861   5.496   3.749   2.154
 5640TIP3    H216862   5.364   3.819   2.180
 5641TIP3   OH216863   3.460   4.063   6.309
 5641TIP3    H116864   3.498   4.083   6.224
 5641TIP3    H216865   3.416   3.979   6.297
 5642TIP3   OH216866   1.208   4.230   2.963
 5642TIP3    H116867   1.170   4.316   2.980
 5642TIP3    H216868   1.172   4.174   3.031
 5643TIP3   OH216869   1.932   4.560   4.823
 5643TIP3    H116870   2.009   4.612   4.845
 5643TIP3    H216871   1.922   4.570   4.728
 5644TIP3   OH216872   4.208   5.245   1.736
 5644TIP3    H116873   4.135   5.298   1.705
 5644TIP3    H216874   4.229   5.187   1.662
 5645TIP3   OH216875   3.911   3.093   1.425
 5645TIP3    H116876   3.949   3.134   1.503
 5645TIP3    H216877   3.833   3.145   1.407
 5646TIP3   OH216878   6.021   2.220   1.709
 5646TIP3    H116879   6.050   2.311   1.719
 5646TIP3    H216880   5.926   2.226   1.708
 5647TIP3   OH216881   0.245   2.756   1.403
 5647TIP3    H116882   0.271   2.665   1.417
 5647TIP3    H216883   0.287   2.804   1.474
 5648TIP3   OH216884   4.711   0.733   2.437
 5648TIP3    H116885   4.665   0.813   2.461
 5648TIP3    H216886   4.797   0.762   2.407
 5649TIP3   OH216887   7.765   2.164   2.384
 5649TIP3    H116888   7.844   2.195   2.427
 5649TIP3    H216889   7.703   2.236   2.392
 5650TIP3   OH216890   0.425   0.379   5.050
 5650TIP3    H116891   0.514   0.346   5.062
 5650TIP3    H216892   0.383   0.366   5.135
 5651TIP3   OH216893   1.299   5.040   0.542
 5651TIP3    H116894   1.209   5.012   0.527
 5651TIP3    H216895   1.293   5.134   0.558
 5652TIP3   OH216896   1.595   5.026   1.730
 5652TIP3    H116897   1.586   4.932   1.722
 5652TIP3    H216898   1.522   5.062   1.679
 5653TIP3   OH216899   3.691   6.950   2.125
 5653TIP3    H116900   3.683   6.966   2.031
 5653TIP3    H216901   3.617   6.893   2.146
 5654TIP3   OH216902   3.423   1.333   0.453
 5654TIP3    H116903   3.329   1.350   0.444
 5654TIP3    H216904   3.428   1.256   0.510
 5655TIP3   OH216905   0.693   6.464   3.162
 5655TIP3    H116906   0.614   6.422   3.197
 5655TIP3    H216907   0.668   6.493   3.074
 5656TIP3   OH216908   2.360   0.159   0.291
 5656TIP3    H116909   2.319   0.077   0.319
 5656TIP3    H216910   2.400   0.139   0.207
 5657TIP3   OH216911   2.408   7.179   0.711
 5657TIP3    H116912   2.462   7.256   0.693
 5657TIP3    H216913   2.355   7.203   0.787
 5658TIP3   OH216914   4.365   2.098   0.928
 5658TIP3    H116915   4.279   2.058   0.935
 5658TIP3    H216916   4.355   2.165   0.860
 5659TIP3   OH216917   0.755   2.431   2.074
 5659TIP3    H116918   0.823   2.366   2.057
 5659TIP3    H216919   0.798   2.516   2.063
 5660TIP3   OH216920   6.820   4.863   5.718
 5660TIP3    H116921   6.792   4.953   5.735
 5660TIP3    H216922   6.913   4.871   5.696
 5661TIP3   OH216923   2.159   2.749   3.401
 5661TIP3    H116924   2.088   2.724   3.459
 5661TIP3    H216925   2.141   2.702   3.319
 5662TIP3   OH216926   4.912   1.107   1.093
 5662TIP3    H116927   4.937   1.031   1.040
 5662TIP3    H216928   4.901   1.178   1.030
 5663TIP3   OH216929   2.956   0.259   2.209
 5663TIP3    H116930   2.952   0.341   2.160
 5663TIP3    H216931   2.926   0.192   2.148
 5664TIP3   OH216932   3.948   5.943   4.754
 5664TIP3    H116933   3.977   5.934   4.845
 5664TIP3    H216934   4.009   6.006   4.716
 5665TIP3   OH216935   1.283   7.151   6.335
 5665TIP3    H116936   1.313   7.125   6.422
 5665TIP3    H216937   1.341   7.105   6.275
 5666TIP3   OH216938   3.621   2.605   0.613
 5666TIP3    H116939   3.561   2.671   0.645
 5666TIP3    H216940   3.707   2.648   0.613
 5667TIP3   OH216941   2.191   0.643   5.698
 5667TIP3    H116942   2.171   0.665   5.607
 5667TIP3    H216943   2.130   0.572   5.720
 5668TIP3   OH216944   2.314   3.535   0.799
 5668TIP3    H116945   2.302   3.561   0.707
 5668TIP3    H216946   2.262   3.455   0.808
 5669TIP3   OH216947   2.699   5.341   2.348
 5669TIP3    H116948   2.663   5.351   2.437
 5669TIP3    H216949   2.747   5.422   2.333
 5670TIP3   OH216950   2.903   0.130   1.286
 5670TIP3    H116951   2.882   0.218   1.315
 5670TIP3    H216952   2.868   0.125   1.197
 5671TIP3   OH216953   5.497   1.548   4.634
 5671TIP3    H116954   5.423   1.551   4.695
 5671TIP3    H216955   5.458   1.557   4.547
 5672TIP3   OH216956   4.218   1.064   1.652
 5672TIP3    H116957   4.286   1.034   1.712
 5672TIP3    H216958   4.251   1.042   1.565
 5673TIP3   OH216959   2.788   5.127   5.986
 5673TIP3    H116960   2.730   5.064   6.026
 5673TIP3    H216961   2.757   5.212   6.016
 5674TIP3   OH216962   4.630   7.803   3.654
 5674TIP3    H116963   4.543   7.820   3.618
 5674TIP3    H216964   4.629   7.847   3.739
 5675TIP3   OH216965   2.969   1.611   0.633
 5675TIP3    H116966   2.896   1.564   0.593
 5675TIP3    H216967   2.929   1.666   0.701
 5676TIP3   OH216968   3.797   0.825   5.612
 5676TIP3    H116969   3.751   0.807   5.530
 5676TIP3    H216970   3.760   0.908   5.642
 5677TIP3   OH216971   4.139   5.680   6.424
 5677TIP3    H116972   4.144   5.675   6.520
 5677TIP3    H216973   4.046   5.700   6.407
 5678TIP3   OH216974   5.240   7.422   4.957
 5678TIP3    H116975   5.272   7.490   4.898
 5678TIP3    H216976   5.184   7.367   4.902
 5679TIP3   OH216977   5.473   7.750   2.779
 5679TIP3    H116978   5.404   7.683   2.779
 5679TIP3    H216979   5.426   7.833   2.785
 5680TIP3   OH216980   6.340   3.227   1.443
 5680TIP3    H116981   6.408   3.161   1.427
 5680TIP3    H216982   6.327   3.225   1.538
 5681TIP3   OH216983   6.053   4.470   1.432
 5681TIP3    H116984   5.983   4.448   1.494
 5681TIP3    H216985   6.106   4.535   1.478
 5682TIP3   OH216986   4.645   1.966   5.427
 5682TIP3    H116987   4.653   1.892   5.487
 5682TIP3    H216988   4.656   2.043   5.482
 5683TIP3   OH216989   8.357   4.693   0.042
 5683TIP3    H116990   8.400   4.775   0.016
 5683TIP3    H216991   8.425   4.644   0.088
 5684TIP3   OH216992   5.580   7.076   5.368
 5684TIP3    H116993   5.504   7.133   5.382
 5684TIP3    H216994   5.542   6.989   5.352
 5685TIP3   OH216995   4.105   6.918   6.619
 5685TIP3    H116996   4.130   7.005   6.651
 5685TIP3    H216997   4.011   6.913   6.632
 5686TIP3   OH216998   4.718   7.451   2.746
 5686TIP3    H116999   4.781   7.386   2.777
 5686TIP3    H217000   4.710   7.513   2.818
 5687TIP3   OH217001   8.138   4.248   5.944
 5687TIP3    H117002   8.138   4.231   5.850
 5687TIP3    H217003   8.083   4.179   5.981
 5688TIP3   OH217004   6.894   0.468   2.993
 5688TIP3    H117005   6.799   0.477   2.988
 5688TIP3    H217006   6.916   0.406   2.923
 5689TIP3   OH217007   8.085   4.789   3.233
 5689TIP3    H117008   8.173   4.762   3.206
 5689TIP3    H217009   8.097   4.825   3.321
 5690TIP3   OH217010   3.530   7.245   1.131
 5690TIP3    H117011   3.624   7.256   1.151
 5690TIP3    H217012   3.528   7.191   1.053
 5691TIP3   OH217013   4.200   7.756   2.772
 5691TIP3    H117014   4.245   7.840   2.780
 5691TIP3    H217015   4.261   7.692   2.809
 5692TIP3   OH217016   6.112   6.481   0.667
 5692TIP3    H117017   6.117   6.390   0.696
 5692TIP3    H217018   6.200   6.516   0.680
 5693TIP3   OH217019   4.516   4.178   0.489
 5693TIP3    H117020   4.439   4.209   0.537
 5693TIP3    H217021   4.497   4.200   0.398
 5694TIP3   OH217022   6.361   4.123   5.390
 5694TIP3    H117023   6.310   4.131   5.309
 5694TIP3    H217024   6.296   4.113   5.459
 5695TIP3   OH217025   7.378   2.418   3.207
 5695TIP3    H117026   7.350   2.369   3.285
 5695TIP3    H217027   7.430   2.355   3.157
 5696TIP3   OH217028   8.397   5.148   1.361
 5696TIP3    H117029   8.361   5.231   1.329
 5696TIP3    H217030   8.463   5.175   1.426
 5697TIP3   OH217031   4.231   3.764   4.431
 5697TIP3    H117032   4.225   3.736   4.522
 5697TIP3    H217033   4.324   3.754   4.409
 5698TIP3   OH217034   1.914   4.291   0.455
 5698TIP3    H117035   1.826   4.315   0.427
 5698TIP3    H217036   1.904   4.265   0.547
 5699TIP3   OH217037   4.809   7.548   2.150
 5699TIP3    H117038   4.875   7.552   2.082
 5699TIP3    H217039   4.858   7.556   2.232
 5700TIP3   OH217040   4.682   0.662   4.656
 5700TIP3    H117041   4.703   0.652   4.749
 5700TIP3    H217042   4.732   0.739   4.629
 5701TIP3   OH217043   3.218   6.904   5.527
 5701TIP3    H117044   3.260   6.915   5.442
 5701TIP3    H217045   3.137   6.955   5.521
 5702TIP3   OH217046   3.892   5.150   1.504
 5702TIP3    H117047   3.894   5.216   1.434
 5702TIP3    H217048   3.802   5.151   1.535
 5703TIP3   OH217049   5.890   0.197   1.561
 5703TIP3    H117050   5.801   0.170   1.580
 5703TIP3    H217051   5.900   0.185   1.467
 5704TIP3   OH217052   2.061   0.895   2.191
 5704TIP3    H117053   2.007   0.831   2.237
 5704TIP3    H217054   2.051   0.976   2.241
 5705TIP3   OH217055   2.208   5.597   5.734
 5705TIP3    H117056   2.256   5.526   5.777
 5705TIP3    H217057   2.276   5.652   5.695
 5706TIP3   OH217058   8.143   0.849   5.091
 5706TIP3    H117059   8.128   0.774   5.149
 5706TIP3    H217060   8.072   0.845   5.027
 5707TIP3   OH217061   4.014   7.647   4.734
 5707TIP3    H117062   4.052   7.732   4.715
 5707TIP3    H217063   4.009   7.603   4.650
 5708TIP3   OH217064   0.307   3.680   0.955
 5708TIP3    H117065   0.388   3.725   0.980
 5708TIP3    H217066   0.270   3.651   1.039
 5709TIP3   OH217067   1.125   0.349  -0.004
 5709TIP3    H117068   1.171   0.403   0.061
 5709TIP3    H217069   1.156   0.260   0.012
 5710TIP3   OH217070   0.371   7.405   3.006
 5710TIP3    H117071   0.410   7.358   2.933
 5710TIP3    H217072   0.426   7.382   3.081
 5711TIP3   OH217073   0.153   2.859   5.826
 5711TIP3    H117074   0.169   2.803   5.903
 5711TIP3    H217075   0.172   2.948   5.856
 5712TIP3   OH217076   1.076   7.164   4.527
 5712TIP3    H117077   1.004   7.100   4.527
 5712TIP3    H217078   1.154   7.112   4.547
 5713TIP3   OH217079   3.075   3.892   2.536
 5713TIP3    H117080   3.082   3.985   2.557
 5713TIP3    H217081   2.996   3.864   2.582
 5714TIP3   OH217082   5.439   2.297   5.810
 5714TIP3    H117083   5.374   2.339   5.754
 5714TIP3    H217084   5.523   2.333   5.781
 5715TIP3   OH217085   5.930   2.817   6.276
 5715TIP3    H117086   5.943   2.894   6.332
 5715TIP3    H217087   5.901   2.748   6.336
 5716TIP3   OH217088   3.965   1.438   6.487
 5716TIP3    H117089   3.910   1.511   6.517
 5716TIP3    H217090   4.049   1.479   6.464
 5717TIP3   OH217091   0.721   0.539   6.813
 5717TIP3    H117092   0.627   0.533   6.801
 5717TIP3    H217093   0.750   0.598   6.743
 5718TIP3   OH217094   3.298   1.705   5.588
 5718TIP3    H117095   3.364   1.638   5.605
 5718TIP3    H217096   3.272   1.736   5.674
 5719TIP3   OH217097   7.645   7.552   6.658
 5719TIP3    H117098   7.659   7.557   6.563
 5719TIP3    H217099   7.734   7.553   6.695
 5720TIP3   OH217100   8.241   3.567   1.438
 5720TIP3    H117101   8.328   3.591   1.408
 5720TIP3    H217102   8.249   3.475   1.465
 5721TIP3   OH217103   1.101   7.667   6.497
 5721TIP3    H117104   1.140   7.580   6.488
 5721TIP3    H217105   1.112   7.707   6.411
 5722TIP3   OH217106   5.935   7.291   3.260
 5722TIP3    H117107   5.925   7.346   3.183
 5722TIP3    H217108   5.857   7.234   3.259
 5723TIP3   OH217109   1.826   3.410   5.649
 5723TIP3    H117110   1.778   3.379   5.572
 5723TIP3    H217111   1.887   3.475   5.615
 5724TIP3   OH217112   4.465   3.805   4.901
 5724TIP3    H117113   4.381   3.818   4.946
 5724TIP3    H217114   4.526   3.863   4.948
 5725TIP3   OH217115   2.002   5.104   1.030
 5725TIP3    H117116   2.096   5.096   1.014
 5725TIP3    H217117   1.994   5.100   1.126
 5726TIP3   OH217118   3.948   1.699   6.578
 5726TIP3    H117119   3.983   1.695   6.667
 5726TIP3    H217120   3.885   1.771   6.581
 5727TIP3   OH217121   1.373   5.984   4.676
 5727TIP3    H117122   1.338   6.066   4.709
 5727TIP3    H217123   1.412   6.006   4.591
 5728TIP3   OH217124   6.430   6.490   2.431
 5728TIP3    H117125   6.358   6.475   2.493
 5728TIP3    H217126   6.443   6.585   2.432
 5729TIP3   OH217127   2.865   7.634   6.651
 5729TIP3    H117128   2.794   7.667   6.597
 5729TIP3    H217129   2.834   7.645   6.741
 5730TIP3   OH217130   0.199   3.614   6.119
 5730TIP3    H117131   0.240   3.556   6.055
 5730TIP3    H217132   0.142   3.670   6.067
 5731TIP3   OH217133   4.396   1.277   5.875
 5731TIP3    H117134   4.322   1.238   5.921
 5731TIP3    H217135   4.387   1.371   5.890
 5732TIP3   OH217136   0.458   0.848   0.785
 5732TIP3    H117137   0.527   0.782   0.780
 5732TIP3    H217138   0.502   0.931   0.765
 5733TIP3   OH217139   1.832   6.837   0.965
 5733TIP3    H117140   1.856   6.779   1.038
 5733TIP3    H217141   1.760   6.792   0.921
 5734TIP3   OH217142   2.889   6.301   4.099
 5734TIP3    H117143   2.921   6.327   4.186
 5734TIP3    H217144   2.908   6.208   4.093
 5735TIP3   OH217145   3.490   7.585   5.138
 5735TIP3    H117146   3.488   7.653   5.071
 5735TIP3    H217147   3.405   7.592   5.182
 5736TIP3   OH217148   2.632   0.973   1.827
 5736TIP3    H117149   2.593   1.058   1.846
 5736TIP3    H217150   2.717   0.975   1.871
 5737TIP3   OH217151   4.047   4.592   1.342
 5737TIP3    H117152   3.995   4.672   1.338
 5737TIP3    H217153   3.994   4.526   1.297
 5738TIP3   OH217154   3.830   2.724   3.640
 5738TIP3    H117155   3.809   2.730   3.733
 5738TIP3    H217156   3.772   2.656   3.606
 5739TIP3   OH217157   3.718   6.159   3.462
 5739TIP3    H117158   3.651   6.098   3.492
 5739TIP3    H217159   3.673   6.244   3.458
 5740TIP3   OH217160   7.822   2.799   3.612
 5740TIP3    H117161   7.874   2.856   3.556
 5740TIP3    H217162   7.746   2.852   3.636
 5741TIP3   OH217163   7.941   0.782   4.917
 5741TIP3    H117164   7.892   0.714   4.963
 5741TIP3    H217165   7.951   0.748   4.828
 5742TIP3   OH217166   1.451   0.914   0.287
 5742TIP3    H117167   1.488   0.907   0.375
 5742TIP3    H217168   1.520   0.954   0.235
 5743TIP3   OH217169   7.452   2.234   5.056
 5743TIP3    H117170   7.520   2.168   5.063
 5743TIP3    H217171   7.440   2.246   4.962
 5744TIP3   OH217172   2.567   2.300   4.084
 5744TIP3    H117173   2.610   2.245   4.150
 5744TIP3    H217174   2.625   2.376   4.074
 5745TIP3   OH217175   8.332   1.270   0.094
 5745TIP3    H117176   8.314   1.361   0.073
 5745TIP3    H217177   8.427   1.261   0.085
 5746TIP3   OH217178   3.936   2.139   1.183
 5746TIP3    H117179   3.914   2.203   1.116
 5746TIP3    H217180   3.872   2.069   1.172
 5747TIP3   OH217181   8.378   3.715   3.802
 5747TIP3    H117182   8.468   3.725   3.834
 5747TIP3    H217183   8.340   3.646   3.857
 5748TIP3   OH217184   6.526   0.636   0.667
 5748TIP3    H117185   6.568   0.634   0.754
 5748TIP3    H217186   6.480   0.552   0.661
 5749TIP3   OH217187   7.373   4.377   1.404
 5749TIP3    H117188   7.351   4.284   1.403
 5749TIP3    H217189   7.320   4.415   1.333
 5750TIP3   OH217190   8.118   4.992   4.291
 5750TIP3    H117191   8.065   4.946   4.356
 5750TIP3    H217192   8.071   4.980   4.209
 5751TIP3   OH217193   0.739   6.674   4.506
 5751TIP3    H117194   0.702   6.742   4.449
 5751TIP3    H217195   0.726   6.708   4.595
 5752TIP3   OH217196   6.551   0.290   4.319
 5752TIP3    H117197   6.468   0.252   4.348
 5752TIP3    H217198   6.608   0.288   4.396
 5753TIP3   OH217199   6.334   2.519   1.661
 5753TIP3    H117200   6.337   2.501   1.755
 5753TIP3    H217201   6.264   2.462   1.628
 5754TIP3   OH217202   3.668   1.264   3.385
 5754TIP3    H117203   3.652   1.230   3.297
 5754TIP3    H217204   3.582   1.294   3.415
 5755TIP3   OH217205   5.396   1.614   1.310
 5755TIP3    H117206   5.303   1.611   1.335
 5755TIP3    H217207   5.401   1.562   1.230
 5756TIP3   OH217208   0.878   1.869   1.805
 5756TIP3    H117209   0.905   1.949   1.848
 5756TIP3    H217210   0.928   1.800   1.848
 5757TIP3   OH217211   0.670   0.459   0.616
 5757TIP3    H117212   0.637   0.370   0.610
 5757TIP3    H217213   0.751   0.451   0.667
 5758TIP3   OH217214   8.033   1.423   6.579
 5758TIP3    H117215   8.115   1.378   6.597
 5758TIP3    H217216   8.016   1.406   6.486
 5759TIP3   OH217217   1.275   7.819   2.210
 5759TIP3    H117218   1.353   7.868   2.236
 5759TIP3    H217219   1.212   7.834   2.280
 5760TIP3   OH217220   4.546   4.392   5.179
 5760TIP3    H117221   4.528   4.455   5.249
 5760TIP3    H217222   4.626   4.423   5.138
 5761TIP3   OH217223   6.202   1.202   4.300
 5761TIP3    H117224   6.263   1.144   4.345
 5761TIP3    H217225   6.118   1.155   4.303
 5762TIP3   OH217226   4.838   6.274   3.081
 5762TIP3    H117227   4.764   6.229   3.121
 5762TIP3    H217228   4.854   6.228   2.999
 5763TIP3   OH217229   0.133   6.680   0.980
 5763TIP3    H117230   0.099   6.638   1.059
 5763TIP3    H217231   0.055   6.699   0.928
 5764TIP3   OH217232   7.823   2.406   5.835
 5764TIP3    H117233   7.901   2.372   5.791
 5764TIP3    H217234   7.856   2.475   5.892
 5765TIP3   OH217235   8.370   3.572   3.526
 5765TIP3    H117236   8.454   3.538   3.556
 5765TIP3    H217237   8.323   3.595   3.606
 5766TIP3   OH217238   5.528   3.044   4.773
 5766TIP3    H117239   5.449   3.097   4.782
 5766TIP3    H217240   5.559   3.063   4.684
 5767TIP3   OH217241   2.176   7.612   4.904
 5767TIP3    H117242   2.271   7.609   4.900
 5767TIP3    H217243   2.154   7.575   4.990
 5768TIP3   OH217244   0.615   5.451   2.447
 5768TIP3    H117245   0.669   5.490   2.515
 5768TIP3    H217246   0.531   5.436   2.489
 5769TIP3   OH217247   7.308   3.803   3.141
 5769TIP3    H117248   7.258   3.837   3.067
 5769TIP3    H217249   7.395   3.787   3.106
 5770TIP3   OH217250   1.069   4.744   0.351
 5770TIP3    H117251   0.993   4.735   0.293
 5770TIP3    H217252   1.047   4.817   0.409
 5771TIP3   OH217253   6.742   7.078   1.712
 5771TIP3    H117254   6.792   7.025   1.774
 5771TIP3    H217255   6.676   7.121   1.765
 5772TIP3   OH217256   0.361   6.455   6.473
 5772TIP3    H117257   0.365   6.380   6.414
 5772TIP3    H217258   0.444   6.501   6.459
 5773TIP3   OH217259   3.307   3.626   2.475
 5773TIP3    H117260   3.254   3.553   2.507
 5773TIP3    H217261   3.266   3.651   2.392
 5774TIP3   OH217262   5.074   4.812   4.772
 5774TIP3    H117263   4.988   4.770   4.769
 5774TIP3    H217264   5.110   4.798   4.684
 5775TIP3   OH217265   2.700   3.063   1.542
 5775TIP3    H117266   2.640   3.024   1.606
 5775TIP3    H217267   2.652   3.138   1.507
 5776TIP3   OH217268   4.502   2.904   3.363
 5776TIP3    H117269   4.559   2.893   3.287
 5776TIP3    H217270   4.552   2.960   3.423
 5777TIP3   OH217271   4.791   7.364   0.580
 5777TIP3    H117272   4.798   7.399   0.669
 5777TIP3    H217273   4.740   7.284   0.589
 5778TIP3   OH217274   3.311   0.973   3.299
 5778TIP3    H117275   3.225   0.953   3.336
 5778TIP3    H217276   3.373   0.945   3.367
 5779TIP3   OH217277   7.987   0.596   3.232
 5779TIP3    H117278   7.902   0.614   3.191
 5779TIP3    H217279   7.975   0.513   3.277
 5780TIP3   OH217280   3.625   6.382   1.876
 5780TIP3    H117281   3.605   6.474   1.895
 5780TIP3    H217282   3.687   6.357   1.944
 5781TIP3   OH217283   0.870   2.655   2.661
 5781TIP3    H117284   0.873   2.657   2.757
 5781TIP3    H217285   0.909   2.738   2.634
 5782TIP3   OH217286   4.392   4.350   4.716
 5782TIP3    H117287   4.339   4.333   4.793
 5782TIP3    H217288   4.329   4.347   4.643
 5783TIP3   OH217289   4.659   6.348   6.363
 5783TIP3    H117290   4.595   6.302   6.308
 5783TIP3    H217291   4.678   6.428   6.315
 5784TIP3   OH217292   7.076   7.014   0.555
 5784TIP3    H117293   7.037   7.097   0.530
 5784TIP3    H217294   7.170   7.029   0.554
 5785TIP3   OH217295   6.619   1.159   6.795
 5785TIP3    H117296   6.643   1.134   6.885
 5785TIP3    H217297   6.703   1.167   6.750
 5786TIP3   OH217298   6.362   1.307   0.110
 5786TIP3    H117299   6.389   1.335   0.198
 5786TIP3    H217300   6.317   1.384   0.074
 5787TIP3   OH217301   6.561   2.374   2.413
 5787TIP3    H117302   6.600   2.314   2.477
 5787TIP3    H217303   6.555   2.458   2.460
 5788TIP3   OH217304   0.052   3.859   1.439
 5788TIP3    H117305   0.089   3.892   1.521
 5788TIP3    H217306   0.021   3.938   1.395
 5789TIP3   OH217307   4.789   3.687   1.828
 5789TIP3    H117308   4.700   3.720   1.819
 5789TIP3    H217309   4.779   3.596   1.854
 5790TIP3   OH217310   1.475   4.270   4.096
 5790TIP3    H117311   1.490   4.243   4.006
 5790TIP3    H217312   1.475   4.188   4.146
 5791TIP3   OH217313   4.817   2.284   4.500
 5791TIP3    H117314   4.798   2.313   4.411
 5791TIP3    H217315   4.751   2.218   4.519
 5792TIP3   OH217316   6.884   1.871   3.980
 5792TIP3    H117317   6.809   1.824   4.016
 5792TIP3    H217318   6.959   1.813   3.998
 5793TIP3   OH217319   6.889   4.394   4.445
 5793TIP3    H117320   6.803   4.352   4.442
 5793TIP3    H217321   6.907   4.418   4.354
 5794TIP3   OH217322   0.710   7.512   3.056
 5794TIP3    H117323   0.681   7.435   3.105
 5794TIP3    H217324   0.636   7.573   3.060
 5795TIP3   OH217325   7.693   2.928   0.533
 5795TIP3    H117326   7.604   2.956   0.510
 5795TIP3    H217327   7.692   2.833   0.523
 5796TIP3   OH217328   6.032   3.508   5.916
 5796TIP3    H117329   6.101   3.446   5.938
 5796TIP3    H217330   6.076   3.577   5.866
 5797TIP3   OH217331   7.828   0.530   0.745
 5797TIP3    H117332   7.739   0.552   0.773
 5797TIP3    H217333   7.879   0.609   0.764
 5798TIP3   OH217334   1.350   1.538   3.173
 5798TIP3    H117335   1.424   1.486   3.142
 5798TIP3    H217336   1.367   1.626   3.140
 5799TIP3   OH217337   6.275   5.256   3.778
 5799TIP3    H117338   6.345   5.290   3.723
 5799TIP3    H217339   6.198   5.308   3.753
 5800TIP3   OH217340   5.717   4.004   5.006
 5800TIP3    H117341   5.733   3.909   5.003
 5800TIP3    H217342   5.624   4.013   4.986
 5801TIP3   OH217343   0.436   1.730  -0.017
 5801TIP3    H117344   0.525   1.752   0.010
 5801TIP3    H217345   0.388   1.720   0.065
 5802TIP3   OH217346   1.544   2.537   2.340
 5802TIP3    H117347   1.454   2.520   2.369
 5802TIP3    H217348   1.541   2.525   2.245
 5803TIP3   OH217349   6.290   4.061   4.283
 5803TIP3    H117350   6.367   4.051   4.339
 5803TIP3    H217351   6.232   4.119   4.331
 5804TIP3   OH217352   3.204   4.883   6.596
 5804TIP3    H117353   3.206   4.937   6.517
 5804TIP3    H217354   3.191   4.944   6.667
 5805TIP3   OH217355   2.942   1.395   6.585
 5805TIP3    H117356   2.985   1.401   6.499
 5805TIP3    H217357   2.901   1.309   6.585
 5806TIP3   OH217358   6.860   0.135   5.298
 5806TIP3    H117359   6.874   0.040   5.294
 5806TIP3    H217360   6.871   0.164   5.207
 5807TIP3   OH217361   3.654   7.032   0.120
 5807TIP3    H117362   3.677   6.939   0.121
 5807TIP3    H217363   3.709   7.071   0.188
 5808TIP3   OH217364   7.810   7.345   5.848
 5808TIP3    H117365   7.720   7.377   5.855
 5808TIP3    H217366   7.859   7.420   5.814
 5809TIP3   OH217367   7.450   3.776   2.202
 5809TIP3    H117368   7.397   3.709   2.159
 5809TIP3    H217369   7.441   3.853   2.145
 5810TIP3   OH217370   6.382   4.121   2.414
 5810TIP3    H117371   6.338   4.204   2.399
 5810TIP3    H217372   6.466   4.145   2.454
 5811TIP3   OH217373   2.811   4.667   1.763
 5811TIP3    H117374   2.717   4.684   1.753
 5811TIP3    H217375   2.850   4.702   1.683
 5812TIP3   OH217376   1.788   1.224   2.035
 5812TIP3    H117377   1.830   1.255   1.954
 5812TIP3    H217378   1.805   1.130   2.036
 5813TIP3   OH217379   7.940   6.839   4.829
 5813TIP3    H117380   7.960   6.932   4.839
 5813TIP3    H217381   7.844   6.835   4.830
 5814TIP3   OH217382   2.686   0.499   2.917
 5814TIP3    H117383   2.596   0.501   2.951
 5814TIP3    H217384   2.679   0.452   2.834
 5815TIP3   OH217385   0.589   7.776   1.231
 5815TIP3    H117386   0.510   7.830   1.235
 5815TIP3    H217387   0.588   7.739   1.143
 5816TIP3   OH217388   3.634   2.632   6.166
 5816TIP3    H117389   3.712   2.687   6.162
 5816TIP3    H217390   3.650   2.573   6.240
 5817TIP3   OH217391   4.013   6.173   4.028
 5817TIP3    H117392   3.935   6.225   4.045
 5817TIP3    H217393   4.064   6.177   4.109
 5818TIP3   OH217394   6.164   4.831   3.553
 5818TIP3    H117395   6.181   4.883   3.632
 5818TIP3    H217396   6.073   4.805   3.560
 5819TIP3   OH217397   7.148   2.147   4.352
 5819TIP3    H117398   7.058   2.173   4.372
 5819TIP3    H217399   7.199   2.227   4.365
 5820TIP3   OH217400   3.240   5.091   1.679
 5820TIP3    H117401   3.164   5.070   1.733
 5820TIP3    H217402   3.254   5.185   1.692
 5821TIP3   OH217403   1.128   2.509   3.518
 5821TIP3    H117404   1.063   2.441   3.497
 5821TIP3    H217405   1.174   2.524   3.435
 5822TIP3   OH217406   1.053   1.377   2.870
 5822TIP3    H117407   1.014   1.311   2.927
 5822TIP3    H217408   1.029   1.349   2.782
 5823TIP3   OH217409   4.354   5.255   3.344
 5823TIP3    H117410   4.437   5.217   3.373
 5823TIP3    H217411   4.287   5.194   3.376
 5824TIP3   OH217412   2.232   3.680   0.153
 5824TIP3    H117413   2.212   3.733   0.076
 5824TIP3    H217414   2.151   3.680   0.204
 5825TIP3   OH217415   5.342   1.227   4.576
 5825TIP3    H117416   5.362   1.154   4.635
 5825TIP3    H217417   5.407   1.293   4.599
 5826TIP3   OH217418   7.647   1.531   6.280
 5826TIP3    H117419   7.625   1.440   6.262
 5826TIP3    H217420   7.617   1.546   6.370
 5827TIP3   OH217421   7.501   4.874   6.219
 5827TIP3    H117422   7.592   4.901   6.226
 5827TIP3    H217423   7.452   4.946   6.258
 5828TIP3   OH217424   7.531   2.219   2.142
 5828TIP3    H117425   7.588   2.234   2.067
 5828TIP3    H217426   7.473   2.148   2.114
 5829TIP3   OH217427   2.326   6.060   2.971
 5829TIP3    H117428   2.241   6.021   2.990
 5829TIP3    H217429   2.334   6.132   3.033
 5830TIP3   OH217430   4.296   2.038   3.130
 5830TIP3    H117431   4.270   2.105   3.193
 5830TIP3    H217432   4.248   1.960   3.158
 5831TIP3   OH217433   8.417   3.670   0.075
 5831TIP3    H117434   8.365   3.732   0.126
 5831TIP3    H217435   8.372   3.587   0.085
 5832TIP3   OH217436   2.843   1.774   1.176
 5832TIP3    H117437   2.870   1.689   1.143
 5832TIP3    H217438   2.812   1.757   1.265
 5833TIP3   OH217439   1.890   7.216   1.728
 5833TIP3    H117440   1.867   7.150   1.793
 5833TIP3    H217441   1.963   7.265   1.767
 5834TIP3   OH217442   3.335   0.384   4.434
 5834TIP3    H117443   3.431   0.383   4.427
 5834TIP3    H217444   3.309   0.460   4.381
 5835TIP3   OH217445   5.774   5.107   5.894
 5835TIP3    H117446   5.869   5.100   5.893
 5835TIP3    H217447   5.746   5.065   5.812
 5836TIP3   OH217448   5.909   1.054   2.592
 5836TIP3    H117449   5.965   0.980   2.569
 5836TIP3    H217450   5.927   1.120   2.524
 5837TIP3   OH217451   8.367   5.106   4.349
 5837TIP3    H117452   8.297   5.050   4.316
 5837TIP3    H217453   8.352   5.111   4.443
 5838TIP3   OH217454   5.442   4.849   1.139
 5838TIP3    H117455   5.411   4.887   1.056
 5838TIP3    H217456   5.388   4.892   1.206
 5839TIP3   OH217457   5.423   0.390   4.702
 5839TIP3    H117458   5.447   0.459   4.764
 5839TIP3    H217459   5.405   0.436   4.621
 5840TIP3   OH217460   7.350   1.455   0.748
 5840TIP3    H117461   7.368   1.487   0.659
 5840TIP3    H217462   7.273   1.398   0.738
 5841TIP3   OH217463   6.388   4.025   1.371
 5841TIP3    H117464   6.409   4.115   1.395
 5841TIP3    H217465   6.428   3.972   1.440
 5842TIP3   OH217466   4.430   0.904   6.620
 5842TIP3    H117467   4.484   0.950   6.685
 5842TIP3    H217468   4.340   0.930   6.641
 5843TIP3   OH217469   7.645   5.115   2.223
 5843TIP3    H117470   7.701   5.162   2.285
 5843TIP3    H217471   7.618   5.037   2.271
 5844TIP3   OH217472   0.318   4.620   2.598
 5844TIP3    H117473   0.401   4.582   2.569
 5844TIP3    H217474   0.252   4.578   2.542
 5845TIP3   OH217475   7.276   6.313   2.988
 5845TIP3    H117476   7.327   6.393   3.000
 5845TIP3    H217477   7.288   6.264   3.069
 5846TIP3   OH217478   3.995   4.062   5.904
 5846TIP3    H117479   4.080   4.075   5.862
 5846TIP3    H217480   3.949   4.001   5.846
 5847TIP3   OH217481   4.464   7.307   5.434
 5847TIP3    H117482   4.471   7.371   5.505
 5847TIP3    H217483   4.530   7.333   5.370
 5848TIP3   OH217484   2.581   5.474   4.717
 5848TIP3    H117485   2.539   5.454   4.800
 5848TIP3    H217486   2.642   5.545   4.738
 5849TIP3   OH217487   0.972   5.800   2.434
 5849TIP3    H117488   0.944   5.822   2.345
 5849TIP3    H217489   1.015   5.715   2.426
 5850TIP3   OH217490   5.391   2.632   4.325
 5850TIP3    H117491   5.447   2.687   4.271
 5850TIP3    H217492   5.358   2.565   4.266
 5851TIP3   OH217493   0.572   1.684   5.635
 5851TIP3    H117494   0.639   1.728   5.687
 5851TIP3    H217495   0.606   1.596   5.622
 5852TIP3   OH217496   8.078   0.041   6.166
 5852TIP3    H117497   8.162   0.072   6.200
 5852TIP3    H217498   8.012   0.089   6.216
 5853TIP3   OH217499   4.444   0.465   3.300
 5853TIP3    H117500   4.357   0.426   3.293
 5853TIP3    H217501   4.501   0.404   3.253
 5854TIP3   OH217502   6.375   4.480   0.344
 5854TIP3    H117503   6.353   4.391   0.315
 5854TIP3    H217504   6.470   4.485   0.337
 5855TIP3   OH217505   4.440   7.017   5.612
 5855TIP3    H117506   4.358   7.057   5.640
 5855TIP3    H217507   4.438   7.025   5.516
 5856TIP3   OH217508   7.182   3.514   5.987
 5856TIP3    H117509   7.148   3.602   5.968
 5856TIP3    H217510   7.136   3.457   5.926
 5857TIP3   OH217511   8.192   4.035   5.501
 5857TIP3    H117512   8.253   3.963   5.517
 5857TIP3    H217513   8.234   4.088   5.434
 5858TIP3   OH217514   4.782   6.999   3.038
 5858TIP3    H117515   4.774   7.030   2.948
 5858TIP3    H217516   4.770   6.904   3.032
 5859TIP3   OH217517   1.063   4.575   6.212
 5859TIP3    H117518   0.983   4.592   6.262
 5859TIP3    H217519   1.079   4.657   6.165
 5860TIP3   OH217520   7.796   6.507   3.446
 5860TIP3    H117521   7.837   6.591   3.466
 5860TIP3    H217522   7.830   6.483   3.360
 5861TIP3   OH217523   3.901   5.293   4.722
 5861TIP3    H117524   3.978   5.335   4.684
 5861TIP3    H217525   3.936   5.219   4.772
 5862TIP3   OH217526   4.605   1.160   0.626
 5862TIP3    H117527   4.565   1.145   0.540
 5862TIP3    H217528   4.585   1.252   0.646
 5863TIP3   OH217529   7.257   0.942   5.213
 5863TIP3    H117530   7.203   0.986   5.148
 5863TIP3    H217531   7.341   0.988   5.211
 5864TIP3   OH217532   0.111   7.801   0.585
 5864TIP3    H117533   0.123   7.773   0.494
 5864TIP3    H217534   0.182   7.864   0.600
 5865TIP3   OH217535   4.419   2.466   1.102
 5865TIP3    H117536   4.423   2.408   1.178
 5865TIP3    H217537   4.333   2.449   1.063
 5866TIP3   OH217538   0.419   2.612   4.523
 5866TIP3    H117539   0.430   2.703   4.549
 5866TIP3    H217540   0.437   2.611   4.429
 5867TIP3   OH217541   0.859   7.720   4.011
 5867TIP3    H117542   0.942   7.718   4.058
 5867TIP3    H217543   0.870   7.657   3.940
 5868TIP3   OH217544   0.432   6.117   5.989
 5868TIP3    H117545   0.432   6.029   6.027
 5868TIP3    H217546   0.344   6.126   5.951
 5869TIP3   OH217547   6.047   0.524   1.730
 5869TIP3    H117548   6.061   0.504   1.638
 5869TIP3    H217549   6.128   0.568   1.758
 5870TIP3   OH217550   3.733   0.682   4.447
 5870TIP3    H117551   3.677   0.746   4.492
 5870TIP3    H217552   3.808   0.670   4.506
 5871TIP3   OH217553   2.254   1.360   3.506
 5871TIP3    H117554   2.334   1.309   3.515
 5871TIP3    H217555   2.265   1.410   3.425
 5872TIP3   OH217556   7.556   4.842   0.515
 5872TIP3    H117557   7.567   4.929   0.477
 5872TIP3    H217558   7.462   4.831   0.523
 5873TIP3   OH217559   7.915   3.835   6.528
 5873TIP3    H117560   7.978   3.906   6.519
 5873TIP3    H217561   7.962   3.757   6.498
 5874TIP3   OH217562   6.994  -0.027   0.709
 5874TIP3    H117563   6.964  -0.016   0.618
 5874TIP3    H217564   6.987   0.060   0.747
 5875TIP3   OH217565   8.145   6.223   5.319
 5875TIP3    H117566   8.199   6.144   5.315
 5875TIP3    H217567   8.058   6.193   5.294
 5876TIP3   OH217568   7.851   6.378   6.702
 5876TIP3    H117569   7.862   6.284   6.713
 5876TIP3    H217570   7.767   6.398   6.745
 5877TIP3   OH217571   1.474   4.170   1.361
 5877TIP3    H117572   1.392   4.218   1.375
 5877TIP3    H217573   1.447   4.090   1.315
 5878TIP3   OH217574   0.285   7.588   0.144
 5878TIP3    H117575   0.308   7.615   0.055
 5878TIP3    H217576   0.308   7.495   0.147
 5879TIP3   OH217577   8.292   5.259   1.888
 5879TIP3    H117578   8.316   5.350   1.907
 5879TIP3    H217579   8.209   5.247   1.935
 5880TIP3   OH217580   5.404   4.861   1.750
 5880TIP3    H117581   5.324   4.819   1.719
 5880TIP3    H217582   5.466   4.790   1.764
 5881TIP3   OH217583   2.001   7.560   1.445
 5881TIP3    H117584   2.093   7.537   1.451
 5881TIP3    H217585   2.000   7.637   1.387
 5882TIP3   OH217586   7.287   0.626   6.648
 5882TIP3    H117587   7.254   0.647   6.561
 5882TIP3    H217588   7.350   0.555   6.633
 5883TIP3   OH217589   8.121   2.239   5.148
 5883TIP3    H117590   8.054   2.304   5.169
 5883TIP3    H217591   8.142   2.198   5.232
 5884TIP3   OH217592   3.435   5.354   4.594
 5884TIP3    H117593   3.353   5.396   4.570
 5884TIP3    H217594   3.437   5.274   4.543
 5885TIP3   OH217595   2.334   0.130   5.431
 5885TIP3    H117596   2.295   0.077   5.500
 5885TIP3    H217597   2.291   0.216   5.439
 5886TIP3   OH217598   3.842   0.015   1.396
 5886TIP3    H117599   3.831   0.097   1.346
 5886TIP3    H217600   3.847  -0.053   1.329
 5887TIP3   OH217601   7.041   3.874   0.693
 5887TIP3    H117602   7.063   3.804   0.755
 5887TIP3    H217603   7.098   3.946   0.717
 5888TIP3   OH217604   8.219   7.666   2.376
 5888TIP3    H117605   8.251   7.613   2.303
 5888TIP3    H217606   8.299   7.699   2.418
 5889TIP3   OH217607   6.959   6.916   5.255
 5889TIP3    H117608   6.871   6.911   5.217
 5889TIP3    H217609   7.017   6.881   5.187
 5890TIP3   OH217610   3.827   2.434   2.585
 5890TIP3    H117611   3.905   2.379   2.581
 5890TIP3    H217612   3.754   2.371   2.579
 5891TIP3   OH217613   2.590   0.091   1.679
 5891TIP3    H117614   2.645   0.167   1.698
 5891TIP3    H217615   2.540   0.117   1.601
 5892TIP3   OH217616   3.801   4.798   1.728
 5892TIP3    H117617   3.826   4.758   1.645
 5892TIP3    H217618   3.705   4.794   1.728
 5893TIP3   OH217619   1.478   5.115   3.659
 5893TIP3    H117620   1.401   5.058   3.657
 5893TIP3    H217621   1.500   5.122   3.752
 5894TIP3   OH217622   3.306   6.848   4.870
 5894TIP3    H117623   3.289   6.767   4.917
 5894TIP3    H217624   3.252   6.842   4.791
 5895TIP3   OH217625   7.824   0.509   3.913
 5895TIP3    H117626   7.866   0.473   3.835
 5895TIP3    H217627   7.734   0.477   3.908
 5896TIP3   OH217628   5.083   3.990   2.705
 5896TIP3    H117629   5.010   3.971   2.646
 5896TIP3    H217630   5.048   3.975   2.793
 5897TIP3   OH217631   1.552   5.422   1.179
 5897TIP3    H117632   1.600   5.420   1.096
 5897TIP3    H217633   1.465   5.389   1.156
 5898TIP3   OH217634   2.655   2.794   2.673
 5898TIP3    H117635   2.723   2.729   2.690
 5898TIP3    H217636   2.575   2.742   2.661
 5899TIP3   OH217637   5.043   4.971   6.354
 5899TIP3    H117638   5.033   5.051   6.405
 5899TIP3    H217639   5.122   4.986   6.302
 5900TIP3   OH217640   1.203   5.663   0.037
 5900TIP3    H117641   1.189   5.756   0.058
 5900TIP3    H217642   1.270   5.635   0.099
 5901TIP3   OH217643   0.082   2.742   2.346
 5901TIP3    H117644   0.162   2.714   2.390
 5901TIP3    H217645   0.108   2.819   2.296
 5902TIP3   OH217646   0.824   7.838   2.738
 5902TIP3    H117647   0.787   7.857   2.652
 5902TIP3    H217648   0.820   7.742   2.744
 5903TIP3   OH217649   5.527   6.768   4.503
 5903TIP3    H117650   5.518   6.689   4.556
 5903TIP3    H217651   5.437   6.792   4.480
 5904TIP3   OH217652   5.581   3.656   0.402
 5904TIP3    H117653   5.633   3.734   0.384
 5904TIP3    H217654   5.633   3.605   0.464
 5905TIP3   OH217655   0.149   1.048   2.483
 5905TIP3    H117656   0.238   1.015   2.487
 5905TIP3    H217657   0.122   1.056   2.575
 5906TIP3   OH217658   5.731   3.995   4.526
 5906TIP3    H117659   5.663   3.995   4.594
 5906TIP3    H217660   5.813   3.985   4.575
 5907TIP3   OH217661   3.366   1.080   3.723
 5907TIP3    H117662   3.289   1.133   3.703
 5907TIP3    H217663   3.349   1.043   3.810
 5908TIP3   OH217664   4.607   7.155   0.705
 5908TIP3    H117665   4.600   7.239   0.751
 5908TIP3    H217666   4.560   7.093   0.761
 5909TIP3   OH217667   8.073   7.110   4.161
 5909TIP3    H117668   8.152   7.129   4.111
 5909TIP3    H217669   8.017   7.059   4.102
 5910TIP3   OH217670   6.875   2.462   0.077
 5910TIP3    H117671   6.926   2.493   0.152
 5910TIP3    H217672   6.895   2.369   0.072
 5911TIP3   OH217673   5.623   5.347   3.240
 5911TIP3    H117674   5.657   5.395   3.316
 5911TIP3    H217675   5.649   5.256   3.256
 5912TIP3   OH217676   5.743   5.312   3.928
 5912TIP3    H117677   5.653   5.343   3.921
 5912TIP3    H217678   5.796   5.391   3.918
 5913TIP3   OH217679   1.826   7.821   4.955
 5913TIP3    H117680   1.878   7.782   5.025
 5913TIP3    H217681   1.761   7.753   4.934
 5914TIP3   OH217682   8.245   6.796   6.489
 5914TIP3    H117683   8.163   6.837   6.517
 5914TIP3    H217684   8.294   6.868   6.448
 5915TIP3   OH217685   8.001   2.634   4.496
 5915TIP3    H117686   8.051   2.564   4.454
 5915TIP3    H217687   8.056   2.663   4.568
 5916TIP3   OH217688   1.386   1.704   1.950
 5916TIP3    H117689   1.331   1.761   2.003
 5916TIP3    H217690   1.457   1.762   1.919
 5917TIP3   OH217691   5.899   4.234   0.319
 5917TIP3    H117692   5.914   4.306   0.381
 5917TIP3    H217693   5.977   4.235   0.263
 5918TIP3   OH217694  -0.019   0.285   2.842
 5918TIP3    H117695   0.065   0.330   2.828
 5918TIP3    H217696   0.001   0.218   2.908
 5919TIP3   OH217697   2.554   6.267   3.209
 5919TIP3    H117698   2.565   6.354   3.249
 5919TIP3    H217699   2.644   6.236   3.197
 5920TIP3   OH217700   0.683   1.141   4.065
 5920TIP3    H117701   0.700   1.101   4.150
 5920TIP3    H217702   0.634   1.221   4.085
 5921TIP3   OH217703   0.235   3.435   5.585
 5921TIP3    H117704   0.164   3.494   5.608
 5921TIP3    H217705   0.246   3.445   5.491
 5922TIP3   OH217706   3.367   0.796   5.329
 5922TIP3    H117707   3.378   0.887   5.300
 5922TIP3    H217708   3.348   0.747   5.249
 5923TIP3   OH217709   1.089   2.819   0.690
 5923TIP3    H117710   1.024   2.750   0.705
 5923TIP3    H217711   1.046   2.899   0.719
 5924TIP3   OH217712   5.486   3.989   1.882
 5924TIP3    H117713   5.467   3.965   1.973
 5924TIP3    H217714   5.564   3.937   1.860
 5925TIP3   OH217715   0.575   2.359   2.992
 5925TIP3    H117716   0.658   2.319   3.018
 5925TIP3    H217717   0.508   2.304   3.033
 5926TIP3   OH217718   8.359   3.036   3.938
 5926TIP3    H117719   8.294   2.985   3.986
 5926TIP3    H217720   8.429   3.053   4.001
 5927TIP3   OH217721   4.887   7.600   1.654
 5927TIP3    H117722   4.901   7.677   1.599
 5927TIP3    H217723   4.805   7.618   1.700
 5928TIP3   OH217724   5.927   3.407   0.663
 5928TIP3    H117725   6.005   3.461   0.675
 5928TIP3    H217726   5.933   3.339   0.730
 5929TIP3   OH217727   2.641   2.649   4.969
 5929TIP3    H117728   2.595   2.715   4.917
 5929TIP3    H217729   2.619   2.566   4.929
 5930TIP3   OH217730   3.673   2.530   5.230
 5930TIP3    H117731   3.675   2.467   5.158
 5930TIP3    H217732   3.706   2.482   5.305
 5931TIP3   OH217733   7.070   1.836   2.912
 5931TIP3    H117734   7.104   1.881   2.835
 5931TIP3    H217735   7.057   1.746   2.883
 5932TIP3   OH217736   6.593   3.216   1.114
 5932TIP3    H117737   6.605   3.258   1.028
 5932TIP3    H217738   6.508   3.247   1.144
 5933TIP3   OH217739   0.610   0.177   0.587
 5933TIP3    H117740   0.699   0.152   0.609
 5933TIP3    H217741   0.595   0.138   0.501
 5934TIP3   OH217742   6.228   1.778   4.941
 5934TIP3    H117743   6.271   1.693   4.933
 5934TIP3    H217744   6.192   1.780   5.029
 5935TIP3   OH217745   8.195   5.116   6.422
 5935TIP3    H117746   8.247   5.196   6.419
 5935TIP3    H217747   8.207   5.082   6.510
 5936TIP3   OH217748   5.812   2.732   3.027
 5936TIP3    H117749   5.801   2.663   2.962
 5936TIP3    H217750   5.896   2.773   3.005
 5937TIP3   OH217751   3.423   6.301   3.219
 5937TIP3    H117752   3.360   6.229   3.210
 5937TIP3    H217753   3.503   6.268   3.178
 5938TIP3   OH217754   3.646   3.846   6.064
 5938TIP3    H117755   3.739   3.830   6.053
 5938TIP3    H217756   3.604   3.767   6.029
 5939TIP3   OH217757   0.333   5.056   4.575
 5939TIP3    H117758   0.290   5.071   4.491
 5939TIP3    H217759   0.323   5.139   4.621
 5940TIP3   OH217760   3.311   4.114   1.554
 5940TIP3    H117761   3.259   4.045   1.596
 5940TIP3    H217762   3.328   4.081   1.466
 5941TIP3   OH217763   5.518   0.606   2.572
 5941TIP3    H117764   5.558   0.580   2.655
 5941TIP3    H217765   5.445   0.545   2.561
 5942TIP3   OH217766   7.463   3.897   6.197
 5942TIP3    H117767   7.407   3.835   6.245
 5942TIP3    H217768   7.546   3.895   6.245
 5943TIP3   OH217769   3.061   0.749   5.337
 5943TIP3    H117770   3.022   0.790   5.414
 5943TIP3    H217771   3.106   0.671   5.371
 5944TIP3   OH217772   2.673   2.095   0.609
 5944TIP3    H117773   2.751   2.118   0.558
 5944TIP3    H217774   2.650   2.007   0.579
 5945TIP3   OH217775   4.189   1.247   0.155
 5945TIP3    H117776   4.142   1.167   0.181
 5945TIP3    H217777   4.120   1.303   0.119
 5946TIP3   OH217778   3.273   6.607   4.997
 5946TIP3    H117779   3.186   6.575   5.021
 5946TIP3    H217780   3.304   6.655   5.074
 5947TIP3   OH217781   6.854   2.197   5.111
 5947TIP3    H117782   6.875   2.127   5.049
 5947TIP3    H217783   6.838   2.274   5.056
 5948TIP3   OH217784   4.544   5.375   0.772
 5948TIP3    H117785   4.451   5.378   0.748
 5948TIP3    H217786   4.574   5.465   0.759
 5949TIP3   OH217787   5.516   3.790   4.265
 5949TIP3    H117788   5.485   3.706   4.299
 5949TIP3    H217789   5.598   3.806   4.311
 5950TIP3   OH217790   0.091   5.863   5.862
 5950TIP3    H117791   0.009   5.821   5.836
 5950TIP3    H217792   0.125   5.808   5.932
 5951TIP3   OH217793   3.703   6.979   1.101
 5951TIP3    H117794   3.789   6.947   1.129
 5951TIP3    H217795   3.643   6.951   1.170
 5952TIP3   OH217796   7.981   5.325   6.094
 5952TIP3    H117797   7.957   5.252   6.151
 5952TIP3    H217798   8.049   5.372   6.142
 5953TIP3   OH217799   3.944   3.134   2.018
 5953TIP3    H117800   4.032   3.153   1.984
 5953TIP3    H217801   3.959   3.064   2.082
 5954TIP3   OH217802   3.509   0.871   5.975
 5954TIP3    H117803   3.556   0.946   6.011
 5954TIP3    H217804   3.564   0.840   5.903
 5955TIP3   OH217805   6.581   3.520   3.861
 5955TIP3    H117806   6.491   3.506   3.833
 5955TIP3    H217807   6.595   3.614   3.852
 5956TIP3   OH217808   7.945   2.328   4.886
 5956TIP3    H117809   7.978   2.251   4.933
 5956TIP3    H217810   8.022   2.385   4.877
 5957TIP3   OH217811   1.986   1.745   0.615
 5957TIP3    H117812   2.006   1.653   0.628
 5957TIP3    H217813   1.892   1.747   0.596
 5958TIP3   OH217814   3.604   4.383   1.601
 5958TIP3    H117815   3.592   4.350   1.690
 5958TIP3    H217816   3.533   4.445   1.588
 5959TIP3   OH217817   1.475   0.795   6.216
 5959TIP3    H117818   1.514   0.725   6.267
 5959TIP3    H217819   1.384   0.798   6.244
 5960TIP3   OH217820   4.896   5.630   3.738
 5960TIP3    H117821   4.961   5.672   3.682
 5960TIP3    H217822   4.945   5.602   3.815
 5961TIP3   OH217823   7.607   7.179   3.137
 5961TIP3    H117824   7.525   7.161   3.091
 5961TIP3    H217825   7.620   7.273   3.129
 5962TIP3   OH217826   6.400   3.099   6.026
 5962TIP3    H117827   6.399   3.175   5.967
 5962TIP3    H217828   6.365   3.027   5.973
 5963TIP3   OH217829   2.706   1.560   2.537
 5963TIP3    H117830   2.679   1.468   2.540
 5963TIP3    H217831   2.637   1.607   2.586
 5964TIP3   OH217832   1.282   7.360   1.493
 5964TIP3    H117833   1.268   7.443   1.538
 5964TIP3    H217834   1.298   7.384   1.402
 5965TIP3   OH217835   2.263   1.867   5.386
 5965TIP3    H117836   2.268   1.859   5.290
 5965TIP3    H217837   2.349   1.900   5.412
 5966TIP3   OH217838   1.756   3.608   0.169
 5966TIP3    H117839   1.687   3.546   0.145
 5966TIP3    H217840   1.791   3.639   0.086
 5967TIP3   OH217841   0.488   3.806   3.628
 5967TIP3    H117842   0.544   3.800   3.551
 5967TIP3    H217843   0.445   3.721   3.633
 5968TIP3   OH217844   4.540   5.374   2.489
 5968TIP3    H117845   4.520   5.285   2.463
 5968TIP3    H217846   4.627   5.392   2.453
 5969TIP3   OH217847   4.669   5.704   6.052
 5969TIP3    H117848   4.756   5.719   6.015
 5969TIP3    H217849   4.627   5.644   5.991
 5970TIP3   OH217850   3.397   7.528   0.108
 5970TIP3    H117851   3.462   7.459   0.123
 5970TIP3    H217852   3.439   7.608   0.139
 5971TIP3   OH217853   5.807   0.959   2.012
 5971TIP3    H117854   5.838   0.872   1.985
 5971TIP3    H217855   5.881   0.996   2.059
 5972TIP3   OH217856   3.059   5.878   5.333
 5972TIP3    H117857   3.140   5.839   5.298
 5972TIP3    H217858   2.998   5.874   5.259
 5973TIP3   OH217859   3.157   5.006   3.759
 5973TIP3    H117860   3.215   5.075   3.791
 5973TIP3    H217861   3.178   4.930   3.813
 5974TIP3   OH217862   3.238   7.197   1.041
 5974TIP3    H117863   3.313   7.139   1.051
 5974TIP3    H217864   3.267   7.264   0.979
 5975TIP3   OH217865   4.764   6.996   4.219
 5975TIP3    H117866   4.791   6.928   4.280
 5975TIP3    H217867   4.763   7.077   4.271
 5976TIP3   OH217868   2.466   7.147   3.455
 5976TIP3    H117869   2.536   7.156   3.519
 5976TIP3    H217870   2.386   7.148   3.507
 5977TIP3   OH217871   2.687   1.041   1.356
 5977TIP3    H117872   2.646   0.999   1.432
 5977TIP3    H217873   2.721   1.124   1.391
 5978TIP3   OH217874   7.633   6.168   4.099
 5978TIP3    H117875   7.618   6.078   4.070
 5978TIP3    H217876   7.727   6.172   4.116
 5979TIP3   OH217877   8.210   7.282   2.959
 5979TIP3    H117878   8.237   7.337   3.033
 5979TIP3    H217879   8.292   7.245   2.926
 5980TIP3   OH217880   2.837   3.464   0.808
 5980TIP3    H117881   2.830   3.500   0.896
 5980TIP3    H217882   2.781   3.521   0.754
 5981TIP3   OH217883   1.461   7.018   6.180
 5981TIP3    H117884   1.535   7.078   6.179
 5981TIP3    H217885   1.500   6.931   6.171
 5982TIP3   OH217886   2.731   7.109   5.530
 5982TIP3    H117887   2.656   7.065   5.491
 5982TIP3    H217888   2.693   7.172   5.592
 5983TIP3   OH217889   3.668   7.331   4.299
 5983TIP3    H117890   3.599   7.287   4.249
 5983TIP3    H217891   3.730   7.262   4.321
 5984TIP3   OH217892   7.896   6.498   4.645
 5984TIP3    H117893   7.827   6.433   4.648
 5984TIP3    H217894   7.889   6.544   4.729
 5985TIP3   OH217895   7.201   4.476   6.602
 5985TIP3    H117896   7.281   4.438   6.636
 5985TIP3    H217897   7.143   4.485   6.678
 5986TIP3   OH217898   4.311   6.373   2.600
 5986TIP3    H117899   4.368   6.360   2.676
 5986TIP3    H217900   4.356   6.437   2.546
 5987TIP3   OH217901   7.329   5.117   1.926
 5987TIP3    H117902   7.382   5.174   1.870
 5987TIP3    H217903   7.253   5.094   1.872
 5988TIP3   OH217904   4.697   6.848   0.068
 5988TIP3    H117905   4.670   6.851   0.159
 5988TIP3    H217906   4.764   6.779   0.064
 5989TIP3   OH217907   1.472   1.910   5.384
 5989TIP3    H117908   1.541   1.956   5.336
 5989TIP3    H217909   1.514   1.831   5.418
 5990TIP3   OH217910   2.838   5.158   2.698
 5990TIP3    H117911   2.757   5.195   2.663
 5990TIP3    H217912   2.874   5.227   2.753
 5991TIP3   OH217913   6.492   0.676   3.229
 5991TIP3    H117914   6.554   0.747   3.212
 5991TIP3    H217915   6.525   0.633   3.308
 5992TIP3   OH217916   1.558   2.598   6.569
 5992TIP3    H117917   1.573   2.685   6.605
 5992TIP3    H217918   1.463   2.592   6.559
 5993TIP3   OH217919   5.978   6.617   1.363
 5993TIP3    H117920   5.902   6.667   1.336
 5993TIP3    H217921   5.945   6.559   1.433
 5994TIP3   OH217922   6.566   0.283   2.769
 5994TIP3    H117923   6.633   0.282   2.837
 5994TIP3    H217924   6.574   0.197   2.727
 5995TIP3   OH217925   7.740   4.365   3.200
 5995TIP3    H117926   7.677   4.293   3.197
 5995TIP3    H217927   7.798   4.350   3.125
 5996TIP3   OH217928   4.908   0.512   4.528
 5996TIP3    H117929   4.821   0.549   4.543
 5996TIP3    H217930   4.895   0.417   4.529
 5997TIP3   OH217931   6.095   5.104   1.612
 5997TIP3    H117932   6.084   5.012   1.636
 5997TIP3    H217933   6.096   5.105   1.517
 5998TIP3   OH217934   3.337   3.169   3.416
 5998TIP3    H117935   3.312   3.138   3.328
 5998TIP3    H217936   3.314   3.262   3.416
 5999TIP3   OH217937   7.702   7.308   1.023
 5999TIP3    H117938   7.700   7.291   1.117
 5999TIP3    H217939   7.778   7.261   0.991
 6000TIP3   OH217940   8.094   2.246   4.207
 6000TIP3    H117941   8.165   2.305   4.179
 6000TIP3    H217942   8.134   2.160   4.210
 6001TIP3   OH217943   2.403   4.388   2.464
 6001TIP3    H117944   2.353   4.382   2.546
 6001TIP3    H217945   2.459   4.310   2.465
 6002TIP3   OH217946   0.252   1.956   5.037
 6002TIP3    H117947   0.283   2.028   4.982
 6002TIP3    H217948   0.286   1.877   4.994
 6003TIP3   OH217949   3.165   7.030   3.265
 6003TIP3    H117950   3.221   7.095   3.222
 6003TIP3    H217951   3.173   6.952   3.211
 6004TIP3   OH217952   1.434   4.754   2.005
 6004TIP3    H117953   1.397   4.802   1.931
 6004TIP3    H217954   1.515   4.716   1.971
 6005TIP3   OH217955   1.033   2.803   2.961
 6005TIP3    H117956   0.959   2.744   2.946
 6005TIP3    H217957   0.993   2.889   2.976
 6006TIP3   OH217958   6.411   6.321   1.519
 6006TIP3    H117959   6.364   6.351   1.597
 6006TIP3    H217960   6.493   6.285   1.554
 6007TIP3   OH217961   6.117   4.791   5.923
 6007TIP3    H117962   6.050   4.724   5.910
 6007TIP3    H217963   6.162   4.796   5.839
 6008TIP3   OH217964   6.786   3.244   2.391
 6008TIP3    H117965   6.867   3.201   2.361
 6008TIP3    H217966   6.737   3.174   2.435
 6009TIP3   OH217967   3.582   5.164   1.304
 6009TIP3    H117968   3.555   5.089   1.357
 6009TIP3    H217969   3.511   5.175   1.240
 6010TIP3   OH217970   0.556   5.758   1.529
 6010TIP3    H117971   0.498   5.834   1.532
 6010TIP3    H217972   0.505   5.691   1.483
 6011TIP3   OH217973   4.498   7.722   2.091
 6011TIP3    H117974   4.476   7.809   2.126
 6011TIP3    H217975   4.529   7.673   2.167
 6012TIP3   OH217976   1.732   0.565   6.477
 6012TIP3    H117977   1.758   0.653   6.503
 6012TIP3    H217978   1.665   0.539   6.540
 6013TIP3   OH217979   3.110   1.436   0.462
 6013TIP3    H117980   3.093   1.391   0.545
 6013TIP3    H217981   3.067   1.521   0.471
 6014TIP3   OH217982   1.455   5.679   3.908
 6014TIP3    H117983   1.511   5.757   3.913
 6014TIP3    H217984   1.367   5.712   3.926
 6015TIP3   OH217985   0.872   2.673   1.917
 6015TIP3    H117986   0.892   2.687   1.824
 6015TIP3    H217987   0.953   2.637   1.953
 6016TIP3   OH217988   4.792   7.234   6.177
 6016TIP3    H117989   4.809   7.297   6.246
 6016TIP3    H217990   4.701   7.249   6.151
 6017TIP3   OH217991   5.870   0.503   2.772
 6017TIP3    H117992   5.877   0.569   2.841
 6017TIP3    H217993   5.780   0.473   2.776
 6018TIP3   OH217994   3.752   4.615   2.732
 6018TIP3    H117995   3.763   4.627   2.638
 6018TIP3    H217996   3.658   4.603   2.744
 6019TIP3   OH217997   4.839   5.625   4.905
 6019TIP3    H117998   4.772   5.574   4.860
 6019TIP3    H217999   4.922   5.597   4.867
 6020TIP3   OH218000   0.309   0.811   5.491
 6020TIP3    H118001   0.326   0.720   5.469
 6020TIP3    H218002   0.240   0.807   5.558
 6021TIP3   OH218003   4.744   0.278   5.996
 6021TIP3    H118004   4.649   0.273   6.008
 6021TIP3    H218005   4.779   0.206   6.049
 6022TIP3   OH218006   0.802   3.858   2.167
 6022TIP3    H118007   0.771   3.769   2.150
 6022TIP3    H218008   0.883   3.847   2.217
 6023TIP3   OH218009   7.536   7.101   1.680
 6023TIP3    H118010   7.452   7.070   1.713
 6023TIP3    H218011   7.585   7.126   1.759
 6024TIP3   OH218012   3.022   0.637   0.032
 6024TIP3    H118013   3.038   0.645   0.126
 6024TIP3    H218014   3.028   0.726  -0.001
 6025TIP3   OH218015   0.804   5.656   3.896
 6025TIP3    H118016   0.719   5.623   3.927
 6025TIP3    H218017   0.786   5.687   3.807
 6026TIP3   OH218018   3.441   2.016   1.515
 6026TIP3    H118019   3.381   2.048   1.448
 6026TIP3    H218020   3.523   1.999   1.469
 6027TIP3   OH218021   1.744   4.655   1.272
 6027TIP3    H118022   1.698   4.571   1.284
 6027TIP3    H218023   1.823   4.646   1.325
 6028TIP3   OH218024   6.354   3.664   3.725
 6028TIP3    H118025   6.270   3.657   3.770
 6028TIP3    H218026   6.346   3.603   3.652
 6029TIP3   OH218027   7.429   1.254   4.334
 6029TIP3    H118028   7.425   1.227   4.425
 6029TIP3    H218029   7.346   1.223   4.296
 6030TIP3   OH218030   1.714   1.800   0.568
 6030TIP3    H118031   1.663   1.815   0.488
 6030TIP3    H218032   1.751   1.886   0.589
 6031TIP3   OH218033   4.877   3.668   4.649
 6031TIP3    H118034   4.904   3.713   4.729
 6031TIP3    H218035   4.889   3.733   4.580
 6032TIP3   OH218036   6.452   0.969   2.813
 6032TIP3    H118037   6.466   1.004   2.901
 6032TIP3    H218038   6.460   1.044   2.756
 6033TIP3   OH218039   6.953   0.534   2.529
 6033TIP3    H118040   6.860   0.540   2.553
 6033TIP3    H218041   6.997   0.595   2.588
 6034TIP3   OH218042   1.294   2.401   0.569
 6034TIP3    H118043   1.317   2.494   0.567
 6034TIP3    H218044   1.210   2.398   0.616
 6035TIP3   OH218045   7.396   6.626   0.898
 6035TIP3    H118046   7.306   6.592   0.899
 6035TIP3    H218047   7.387   6.713   0.858
 6036TIP3   OH218048   7.031   3.603   3.677
 6036TIP3    H118049   7.073   3.634   3.597
 6036TIP3    H218050   7.026   3.680   3.733
 6037TIP3   OH218051   0.962   3.833   4.051
 6037TIP3    H118052   0.989   3.756   4.100
 6037TIP3    H218053   0.910   3.798   3.979
 6038TIP3   OH218054   5.830   3.838   4.292
 6038TIP3    H118055   5.814   3.897   4.366
 6038TIP3    H218056   5.919   3.860   4.263
 6039TIP3   OH218057   0.887   4.161   5.799
 6039TIP3    H118058   0.858   4.083   5.753
 6039TIP3    H218059   0.968   4.187   5.753
 6040TIP3   OH218060   1.882   3.362   5.919
 6040TIP3    H118061   1.860   3.362   5.826
 6040TIP3    H218062   1.962   3.309   5.925
 6041TIP3   OH218063   2.048   1.503   3.201
 6041TIP3    H118064   2.123   1.446   3.221
 6041TIP3    H218065   2.076   1.590   3.231
 6042TIP3   OH218066   2.301   6.087   0.824
 6042TIP3    H118067   2.250   6.010   0.851
 6042TIP3    H218068   2.263   6.112   0.740
 6043TIP3   OH218069   2.527   5.485   0.577
 6043TIP3    H118070   2.522   5.474   0.482
 6043TIP3    H218071   2.621   5.491   0.596
 6044TIP3   OH218072   2.091   6.434   0.712
 6044TIP3    H118073   2.151   6.427   0.787
 6044TIP3    H218074   2.009   6.396   0.743
 6045TIP3   OH218075   0.763   7.800   1.544
 6045TIP3    H118076   0.851   7.818   1.577
 6045TIP3    H218077   0.707   7.800   1.621
 6046TIP3   OH218078   2.783   1.544   4.495
 6046TIP3    H118079   2.874   1.562   4.471
 6046TIP3    H218080   2.747   1.496   4.420
 6047TIP3   OH218081   6.643   2.181   2.026
 6047TIP3    H118082   6.727   2.206   2.066
 6047TIP3    H218083   6.652   2.087   2.011
 6048TIP3   OH218084   4.352   3.833   0.802
 6048TIP3    H118085   4.290   3.771   0.764
 6048TIP3    H218086   4.421   3.841   0.736
 6049TIP3   OH218087   7.661   7.660   4.317
 6049TIP3    H118088   7.754   7.643   4.334
 6049TIP3    H218089   7.651   7.649   4.222
 6050TIP3   OH218090   1.074   7.494   1.874
 6050TIP3    H118091   1.127   7.547   1.934
 6050TIP3    H218092   1.038   7.424   1.928
 6051TIP3   OH218093   6.411   7.540   2.876
 6051TIP3    H118094   6.352   7.614   2.864
 6051TIP3    H218095   6.431   7.540   2.970
 6052TIP3   OH218096   2.173   3.740   3.211
 6052TIP3    H118097   2.178   3.647   3.191
 6052TIP3    H218098   2.252   3.758   3.262
 6053TIP3   OH218099   0.504   3.241   4.836
 6053TIP3    H118100   0.586   3.198   4.859
 6053TIP3    H218101   0.455   3.176   4.786
 6054TIP3   OH218102   6.437   7.390   2.297
 6054TIP3    H118103   6.356   7.404   2.248
 6054TIP3    H218104   6.468   7.478   2.319
 6055TIP3   OH218105   6.716   3.769   0.965
 6055TIP3    H118106   6.799   3.723   0.949
 6055TIP3    H218107   6.649   3.709   0.932
 6056TIP3   OH218108   5.235   7.020   1.124
 6056TIP3    H118109   5.297   6.963   1.078
 6056TIP3    H218110   5.254   7.107   1.091
 6057TIP3   OH218111   0.767   2.039   6.304
 6057TIP3    H118112   0.741   2.074   6.390
 6057TIP3    H218113   0.699   1.975   6.282
 6058TIP3   OH218114   6.718   6.567   6.479
 6058TIP3    H118115   6.731   6.526   6.565
 6058TIP3    H218116   6.806   6.577   6.444
 6059TIP3   OH218117   1.474  -0.032   2.843
 6059TIP3    H118118   1.399   0.010   2.802
 6059TIP3    H218119   1.542   0.036   2.845
 6060TIP3   OH218120   5.674   2.330   2.391
 6060TIP3    H118121   5.709   2.255   2.343
 6060TIP3    H218122   5.605   2.292   2.446
 6061TIP3   OH218123   8.291   3.275   2.216
 6061TIP3    H118124   8.196   3.269   2.205
 6061TIP3    H218125   8.312   3.206   2.280
 6062TIP3   OH218126   7.453   4.520   2.258
 6062TIP3    H118127   7.379   4.546   2.203
 6062TIP3    H218128   7.516   4.481   2.197
 6063TIP3   OH218129   7.211   4.546   2.140
 6063TIP3    H118130   7.228   4.551   2.046
 6063TIP3    H218131   7.145   4.614   2.155
 6064TIP3   OH218132   1.124   5.686   2.996
 6064TIP3    H118133   1.097   5.601   2.960
 6064TIP3    H218134   1.045   5.739   2.994
 6065TIP3   OH218135   1.214   0.063   3.026
 6065TIP3    H118136   1.224   0.069   2.931
 6065TIP3    H218137   1.169  -0.020   3.040
 6066TIP3   OH218138   0.705   3.100   6.272
 6066TIP3    H118139   0.632   3.041   6.255
 6066TIP3    H218140   0.743   3.068   6.354
 6067TIP3   OH218141   4.967   3.623   2.631
 6067TIP3    H118142   4.881   3.659   2.609
 6067TIP3    H218143   5.015   3.626   2.549
 6068TIP3   OH218144   7.654   4.617   3.289
 6068TIP3    H118145   7.569   4.632   3.247
 6068TIP3    H218146   7.675   4.526   3.268
 6069TIP3   OH218147   2.366   2.215   5.027
 6069TIP3    H118148   2.421   2.217   5.105
 6069TIP3    H218149   2.367   2.124   4.999
 6070TIP3   OH218150   6.116   4.481   6.602
 6070TIP3    H118151   6.208   4.452   6.599
 6070TIP3    H218152   6.086   4.473   6.511
 6071TIP3   OH218153   3.964   7.678   2.096
 6071TIP3    H118154   3.973   7.586   2.121
 6071TIP3    H218155   4.029   7.723   2.149
 6072TIP3   OH218156   5.425   5.865   3.371
 6072TIP3    H118157   5.399   5.790   3.318
 6072TIP3    H218158   5.379   5.939   3.333
 6073TIP3   OH218159   2.104   2.203   2.941
 6073TIP3    H118160   2.189   2.159   2.946
 6073TIP3    H218161   2.069   2.198   3.030
 6074TIP3   OH218162   7.732   3.241   0.589
 6074TIP3    H118163   7.712   3.148   0.591
 6074TIP3    H218164   7.694   3.273   0.507
 6075TIP3   OH218165   3.841   0.951   6.612
 6075TIP3    H118166   3.760   0.996   6.589
 6075TIP3    H218167   3.815   0.860   6.629
 6076TIP3   OH218168   6.643   1.074   4.881
 6076TIP3    H118169   6.584   1.071   4.957
 6076TIP3    H218170   6.649   1.167   4.859
 6077TIP3   OH218171   2.710   4.924   0.835
 6077TIP3    H118172   2.785   4.958   0.786
 6077TIP3    H218173   2.693   4.838   0.796
 6078TIP3   OH218174   6.685   0.535   0.269
 6078TIP3    H118175   6.731   0.457   0.237
 6078TIP3    H218176   6.619   0.553   0.203
 6079TIP3   OH218177   5.079   0.481   0.622
 6079TIP3    H118178   5.154   0.436   0.583
 6079TIP3    H218179   5.003   0.436   0.585
 6080TIP3   OH218180   0.552   7.768   5.294
 6080TIP3    H118181   0.611   7.735   5.227
 6080TIP3    H218182   0.485   7.817   5.246
 6081TIP3   OH218183   1.602   0.459   3.888
 6081TIP3    H118184   1.537   0.506   3.834
 6081TIP3    H218185   1.682   0.462   3.836
 6082TIP3   OH218186   3.181   6.667   6.714
 6082TIP3    H118187   3.217   6.740   6.663
 6082TIP3    H218188   3.187   6.696   6.805
 6083TIP3   OH218189   4.574   4.389   2.154
 6083TIP3    H118190   4.482   4.369   2.140
 6083TIP3    H218191   4.580   4.417   2.245
 6084TIP3   OH218192   0.346   4.234   2.664
 6084TIP3    H118193   0.389   4.208   2.583
 6084TIP3    H218194   0.414   4.280   2.714
 6085TIP3   OH218195   2.328   2.024   1.813
 6085TIP3    H118196   2.271   2.035   1.890
 6085TIP3    H218197   2.386   2.100   1.816
 6086TIP3   OH218198   2.956   7.499   0.772
 6086TIP3    H118199   2.909   7.425   0.735
 6086TIP3    H218200   2.979   7.553   0.697
 6087TIP3   OH218201   2.433   3.062   2.077
 6087TIP3    H118202   2.467   2.976   2.103
 6087TIP3    H218203   2.342   3.045   2.053
 6088TIP3   OH218204   6.673   0.101   3.474
 6088TIP3    H118205   6.664   0.146   3.558
 6088TIP3    H218206   6.687   0.172   3.411
 6089TIP3   OH218207   1.431   3.839   0.859
 6089TIP3    H118208   1.416   3.826   0.953
 6089TIP3    H218209   1.347   3.818   0.818
 6090TIP3   OH218210   8.131   1.783   1.026
 6090TIP3    H118211   8.145   1.877   1.026
 6090TIP3    H218212   8.056   1.770   0.967
 6091TIP3   OH218213   4.239   0.180   4.916
 6091TIP3    H118214   4.196   0.244   4.861
 6091TIP3    H218215   4.332   0.201   4.910
 6092TIP3   OH218216   0.044   3.182   5.636
 6092TIP3    H118217   0.050   3.095   5.596
 6092TIP3    H218218   0.114   3.232   5.596
 6093TIP3   OH218219   6.157   6.209   6.717
 6093TIP3    H118220   6.228   6.251   6.764
 6093TIP3    H218221   6.130   6.137   6.774
 6094TIP3   OH218222   0.467   0.733   4.474
 6094TIP3    H118223   0.437   0.814   4.432
 6094TIP3    H218224   0.390   0.701   4.521
 6095TIP3   OH218225   0.560   2.423   0.647
 6095TIP3    H118226   0.591   2.374   0.571
 6095TIP3    H218227   0.470   2.446   0.625
 6096TIP3   OH218228   6.746   3.499   2.539
 6096TIP3    H118229   6.777   3.411   2.517
 6096TIP3    H218230   6.827   3.550   2.550
 6097TIP3   OH218231   2.371   0.889   3.216
 6097TIP3    H118232   2.435   0.931   3.158
 6097TIP3    H218233   2.421   0.820   3.260
 6098TIP3   OH218234   0.945   7.361   2.299
 6098TIP3    H118235   0.912   7.310   2.374
 6098TIP3    H218236   0.869   7.371   2.242
 6099TIP3   OH218237   6.926   1.363   5.702
 6099TIP3    H118238   6.957   1.422   5.633
 6099TIP3    H218239   6.924   1.416   5.781
 6100TIP3   OH218240   8.241   1.732   4.746
 6100TIP3    H118241   8.206   1.644   4.734
 6100TIP3    H218242   8.239   1.746   4.841
 6101TIP3   OH218243   4.383   6.543   4.880
 6101TIP3    H118244   4.413   6.496   4.957
 6101TIP3    H218245   4.404   6.486   4.807
 6102TIP3   OH218246   6.839   7.514   4.172
 6102TIP3    H118247   6.794   7.479   4.249
 6102TIP3    H218248   6.813   7.606   4.169
 6103TIP3   OH218249   4.238   4.005   2.827
 6103TIP3    H118250   4.203   4.021   2.740
 6103TIP3    H218251   4.266   4.091   2.858
 6104TIP3   OH218252   0.269   5.649   2.142
 6104TIP3    H118253   0.227   5.732   2.166
 6104TIP3    H218254   0.213   5.582   2.183
 6105TIP3   OH218255   4.353   4.021   5.311
 6105TIP3    H118256   4.368   4.067   5.229
 6105TIP3    H218257   4.407   3.941   5.303
 6106TIP3   OH218258   2.216   7.353   6.178
 6106TIP3    H118259   2.229   7.345   6.084
 6106TIP3    H218260   2.250   7.271   6.214
 6107TIP3   OH218261   5.985   7.546   2.720
 6107TIP3    H118262   5.929   7.623   2.733
 6107TIP3    H218263   5.933   7.473   2.755
 6108TIP3   OH218264   4.542   2.391   4.722
 6108TIP3    H118265   4.503   2.401   4.809
 6108TIP3    H218266   4.625   2.438   4.728
 6109TIP3   OH218267   4.594   4.273   0.059
 6109TIP3    H118268   4.579   4.179   0.045
 6109TIP3    H218269   4.506   4.310   0.068
 6110TIP3   OH218270   8.052   0.139   1.970
 6110TIP3    H118271   8.129   0.181   1.933
 6110TIP3    H218272   8.061   0.046   1.946
 6111TIP3   OH218273   2.540   5.410   3.944
 6111TIP3    H118274   2.505   5.498   3.930
 6111TIP3    H218275   2.465   5.359   3.977
 6112TIP3   OH218276   3.637   3.489   4.399
 6112TIP3    H118277   3.690   3.413   4.423
 6112TIP3    H218278   3.701   3.558   4.380
 6113TIP3   OH218279   3.888   0.505   4.211
 6113TIP3    H118280   3.793   0.515   4.202
 6113TIP3    H218281   3.922   0.594   4.200
 6114TIP3   OH218282   6.517   5.970   0.969
 6114TIP3    H118283   6.489   5.958   1.059
 6114TIP3    H218284   6.596   6.023   0.975
 6115TIP3   OH218285   7.904   1.202   0.692
 6115TIP3    H118286   7.880   1.269   0.628
 6115TIP3    H218287   7.830   1.199   0.753
 6116TIP3   OH218288   2.528   0.717   3.963
 6116TIP3    H118289   2.591   0.782   3.930
 6116TIP3    H218290   2.503   0.750   4.049
 6117TIP3   OH218291   2.844   1.874   0.406
 6117TIP3    H118292   2.883   1.798   0.362
 6117TIP3    H218293   2.914   1.909   0.461
 6118TIP3   OH218294   1.274   3.890   3.088
 6118TIP3    H118295   1.309   3.801   3.080
 6118TIP3    H218296   1.300   3.934   3.008
 6119TIP3   OH218297   1.248   0.556   6.537
 6119TIP3    H118298   1.210   0.473   6.508
 6119TIP3    H218299   1.255   0.609   6.457
 6120TIP3   OH218300   4.789   6.558   0.744
 6120TIP3    H118301   4.835   6.479   0.716
 6120TIP3    H218302   4.822   6.576   0.831
 6121TIP3   OH218303   3.630   4.388   6.284
 6121TIP3    H118304   3.558   4.330   6.258
 6121TIP3    H218305   3.588   4.472   6.299
 6122TIP3   OH218306   0.009   1.792   5.876
 6122TIP3    H118307  -0.051   1.806   5.949
 6122TIP3    H218308  -0.044   1.750   5.809
 6123TIP3   OH218309   0.496   4.869   3.807
 6123TIP3    H118310   0.415   4.915   3.830
 6123TIP3    H218311   0.557   4.890   3.878
 6124TIP3   OH218312   6.424   7.622   2.051
 6124TIP3    H118313   6.484   7.658   1.985
 6124TIP3    H218314   6.337   7.650   2.023
 6125TIP3   OH218315   6.479   3.415   5.383
 6125TIP3    H118316   6.453   3.370   5.463
 6125TIP3    H218317   6.553   3.471   5.409
 6126TIP3   OH218318   0.639   4.070   2.115
 6126TIP3    H118319   0.690   4.010   2.169
 6126TIP3    H218320   0.674   4.059   2.027
 6127TIP3   OH218321   3.438   5.756   5.978
 6127TIP3    H118322   3.343   5.753   5.985
 6127TIP3    H218323   3.455   5.793   5.891
 6128TIP3   OH218324   7.960   5.672   2.765
 6128TIP3    H118325   7.874   5.629   2.763
 6128TIP3    H218326   7.951   5.740   2.831
 6129TIP3   OH218327   2.661   7.341   2.005
 6129TIP3    H118328   2.593   7.286   2.045
 6129TIP3    H218329   2.719   7.365   2.078
 6130TIP3   OH218330   1.236   6.099   1.501
 6130TIP3    H118331   1.273   6.021   1.458
 6130TIP3    H218332   1.153   6.114   1.455
 6131TIP3   OH218333   8.158   5.647   2.954
 6131TIP3    H118334   8.126   5.662   2.865
 6131TIP3    H218335   8.085   5.604   2.998
 6132TIP3   OH218336   5.787   1.840   6.295
 6132TIP3    H118337   5.808   1.874   6.382
 6132TIP3    H218338   5.795   1.917   6.238
 6133TIP3   OH218339   0.009   6.443   2.440
 6133TIP3    H118340   0.068   6.390   2.494
 6133TIP3    H218341  -0.044   6.492   2.504
 6134TIP3   OH218342   0.145   5.454   6.034
 6134TIP3    H118343   0.171   5.421   5.948
 6134TIP3    H218344   0.218   5.510   6.061
 6135TIP3   OH218345   0.575   0.086   2.770
 6135TIP3    H118346   0.592   0.175   2.801
 6135TIP3    H218347   0.653   0.063   2.720
 6136TIP3   OH218348   5.592   4.311   6.153
 6136TIP3    H118349   5.604   4.392   6.203
 6136TIP3    H218350   5.524   4.263   6.200
 6137TIP3   OH218351   0.788   3.205   6.577
 6137TIP3    H118352   0.714   3.159   6.618
 6137TIP3    H218353   0.839   3.136   6.536
 6138TIP3   OH218354   4.521   4.881   2.487
 6138TIP3    H118355   4.537   4.808   2.428
 6138TIP3    H218356   4.509   4.839   2.573
 6139TIP3   OH218357   5.780   7.254   5.506
 6139TIP3    H118358   5.694   7.211   5.510
 6139TIP3    H218359   5.811   7.238   5.417
 6140TIP3   OH218360   5.980   5.456   6.300
 6140TIP3    H118361   6.013   5.531   6.249
 6140TIP3    H218362   5.972   5.490   6.389
 6141TIP3   OH218363   4.972   0.312   2.925
 6141TIP3    H118364   4.998   0.339   3.013
 6141TIP3    H218365   5.008   0.379   2.867
 6142TIP3   OH218366   1.858   0.770   0.743
 6142TIP3    H118367   1.915   0.793   0.816
 6142TIP3    H218368   1.867   0.843   0.681
 6143TIP3   OH218369   7.471   4.561   1.611
 6143TIP3    H118370   7.562   4.534   1.599
 6143TIP3    H218371   7.420   4.497   1.561
 6144TIP3   OH218372   0.611   4.936   0.383
 6144TIP3    H118373   0.548   4.893   0.326
 6144TIP3    H218374   0.695   4.896   0.361
 6145TIP3   OH218375   7.338   6.931   1.781
 6145TIP3    H118376   7.322   6.869   1.709
 6145TIP3    H218377   7.252   6.943   1.822
 6146TIP3   OH218378   7.656   3.417   2.174
 6146TIP3    H118379   7.701   3.350   2.226
 6146TIP3    H218380   7.658   3.382   2.084
 6147TIP3   OH218381   1.241   2.212   5.937
 6147TIP3    H118382   1.281   2.298   5.943
 6147TIP3    H218383   1.151   2.225   5.965
 6148TIP3   OH218384   0.925   5.352   1.778
 6148TIP3    H118385   0.859   5.298   1.733
 6148TIP3    H218386   0.933   5.312   1.864
 6149TIP3   OH218387   7.188   3.131   2.026
 6149TIP3    H118388   7.154   3.117   1.937
 6149TIP3    H218389   7.179   3.226   2.040
 6150TIP3   OH218390   6.452   7.170   6.240
 6150TIP3    H118391   6.363   7.145   6.265
 6150TIP3    H218392   6.465   7.127   6.155
 6151TIP3   OH218393   6.022   1.834   3.663
 6151TIP3    H118394   5.959   1.896   3.699
 6151TIP3    H218395   5.981   1.748   3.675
 6152TIP3   OH218396   5.005   2.524   4.243
 6152TIP3    H118397   4.935   2.547   4.305
 6152TIP3    H218398   4.965   2.461   4.184
 6153TIP3   OH218399   3.872   7.322   3.756
 6153TIP3    H118400   3.869   7.411   3.791
 6153TIP3    H218401   3.832   7.267   3.824
 6154TIP3   OH218402   1.325   1.435   5.421
 6154TIP3    H118403   1.354   1.351   5.385
 6154TIP3    H218404   1.401   1.467   5.470
 6155TIP3   OH218405   0.336   4.109   5.400
 6155TIP3    H118406   0.417   4.095   5.450
 6155TIP3    H218407   0.293   4.024   5.400
 6156TIP3   OH218408   1.957   3.042   2.143
 6156TIP3    H118409   1.868   3.031   2.110
 6156TIP3    H218410   1.958   2.994   2.226
 6157TIP3   OH218411   1.134   3.767   6.522
 6157TIP3    H118412   1.075   3.755   6.597
 6157TIP3    H218413   1.136   3.862   6.509
 6158TIP3   OH218414   1.549   3.185   3.849
 6158TIP3    H118415   1.612   3.171   3.920
 6158TIP3    H218416   1.594   3.157   3.770
 6159TIP3   OH218417   4.254   4.337   2.576
 6159TIP3    H118418   4.275   4.376   2.661
 6159TIP3    H218419   4.161   4.355   2.564
 6160TIP3   OH218420   1.581   5.198   6.574
 6160TIP3    H118421   1.541   5.187   6.488
 6160TIP3    H218422   1.640   5.273   6.562
 6161TIP3   OH218423   5.391  -0.018   5.850
 6161TIP3    H118424   5.434   0.066   5.864
 6161TIP3    H218425   5.384  -0.026   5.755
 6162TIP3   OH218426   4.760   7.759   3.124
 6162TIP3    H118427   4.746   7.747   3.218
 6162TIP3    H218428   4.721   7.844   3.105
 6163TIP3   OH218429   5.699   6.452   0.661
 6163TIP3    H118430   5.662   6.519   0.603
 6163TIP3    H218431   5.721   6.380   0.602
 6164TIP3   OH218432   0.107   4.429   2.804
 6164TIP3    H118433   0.173   4.376   2.760
 6164TIP3    H218434   0.054   4.366   2.852
 6165TIP3   OH218435   4.277   1.597   1.383
 6165TIP3    H118436   4.229   1.533   1.330
 6165TIP3    H218437   4.366   1.597   1.347
 6166TIP3   OH218438   5.582   1.632   4.288
 6166TIP3    H118439   5.542   1.701   4.236
 6166TIP3    H218440   5.574   1.553   4.233
 6167TIP3   OH218441   8.215   5.005   2.614
 6167TIP3    H118442   8.275   5.023   2.542
 6167TIP3    H218443   8.170   4.925   2.589
 6168TIP3   OH218444   5.228   1.336   1.892
 6168TIP3    H118445   5.168   1.300   1.827
 6168TIP3    H218446   5.269   1.259   1.932
 6169TIP3   OH218447   2.772   3.758   4.169
 6169TIP3    H118448   2.850   3.800   4.206
 6169TIP3    H218449   2.769   3.790   4.079
 6170TIP3   OH218450   8.060   2.425   0.903
 6170TIP3    H118451   8.064   2.335   0.935
 6170TIP3    H218452   8.130   2.431   0.838
 6171TIP3   OH218453   4.278   1.068   2.146
 6171TIP3    H118454   4.340   1.129   2.107
 6171TIP3    H218455   4.217   1.047   2.075
 6172TIP3   OH218456   7.502   4.047   1.361
 6172TIP3    H118457   7.562   4.121   1.355
 6172TIP3    H218458   7.557   3.973   1.388
 6173TIP3   OH218459   5.047   0.573   4.768
 6173TIP3    H118460   5.075   0.487   4.799
 6173TIP3    H218461   4.991   0.554   4.692
 6174TIP3   OH218462   4.876   5.789   1.947
 6174TIP3    H118463   4.784   5.768   1.930
 6174TIP3    H218464   4.921   5.766   1.866
 6175TIP3   OH218465   3.468   1.808   1.867
 6175TIP3    H118466   3.378   1.776   1.867
 6175TIP3    H218467   3.471   1.871   1.938
 6176TIP3   OH218468   2.681   5.867   2.602
 6176TIP3    H118469   2.616   5.927   2.565
 6176TIP3    H218470   2.747   5.924   2.641
 6177TIP3   OH218471   3.452   7.702   5.864
 6177TIP3    H118472   3.451   7.789   5.824
 6177TIP3    H218473   3.424   7.643   5.794
 6178TIP3   OH218474   2.744   0.685   3.620
 6178TIP3    H118475   2.679   0.616   3.636
 6178TIP3    H218476   2.801   0.648   3.553
 6179TIP3   OH218477   4.605   2.472   6.658
 6179TIP3    H118478   4.592   2.508   6.746
 6179TIP3    H218479   4.663   2.534   6.614
 6180TIP3   OH218480   0.250   5.151   1.821
 6180TIP3    H118481   0.214   5.214   1.883
 6180TIP3    H218482   0.327   5.116   1.866
 6181TIP3   OH218483   1.064   0.726   4.869
 6181TIP3    H118484   1.139   0.772   4.908
 6181TIP3    H218485   0.999   0.795   4.856
 6182TIP3   OH218486   4.510   7.475   2.534
 6182TIP3    H118487   4.575   7.470   2.604
 6182TIP3    H218488   4.446   7.407   2.556
 6183TIP3   OH218489   6.881   5.762   0.355
 6183TIP3    H118490   6.802   5.758   0.408
 6183TIP3    H218491   6.947   5.802   0.411
 6184TIP3   OH218492   1.278   4.805   2.646
 6184TIP3    H118493   1.232   4.788   2.564
 6184TIP3    H218494   1.339   4.876   2.625
 6185TIP3   OH218495   7.917   2.573   6.486
 6185TIP3    H118496   7.833   2.530   6.470
 6185TIP3    H218497   7.898   2.667   6.478
 6186TIP3   OH218498   2.446   3.428   4.529
 6186TIP3    H118499   2.523   3.485   4.527
 6186TIP3    H218500   2.468   3.359   4.591
 6187TIP3   OH218501   5.509   2.442   0.179
 6187TIP3    H118502   5.574   2.409   0.116
 6187TIP3    H218503   5.532   2.534   0.189
 6188TIP3   OH218504   6.887   1.483   0.661
 6188TIP3    H118505   6.854   1.498   0.572
 6188TIP3    H218506   6.975   1.448   0.649
 6189TIP3   OH218507   0.688   5.893   5.797
 6189TIP3    H118508   0.752   5.900   5.868
 6189TIP3    H218509   0.694   5.803   5.767
 6190TIP3   OH218510   7.985   4.257   4.758
 6190TIP3    H118511   7.917   4.319   4.786
 6190TIP3    H218512   8.060   4.278   4.813
 6191TIP3   OH218513   7.831   0.655   5.477
 6191TIP3    H118514   7.787   0.616   5.553
 6191TIP3    H218515   7.759   0.679   5.418
 6192TIP3   OH218516   6.652   6.670   0.772
 6192TIP3    H118517   6.660   6.763   0.795
 6192TIP3    H218518   6.739   6.646   0.739
 6193TIP3   OH218519   0.517   0.736   2.230
 6193TIP3    H118520   0.560   0.658   2.266
 6193TIP3    H218521   0.582   0.805   2.238
 6194TIP3   OH218522   7.681   1.143   5.356
 6194TIP3    H118523   7.689   1.081   5.429
 6194TIP3    H218524   7.766   1.140   5.313
 6195TIP3   OH218525   2.982   0.431   4.456
 6195TIP3    H118526   3.057   0.463   4.405
 6195TIP3    H218527   2.933   0.510   4.478
 6196TIP3   OH218528   1.379   0.879   5.458
 6196TIP3    H118529   1.385   0.952   5.519
 6196TIP3    H218530   1.464   0.835   5.465
 6197TIP3   OH218531   0.856   5.926   6.545
 6197TIP3    H118532   0.847   5.831   6.556
 6197TIP3    H218533   0.780   5.952   6.493
 6198TIP3   OH218534   1.715   3.539   4.729
 6198TIP3    H118535   1.663   3.504   4.656
 6198TIP3    H218536   1.682   3.492   4.805
 6199TIP3   OH218537   7.794   5.884   6.008
 6199TIP3    H118538   7.842   5.952   5.960
 6199TIP3    H218539   7.713   5.874   5.959
 6200TIP3   OH218540   0.919   2.733   3.885
 6200TIP3    H118541   0.958   2.754   3.970
 6200TIP3    H218542   0.993   2.720   3.827
 6201TIP3   OH218543   7.405   4.775   5.984
 6201TIP3    H118544   7.430   4.812   6.069
 6201TIP3    H218545   7.440   4.835   5.919
 6202TIP3   OH218546   1.775   0.392   4.553
 6202TIP3    H118547   1.702   0.360   4.605
 6202TIP3    H218548   1.779   0.486   4.572
 6203TIP3   OH218549   1.378   2.129   0.187
 6203TIP3    H118550   1.338   2.071   0.123
 6203TIP3    H218551   1.428   2.192   0.134
 6204TIP3   OH218552   4.952   5.293   2.498
 6204TIP3    H118553   4.955   5.221   2.436
 6204TIP3    H218554   4.979   5.370   2.448
 6205TIP3   OH218555   1.736   0.461   2.401
 6205TIP3    H118556   1.662   0.400   2.396
 6205TIP3    H218557   1.752   0.472   2.494
 6206TIP3   OH218558   4.343   7.601   1.564
 6206TIP3    H118559   4.342   7.618   1.658
 6206TIP3    H218560   4.367   7.509   1.556
 6207TIP3   OH218561   8.045   7.590   4.009
 6207TIP3    H118562   8.062   7.624   3.921
 6207TIP3    H218563   8.034   7.495   3.997
 6208TIP3   OH218564   2.004   1.307   4.866
 6208TIP3    H118565   2.039   1.392   4.892
 6208TIP3    H218566   2.030   1.247   4.936
 6209TIP3   OH218567   0.693   4.716   0.590
 6209TIP3    H118568   0.598   4.721   0.596
 6209TIP3    H218569   0.718   4.795   0.542
 6210TIP3   OH218570   5.421   5.361   0.623
 6210TIP3    H118571   5.334   5.325   0.642
 6210TIP3    H218572   5.473   5.285   0.598
 6211TIP3   OH218573   8.380   5.054   2.829
 6211TIP3    H118574   8.336   4.991   2.771
 6211TIP3    H218575   8.443   5.098   2.772
 6212TIP3   OH218576   6.790   2.220   2.975
 6212TIP3    H118577   6.707   2.173   2.977
 6212TIP3    H218578   6.788   2.275   3.054
 6213TIP3   OH218579   1.804   0.096   4.515
 6213TIP3    H118580   1.880   0.051   4.479
 6213TIP3    H218581   1.840   0.169   4.566
 6214TIP3   OH218582   6.226   5.726   0.206
 6214TIP3    H118583   6.278   5.777   0.143
 6214TIP3    H218584   6.172   5.668   0.152
 6215TIP3   OH218585   2.970   2.055   4.147
 6215TIP3    H118586   3.029   2.130   4.151
 6215TIP3    H218587   2.972   2.026   4.056
 6216TIP3   OH218588   0.570   1.280   6.834
 6216TIP3    H118589   0.555   1.299   6.741
 6216TIP3    H218590   0.495   1.227   6.860
 6217TIP3   OH218591   3.043   6.872   6.391
 6217TIP3    H118592   3.068   6.798   6.336
 6217TIP3    H218593   2.948   6.878   6.380
 6218TIP3   OH218594   4.912   4.998   2.810
 6218TIP3    H118595   4.947   4.988   2.899
 6218TIP3    H218596   4.847   4.928   2.802
 6219TIP3   OH218597   3.686   4.324   3.157
 6219TIP3    H118598   3.771   4.283   3.143
 6219TIP3    H218599   3.649   4.279   3.233
 6220TIP3   OH218600   2.367   5.224   3.114
 6220TIP3    H118601   2.321   5.199   3.194
 6220TIP3    H218602   2.299   5.227   3.047
 6221TIP3   OH218603   2.152   2.066   4.274
 6221TIP3    H118604   2.119   2.017   4.349
 6221TIP3    H218605   2.079   2.124   4.249
 6222TIP3   OH218606   2.257   2.368   6.759
 6222TIP3    H118607   2.254   2.356   6.665
 6222TIP3    H218608   2.180   2.323   6.793
 6223TIP3   OH218609   8.012   5.909   0.514
 6223TIP3    H118610   8.046   5.822   0.492
 6223TIP3    H218611   7.960   5.935   0.438
 6224TIP3   OH218612   2.360   6.649   3.091
 6224TIP3    H118613   2.272   6.647   3.053
 6224TIP3    H218614   2.346   6.635   3.185
 6225TIP3   OH218615   0.880   7.788   2.215
 6225TIP3    H118616   0.964   7.803   2.172
 6225TIP3    H218617   0.816   7.790   2.143
 6226TIP3   OH218618   4.139   5.081   3.940
 6226TIP3    H118619   4.222   5.129   3.950
 6226TIP3    H218620   4.077   5.146   3.909
 6227TIP3   OH218621   7.511   5.450   0.999
 6227TIP3    H118622   7.590   5.493   1.032
 6227TIP3    H218623   7.441   5.478   1.058
 6228TIP3   OH218624   0.071   3.394   2.565
 6228TIP3    H118625   0.014   3.463   2.530
 6228TIP3    H218626   0.056   3.397   2.660
 6229TIP3   OH218627   5.554   4.299   4.944
 6229TIP3    H118628   5.497   4.229   4.975
 6229TIP3    H218629   5.497   4.357   4.893
 6230TIP3   OH218630   7.496   1.994   3.967
 6230TIP3    H118631   7.541   1.970   4.048
 6230TIP3    H218632   7.496   2.090   3.967
 6231TIP3   OH218633   3.618   6.535   0.210
 6231TIP3    H118634   3.530   6.505   0.232
 6231TIP3    H218635   3.664   6.539   0.294
 6232TIP3   OH218636   5.648   5.863   1.489
 6232TIP3    H118637   5.614   5.775   1.507
 6232TIP3    H218638   5.743   5.854   1.498
 6233TIP3   OH218639   0.305   3.762   5.653
 6233TIP3    H118640   0.390   3.743   5.693
 6233TIP3    H218641   0.279   3.845   5.692
 6234TIP3   OH218642   1.652   1.015   0.468
 6234TIP3    H118643   1.733   1.006   0.518
 6234TIP3    H218644   1.681   1.019   0.376
 6235TIP3   OH218645   5.175   7.016   3.311
 6235TIP3    H118646   5.240   7.018   3.241
 6235TIP3    H218647   5.090   7.017   3.266
 6236TIP3   OH218648   5.460   4.341   2.869
 6236TIP3    H118649   5.368   4.318   2.879
 6236TIP3    H218650   5.494   4.279   2.805
 6237TIP3   OH218651   3.213   2.505   1.447
 6237TIP3    H118652   3.132   2.527   1.492
 6237TIP3    H218653   3.187   2.494   1.355
 6238TIP3   OH218654   3.445   5.343   1.996
 6238TIP3    H118655   3.487   5.428   2.005
 6238TIP3    H218656   3.518   5.281   1.994
 6239TIP3   OH218657   6.377   1.634   6.362
 6239TIP3    H118658   6.344   1.546   6.381
 6239TIP3    H218659   6.402   1.631   6.270
 6240TIP3   OH218660   0.401   3.156   1.204
 6240TIP3    H118661   0.383   3.165   1.297
 6240TIP3    H218662   0.338   3.213   1.161
 6241TIP3   OH218663   5.987   2.250   6.583
 6241TIP3    H118664   6.031   2.312   6.642
 6241TIP3    H218665   5.990   2.167   6.630
 6242TIP3   OH218666   6.628   7.819   0.247
 6242TIP3    H118667   6.599   7.910   0.250
 6242TIP3    H218668   6.548   7.768   0.259
 6243TIP3   OH218669   5.743   4.306   6.436
 6243TIP3    H118670   5.763   4.353   6.517
 6243TIP3    H218671   5.647   4.310   6.430
 6244TIP3   OH218672   7.859   3.562   4.315
 6244TIP3    H118673   7.809   3.595   4.240
 6244TIP3    H218674   7.936   3.520   4.276
 6245TIP3   OH218675   1.830   4.670   3.351
 6245TIP3    H118676   1.808   4.763   3.340
 6245TIP3    H218677   1.918   4.662   3.316
 6246TIP3   OH218678   4.868   2.775   1.731
 6246TIP3    H118679   4.839   2.724   1.656
 6246TIP3    H218680   4.901   2.857   1.693
 6247TIP3   OH218681   1.497   3.598   5.932
 6247TIP3    H118682   1.421   3.579   5.877
 6247TIP3    H218683   1.502   3.693   5.935
 6248TIP3   OH218684   4.246   6.966   1.414
 6248TIP3    H118685   4.337   6.940   1.427
 6248TIP3    H218686   4.196   6.886   1.430
 6249TIP3   OH218687   0.355   2.849   0.453
 6249TIP3    H118688   0.273   2.895   0.436
 6249TIP3    H218689   0.422   2.918   0.446
 6250TIP3   OH218690   7.979   2.673   0.471
 6250TIP3    H118691   7.988   2.752   0.526
 6250TIP3    H218692   8.068   2.647   0.451
 6251TIP3   OH218693   6.698   4.345   5.570
 6251TIP3    H118694   6.707   4.342   5.665
 6251TIP3    H218695   6.761   4.411   5.542
 6252TIP3   OH218696   1.481   0.182   1.382
 6252TIP3    H118697   1.410   0.133   1.425
 6252TIP3    H218698   1.559   0.160   1.433
 6253TIP3   OH218699   4.646   4.562   0.574
 6253TIP3    H118700   4.560   4.599   0.590
 6253TIP3    H218701   4.647   4.541   0.481
 6254TIP3   OH218702   7.785   5.363   3.596
 6254TIP3    H118703   7.700   5.392   3.564
 6254TIP3    H218704   7.790   5.395   3.686
 6255TIP3   OH218705   0.196   2.579   6.604
 6255TIP3    H118706   0.218   2.664   6.642
 6255TIP3    H218707   0.101   2.573   6.612
 6256TIP3   OH218708   2.631   6.674   2.976
 6256TIP3    H118709   2.554   6.618   2.981
 6256TIP3    H218710   2.624   6.718   2.891
 6257TIP3   OH218711   2.272   4.535   1.974
 6257TIP3    H118712   2.289   4.603   2.040
 6257TIP3    H218713   2.203   4.481   2.013
 6258TIP3   OH218714   2.090   0.670   1.784
 6258TIP3    H118715   2.082   0.749   1.731
 6258TIP3    H218716   2.127   0.604   1.725
 6259TIP3   OH218717   6.990   3.462   3.106
 6259TIP3    H118718   7.077   3.426   3.095
 6259TIP3    H218719   6.986   3.488   3.199
 6260TIP3   OH218720   4.166   1.422   2.055
 6260TIP3    H118721   4.186   1.514   2.035
 6260TIP3    H218722   4.134   1.386   1.973
 6261TIP3   OH218723   4.870   5.258   3.318
 6261TIP3    H118724   4.798   5.270   3.257
 6261TIP3    H218725   4.832   5.279   3.404
 6262TIP3   OH218726   2.319   3.416   0.213
 6262TIP3    H118727   2.318   3.512   0.213
 6262TIP3    H218728   2.408   3.393   0.240
 6263TIP3   OH218729   2.595   3.864   4.871
 6263TIP3    H118730   2.645   3.946   4.879
 6263TIP3    H218731   2.661   3.798   4.851
 6264TIP3   OH218732   5.018   5.375   4.249
 6264TIP3    H118733   5.040   5.293   4.205
 6264TIP3    H218734   5.084   5.437   4.218
 6265TIP3   OH218735   7.442   7.218   0.255
 6265TIP3    H118736   7.517   7.216   0.195
 6265TIP3    H218737   7.365   7.216   0.198
 6266TIP3   OH218738   2.446   1.286   3.735
 6266TIP3    H118739   2.381   1.241   3.788
 6266TIP3    H218740   2.525   1.287   3.790
 6267TIP3   OH218741   2.717   4.879   6.409
 6267TIP3    H118742   2.785   4.815   6.432
 6267TIP3    H218743   2.637   4.826   6.399
 6268TIP3   OH218744   6.014   4.377   5.427
 6268TIP3    H118745   6.049   4.392   5.515
 6268TIP3    H218746   6.071   4.428   5.369
 6269TIP3   OH218747   6.979   7.447   6.160
 6269TIP3    H118748   6.981   7.418   6.251
 6269TIP3    H218749   6.887   7.464   6.142
 6270TIP3   OH218750   2.102   0.520   1.543
 6270TIP3    H118751   2.032   0.469   1.585
 6270TIP3    H218752   2.094   0.500   1.450
 6271TIP3   OH218753   6.728   6.639   2.783
 6271TIP3    H118754   6.675   6.672   2.710
 6271TIP3    H218755   6.718   6.706   2.851
 6272TIP3   OH218756   5.392   2.062   0.788
 6272TIP3    H118757   5.307   2.084   0.826
 6272TIP3    H218758   5.428   2.147   0.761
 6273TIP3   OH218759   7.325   7.703   3.183
 6273TIP3    H118760   7.307   7.793   3.157
 6273TIP3    H218761   7.301   7.650   3.107
 6274TIP3   OH218762   0.008   0.490   5.259
 6274TIP3    H118763   0.062   0.464   5.184
 6274TIP3    H218764   0.070   0.501   5.330
 6275TIP3   OH218765   4.375   6.646   0.085
 6275TIP3    H118766   4.446   6.605   0.037
 6275TIP3    H218767   4.412   6.666   0.171
 6276TIP3   OH218768   5.135   6.544   6.296
 6276TIP3    H118769   5.151   6.461   6.341
 6276TIP3    H218770   5.111   6.605   6.366
 6277TIP3   OH218771   5.508   4.746   4.718
 6277TIP3    H118772   5.510   4.652   4.699
 6277TIP3    H218773   5.418   4.764   4.745
 6278TIP3   OH218774   7.100   7.307   2.651
 6278TIP3    H118775   7.029   7.279   2.593
 6278TIP3    H218776   7.056   7.356   2.720
 6279TIP3   OH218777   6.703   2.131   4.831
 6279TIP3    H118778   6.668   2.212   4.796
 6279TIP3    H218779   6.643   2.063   4.801
 6280TIP3   OH218780   3.279   4.457   3.554
 6280TIP3    H118781   3.338   4.510   3.609
 6280TIP3    H218782   3.216   4.520   3.519
 6281TIP3   OH218783   1.743   5.707   1.785
 6281TIP3    H118784   1.756   5.790   1.829
 6281TIP3    H218785   1.788   5.642   1.840
 6282TIP3   OH218786   1.824   3.549   0.575
 6282TIP3    H118787   1.761   3.568   0.644
 6282TIP3    H218788   1.832   3.453   0.576
 6283TIP3   OH218789   5.002   5.164   6.536
 6283TIP3    H118790   5.094   5.189   6.546
 6283TIP3    H218791   4.960   5.242   6.498
 6284TIP3   OH218792   7.096   6.077   1.112
 6284TIP3    H118793   7.014   6.062   1.064
 6284TIP3    H218794   7.117   6.168   1.096
 6285TIP3   OH218795   6.544   6.476   4.940
 6285TIP3    H118796   6.612   6.540   4.922
 6285TIP3    H218797   6.488   6.478   4.862
 6286TIP3   OH218798   7.404   2.810   3.760
 6286TIP3    H118799   7.375   2.789   3.671
 6286TIP3    H218800   7.328   2.789   3.815
 6287TIP3   OH218801   5.522   6.854   1.268
 6287TIP3    H118802   5.451   6.804   1.226
 6287TIP3    H218803   5.503   6.847   1.362
 6288TIP3   OH218804   5.412   3.429   5.392
 6288TIP3    H118805   5.445   3.518   5.375
 6288TIP3    H218806   5.480   3.388   5.446
 6289TIP3   OH218807   4.552   5.236   4.968
 6289TIP3    H118808   4.517   5.322   4.991
 6289TIP3    H218809   4.511   5.215   4.884
 6290TIP3   OH218810   3.978   5.054   0.813
 6290TIP3    H118811   4.059   5.010   0.787
 6290TIP3    H218812   3.910   5.009   0.763
 6291TIP3   OH218813   6.491   2.012   5.960
 6291TIP3    H118814   6.582   1.992   5.981
 6291TIP3    H218815   6.455   2.050   6.040
 6292TIP3   OH218816   4.284   5.104   3.097
 6292TIP3    H118817   4.346   5.115   3.025
 6292TIP3    H218818   4.334   5.057   3.164
 6293TIP3   OH218819   6.693   3.450   4.114
 6293TIP3    H118820   6.652   3.461   4.028
 6293TIP3    H218821   6.731   3.362   4.111
 6294TIP3   OH218822   4.506   5.938   3.318
 6294TIP3    H118823   4.462   5.876   3.260
 6294TIP3    H218824   4.448   5.943   3.395
 6295TIP3   OH218825   8.091   3.293   0.556
 6295TIP3    H118826   8.027   3.313   0.624
 6295TIP3    H218827   8.063   3.208   0.521
 6296TIP3   OH218828   5.571   6.328   1.556
 6296TIP3    H118829   5.502   6.273   1.593
 6296TIP3    H218830   5.640   6.266   1.530
 6297TIP3   OH218831   3.221   0.318   6.393
 6297TIP3    H118832   3.291   0.265   6.355
 6297TIP3    H218833   3.259   0.356   6.472
 6298TIP3   OH218834   6.636   3.717   5.312
 6298TIP3    H118835   6.561   3.727   5.253
 6298TIP3    H218836   6.657   3.807   5.340
 6299TIP3   OH218837   0.521   1.716   2.074
 6299TIP3    H118838   0.447   1.685   2.127
 6299TIP3    H218839   0.576   1.638   2.062
 6300TIP3   OH218840   1.142   3.289   0.193
 6300TIP3    H118841   1.222   3.317   0.237
 6300TIP3    H218842   1.076   3.284   0.262
 6301TIP3   OH218843   2.590   4.964   3.874
 6301TIP3    H118844   2.667   4.910   3.861
 6301TIP3    H218845   2.608   5.043   3.823
 6302TIP3   OH218846   7.110   4.375   3.896
 6302TIP3    H118847   7.055   4.448   3.924
 6302TIP3    H218848   7.143   4.402   3.810
 6303TIP3   OH218849   5.002   5.719   2.189
 6303TIP3    H118850   4.996   5.717   2.094
 6303TIP3    H218851   4.945   5.791   2.216
 6304TIP3   OH218852   6.593   1.586   3.491
 6304TIP3    H118853   6.537   1.651   3.447
 6304TIP3    H218854   6.533   1.515   3.513
 6305TIP3   OH218855   2.925   4.847   1.050
 6305TIP3    H118856   2.964   4.778   0.997
 6305TIP3    H218857   2.871   4.897   0.988
 6306TIP3   OH218858   2.209   5.493   3.343
 6306TIP3    H118859   2.129   5.543   3.328
 6306TIP3    H218860   2.231   5.456   3.258
 6307TIP3   OH218861  -0.032   5.888   4.055
 6307TIP3    H118862   0.053   5.880   4.011
 6307TIP3    H218863  -0.012   5.875   4.148
 6308TIP3   OH218864   5.748   0.660   5.515
 6308TIP3    H118865   5.825   0.715   5.502
 6308TIP3    H218866   5.715   0.684   5.601
 6309TIP3   OH218867   8.121   3.454   4.245
 6309TIP3    H118868   8.155   3.454   4.156
 6309TIP3    H218869   8.188   3.500   4.296
 6310TIP3   OH218870   1.687   1.451   5.180
 6310TIP3    H118871   1.621   1.388   5.152
 6310TIP3    H218872   1.707   1.502   5.102
 6311TIP3   OH218873   2.088   7.719   6.747
 6311TIP3    H118874   2.154   7.653   6.727
 6311TIP3    H218875   2.120   7.799   6.706
 6312TIP3   OH218876   3.075   6.410   3.059
 6312TIP3    H118877   3.043   6.472   2.993
 6312TIP3    H218878   3.135   6.353   3.010
 6313TIP3   OH218879   1.203   7.449   2.322
 6313TIP3    H118880   1.235   7.489   2.403
 6313TIP3    H218881   1.109   7.437   2.336
 6314TIP3   OH218882   1.589   1.129   5.150
 6314TIP3    H118883   1.634   1.146   5.068
 6314TIP3    H218884   1.604   1.036   5.167
 6315TIP3   OH218885   0.071   2.902   5.566
 6315TIP3    H118886   0.084   2.829   5.505
 6315TIP3    H218887   0.092   2.866   5.652
 6316TIP3   OH218888   0.845   4.227   2.268
 6316TIP3    H118889   0.776   4.293   2.261
 6316TIP3    H218890   0.874   4.212   2.178
 6317TIP3   OH218891   2.718   0.507   6.386
 6317TIP3    H118892   2.638   0.454   6.379
 6317TIP3    H218893   2.755   0.482   6.471
 6318TIP3   OH218894   7.493   1.487   4.135
 6318TIP3    H118895   7.439   1.414   4.166
 6318TIP3    H218896   7.489   1.481   4.040
 6319TIP3   OH218897   3.014   2.344   6.277
 6319TIP3    H118898   2.988   2.259   6.311
 6319TIP3    H218899   3.109   2.341   6.274
 6320TIP3   OH218900   0.655   3.440   4.437
 6320TIP3    H118901   0.594   3.502   4.477
 6320TIP3    H218902   0.600   3.380   4.388
 6321TIP3   OH218903   6.211   3.071   5.660
 6321TIP3    H118904   6.239   2.979   5.660
 6321TIP3    H218905   6.123   3.069   5.697
 6322TIP3   OH218906   7.463   5.705   3.517
 6322TIP3    H118907   7.495   5.794   3.535
 6322TIP3    H218908   7.371   5.707   3.546
 6323TIP3   OH218909   7.249   6.513   2.474
 6323TIP3    H118910   7.213   6.490   2.388
 6323TIP3    H218911   7.173   6.538   2.526
 6324TIP3   OH218912   6.407   3.501   6.699
 6324TIP3    H118913   6.313   3.491   6.711
 6324TIP3    H218914   6.440   3.412   6.690
 6325TIP3   OH218915   5.783   2.377   6.382
 6325TIP3    H118916   5.812   2.468   6.389
 6325TIP3    H218917   5.833   2.330   6.449
 6326TIP3   OH218918   1.659   1.268   2.301
 6326TIP3    H118919   1.740   1.246   2.255
 6326TIP3    H218920   1.677   1.352   2.343
 6327TIP3   OH218921   6.433   1.835   4.418
 6327TIP3    H118922   6.420   1.785   4.337
 6327TIP3    H218923   6.515   1.883   4.404
 6328TIP3   OH218924   5.578   0.071   2.330
 6328TIP3    H118925   5.484   0.056   2.340
 6328TIP3    H218926   5.587   0.111   2.243
 6329TIP3   OH218927   8.337   6.883   2.432
 6329TIP3    H118928   8.409   6.821   2.417
 6329TIP3    H218929   8.347   6.948   2.363
 6330TIP3   OH218930   2.054   4.126   2.638
 6330TIP3    H118931   1.976   4.172   2.669
 6330TIP3    H218932   2.125   4.163   2.689
 6331TIP3   OH218933   5.012   3.503   2.120
 6331TIP3    H118934   5.105   3.504   2.100
 6331TIP3    H218935   4.973   3.446   2.054
 6332TIP3   OH218936   4.622   7.512   4.311
 6332TIP3    H118937   4.691   7.486   4.372
 6332TIP3    H218938   4.668   7.558   4.241
 6333TIP3   OH218939   5.109   0.036   0.060
 6333TIP3    H118940   5.026   0.041   0.108
 6333TIP3    H218941   5.089   0.075  -0.025
 6334TIP3   OH218942   7.891   0.942   4.364
 6334TIP3    H118943   7.804   0.983   4.369
 6334TIP3    H218944   7.939   0.997   4.302
 6335TIP3   OH218945   6.376   2.187   3.414
 6335TIP3    H118946   6.337   2.187   3.501
 6335TIP3    H218947   6.347   2.269   3.374
 6336TIP3   OH218948   7.704   1.410   5.095
 6336TIP3    H118949   7.727   1.409   5.188
 6336TIP3    H218950   7.734   1.325   5.063
 6337TIP3   OH218951   5.265   7.920   5.889
 6337TIP3    H118952   5.261   7.921   5.984
 6337TIP3    H218953   5.348   7.877   5.869
 6338TIP3   OH218954   6.827   6.007   5.145
 6338TIP3    H118955   6.800   5.936   5.087
 6338TIP3    H218956   6.752   6.021   5.203
 6339TIP3   OH218957   6.409   2.134   5.473
 6339TIP3    H118958   6.454   2.056   5.507
 6339TIP3    H218959   6.336   2.098   5.422
 6340TIP3   OH218960   4.453   5.232   5.897
 6340TIP3    H118961   4.539   5.272   5.909
 6340TIP3    H218962   4.398   5.270   5.966
 6341TIP3   OH218963   1.502   5.738   5.184
 6341TIP3    H118964   1.523   5.647   5.161
 6341TIP3    H218965   1.457   5.772   5.106
 6342TIP3   OH218966   5.912   5.891   1.544
 6342TIP3    H118967   5.986   5.945   1.516
 6342TIP3    H218968   5.944   5.801   1.538
 6343TIP3   OH218969   4.018   0.101   0.394
 6343TIP3    H118970   4.082   0.171   0.376
 6343TIP3    H218971   4.031   0.081   0.487
 6344TIP3   OH218972   2.005   0.864   0.952
 6344TIP3    H118973   2.063   0.921   1.003
 6344TIP3    H218974   1.937   0.837   1.014
 6345TIP3   OH218975   1.414   2.464   2.699
 6345TIP3    H118976   1.433   2.529   2.766
 6345TIP3    H218977   1.330   2.426   2.725
 6346TIP3   OH218978   1.053   0.400   1.994
 6346TIP3    H118979   1.018   0.436   2.076
 6346TIP3    H218980   1.126   0.344   2.021
 6347TIP3   OH218981   5.882   3.866   2.363
 6347TIP3    H118982   5.942   3.805   2.319
 6347TIP3    H218983   5.905   3.952   2.327
 6348TIP3   OH218984   2.455   1.735   2.639
 6348TIP3    H118985   2.455   1.729   2.734
 6348TIP3    H218986   2.366   1.761   2.616
 6349TIP3   OH218987   6.349   2.397   4.853
 6349TIP3    H118988   6.354   2.348   4.935
 6349TIP3    H218989   6.417   2.360   4.797
 6350TIP3   OH218990   3.471   1.842   0.956
 6350TIP3    H118991   3.387   1.853   0.912
 6350TIP3    H218992   3.509   1.763   0.918
 6351TIP3   OH218993   3.135   6.122   5.110
 6351TIP3    H118994   3.209   6.062   5.119
 6351TIP3    H218995   3.153   6.192   5.173
 6352TIP3   OH218996   0.701   3.452   6.668
 6352TIP3    H118997   0.662   3.414   6.746
 6352TIP3    H218998   0.766   3.388   6.639
 6353TIP3   OH218999   7.028   5.949   0.499
 6353TIP3    H119000   7.033   5.966   0.593
 6353TIP3    H219001   7.048   6.033   0.458
 6354TIP3   OH219002   6.012   3.336   0.084
 6354TIP3    H119003   6.065   3.286   0.147
 6354TIP3    H219004   5.924   3.299   0.093
 6355TIP3   OH219005   0.823   7.096   1.991
 6355TIP3    H119006   0.799   7.004   1.981
 6355TIP3    H219007   0.758   7.131   2.052
 6356TIP3   OH219008   4.512   0.277   1.920
 6356TIP3    H119009   4.478   0.363   1.896
 6356TIP3    H219010   4.607   0.289   1.925
 6357TIP3   OH219011   5.459   5.460   5.808
 6357TIP3    H119012   5.452   5.555   5.819
 6357TIP3    H219013   5.551   5.440   5.821
 6358TIP3   OH219014   6.537   7.015   5.561
 6358TIP3    H119015   6.587   7.089   5.527
 6358TIP3    H219016   6.447   7.031   5.532
 6359TIP3   OH219017   7.255   2.971   6.577
 6359TIP3    H119018   7.253   2.883   6.541
 6359TIP3    H219019   7.264   3.029   6.501
 6360TIP3   OH219020   1.083   2.957   6.307
 6360TIP3    H119021   1.053   2.899   6.237
 6360TIP3    H219022   1.155   3.006   6.269
 6361TIP3   OH219023   4.971   3.044   6.570
 6361TIP3    H119024   4.889   3.091   6.553
 6361TIP3    H219025   5.008   3.028   6.484
 6362TIP3   OH219026   2.454   3.330   2.127
 6362TIP3    H119027   2.373   3.367   2.163
 6362TIP3    H219028   2.438   3.236   2.123
 6363TIP3   OH219029   5.852   2.326   0.704
 6363TIP3    H119030   5.869   2.237   0.735
 6363TIP3    H219031   5.880   2.325   0.612
 6364TIP3   OH219032   8.326   0.063   4.511
 6364TIP3    H119033   8.257   0.129   4.512
 6364TIP3    H219034   8.302   0.002   4.580
 6365TIP3   OH219035   8.021   1.117   2.381
 6365TIP3    H119036   8.113   1.095   2.367
 6365TIP3    H219037   7.999   1.174   2.307
 6366TIP3   OH219038   5.862   1.003   4.984
 6366TIP3    H119039   5.820   1.081   4.946
 6366TIP3    H219040   5.867   0.941   4.911
 6367TIP3   OH219041   2.500   5.762   0.848
 6367TIP3    H119042   2.549   5.682   0.829
 6367TIP3    H219043   2.464   5.789   0.763
 6368TIP3   OH219044   1.675   7.555   6.168
 6368TIP3    H119045   1.693   7.603   6.087
 6368TIP3    H219046   1.701   7.465   6.148
 6369TIP3   OH219047   1.690   6.847   1.792
 6369TIP3    H119048   1.745   6.785   1.744
 6369TIP3    H219049   1.622   6.872   1.729
 6370TIP3   OH219050   3.128   7.890   2.649
 6370TIP3    H119051   3.157   7.848   2.730
 6370TIP3    H219052   3.123   7.984   2.671
 6371TIP3   OH219053   0.849   7.785   6.363
 6371TIP3    H119054   0.787   7.734   6.416
 6371TIP3    H219055   0.853   7.739   6.280
 6372TIP3   OH219056   7.407   6.568   0.041
 6372TIP3    H119057   7.492   6.589   0.079
 6372TIP3    H219058   7.346   6.576   0.114
 6373TIP3   OH219059   3.978   7.627   0.702
 6373TIP3    H119060   3.977   7.683   0.779
 6373TIP3    H219061   4.047   7.665   0.647
 6374TIP3   OH219062   2.595   6.516   4.178
 6374TIP3    H119063   2.550   6.500   4.261
 6374TIP3    H219064   2.580   6.436   4.127
 6375TIP3   OH219065   7.794   1.278   5.765
 6375TIP3    H119066   7.844   1.210   5.809
 6375TIP3    H219067   7.846   1.298   5.686
 6376TIP3   OH219068   1.792   1.475   3.257
 6376TIP3    H119069   1.884   1.487   3.235
 6376TIP3    H219070   1.787   1.385   3.290
 6377TIP3   OH219071   1.251   1.112   2.803
 6377TIP3    H119072   1.251   1.191   2.749
 6377TIP3    H219073   1.336   1.071   2.786
 6378TIP3   OH219074   8.051   4.306   1.829
 6378TIP3    H119075   8.075   4.224   1.873
 6378TIP3    H219076   8.033   4.281   1.739
 6379TIP3   OH219077   2.183   3.335   6.808
 6379TIP3    H119078   2.129   3.352   6.885
 6379TIP3    H219079   2.145   3.256   6.769
 6380TIP3   OH219080   1.135   1.700   2.450
 6380TIP3    H119081   1.113   1.789   2.422
 6380TIP3    H219082   1.086   1.644   2.390
 6381TIP3   OH219083   7.643   6.367   6.238
 6381TIP3    H119084   7.609   6.329   6.156
 6381TIP3    H219085   7.737   6.376   6.223
 6382TIP3   OH219086   4.235   7.212   6.266
 6382TIP3    H119087   4.192   7.128   6.253
 6382TIP3    H219088   4.210   7.238   6.355
 6383TIP3   OH219089   3.818   0.509   5.330
 6383TIP3    H119090   3.747   0.488   5.268
 6383TIP3    H219091   3.809   0.444   5.399
 6384TIP3   OH219092   2.620   5.457   1.701
 6384TIP3    H119093   2.619   5.473   1.796
 6384TIP3    H219094   2.678   5.524   1.666
 6385TIP3   OH219095   2.125   1.110   3.643
 6385TIP3    H119096   2.190   1.122   3.574
 6385TIP3    H219097   2.143   1.023   3.679
 6386TIP3   OH219098   7.567   1.676   4.342
 6386TIP3    H119099   7.543   1.609   4.278
 6386TIP3    H219100   7.502   1.667   4.412
 6387TIP3   OH219101   0.123   4.544   4.619
 6387TIP3    H119102   0.038   4.540   4.574
 6387TIP3    H219103   0.186   4.514   4.554
 6388TIP3   OH219104   0.183   6.808   6.775
 6388TIP3    H119105   0.171   6.715   6.791
 6388TIP3    H219106   0.270   6.827   6.807
 6389TIP3   OH219107   5.834   7.521   1.510
 6389TIP3    H119108   5.740   7.506   1.523
 6389TIP3    H219109   5.841   7.557   1.422
 6390TIP3   OH219110   6.567   4.228   6.407
 6390TIP3    H119111   6.637   4.198   6.348
 6390TIP3    H219112   6.605   4.221   6.495
 6391TIP3   OH219113   7.105   2.953   0.382
 6391TIP3    H119114   7.065   3.002   0.454
 6391TIP3    H219115   7.125   2.867   0.419
 6392TIP3   OH219116   4.697   2.098   2.576
 6392TIP3    H119117   4.765   2.033   2.562
 6392TIP3    H219118   4.743   2.172   2.617
 6393TIP3   OH219119   5.162   0.025   4.066
 6393TIP3    H119120   5.101   0.016   4.139
 6393TIP3    H219121   5.245  -0.008   4.100
 6394TIP3   OH219122   7.122   4.552   2.767
 6394TIP3    H119123   7.125   4.645   2.745
 6394TIP3    H219124   7.206   4.518   2.736
 6395TIP3   OH219125   3.721   7.855   0.888
 6395TIP3    H119126   3.630   7.833   0.909
 6395TIP3    H219127   3.750   7.907   0.964
 6396TIP3   OH219128   7.652   2.661   5.088
 6396TIP3    H119129   7.698   2.708   5.158
 6396TIP3    H219130   7.711   2.668   5.013
 6397TIP3   OH219131   3.604   1.195   0.239
 6397TIP3    H119132   3.627   1.220   0.149
 6397TIP3    H219133   3.578   1.277   0.281
 6398TIP3   OH219134   5.363   3.465   4.660
 6398TIP3    H119135   5.395   3.396   4.602
 6398TIP3    H219136   5.273   3.479   4.634
 6399TIP3   OH219137   1.160   0.718   4.033
 6399TIP3    H119138   1.248   0.736   4.000
 6399TIP3    H219139   1.174   0.656   4.105
 6400TIP3   OH219140   7.301   1.997   4.191
 6400TIP3    H119141   7.229   2.047   4.230
 6400TIP3    H219142   7.260   1.916   4.161
 6401TIP3   OH219143   6.715   3.197   0.419
 6401TIP3    H119144   6.690   3.222   0.330
 6401TIP3    H219145   6.733   3.280   0.463
 6402TIP3   OH219146   2.261   7.772   0.626
 6402TIP3    H119147   2.275   7.834   0.555
 6402TIP3    H219148   2.194   7.813   0.681
 6403TIP3   OH219149   3.610   6.108   5.224
 6403TIP3    H119150   3.616   6.200   5.197
 6403TIP3    H219151   3.699   6.086   5.252
 6404TIP3   OH219152   0.760   4.306   3.196
 6404TIP3    H119153   0.812   4.262   3.128
 6404TIP3    H219154   0.726   4.384   3.152
 6405TIP3   OH219155   1.655   1.246   6.691
 6405TIP3    H119156   1.625   1.337   6.680
 6405TIP3    H219157   1.579   1.193   6.668
 6406TIP3   OH219158   5.847   1.262   4.157
 6406TIP3    H119159   5.878   1.220   4.237
 6406TIP3    H219160   5.755   1.234   4.149
 6407TIP3   OH219161   5.196   6.683   6.540
 6407TIP3    H119162   5.249   6.742   6.594
 6407TIP3    H219163   5.156   6.623   6.602
 6408TIP3   OH219164   4.480   5.526   6.752
 6408TIP3    H119165   4.556   5.535   6.810
 6408TIP3    H219166   4.435   5.610   6.760
 6409TIP3   OH219167   1.019   6.972   4.162
 6409TIP3    H119168   1.068   6.956   4.082
 6409TIP3    H219169   0.960   6.897   4.169
 6410TIP3   OH219170   4.138   6.183   6.045
 6410TIP3    H119171   4.071   6.169   6.111
 6410TIP3    H219172   4.132   6.277   6.024
 6411TIP3   OH219173  -0.017   4.032   4.762
 6411TIP3    H119174   0.033   3.959   4.799
 6411TIP3    H219175   0.011   4.108   4.813
 6412TIP3   OH219176   2.784   7.182   4.474
 6412TIP3    H119177   2.805   7.258   4.527
 6412TIP3    H219178   2.749   7.219   4.392
 6413TIP3   OH219179   1.875   2.451   3.176
 6413TIP3    H119180   1.851   2.462   3.269
 6413TIP3    H219181   1.903   2.360   3.169
 6414TIP3   OH219182   1.095   5.396   2.886
 6414TIP3    H119183   1.123   5.424   2.973
 6414TIP3    H219184   1.053   5.311   2.901
 6415TIP3   OH219185   2.929   0.428   6.199
 6415TIP3    H119186   2.874   0.432   6.277
 6415TIP3    H219187   3.018   0.422   6.233
 6416TIP3   OH219188   5.137   0.771   1.816
 6416TIP3    H119189   5.157   0.794   1.725
 6416TIP3    H219190   5.096   0.850   1.851
 6417TIP3   OH219191   6.134   2.903   1.931
 6417TIP3    H119192   6.143   2.945   2.016
 6417TIP3    H219193   6.222   2.905   1.894
 6418TIP3   OH219194   5.258   5.707   2.359
 6418TIP3    H119195   5.185   5.746   2.311
 6418TIP3    H219196   5.331   5.710   2.298
 6419TIP3   OH219197   1.518   0.406   0.992
 6419TIP3    H119198   1.593   0.356   1.027
 6419TIP3    H219199   1.442   0.359   1.024
 6420TIP3   OH219200   6.407   7.149   0.258
 6420TIP3    H119201   6.371   7.151   0.170
 6420TIP3    H219202   6.493   7.190   0.249
 6421TIP3   OH219203   4.781   2.820   1.272
 6421TIP3    H119204   4.793   2.831   1.178
 6421TIP3    H219205   4.699   2.867   1.291
 6422TIP3   OH219206   7.764   4.047   2.326
 6422TIP3    H119207   7.840   4.105   2.320
 6422TIP3    H219208   7.693   4.095   2.284
 6423TIP3   OH219209   4.826   0.737   6.348
 6423TIP3    H119210   4.744   0.766   6.309
 6423TIP3    H219211   4.866   0.680   6.281
 6424TIP3   OH219212   6.070   6.899   6.276
 6424TIP3    H119213   5.976   6.908   6.267
 6424TIP3    H219214   6.106   6.931   6.193
 6425TIP3   OH219215   5.714   5.854   1.822
 6425TIP3    H119216   5.747   5.909   1.752
 6425TIP3    H219217   5.619   5.864   1.818
 6426TIP3   OH219218   0.821   1.639   5.343
 6426TIP3    H119219   0.899   1.647   5.398
 6426TIP3    H219220   0.856   1.627   5.254
 6427TIP3   OH219221   7.077   4.036   4.585
 6427TIP3    H119222   7.153   3.999   4.630
 6427TIP3    H219223   7.075   3.992   4.501
 6428TIP3   OH219224   8.346   6.247   5.801
 6428TIP3    H119225   8.315   6.271   5.714
 6428TIP3    H219226   8.382   6.329   5.836
 6429TIP3   OH219227   8.343   5.090   1.700
 6429TIP3    H119228   8.409   5.125   1.641
 6429TIP3    H219229   8.342   5.150   1.774
 6430TIP3   OH219230   0.430   1.689   1.263
 6430TIP3    H119231   0.365   1.695   1.334
 6430TIP3    H219232   0.513   1.712   1.305
 6431TIP3   OH219233   1.193   3.631   3.260
 6431TIP3    H119234   1.201   3.580   3.180
 6431TIP3    H219235   1.146   3.574   3.321
 6432TIP3   OH219236   7.985   1.379   0.258
 6432TIP3    H119237   7.996   1.314   0.189
 6432TIP3    H219238   7.967   1.461   0.211
 6433TIP3   OH219239   4.081   6.611   2.634
 6433TIP3    H119240   4.031   6.692   2.626
 6433TIP3    H219241   4.150   6.630   2.698
 6434TIP3   OH219242   0.436   4.181   6.194
 6434TIP3    H119243   0.524   4.168   6.230
 6434TIP3    H219244   0.377   4.159   6.266
 6435TIP3   OH219245   1.376   0.717   3.733
 6435TIP3    H119246   1.445   0.760   3.684
 6435TIP3    H219247   1.394   0.738   3.825
 6436TIP3   OH219248   5.327   6.847   6.020
 6436TIP3    H119249   5.370   6.853   5.935
 6436TIP3    H219250   5.240   6.813   6.001
 6437TIP3   OH219251   4.272   6.194   6.821
 6437TIP3    H119252   4.192   6.167   6.776
 6437TIP3    H219253   4.287   6.284   6.792
 6438TIP3   OH219254   5.321   1.277   5.512
 6438TIP3    H119255   5.302   1.199   5.459
 6438TIP3    H219256   5.234   1.314   5.531
 6439TIP3   OH219257   6.430   4.053   1.666
 6439TIP3    H119258   6.376   4.132   1.673
 6439TIP3    H219259   6.425   4.013   1.753
 6440TIP3   OH219260   1.705   6.169   4.137
 6440TIP3    H119261   1.691   6.170   4.042
 6440TIP3    H219262   1.764   6.095   4.152
 6441TIP3   OH219263   4.853   3.475   3.779
 6441TIP3    H119264   4.891   3.448   3.863
 6441TIP3    H219265   4.861   3.398   3.723
 6442TIP3   OH219266   6.165   2.484   2.399
 6442TIP3    H119267   6.197   2.417   2.460
 6442TIP3    H219268   6.072   2.466   2.389
 6443TIP3   OH219269   1.505   1.910   5.867
 6443TIP3    H119270   1.591   1.923   5.826
 6443TIP3    H219271   1.443   1.915   5.794
 6444TIP3   OH219272   1.704   4.877   4.012
 6444TIP3    H119273   1.753   4.850   3.934
 6444TIP3    H219274   1.744   4.960   4.039
 6445TIP3   OH219275   7.685   2.374   4.841
 6445TIP3    H119276   7.646   2.301   4.792
 6445TIP3    H219277   7.777   2.350   4.851
 6446TIP3   OH219278   3.949   7.104   2.191
 6446TIP3    H119279   3.865   7.061   2.175
 6446TIP3    H219280   3.932   7.164   2.263
 6447TIP3   OH219281   5.232   4.530   1.871
 6447TIP3    H119282   5.320   4.491   1.874
 6447TIP3    H219283   5.177   4.461   1.835
 6448TIP3   OH219284   3.692   2.384   0.441
 6448TIP3    H119285   3.622   2.327   0.471
 6448TIP3    H219286   3.686   2.461   0.498
 6449TIP3   OH219287   3.924   1.976   0.817
 6449TIP3    H119288   3.857   2.040   0.791
 6449TIP3    H219289   3.963   2.012   0.896
 6450TIP3   OH219290   5.984   3.638   2.641
 6450TIP3    H119291   5.907   3.694   2.635
 6450TIP3    H219292   5.949   3.553   2.669
 6451TIP3   OH219293   7.438   1.474   4.991
 6451TIP3    H119294   7.471   1.564   4.992
 6451TIP3    H219295   7.459   1.440   5.078
 6452TIP3   OH219296   1.364   7.205   1.889
 6452TIP3    H119297   1.409   7.188   1.806
 6452TIP3    H219298   1.411   7.279   1.926
 6453TIP3   OH219299   5.519   2.025   5.760
 6453TIP3    H119300   5.594   2.060   5.711
 6453TIP3    H219301   5.465   2.102   5.777
 6454TIP3   OH219302   1.828   1.700   1.478
 6454TIP3    H119303   1.890   1.773   1.472
 6454TIP3    H219304   1.744   1.739   1.454
 6455TIP3   OH219305   4.406   6.259   4.627
 6455TIP3    H119306   4.427   6.208   4.549
 6455TIP3    H219307   4.450   6.343   4.614
 6456TIP3   OH219308   7.862   2.535   2.444
 6456TIP3    H119309   7.786   2.592   2.458
 6456TIP3    H219310   7.882   2.545   2.351
 6457TIP3   OH219311   4.134   3.277   3.913
 6457TIP3    H119312   4.229   3.282   3.910
 6457TIP3    H219313   4.111   3.299   4.003
 6458TIP3   OH219314   3.957   4.593   0.998
 6458TIP3    H119315   3.867   4.571   0.974
 6458TIP3    H219316   3.996   4.510   1.025
 6459TIP3   OH219317   4.250   4.355   5.326
 6459TIP3    H119318   4.242   4.414   5.251
 6459TIP3    H219319   4.333   4.380   5.367
 6460TIP3   OH219320   6.410   1.074   2.241
 6460TIP3    H119321   6.379   0.985   2.228
 6460TIP3    H219322   6.368   1.124   2.171
 6461TIP3   OH219323   6.193   0.807   0.382
 6461TIP3    H119324   6.244   0.889   0.380
 6461TIP3    H219325   6.135   0.817   0.457
 6462TIP3   OH219326   3.584   6.995   2.891
 6462TIP3    H119327   3.672   7.028   2.870
 6462TIP3    H219328   3.555   6.953   2.810
 6463TIP3   OH219329   1.024   6.025   6.752
 6463TIP3    H119330   1.049   6.065   6.669
 6463TIP3    H219331   0.967   5.952   6.728
 6464TIP3   OH219332   8.170   4.703   4.968
 6464TIP3    H119333   8.264   4.702   4.948
 6464TIP3    H219334   8.163   4.658   5.052
 6465TIP3   OH219335   3.060   3.419   2.034
 6465TIP3    H119336   3.079   3.486   2.100
 6465TIP3    H219337   2.999   3.359   2.078
 6466TIP3   OH219338   4.072   7.858   6.868
 6466TIP3    H119339   4.164   7.834   6.855
 6466TIP3    H219340   4.024   7.775   6.858
 6467TIP3   OH219341   5.381   2.083   0.376
 6467TIP3    H119342   5.322   2.114   0.445
 6467TIP3    H219343   5.427   2.010   0.416
 6468TIP3   OH219344   4.605   6.904   4.558
 6468TIP3    H119345   4.528   6.875   4.607
 6468TIP3    H219346   4.572   6.918   4.469
 6469TIP3   OH219347   7.602   4.890   1.587
 6469TIP3    H119348   7.634   4.808   1.623
 6469TIP3    H219349   7.509   4.875   1.571
 6470TIP3   OH219350   7.909   1.870   5.044
 6470TIP3    H119351   7.888   1.834   5.130
 6470TIP3    H219352   7.888   1.799   4.983
 6471TIP3   OH219353   0.706   5.282   3.034
 6471TIP3    H119354   0.745   5.284   2.947
 6471TIP3    H219355   0.737   5.363   3.076
 6472TIP3   OH219356   2.230   4.855   6.148
 6472TIP3    H119357   2.315   4.853   6.104
 6472TIP3    H219358   2.179   4.786   6.106
 6473TIP3   OH219359   6.539   3.613   6.321
 6473TIP3    H119360   6.604   3.651   6.262
 6473TIP3    H219361   6.554   3.657   6.405
 6474TIP3   OH219362   6.399   3.903   3.518
 6474TIP3    H119363   6.336   3.842   3.479
 6474TIP3    H219364   6.375   3.988   3.482
 6475TIP3   OH219365   4.687   6.559   6.730
 6475TIP3    H119366   4.625   6.574   6.659
 6475TIP3    H219367   4.746   6.635   6.727
 6476TIP3   OH219368   3.317   2.919   5.778
 6476TIP3    H119369   3.403   2.878   5.793
 6476TIP3    H219370   3.254   2.850   5.799
 6477TIP3   OH219371   4.521   6.994   1.456
 6477TIP3    H119372   4.614   6.973   1.444
 6477TIP3    H219373   4.521   7.066   1.519
 6478TIP3   OH219374   7.453   3.892   4.453
 6478TIP3    H119375   7.426   3.838   4.527
 6478TIP3    H219376   7.409   3.976   4.466
 6479TIP3   OH219377   7.859   0.759   2.668
 6479TIP3    H119378   7.842   0.853   2.677
 6479TIP3    H219379   7.907   0.736   2.747
 6480TIP3   OH219380   2.816   3.250   1.108
 6480TIP3    H119381   2.872   3.237   1.031
 6480TIP3    H219382   2.746   3.308   1.077
 6481TIP3   OH219383   8.288   3.556   2.413
 6481TIP3    H119384   8.302   3.471   2.370
 6481TIP3    H219385   8.199   3.551   2.447
 6482TIP3   OH219386   5.960   6.641   6.179
 6482TIP3    H119387   5.877   6.609   6.145
 6482TIP3    H219388   5.941   6.730   6.208
 6483TIP3   OH219389   5.503   4.961   3.074
 6483TIP3    H119390   5.475   4.870   3.077
 6483TIP3    H219391   5.531   4.975   2.983
 6484TIP3   OH219392   2.076   7.723   3.202
 6484TIP3    H119393   2.022   7.644   3.208
 6484TIP3    H219394   2.028   7.790   3.250
 6485TIP3   OH219395   5.338   5.753   0.051
 6485TIP3    H119396   5.340   5.830  -0.006
 6485TIP3    H219397   5.378   5.783   0.133
 6486TIP3   OH219398   5.338   3.522   6.522
 6486TIP3    H119399   5.326   3.495   6.431
 6486TIP3    H219400   5.422   3.483   6.547
 6487TIP3   OH219401   2.203   4.707   0.226
 6487TIP3    H119402   2.230   4.695   0.135
 6487TIP3    H219403   2.107   4.709   0.223
 6488TIP3   OH219404   0.548   3.060   0.472
 6488TIP3    H119405   0.551   3.120   0.398
 6488TIP3    H219406   0.572   3.114   0.547
 6489TIP3   OH219407   5.630   2.759   1.156
 6489TIP3    H119408   5.658   2.671   1.134
 6489TIP3    H219409   5.698   2.793   1.214
 6490TIP3   OH219410   1.533   6.801   4.196
 6490TIP3    H119411   1.469   6.872   4.184
 6490TIP3    H219412   1.481   6.721   4.200
 6491TIP3   OH219413   3.374   6.742   0.300
 6491TIP3    H119414   3.439   6.720   0.367
 6491TIP3    H219415   3.353   6.834   0.316
 6492TIP3   OH219416   6.009   1.161   6.208
 6492TIP3    H119417   6.090   1.175   6.160
 6492TIP3    H219418   5.987   1.069   6.192
 6493TIP3   OH219419   0.411   4.625   1.912
 6493TIP3    H119420   0.325   4.601   1.878
 6493TIP3    H219421   0.401   4.623   2.007
 6494TIP3   OH219422   1.316   0.537   6.253
 6494TIP3    H119423   1.412   0.541   6.251
 6494TIP3    H219424   1.292   0.485   6.176
 6495TIP3   OH219425   0.985   2.574   0.773
 6495TIP3    H119426   0.908   2.530   0.809
 6495TIP3    H219427   1.060   2.528   0.812
 6496TIP3   OH219428   4.222   4.326   4.946
 6496TIP3    H119429   4.133   4.304   4.919
 6496TIP3    H219430   4.211   4.392   5.014
 6497TIP3   OH219431   6.266   4.456   1.016
 6497TIP3    H119432   6.357   4.433   1.034
 6497TIP3    H219433   6.260   4.458   0.921
 6498TIP3   OH219434   5.958   5.520   6.001
 6498TIP3    H119435   5.977   5.614   6.009
 6498TIP3    H219436   5.947   5.505   5.907
 6499TIP3   OH219437   4.067   1.068   1.166
 6499TIP3    H119438   4.039   1.084   1.256
 6499TIP3    H219439   4.075   0.972   1.160
 6500TIP3   OH219440   7.480   3.451   5.211
 6500TIP3    H119441   7.567   3.421   5.184
 6500TIP3    H219442   7.435   3.473   5.129
 6501TIP3   OH219443   6.352   5.399   2.473
 6501TIP3    H119444   6.258   5.412   2.461
 6501TIP3    H219445   6.393   5.452   2.404
 6502TIP3   OH219446   2.208   7.900   5.572
 6502TIP3    H119447   2.116   7.927   5.571
 6502TIP3    H219448   2.205   7.805   5.576
 6503TIP3   OH219449   7.277   5.198   4.522
 6503TIP3    H119450   7.246   5.288   4.528
 6503TIP3    H219451   7.372   5.204   4.537
 6504TIP3   OH219452   5.899   7.294   2.757
 6504TIP3    H119453   5.870   7.208   2.789
 6504TIP3    H219454   5.917   7.279   2.664
 6505TIP3   OH219455   7.769   7.017   3.295
 6505TIP3    H119456   7.690   6.973   3.326
 6505TIP3    H219457   7.740   7.106   3.275
 6506TIP3   OH219458   5.274   7.683   0.249
 6506TIP3    H119459   5.199   7.635   0.213
 6506TIP3    H219460   5.236   7.737   0.319
 6507TIP3   OH219461   2.127   3.962   4.194
 6507TIP3    H119462   2.195   3.962   4.127
 6507TIP3    H219463   2.045   3.973   4.146
 6508TIP3   OH219464   7.548   2.706   6.752
 6508TIP3    H119465   7.602   2.739   6.681
 6508TIP3    H219466   7.579   2.753   6.830
 6509TIP3   OH219467   8.052   0.819   6.416
 6509TIP3    H119468   8.129   0.831   6.472
 6509TIP3    H219469   8.066   0.879   6.343
 6510TIP3   OH219470   6.565   6.274   3.547
 6510TIP3    H119471   6.553   6.363   3.514
 6510TIP3    H219472   6.530   6.218   3.478
 6511TIP3   OH219473   3.911   6.660   0.510
 6511TIP3    H119474   3.934   6.570   0.488
 6511TIP3    H219475   3.919   6.708   0.428
 6512TIP3   OH219476   8.212   3.084   3.710
 6512TIP3    H119477   8.269   3.063   3.785
 6512TIP3    H219478   8.145   3.016   3.711
 6513TIP3   OH219479   3.163   2.869   6.717
 6513TIP3    H119480   3.188   2.845   6.628
 6513TIP3    H219481   3.067   2.867   6.716
 6514TIP3   OH219482   7.658   1.094   4.325
 6514TIP3    H119483   7.634   1.175   4.369
 6514TIP3    H219484   7.617   1.100   4.239
 6515TIP3   OH219485   5.857   2.233   5.315
 6515TIP3    H119486   5.833   2.260   5.226
 6515TIP3    H219487   5.824   2.143   5.323
 6516TIP3   OH219488   6.468   2.467   0.939
 6516TIP3    H119489   6.384   2.508   0.957
 6516TIP3    H219490   6.469   2.389   0.995
 6517TIP3   OH219491   3.432   6.991   1.004
 6517TIP3    H119492   3.520   6.978   0.967
 6517TIP3    H219493   3.401   6.903   1.024
 6518TIP3   OH219494   5.478   2.509   2.366
 6518TIP3    H119495   5.555   2.452   2.364
 6518TIP3    H219496   5.486   2.563   2.288
 6519TIP3   OH219497   1.735   3.066   3.676
 6519TIP3    H119498   1.801   3.083   3.744
 6519TIP3    H219499   1.752   2.977   3.647
 6520TIP3   OH219500   3.218   6.404   2.261
 6520TIP3    H119501   3.277   6.345   2.306
 6520TIP3    H219502   3.226   6.380   2.168
 6521TIP3   OH219503   4.794   0.590   1.280
 6521TIP3    H119504   4.743   0.668   1.300
 6521TIP3    H219505   4.823   0.558   1.366
 6522TIP3   OH219506   5.088   7.017   4.823
 6522TIP3    H119507   5.154   7.020   4.891
 6522TIP3    H219508   5.097   7.100   4.776
 6523TIP3   OH219509   7.781   5.498   1.612
 6523TIP3    H119510   7.845   5.536   1.551
 6523TIP3    H219511   7.832   5.438   1.666
 6524TIP3   OH219512   8.087   7.006   0.608
 6524TIP3    H119513   8.084   7.014   0.703
 6524TIP3    H219514   8.181   7.011   0.586
 6525TIP3   OH219515   7.313   6.871   0.721
 6525TIP3    H119516   7.284   6.802   0.662
 6525TIP3    H219517   7.235   6.893   0.772
 6526TIP3   OH219518   3.438   3.720   3.394
 6526TIP3    H119519   3.444   3.687   3.484
 6526TIP3    H219520   3.404   3.646   3.344
 6527TIP3   OH219521   5.765   2.200   1.404
 6527TIP3    H119522   5.767   2.112   1.365
 6527TIP3    H219523   5.682   2.238   1.375
 6528TIP3   OH219524   4.508   2.306   6.180
 6528TIP3    H119525   4.477   2.339   6.264
 6528TIP3    H219526   4.602   2.323   6.181
 6529TIP3   OH219527   6.200   4.733   4.229
 6529TIP3    H119528   6.107   4.728   4.251
 6529TIP3    H219529   6.227   4.821   4.256
 6530TIP3   OH219530   8.041   5.904   3.654
 6530TIP3    H119531   8.039   5.986   3.704
 6530TIP3    H219532   8.134   5.883   3.646
 6531TIP3   OH219533   0.034   7.884   1.501
 6531TIP3    H119534   0.044   7.930   1.418
 6531TIP3    H219535  -0.047   7.917   1.538
 6532TIP3   OH219536   2.040   7.891   4.788
 6532TIP3    H119537   1.952   7.875   4.822
 6532TIP3    H219538   2.083   7.805   4.792
 6533TIP3   OH219539   5.995   0.253   3.225
 6533TIP3    H119540   5.926   0.307   3.265
 6533TIP3    H219541   6.063   0.248   3.293
 6534TIP3   OH219542   1.333   7.561   6.124
 6534TIP3    H119543   1.386   7.542   6.202
 6534TIP3    H219544   1.373   7.509   6.055
 6535TIP3   OH219545   2.047   6.603   2.539
 6535TIP3    H119546   2.110   6.580   2.607
 6535TIP3    H219547   1.965   6.564   2.568
 6536TIP3   OH219548   2.532   0.353   0.408
 6536TIP3    H119549   2.481   0.303   0.345
 6536TIP3    H219550   2.610   0.300   0.423
 6537TIP3   OH219551   0.413   6.299   5.688
 6537TIP3    H119552   0.332   6.253   5.709
 6537TIP3    H219553   0.482   6.235   5.704
 6538TIP3   OH219554   6.574   0.352   4.893
 6538TIP3    H119555   6.482   0.378   4.899
 6538TIP3    H219556   6.615   0.420   4.839
 6539TIP3   OH219557   3.098   7.369   0.019
 6539TIP3    H119558   3.143   7.425  -0.045
 6539TIP3    H219559   3.014   7.412   0.032
 6540TIP3   OH219560   6.042   3.777   4.862
 6540TIP3    H119561   6.090   3.729   4.794
 6540TIP3    H219562   6.050   3.723   4.940
 6541TIP3   OH219563   4.246   1.833   6.640
 6541TIP3    H119564   4.261   1.739   6.626
 6541TIP3    H219565   4.164   1.837   6.689
 6542TIP3   OH219566   5.032   6.922   2.361
 6542TIP3    H119567   5.013   7.015   2.370
 6542TIP3    H219568   4.987   6.896   2.281
 6543TIP3   OH219569   1.359   7.014   0.839
 6543TIP3    H119570   1.372   7.067   0.917
 6543TIP3    H219571   1.354   7.077   0.767
 6544TIP3   OH219572   6.554   4.939   4.251
 6544TIP3    H119573   6.649   4.930   4.249
 6544TIP3    H219574   6.532   4.941   4.344
 6545TIP3   OH219575   6.457   4.727   0.137
 6545TIP3    H119576   6.464   4.740   0.231
 6545TIP3    H219577   6.376   4.771   0.112
 6546TIP3   OH219578   0.554   4.666   5.234
 6546TIP3    H119579   0.594   4.582   5.257
 6546TIP3    H219580   0.462   4.645   5.218
 6547TIP3   OH219581   5.305   4.657   6.828
 6547TIP3    H119582   5.352   4.735   6.857
 6547TIP3    H219583   5.374   4.593   6.810
 6548TIP3   OH219584   3.546   0.823   2.471
 6548TIP3    H119585   3.529   0.791   2.560
 6548TIP3    H219586   3.591   0.750   2.428
 6549TIP3   OH219587   5.801   3.886   2.677
 6549TIP3    H119588   5.838   3.950   2.738
 6549TIP3    H219589   5.841   3.908   2.593
 6550TIP3   OH219590   4.636   6.087   3.153
 6550TIP3    H119591   4.602   6.054   3.070
 6550TIP3    H219592   4.591   6.035   3.220
 6551TIP3   OH219593   2.576   5.031   1.399
 6551TIP3    H119594   2.572   5.016   1.305
 6551TIP3    H219595   2.590   5.125   1.408
 6552TIP3   OH219596   4.262   6.909   3.625
 6552TIP3    H119597   4.323   6.902   3.551
 6552TIP3    H219598   4.201   6.978   3.599
 6553TIP3   OH219599   3.760   0.074   6.511
 6553TIP3    H119600   3.698   0.011   6.475
 6553TIP3    H219601   3.841   0.023   6.524
 6554TIP3   OH219602   7.705   2.465   6.223
 6554TIP3    H119603   7.715   2.560   6.227
 6554TIP3    H219604   7.781   2.434   6.173
 6555TIP3   OH219605   5.024   5.659   4.339
 6555TIP3    H119606   5.114   5.651   4.309
 6555TIP3    H219607   5.031   5.678   4.433
 6556TIP3   OH219608   7.952   6.755   0.703
 6556TIP3    H119609   7.882   6.819   0.721
 6556TIP3    H219610   8.013   6.803   0.647
 6557TIP3   OH219611   6.210   7.243   4.382
 6557TIP3    H119612   6.213   7.189   4.461
 6557TIP3    H219613   6.203   7.180   4.310
 6558TIP3   OH219614   8.049   0.642   2.321
 6558TIP3    H119615   7.986   0.710   2.294
 6558TIP3    H219616   8.096   0.681   2.395
 6559TIP3   OH219617   1.354   1.049   0.633
 6559TIP3    H119618   1.315   0.964   0.611
 6559TIP3    H219619   1.286   1.112   0.611
 6560TIP3   OH219620   6.395   5.817   5.212
 6560TIP3    H119621   6.458   5.841   5.280
 6560TIP3    H219622   6.416   5.726   5.191
 6561TIP3   OH219623   0.917   6.013   0.914
 6561TIP3    H119624   0.955   6.053   0.992
 6561TIP3    H219625   0.869   5.937   0.947
 6562TIP3   OH219626   3.975   2.985   6.055
 6562TIP3    H119627   4.061   3.008   6.090
 6562TIP3    H219628   3.932   3.069   6.040
 6563TIP3   OH219629   1.845   5.035   1.606
 6563TIP3    H119630   1.834   5.124   1.572
 6563TIP3    H219631   1.762   5.016   1.649
 6564TIP3   OH219632   1.601   7.512   2.985
 6564TIP3    H119633   1.569   7.602   2.994
 6564TIP3    H219634   1.531   7.467   2.938
 6565TIP3   OH219635   5.182   4.685   0.067
 6565TIP3    H119636   5.267   4.686   0.110
 6565TIP3    H219637   5.123   4.647   0.132
 6566TIP3   OH219638   8.190   5.584   2.376
 6566TIP3    H119639   8.166   5.525   2.448
 6566TIP3    H219640   8.132   5.559   2.304
 6567TIP3   OH219641   2.147   2.255   4.016
 6567TIP3    H119642   2.118   2.268   3.925
 6567TIP3    H219643   2.217   2.190   4.010
 6568TIP3   OH219644   1.150   7.533   0.036
 6568TIP3    H119645   1.168   7.495  -0.050
 6568TIP3    H219646   1.230   7.581   0.058
 6569TIP3   OH219647   7.868   7.024   5.263
 6569TIP3    H119648   7.958   7.056   5.252
 6569TIP3    H219649   7.875   6.929   5.259
 6570TIP3   OH219650   1.468   0.467   4.316
 6570TIP3    H119651   1.537   0.533   4.301
 6570TIP3    H219652   1.393   0.518   4.347
 6571TIP3   OH219653   2.928   5.503   1.880
 6571TIP3    H119654   2.990   5.518   1.951
 6571TIP3    H219655   2.852   5.557   1.902
 6572TIP3   OH219656   5.212   1.754   2.209
 6572TIP3    H119657   5.182   1.694   2.278
 6572TIP3    H219658   5.236   1.834   2.256
 6573TIP3   OH219659   3.517   3.427   1.943
 6573TIP3    H119660   3.496   3.490   2.013
 6573TIP3    H219661   3.594   3.464   1.900
 6574TIP3   OH219662   5.424   3.108   2.884
 6574TIP3    H119663   5.415   3.186   2.940
 6574TIP3    H219664   5.342   3.104   2.836
 6575TIP3   OH219665   6.545   0.798   0.430
 6575TIP3    H119666   6.529   0.760   0.516
 6575TIP3    H219667   6.568   0.724   0.374
 6576TIP3   OH219668   4.017   3.883   4.325
 6576TIP3    H119669   3.949   3.822   4.295
 6576TIP3    H219670   4.097   3.830   4.327
 6577TIP3   OH219671   7.379   7.238   1.035
 6577TIP3    H119672   7.461   7.284   1.056
 6577TIP3    H219673   7.402   7.180   0.963
 6578TIP3   OH219674   5.995   4.595   3.957
 6578TIP3    H119675   6.090   4.598   3.940
 6578TIP3    H219676   5.956   4.630   3.877
 6579TIP3   OH219677   6.566   6.873   0.603
 6579TIP3    H119678   6.593   6.919   0.683
 6579TIP3    H219679   6.567   6.781   0.627
 6580TIP3   OH219680   0.128   6.237   2.942
 6580TIP3    H119681   0.148   6.144   2.932
 6580TIP3    H219682   0.040   6.238   2.979
 6581TIP3   OH219683   1.583   6.619   1.283
 6581TIP3    H119684   1.627   6.535   1.268
 6581TIP3    H219685   1.559   6.617   1.376
 6582TIP3   OH219686   2.339   6.694   4.330
 6582TIP3    H119687   2.359   6.629   4.262
 6582TIP3    H219688   2.251   6.672   4.359
 6583TIP3   OH219689   2.455   6.593   4.574
 6583TIP3    H119690   2.430   6.648   4.500
 6583TIP3    H219691   2.412   6.634   4.649
 6584TIP3   OH219692   6.355   4.995   1.538
 6584TIP3    H119693   6.307   5.075   1.519
 6584TIP3    H219694   6.429   4.996   1.477
 6585TIP3   OH219695   4.647   6.018   4.774
 6585TIP3    H119696   4.709   5.963   4.728
 6585TIP3    H219697   4.561   5.993   4.739
 6586TIP3   OH219698   0.329   7.520   5.413
 6586TIP3    H119699   0.329   7.616   5.406
 6586TIP3    H219700   0.422   7.497   5.417
 6587TIP3   OH219701   6.061   1.705   4.680
 6587TIP3    H119702   5.970   1.726   4.701
 6587TIP3    H219703   6.090   1.776   4.624
 6588TIP3   OH219704   3.758   1.520   4.211
 6588TIP3    H119705   3.691   1.492   4.149
 6588TIP3    H219706   3.827   1.454   4.204
 6589TIP3   OH219707   3.524   2.413   4.211
 6589TIP3    H119708   3.543   2.341   4.271
 6589TIP3    H219709   3.531   2.492   4.265
 6590TIP3   OH219710   6.303   5.975   1.432
 6590TIP3    H119711   6.246   5.911   1.474
 6590TIP3    H219712   6.352   6.014   1.505
 6591TIP3   OH219713   5.630   5.677   0.852
 6591TIP3    H119714   5.713   5.658   0.808
 6591TIP3    H219715   5.655   5.727   0.930
 6592TIP3   OH219716   6.416   3.843   5.568
 6592TIP3    H119717   6.324   3.861   5.584
 6592TIP3    H219718   6.439   3.902   5.496
 6593TIP3   OH219719   5.850   4.649   1.856
 6593TIP3    H119720   5.789   4.722   1.866
 6593TIP3    H219721   5.842   4.600   1.937
 6594TIP3   OH219722   7.981   0.025   6.490
 6594TIP3    H119723   8.027  -0.037   6.547
 6594TIP3    H219724   7.999   0.110   6.528
 6595TIP3   OH219725   1.086   5.060   0.207
 6595TIP3    H119726   1.165   5.098   0.244
 6595TIP3    H219727   1.016   5.085   0.268
 6596TIP3   OH219728   0.092   5.950   1.669
 6596TIP3    H119729   0.186   5.947   1.654
 6596TIP3    H219730   0.077   6.031   1.717
 6597TIP3   OH219731   5.048   1.404   3.490
 6597TIP3    H119732   4.953   1.391   3.502
 6597TIP3    H219733   5.074   1.335   3.429
 6598TIP3   OH219734   5.189   4.342   0.445
 6598TIP3    H119735   5.208   4.261   0.397
 6598TIP3    H219736   5.112   4.321   0.498
 6599TIP3   OH219737   3.942   5.930   2.432
 6599TIP3    H119738   3.928   5.973   2.347
 6599TIP3    H219739   3.859   5.887   2.451
 6600TIP3   OH219740   3.616   7.489   3.946
 6600TIP3    H119741   3.558   7.416   3.966
 6600TIP3    H219742   3.562   7.567   3.959
 6601TIP3   OH219743   3.189   4.909   1.196
 6601TIP3    H119744   3.197   5.004   1.204
 6601TIP3    H219745   3.103   4.895   1.156
 6602TIP3   OH219746   1.926   3.096   4.588
 6602TIP3    H119747   1.966   3.159   4.647
 6602TIP3    H219748   1.835   3.125   4.580
 6603TIP3   OH219749   5.250   7.712   3.693
 6603TIP3    H119750   5.203   7.638   3.655
 6603TIP3    H219751   5.304   7.673   3.762
 6604TIP3   OH219752   1.187   5.695   5.796
 6604TIP3    H119753   1.275   5.664   5.777
 6604TIP3    H219754   1.169   5.760   5.728
 6605TIP3   OH219755   4.306   3.210   0.433
 6605TIP3    H119756   4.368   3.138   0.423
 6605TIP3    H219757   4.273   3.225   0.345
 6606TIP3   OH219758   2.318   3.436   6.598
 6606TIP3    H119759   2.285   3.379   6.668
 6606TIP3    H219760   2.395   3.389   6.564
 6607TIP3   OH219761   3.504   4.242   5.083
 6607TIP3    H119762   3.532   4.164   5.034
 6607TIP3    H219763   3.584   4.294   5.093
 6608TIP3   OH219764   2.204   3.154   5.784
 6608TIP3    H119765   2.121   3.135   5.741
 6608TIP3    H219766   2.226   3.073   5.831
 6609TIP3   OH219767   3.089   5.002   2.973
 6609TIP3    H119768   3.150   5.076   2.980
 6609TIP3    H219769   3.107   4.965   2.886
 6610TIP3   OH219770   4.771   3.214   0.710
 6610TIP3    H119771   4.837   3.269   0.668
 6610TIP3    H219772   4.813   3.187   0.792
 6611TIP3   OH219773   4.265   0.694   2.697
 6611TIP3    H119774   4.322   0.664   2.627
 6611TIP3    H219775   4.196   0.743   2.652
 6612TIP3   OH219776   5.327   5.222   2.895
 6612TIP3    H119777   5.276   5.187   2.822
 6612TIP3    H219778   5.393   5.277   2.855
 6613TIP3   OH219779   6.100   0.693   6.250
 6613TIP3    H119780   6.154   0.760   6.290
 6613TIP3    H219781   6.159   0.619   6.237
 6614TIP3   OH219782   3.870   2.594   2.314
 6614TIP3    H119783   3.833   2.506   2.302
 6614TIP3    H219784   3.807   2.639   2.370
 6615TIP3   OH219785   7.185   5.324   6.405
 6615TIP3    H119786   7.113   5.364   6.455
 6615TIP3    H219787   7.195   5.380   6.329
 6616TIP3   OH219788   1.246   0.008   3.843
 6616TIP3    H119789   1.206  -0.065   3.797
 6616TIP3    H219790   1.243   0.080   3.780
 6617TIP3   OH219791   6.730   6.759   4.233
 6617TIP3    H119792   6.773   6.744   4.316
 6617TIP3    H219793   6.665   6.689   4.226
 6618TIP3   OH219794   1.126   5.525   4.213
 6618TIP3    H119795   1.113   5.464   4.141
 6618TIP3    H219796   1.209   5.498   4.253
 6619TIP3   OH219797   6.939   3.865   0.423
 6619TIP3    H119798   6.929   3.941   0.366
 6619TIP3    H219799   6.998   3.894   0.492
 6620TIP3   OH219800   0.559   1.298   1.519
 6620TIP3    H119801   0.562   1.233   1.448
 6620TIP3    H219802   0.484   1.354   1.497
 6621TIP3   OH219803   2.695   2.654   0.632
 6621TIP3    H119804   2.659   2.740   0.655
 6621TIP3    H219805   2.722   2.663   0.541
 6622TIP3   OH219806   5.590   7.296   6.576
 6622TIP3    H119807   5.584   7.276   6.670
 6622TIP3    H219808   5.682   7.284   6.555
 6623TIP3   OH219809   1.452   6.169   0.893
 6623TIP3    H119810   1.376   6.115   0.873
 6623TIP3    H219811   1.465   6.222   0.814
 6624TIP3   OH219812   6.683   7.658   5.878
 6624TIP3    H119813   6.724   7.597   5.816
 6624TIP3    H219814   6.589   7.644   5.867
 6625TIP3   OH219815   2.529   1.561   4.875
 6625TIP3    H119816   2.542   1.585   4.784
 6625TIP3    H219817   2.434   1.549   4.884
 6626TIP3   OH219818   1.646   1.078   0.178
 6626TIP3    H119819   1.650   1.072   0.083
 6626TIP3    H219820   1.678   1.166   0.198
 6627TIP3   OH219821   1.206   5.143   4.521
 6627TIP3    H119822   1.172   5.137   4.431
 6627TIP3    H219823   1.281   5.084   4.521
 6628TIP3   OH219824   0.483   1.218   3.598
 6628TIP3    H119825   0.403   1.234   3.649
 6628TIP3    H219826   0.488   1.123   3.591
 6629TIP3   OH219827   5.656   0.906   6.653
 6629TIP3    H119828   5.565   0.931   6.666
 6629TIP3    H219829   5.661   0.878   6.562
 6630TIP3   OH219830   6.812   5.549   0.663
 6630TIP3    H119831   6.773   5.635   0.651
 6630TIP3    H219832   6.881   5.544   0.597
 6631TIP3   OH219833   7.656   7.554   2.482
 6631TIP3    H119834   7.715   7.589   2.549
 6631TIP3    H219835   7.613   7.631   2.445
 6632TIP3   OH219836   7.748   3.155   6.451
 6632TIP3    H119837   7.693   3.090   6.494
 6632TIP3    H219838   7.819   3.172   6.513
 6633TIP3   OH219839   7.907   2.866   6.784
 6633TIP3    H119840   7.996   2.830   6.780
 6633TIP3    H219841   7.865   2.834   6.704
 6634TIP3   OH219842   4.190   2.356   1.450
 6634TIP3    H119843   4.118   2.341   1.511
 6634TIP3    H219844   4.220   2.445   1.469
 6635TIP3   OH219845   0.249   4.902   2.458
 6635TIP3    H119846   0.234   4.832   2.521
 6635TIP3    H219847   0.330   4.877   2.413
 6636TIP3   OH219848   4.533   1.405   0.679
 6636TIP3    H119849   4.446   1.414   0.642
 6636TIP3    H219850   4.551   1.490   0.720
 6637TIP3   OH219851   8.110   3.912   6.198
 6637TIP3    H119852   8.073   3.969   6.130
 6637TIP3    H219853   8.081   3.824   6.174
 6638TIP3   OH219854   6.434   1.323   5.432
 6638TIP3    H119855   6.525   1.352   5.440
 6638TIP3    H219856   6.440   1.227   5.437
 6639TIP3   OH219857   8.397   3.771   6.315
 6639TIP3    H119858   8.368   3.716   6.388
 6639TIP3    H219859   8.330   3.761   6.248
 6640TIP3   OH219860   7.515   1.034   3.421
 6640TIP3    H119861   7.597   1.077   3.445
 6640TIP3    H219862   7.532   0.941   3.434
 6641TIP3   OH219863   2.270   2.307   0.425
 6641TIP3    H119864   2.219   2.324   0.346
 6641TIP3    H219865   2.208   2.322   0.497
 6642TIP3   OH219866   0.151   2.597   5.950
 6642TIP3    H119867   0.079   2.534   5.958
 6642TIP3    H219868   0.205   2.562   5.879
 6643TIP3   OH219869   5.261   3.595   1.037
 6643TIP3    H119870   5.350   3.598   1.071
 6643TIP3    H219871   5.211   3.651   1.097
 6644TIP3   OH219872   1.727   0.332   3.051
 6644TIP3    H119873   1.651   0.354   3.104
 6644TIP3    H219874   1.715   0.383   2.971
 6645TIP3   OH219875   1.946   5.537   5.260
 6645TIP3    H119876   1.946   5.633   5.267
 6645TIP3    H219877   2.014   5.509   5.320
 6646TIP3   OH219878   2.564   3.567   3.964
 6646TIP3    H119879   2.625   3.564   4.039
 6646TIP3    H219880   2.619   3.546   3.888
 6647TIP3   OH219881   3.631   1.789   0.073
 6647TIP3    H119882   3.644   1.698   0.044
 6647TIP3    H219883   3.681   1.795   0.155
 6648TIP3   OH219884   2.460   6.005   2.504
 6648TIP3    H119885   2.453   6.089   2.548
 6648TIP3    H219886   2.377   5.960   2.522
 6649TIP3   OH219887   7.081   7.150   5.356
 6649TIP3    H119888   7.043   7.067   5.327
 6649TIP3    H219889   7.086   7.141   5.452
 6650TIP3   OH219890   4.056   3.467   0.071
 6650TIP3    H119891   3.969   3.470   0.111
 6650TIP3    H219892   4.047   3.515  -0.011
 6651TIP3   OH219893   2.553   2.647   6.717
 6651TIP3    H119894   2.598   2.562   6.710
 6651TIP3    H219895   2.484   2.642   6.651
 6652TIP3   OH219896   2.023   5.653   2.230
 6652TIP3    H119897   1.953   5.592   2.207
 6652TIP3    H219898   2.079   5.604   2.290
 6653TIP3   OH219899   4.351   4.421   1.373
 6653TIP3    H119900   4.398   4.386   1.449
 6653TIP3    H219901   4.348   4.515   1.389
 6654TIP3   OH219902   0.401   7.717   3.646
 6654TIP3    H119903   0.313   7.734   3.615
 6654TIP3    H219904   0.428   7.798   3.689
 6655TIP3   OH219905   0.712   3.868   0.517
 6655TIP3    H119906   0.641   3.922   0.552
 6655TIP3    H219907   0.702   3.873   0.422
 6656TIP3   OH219908   4.490   7.287   6.230
 6656TIP3    H119909   4.499   7.209   6.176
 6656TIP3    H219910   4.397   7.290   6.253
 6657TIP3   OH219911   6.282   1.797   1.981
 6657TIP3    H119912   6.249   1.749   1.905
 6657TIP3    H219913   6.225   1.874   1.987
 6658TIP3   OH219914   0.128   1.094   1.978
 6658TIP3    H119915   0.117   1.157   1.907
 6658TIP3    H219916   0.141   1.147   2.056
 6659TIP3   OH219917   6.145   0.792   0.969
 6659TIP3    H119918   6.152   0.711   1.019
 6659TIP3    H219919   6.201   0.779   0.892
 6660TIP3   OH219920   5.569   0.372   3.714
 6660TIP3    H119921   5.573   0.283   3.748
 6660TIP3    H219922   5.652   0.412   3.742
 6661TIP3   OH219923   2.106   2.590   0.209
 6661TIP3    H119924   2.141   2.610   0.296
 6661TIP3    H219925   2.027   2.539   0.227
 6662TIP3   OH219926   0.785   6.557   0.626
 6662TIP3    H119927   0.836   6.551   0.707
 6662TIP3    H219928   0.792   6.470   0.587
 6663TIP3   OH219929   7.809   4.150   1.753
 6663TIP3    H119930   7.817   4.058   1.726
 6663TIP3    H219931   7.857   4.199   1.686
 6664TIP3   OH219932   5.852   2.386   4.127
 6664TIP3    H119933   5.923   2.384   4.190
 6664TIP3    H219934   5.773   2.380   4.180
 6665TIP3   OH219935   2.574   2.243   3.791
 6665TIP3    H119936   2.615   2.169   3.747
 6665TIP3    H219937   2.616   2.246   3.877
 6666TIP3   OH219938   5.068   7.220   3.851
 6666TIP3    H119939   5.093   7.188   3.938
 6666TIP3    H219940   5.146   7.263   3.817
 6667TIP3   OH219941   2.945   5.964   5.022
 6667TIP3    H119942   3.026   6.010   5.045
 6667TIP3    H219943   2.876   6.015   5.064
 6668TIP3   OH219944   0.516   6.608   4.243
 6668TIP3    H119945   0.569   6.684   4.267
 6668TIP3    H219946   0.431   6.624   4.285
 6669TIP3   OH219947   2.983   3.984   3.914
 6669TIP3    H119948   2.986   4.067   3.867
 6669TIP3    H219949   2.892   3.976   3.943
 6670TIP3   OH219950   5.758   4.463   0.984
 6670TIP3    H119951   5.815   4.476   1.061
 6670TIP3    H219952   5.819   4.453   0.911
 6671TIP3   OH219953   7.440   3.218   0.914
 6671TIP3    H119954   7.485   3.195   0.995
 6671TIP3    H219955   7.464   3.149   0.853
 6672TIP3   OH219956   6.991   0.736   6.577
 6672TIP3    H119957   7.017   0.699   6.662
 6672TIP3    H219958   6.968   0.660   6.524
 6673TIP3   OH219959   0.781   4.232   0.241
 6673TIP3    H119960   0.825   4.155   0.277
 6673TIP3    H219961   0.850   4.277   0.191
 6674TIP3   OH219962   8.319   3.198   2.950
 6674TIP3    H119963   8.308   3.289   2.975
 6674TIP3    H219964   8.231   3.168   2.927
 6675TIP3   OH219965   6.484   0.923   1.955
 6675TIP3    H119966   6.549   0.919   2.024
 6675TIP3    H219967   6.447   0.835   1.951
 6676TIP3   OH219968   2.376   0.361   2.686
 6676TIP3    H119969   2.388   0.367   2.591
 6676TIP3    H219970   2.362   0.451   2.714
 6677TIP3   OH219971   4.551   6.857   1.112
 6677TIP3    H119972   4.488   6.928   1.123
 6677TIP3    H219973   4.559   6.818   1.199
 6678TIP3   OH219974   2.665   6.580   1.533
 6678TIP3    H119975   2.573   6.571   1.561
 6678TIP3    H219976   2.662   6.640   1.459
 6679TIP3   OH219977   0.430   0.659   4.208
 6679TIP3    H119978   0.490   0.721   4.167
 6679TIP3    H219979   0.443   0.671   4.302
 6680TIP3   OH219980   1.503   3.875   2.211
 6680TIP3    H119981   1.514   3.841   2.122
 6680TIP3    H219982   1.542   3.809   2.268
 6681TIP3   OH219983   3.487   2.046   2.885
 6681TIP3    H119984   3.460   2.138   2.877
 6681TIP3    H219985   3.435   2.013   2.959
 6682TIP3   OH219986   4.623   5.504   1.325
 6682TIP3    H119987   4.691   5.571   1.325
 6682TIP3    H219988   4.611   5.483   1.232
 6683TIP3   OH219989   6.146   4.499   5.646
 6683TIP3    H119990   6.137   4.587   5.609
 6683TIP3    H219991   6.223   4.504   5.702
 6684TIP3   OH219992   8.015   5.702   6.377
 6684TIP3    H119993   7.982   5.629   6.429
 6684TIP3    H219994   8.099   5.724   6.417
 6685TIP3   OH219995   0.155   3.247   3.836
 6685TIP3    H119996   0.104   3.169   3.813
 6685TIP3    H219997   0.241   3.213   3.860
 6686TIP3   OH219998   1.972   1.620   1.695
 6686TIP3    H119999   1.905   1.622   1.626
 6686TIP3    H220000   2.033   1.552   1.666
 6687TIP3   OH220001   0.882   1.415   0.697
 6687TIP3    H120002   0.833   1.447   0.773
 6687TIP3    H220003   0.938   1.346   0.732
 6688TIP3   OH220004   4.297   1.418   0.508
 6688TIP3    H120005   4.234   1.477   0.466
 6688TIP3    H220006   4.376   1.423   0.454
 6689TIP3   OH220007   7.518   6.722   1.378
 6689TIP3    H120008   7.595   6.669   1.397
 6689TIP3    H220009   7.482   6.686   1.297
 6690TIP3   OH220010   4.714   7.308   1.967
 6690TIP3    H120011   4.730   7.396   2.002
 6690TIP3    H220012   4.724   7.250   2.043
 6691TIP3   OH220013   6.765   5.162   5.766
 6691TIP3    H120014   6.807   5.245   5.743
 6691TIP3    H220015   6.686   5.159   5.712
 6692TIP3   OH220016   3.390   7.908   4.776
 6692TIP3    H120017   3.391   7.828   4.724
 6692TIP3    H220018   3.384   7.978   4.711
 6693TIP3   OH220019   1.415   7.844   3.830
 6693TIP3    H120020   1.448   7.934   3.828
 6693TIP3    H220021   1.470   7.800   3.895
 6694TIP3   OH220022   5.609   4.352   4.636
 6694TIP3    H120023   5.689   4.372   4.588
 6694TIP3    H220024   5.633   4.281   4.695
 6695TIP3   OH220025   5.545   2.636   3.727
 6695TIP3    H120026   5.584   2.721   3.749
 6695TIP3    H220027   5.620   2.581   3.703
 6696TIP3   OH220028   4.166   1.266   4.778
 6696TIP3    H120029   4.186   1.353   4.743
 6696TIP3    H220030   4.081   1.277   4.821
 6697TIP3   OH220031   3.375   6.377   4.135
 6697TIP3    H120032   3.427   6.383   4.215
 6697TIP3    H220033   3.384   6.462   4.093
 6698TIP3   OH220034   5.415   2.118   6.014
 6698TIP3    H120035   5.395   2.189   6.074
 6698TIP3    H220036   5.468   2.159   5.946
 6699TIP3   OH220037   5.561   6.779   2.704
 6699TIP3    H120038   5.577   6.873   2.699
 6699TIP3    H220039   5.648   6.740   2.695
 6700TIP3   OH220040   1.400   0.750   4.259
 6700TIP3    H120041   1.306   0.758   4.275
 6700TIP3    H220042   1.437   0.727   4.344
 6701TIP3   OH220043   2.808   3.484   4.091
 6701TIP3    H120044   2.759   3.433   4.155
 6701TIP3    H220045   2.801   3.575   4.122
 6702TIP3   OH220046   3.010   0.714   2.689
 6702TIP3    H120047   2.959   0.741   2.765
 6702TIP3    H220048   3.050   0.631   2.714
 6703TIP3   OH220049   5.935   7.868   0.087
 6703TIP3    H120050   5.950   7.928   0.014
 6703TIP3    H220051   5.951   7.921   0.165
 6704TIP3   OH220052   0.406   7.674   4.720
 6704TIP3    H120053   0.390   7.737   4.790
 6704TIP3    H220054   0.438   7.596   4.765
 6705TIP3   OH220055   7.768   3.527   0.537
 6705TIP3    H120056   7.782   3.458   0.601
 6705TIP3    H220057   7.824   3.599   0.565
 6706TIP3   OH220058   5.071   1.678   6.599
 6706TIP3    H120059   5.121   1.747   6.641
 6706TIP3    H220060   5.024   1.722   6.528
 6707TIP3   OH220061   7.092   3.302   6.172
 6707TIP3    H120062   7.081   3.341   6.259
 6707TIP3    H220063   7.125   3.375   6.119
 6708TIP3   OH220064   0.159   7.629   5.076
 6708TIP3    H120065   0.113   7.632   4.993
 6708TIP3    H220066   0.090   7.616   5.141
 6709TIP3   OH220067   4.885   5.116   3.661
 6709TIP3    H120068   4.975   5.082   3.663
 6709TIP3    H220069   4.880   5.172   3.739
 6710TIP3   OH220070   6.033   4.453   1.904
 6710TIP3    H120071   6.086   4.515   1.954
 6710TIP3    H220072   5.975   4.508   1.851
 6711TIP3   OH220073   6.587   3.084   2.510
 6711TIP3    H120074   6.557   3.172   2.531
 6711TIP3    H220075   6.509   3.029   2.516
 6712TIP3   OH220076   3.578   5.838   3.947
 6712TIP3    H120077   3.566   5.753   3.906
 6712TIP3    H220078   3.620   5.819   4.030
 6713TIP3   OH220079   7.091   4.066   6.586
 6713TIP3    H120080   7.069   4.106   6.502
 6713TIP3    H220081   7.020   4.004   6.603
 6714TIP3   OH220082   2.978   5.867   6.410
 6714TIP3    H120083   2.885   5.881   6.395
 6714TIP3    H220084   2.991   5.773   6.397
 6715TIP3   OH220085   0.924   7.043   2.757
 6715TIP3    H120086   0.874   7.009   2.683
 6715TIP3    H220087   0.925   6.971   2.820
 6716TIP3   OH220088   1.971   6.217   4.747
 6716TIP3    H120089   1.936   6.302   4.722
 6716TIP3    H220090   2.044   6.202   4.687
 6717TIP3   OH220091   2.747   3.857   5.207
 6717TIP3    H120092   2.704   3.937   5.176
 6717TIP3    H220093   2.734   3.794   5.136
 6718TIP3   OH220094   7.680   6.580   2.067
 6718TIP3    H120095   7.610   6.632   2.029
 6718TIP3    H220096   7.711   6.632   2.141
 6719TIP3   OH220097   1.546   1.297   3.685
 6719TIP3    H120098   1.475   1.344   3.641
 6719TIP3    H220099   1.626   1.331   3.645
 6720TIP3   OH220100   6.697   2.268   3.246
 6720TIP3    H120101   6.686   2.187   3.296
 6720TIP3    H220102   6.735   2.330   3.308
 6721TIP3   OH220103   3.970   4.572   3.234
 6721TIP3    H120104   3.952   4.524   3.153
 6721TIP3    H220105   3.997   4.505   3.297
 6722TIP3   OH220106   1.072   7.645   1.658
 6722TIP3    H120107   1.165   7.657   1.638
 6722TIP3    H220108   1.069   7.571   1.718
 6723TIP3   OH220109   1.216   6.759   0.855
 6723TIP3    H120110   1.302   6.721   0.839
 6723TIP3    H220111   1.233   6.852   0.870
 6724TIP3   OH220112   7.994   4.294   1.566
 6724TIP3    H120113   8.064   4.350   1.534
 6724TIP3    H220114   7.962   4.248   1.488
 6725TIP3   OH220115   8.218   6.645   1.263
 6725TIP3    H120116   8.131   6.620   1.231
 6725TIP3    H220117   8.201   6.713   1.328
 6726TIP3   OH220118   2.988   0.667   2.413
 6726TIP3    H120119   2.998   0.722   2.490
 6726TIP3    H220120   3.073   0.625   2.402
 6727TIP3   OH220121   5.037   2.918   3.956
 6727TIP3    H120122   5.094   2.872   4.017
 6727TIP3    H220123   5.096   2.962   3.895
 6728TIP3   OH220124   2.152   0.149   3.975
 6728TIP3    H120125   2.078   0.093   3.954
 6728TIP3    H220126   2.182   0.118   4.061
 6729TIP3   OH220127   8.183   6.073   2.106
 6729TIP3    H120128   8.156   6.088   2.197
 6729TIP3    H220129   8.249   6.139   2.089
 6730TIP3   OH220130   8.362   6.607   2.002
 6730TIP3    H120131   8.407   6.581   2.083
 6730TIP3    H220132   8.420   6.576   1.932
 6731TIP3   OH220133   2.147   2.122   6.078
 6731TIP3    H120134   2.080   2.120   6.146
 6731TIP3    H220135   2.183   2.210   6.083
 6732TIP3   OH220136   1.691   0.897   5.044
 6732TIP3    H120137   1.652   0.809   5.038
 6732TIP3    H220138   1.750   0.902   4.969
 6733TIP3   OH220139   5.932   4.864   2.740
 6733TIP3    H120140   6.024   4.836   2.749
 6733TIP3    H220141   5.922   4.933   2.804
 6734TIP3   OH220142   6.503   1.315   6.229
 6734TIP3    H120143   6.450   1.335   6.306
 6734TIP3    H220144   6.573   1.259   6.261
 6735TIP3   OH220145   6.589   7.616   0.991
 6735TIP3    H120146   6.549   7.537   1.028
 6735TIP3    H220147   6.645   7.584   0.921
 6736TIP3   OH220148   7.355   7.575   3.522
 6736TIP3    H120149   7.299   7.634   3.471
 6736TIP3    H220150   7.301   7.551   3.597
 6737TIP3   OH220151   2.632   5.452   3.580
 6737TIP3    H120152   2.684   5.414   3.508
 6737TIP3    H220153   2.553   5.398   3.583
 6738TIP3   OH220154   5.356   1.591   5.859
 6738TIP3    H120155   5.348   1.630   5.946
 6738TIP3    H220156   5.318   1.657   5.800
 6739TIP3   OH220157   4.713   1.113   1.727
 6739TIP3    H120158   4.773   1.114   1.653
 6739TIP3    H220159   4.652   1.185   1.710
 6740TIP3   OH220160   5.811   7.555   1.969
 6740TIP3    H120161   5.825   7.524   1.879
 6740TIP3    H220162   5.896   7.590   1.996
 6741TIP3   OH220163   0.975   4.158   2.703
 6741TIP3    H120164   0.966   4.251   2.684
 6741TIP3    H220165   0.910   4.116   2.647
 6742TIP3   OH220166   8.304   3.491   5.374
 6742TIP3    H120167   8.263   3.406   5.391
 6742TIP3    H220168   8.393   3.469   5.345
 6743TIP3   OH220169   6.515   6.579   6.826
 6743TIP3    H120170   6.579   6.519   6.789
 6743TIP3    H220171   6.487   6.633   6.752
 6744TIP3   OH220172   4.583   0.915   0.740
 6744TIP3    H120173   4.610   1.004   0.721
 6744TIP3    H220174   4.488   0.920   0.747
 6745TIP3   OH220175   4.554   7.758   5.622
 6745TIP3    H120176   4.645   7.785   5.630
 6745TIP3    H220177   4.523   7.752   5.713
 6746TIP3   OH220178   7.789   0.249   0.694
 6746TIP3    H120179   7.701   0.259   0.659
 6746TIP3    H220180   7.832   0.333   0.675
 6747TIP3   OH220181   6.465   1.070   3.645
 6747TIP3    H120182   6.503   1.155   3.668
 6747TIP3    H220183   6.385   1.065   3.696
 6748TIP3   OH220184   8.200   3.940   0.656
 6748TIP3    H120185   8.143   3.968   0.728
 6748TIP3    H220186   8.140   3.923   0.584
 6749TIP3   OH220187   6.108   3.329   1.865
 6749TIP3    H120188   6.140   3.276   1.938
 6749TIP3    H220189   6.076   3.409   1.906
 6750TIP3   OH220190   5.731   0.992   5.446
 6750TIP3    H120191   5.698   1.040   5.370
 6750TIP3    H220192   5.781   0.919   5.409
 6751TIP3   OH220193   0.822   1.335   5.143
 6751TIP3    H120194   0.739   1.328   5.190
 6751TIP3    H220195   0.797   1.343   5.051
 6752TIP3   OH220196   3.939   5.434   6.522
 6752TIP3    H120197   3.894   5.388   6.452
 6752TIP3    H220198   4.032   5.421   6.504
 6753TIP3   OH220199   7.416   0.829   3.977
 6753TIP3    H120200   7.435   0.802   3.887
 6753TIP3    H220201   7.442   0.755   4.031
 6754TIP3   OH220202   4.680   7.164   4.398
 6754TIP3    H120203   4.594   7.123   4.387
 6754TIP3    H220204   4.670   7.218   4.476
 6755TIP3   OH220205   0.031   2.109   1.151
 6755TIP3    H120206   0.094   2.038   1.161
 6755TIP3    H220207   0.029   2.152   1.237
 6756TIP3   OH220208   5.808   1.725   2.210
 6756TIP3    H120209   5.852   1.728   2.126
 6756TIP3    H220210   5.876   1.745   2.274
 6757TIP3   OH220211   7.039   6.287   5.340
 6757TIP3    H120212   7.128   6.260   5.317
 6757TIP3    H220213   7.048   6.330   5.425
 6758TIP3   OH220214   7.432   0.882   1.073
 6758TIP3    H120215   7.518   0.853   1.103
 6758TIP3    H220216   7.450   0.962   1.023
 6759TIP3   OH220217   2.913   2.104   6.407
 6759TIP3    H120218   2.980   2.075   6.346
 6759TIP3    H220219   2.831   2.072   6.370
 6760TIP3   OH220220   0.956   0.267   1.590
 6760TIP3    H120221   0.985   0.348   1.632
 6760TIP3    H220222   0.992   0.272   1.502
 6761TIP3   OH220223   2.867   5.018   5.403
 6761TIP3    H120224   2.831   4.932   5.378
 6761TIP3    H220225   2.893   5.007   5.494
 6762TIP3   OH220226   6.789   6.169   3.883
 6762TIP3    H120227   6.781   6.144   3.975
 6762TIP3    H220228   6.721   6.235   3.871
 6763TIP3   OH220229   7.474   6.555   5.591
 6763TIP3    H120230   7.441   6.637   5.626
 6763TIP3    H220231   7.483   6.498   5.667
 6764TIP3   OH220232   4.406   4.837   4.744
 6764TIP3    H120233   4.452   4.830   4.660
 6764TIP3    H220234   4.345   4.763   4.744
 6765TIP3   OH220235   5.419   1.065   6.735
 6765TIP3    H120236   5.334   1.107   6.748
 6765TIP3    H220237   5.430   1.062   6.640
 6766TIP3   OH220238   6.826   3.051   0.726
 6766TIP3    H120239   6.912   3.087   0.705
 6766TIP3    H220240   6.803   2.998   0.650
 6767TIP3   OH220241   6.496   6.478   0.538
 6767TIP3    H120242   6.560   6.496   0.606
 6767TIP3    H220243   6.426   6.541   0.554
 6768TIP3   OH220244   7.653   6.161   6.788
 6768TIP3    H120245   7.747   6.175   6.774
 6768TIP3    H220246   7.634   6.079   6.742
 6769TIP3   OH220247   4.591   5.936   2.287
 6769TIP3    H120248   4.525   6.000   2.313
 6769TIP3    H220249   4.548   5.883   2.219
 6770TIP3   OH220250   8.253   4.313   0.991
 6770TIP3    H120251   8.247   4.354   0.905
 6770TIP3    H220252   8.265   4.385   1.052
 6771TIP3   OH220253   5.374   6.698   0.126
 6771TIP3    H120254   5.287   6.713   0.163
 6771TIP3    H220255   5.358   6.641   0.050
 6772TIP3   OH220256   3.936   3.520   2.257
 6772TIP3    H120257   3.849   3.539   2.292
 6772TIP3    H220258   3.939   3.567   2.173
 6773TIP3   OH220259   1.518   2.158   4.461
 6773TIP3    H120260   1.445   2.130   4.517
 6773TIP3    H220261   1.493   2.246   4.431
 6774TIP3   OH220262   2.747   2.274   0.056
 6774TIP3    H120263   2.817   2.337   0.075
 6774TIP3    H220264   2.772   2.195   0.104
 6775TIP3   OH220265   0.737   6.062   2.371
 6775TIP3    H120266   0.721   6.155   2.384
 6775TIP3    H220267   0.663   6.032   2.318
 6776TIP3   OH220268   1.325   2.546   5.468
 6776TIP3    H120269   1.404   2.532   5.520
 6776TIP3    H220270   1.311   2.464   5.422
 6777TIP3   OH220271   2.226   3.446   1.216
 6777TIP3    H120272   2.241   3.530   1.175
 6777TIP3    H220273   2.191   3.391   1.147
 6778TIP3   OH220274   6.735   4.121   3.156
 6778TIP3    H120275   6.789   4.117   3.235
 6778TIP3    H220276   6.649   4.148   3.187
 6779TIP3   OH220277   8.251   3.707   5.967
 6779TIP3    H120278   8.340   3.742   5.973
 6779TIP3    H220279   8.262   3.625   5.918
 6780TIP3   OH220280   3.612   0.054   3.256
 6780TIP3    H120281   3.675   0.123   3.273
 6780TIP3    H220282   3.638   0.016   3.172
 6781TIP3   OH220283   4.496   6.381   5.659
 6781TIP3    H120284   4.523   6.295   5.626
 6781TIP3    H220285   4.441   6.417   5.590
 6782TIP3   OH220286   7.196   7.215   0.133
 6782TIP3    H120287   7.128   7.200   0.198
 6782TIP3    H220288   7.167   7.294   0.087
 6783TIP3   OH220289   1.752   2.073   3.388
 6783TIP3    H120290   1.801   2.010   3.440
 6783TIP3    H220291   1.660   2.055   3.410
 6784TIP3   OH220292   4.793   4.305   5.717
 6784TIP3    H120293   4.877   4.310   5.671
 6784TIP3    H220294   4.794   4.378   5.778
 6785TIP3   OH220295   2.383   2.479   1.445
 6785TIP3    H120296   2.322   2.469   1.517
 6785TIP3    H220297   2.371   2.401   1.391
 6786TIP3   OH220298   5.751   4.033   2.911
 6786TIP3    H120299   5.811   4.098   2.947
 6786TIP3    H220300   5.687   4.018   2.981
 6787TIP3   OH220301   4.921   7.534   1.317
 6787TIP3    H120302   4.968   7.533   1.400
 6787TIP3    H220303   4.839   7.488   1.336
 6788TIP3   OH220304   4.018   2.201   1.666
 6788TIP3    H120305   3.925   2.221   1.675
 6788TIP3    H220306   4.026   2.163   1.579
 6789TIP3   OH220307   5.525   7.221   5.629
 6789TIP3    H120308   5.471   7.292   5.665
 6789TIP3    H220309   5.464   7.167   5.579
 6790TIP3   OH220310   0.499   2.720   1.794
 6790TIP3    H120311   0.569   2.785   1.795
 6790TIP3    H220312   0.535   2.646   1.844
 6791TIP3   OH220313   7.511   6.218   1.772
 6791TIP3    H120314   7.422   6.198   1.744
 6791TIP3    H220315   7.534   6.298   1.724
 6792TIP3   OH220316   0.975   3.624   4.775
 6792TIP3    H120317   0.995   3.545   4.724
 6792TIP3    H220318   0.924   3.592   4.849
 6793TIP3   OH220319   2.732   0.152   0.379
 6793TIP3    H120320   2.755   0.183   0.291
 6793TIP3    H220321   2.707   0.061   0.365
 6794TIP3   OH220322   1.449   2.021   2.140
 6794TIP3    H120323   1.375   1.962   2.131
 6794TIP3    H220324   1.503   2.003   2.063
 6795TIP3   OH220325   4.891   2.034   5.308
 6795TIP3    H120326   4.893   2.011   5.215
 6795TIP3    H220327   4.820   1.983   5.345
 6796TIP3   OH220328   6.372   0.367   5.395
 6796TIP3    H120329   6.404   0.457   5.398
 6796TIP3    H220330   6.366   0.341   5.487
 6797TIP3   OH220331   4.817   5.267   4.044
 6797TIP3    H120332   4.883   5.324   4.084
 6797TIP3    H220333   4.827   5.183   4.089
 6798TIP3   OH220334   6.934   0.526   3.870
 6798TIP3    H120335   6.964   0.449   3.917
 6798TIP3    H220336   6.854   0.553   3.915
 6799TIP3   OH220337   2.539   0.577   2.205
 6799TIP3    H120338   2.599   0.647   2.231
 6799TIP3    H220339   2.589   0.525   2.141
 6800TIP3   OH220340   1.168   3.381   4.357
 6800TIP3    H120341   1.152   3.461   4.407
 6800TIP3    H220342   1.080   3.350   4.334
 6801TIP3   OH220343   4.681   1.613   2.307
 6801TIP3    H120344   4.604   1.559   2.324
 6801TIP3    H220345   4.669   1.644   2.217
 6802TIP3   OH220346   2.337   6.021   5.829
 6802TIP3    H120347   2.321   6.115   5.828
 6802TIP3    H220348   2.354   6.000   5.921
 6803TIP3   OH220349   5.732   3.217   6.822
 6803TIP3    H120350   5.742   3.126   6.792
 6803TIP3    H220351   5.656   3.214   6.881
 6804TIP3   OH220352   7.005   2.318   6.674
 6804TIP3    H120353   6.965   2.405   6.665
 6804TIP3    H220354   7.059   2.309   6.595
 6805TIP3   OH220355   5.211   6.546   1.483
 6805TIP3    H120356   5.133   6.594   1.510
 6805TIP3    H220357   5.196   6.525   1.391
 6806TIP3   OH220358   5.697   0.923   5.844
 6806TIP3    H120359   5.663   0.983   5.778
 6806TIP3    H220360   5.620   0.903   5.898
 6807TIP3   OH220361   3.748   6.317   5.762
 6807TIP3    H120362   3.733   6.234   5.807
 6807TIP3    H220363   3.746   6.382   5.832
 6808TIP3   OH220364   7.920   2.750   5.312
 6808TIP3    H120365   8.007   2.717   5.286
 6808TIP3    H220366   7.896   2.695   5.387
 6809TIP3   OH220367   1.236   1.654   5.287
 6809TIP3    H120368   1.286   1.620   5.361
 6809TIP3    H220369   1.192   1.577   5.251
 6810TIP3   OH220370   7.354   4.997   3.644
 6810TIP3    H120371   7.370   5.028   3.555
 6810TIP3    H220372   7.278   5.046   3.675
 6811TIP3   OH220373   6.616   3.554   4.353
 6811TIP3    H120374   6.631   3.521   4.264
 6811TIP3    H220375   6.698   3.538   4.399
 6812TIP3   OH220376   3.288   3.130   5.954
 6812TIP3    H120377   3.369   3.149   5.906
 6812TIP3    H220378   3.256   3.049   5.915
 6813TIP3   OH220379   4.601   6.141   5.536
 6813TIP3    H120380   4.578   6.089   5.459
 6813TIP3    H220381   4.630   6.078   5.601
 6814TIP3   OH220382   7.850   3.201   6.195
 6814TIP3    H120383   7.808   3.119   6.169
 6814TIP3    H220384   7.842   3.203   6.290
 6815TIP3   OH220385   5.912   4.179   2.562
 6815TIP3    H120386   5.829   4.204   2.522
 6815TIP3    H220387   5.914   4.226   2.645
 6816TIP3   OH220388   6.732   3.380   3.302
 6816TIP3    H120389   6.817   3.410   3.336
 6816TIP3    H220390   6.741   3.285   3.295
 6817TIP3   OH220391   6.156   1.159   3.451
 6817TIP3    H120392   6.174   1.195   3.538
 6817TIP3    H220393   6.094   1.088   3.467
 6818TIP3   OH220394   4.955   6.060   5.802
 6818TIP3    H120395   4.937   6.101   5.718
 6818TIP3    H220396   5.048   6.038   5.798
 6819TIP3   OH220397   3.510   0.512   5.739
 6819TIP3    H120398   3.435   0.461   5.770
 6819TIP3    H220399   3.587   0.463   5.769
 6820TIP3   OH220400   5.577   3.104   5.683
 6820TIP3    H120401   5.667   3.135   5.685
 6820TIP3    H220402   5.539   3.145   5.606
 6821TIP3   OH220403   1.297   1.749   6.427
 6821TIP3    H120404   1.357   1.724   6.497
 6821TIP3    H220405   1.303   1.844   6.423
 6822TIP3   OH220406   7.291   2.171   0.058
 6822TIP3    H120407   7.275   2.224   0.136
 6822TIP3    H220408   7.295   2.081   0.091
 6823TIP3   OH220409   3.414   1.540   6.041
 6823TIP3    H120410   3.340   1.482   6.024
 6823TIP3    H220411   3.490   1.482   6.045
 6824TIP3   OH220412   0.941   3.712   0.466
 6824TIP3    H120413   0.892   3.789   0.494
 6824TIP3    H220414   0.883   3.638   0.486
 6825TIP3   OH220415   3.812   1.227   1.153
 6825TIP3    H120416   3.764   1.293   1.103
 6825TIP3    H220417   3.903   1.237   1.126
 6826TIP3   OH220418   7.392   4.157   4.495
 6826TIP3    H120419   7.317   4.204   4.458
 6826TIP3    H220420   7.464   4.220   4.490
 6827TIP3   OH220421   7.639   7.720   0.124
 6827TIP3    H120422   7.552   7.702   0.160
 6827TIP3    H220423   7.642   7.815   0.114
 6828TIP3   OH220424   2.298   7.620   4.470
 6828TIP3    H120425   2.388   7.600   4.496
 6828TIP3    H220426   2.244   7.568   4.529
 6829TIP3   OH220427   2.244   5.949   2.306
 6829TIP3    H120428   2.183   5.957   2.232
 6829TIP3    H220429   2.190   5.917   2.378
 6830TIP3   OH220430   2.944   3.800   6.498
 6830TIP3    H120431   2.871   3.862   6.504
 6830TIP3    H220432   2.921   3.742   6.426
 6831TIP3   OH220433   6.577   4.490   3.756
 6831TIP3    H120434   6.661   4.445   3.744
 6831TIP3    H220435   6.515   4.419   3.772
 6832TIP3   OH220436   0.890   0.822   0.554
 6832TIP3    H120437   0.801   0.787   0.560
 6832TIP3    H220438   0.887   0.902   0.608
 6833TIP3   OH220439   5.603   0.453   5.895
 6833TIP3    H120440   5.676   0.513   5.879
 6833TIP3    H220441   5.539   0.505   5.944
 6834TIP3   OH220442   0.029   1.094   3.909
 6834TIP3    H120443  -0.066   1.097   3.900
 6834TIP3    H220444   0.055   1.011   3.870
 6835TIP3   OH220445   6.403   0.118   3.799
 6835TIP3    H120446   6.352   0.047   3.760
 6835TIP3    H220447   6.449   0.158   3.725
 6836TIP3   OH220448   8.054   4.866   6.511
 6836TIP3    H120449   8.122   4.903   6.455
 6836TIP3    H220450   7.982   4.845   6.451
 6837TIP3   OH220451   0.025   3.160   2.427
 6837TIP3    H120452  -0.051   3.127   2.475
 6837TIP3    H220453   0.050   3.240   2.474
 6838TIP3   OH220454   5.349   1.101   0.961
 6838TIP3    H120455   5.335   1.170   1.027
 6838TIP3    H220456   5.425   1.130   0.911
 6839TIP3   OH220457   3.430   7.529   4.484
 6839TIP3    H120458   3.493   7.600   4.497
 6839TIP3    H220459   3.452   7.464   4.550
 6840TIP3   OH220460   1.518   5.499   3.719
 6840TIP3    H120461   1.462   5.426   3.744
 6840TIP3    H220462   1.486   5.572   3.772
 6841TIP3   OH220463   6.955   3.859   1.570
 6841TIP3    H120464   6.956   3.932   1.509
 6841TIP3    H220465   7.032   3.873   1.626
 6842TIP3   OH220466   0.176   7.252   2.648
 6842TIP3    H120467   0.175   7.258   2.744
 6842TIP3    H220468   0.174   7.158   2.629
 6843TIP3   OH220469   0.380   6.691   4.624
 6843TIP3    H120470   0.453   6.700   4.685
 6843TIP3    H220471   0.314   6.642   4.673
 6844TIP3   OH220472   7.357   5.782   1.399
 6844TIP3    H120473   7.435   5.727   1.400
 6844TIP3    H220474   7.353   5.816   1.310
 6845TIP3   OH220475   4.218   1.735   3.105
 6845TIP3    H120476   4.122   1.736   3.101
 6845TIP3    H220477   4.242   1.647   3.075
 6846TIP3   OH220478   6.440   7.444   6.302
 6846TIP3    H120479   6.375   7.480   6.242
 6846TIP3    H220480   6.432   7.349   6.292
 6847TIP3   OH220481   7.006   2.236   3.682
 6847TIP3    H120482   7.081   2.182   3.708
 6847TIP3    H220483   6.936   2.211   3.742
 6848TIP3   OH220484   3.943   4.677   4.242
 6848TIP3    H120485   4.035   4.673   4.270
 6848TIP3    H220486   3.896   4.705   4.320
 6849TIP3   OH220487   2.242   7.409   3.242
 6849TIP3    H120488   2.182   7.335   3.245
 6849TIP3    H220489   2.238   7.446   3.331
 6850TIP3   OH220490   2.728   1.336   0.758
 6850TIP3    H120491   2.684   1.252   0.772
 6850TIP3    H220492   2.793   1.340   0.828
 6851TIP3   OH220493   0.086   4.236   5.504
 6851TIP3    H120494   0.132   4.168   5.455
 6851TIP3    H220495   0.146   4.259   5.575
 6852TIP3   OH220496   8.057   4.855   5.827
 6852TIP3    H120497   8.066   4.846   5.922
 6852TIP3    H220498   8.019   4.773   5.799
 6853TIP3   OH220499   7.241   5.572   5.597
 6853TIP3    H120500   7.191   5.584   5.678
 6853TIP3    H220501   7.331   5.594   5.622
 6854TIP3   OH220502   7.683   5.076   2.997
 6854TIP3    H120503   7.736   5.050   3.073
 6854TIP3    H220504   7.717   5.162   2.972
 6855TIP3   OH220505   2.394   2.186   2.976
 6855TIP3    H120506   2.471   2.243   2.981
 6855TIP3    H220507   2.429   2.097   2.981
 6856TIP3   OH220508   3.189   3.479   6.033
 6856TIP3    H120509   3.264   3.489   5.974
 6856TIP3    H220510   3.205   3.397   6.079
 6857TIP3   OH220511   5.186   7.448   2.587
 6857TIP3    H120512   5.168   7.539   2.563
 6857TIP3    H220513   5.141   7.396   2.520
 6858TIP3   OH220514   6.268   0.192   1.634
 6858TIP3    H120515   6.315   0.251   1.693
 6858TIP3    H220516   6.283   0.229   1.547
 6859TIP3   OH220517   4.296   7.266   2.409
 6859TIP3    H120518   4.274   7.320   2.485
 6859TIP3    H220519   4.304   7.178   2.443
 6860TIP3   OH220520   7.090   1.833   0.998
 6860TIP3    H120521   7.068   1.922   0.972
 6860TIP3    H220522   7.098   1.837   1.093
 6861TIP3   OH220523   4.382   3.556   6.868
 6861TIP3    H120524   4.359   3.639   6.827
 6861TIP3    H220525   4.442   3.514   6.807
 6862TIP3   OH220526   3.454   7.647   2.184
 6862TIP3    H120527   3.428   7.737   2.202
 6862TIP3    H220528   3.478   7.611   2.270
 6863TIP3   OH220529   6.558   4.377   1.776
 6863TIP3    H120530   6.614   4.390   1.699
 6863TIP3    H220531   6.592   4.298   1.818
 6864TIP3   OH220532   7.773   3.082   6.857
 6864TIP3    H120533   7.821   3.000   6.841
 6864TIP3    H220534   7.803   3.140   6.787
 6865TIP3   OH220535   0.125   4.097   3.922
 6865TIP3    H120536   0.084   4.139   3.998
 6865TIP3    H220537   0.058   4.098   3.854
 6866TIP3   OH220538   1.749   1.935   6.278
 6866TIP3    H120539   1.698   1.894   6.208
 6866TIP3    H220540   1.756   1.867   6.345
 6867TIP3   OH220541   6.129   6.507   2.524
 6867TIP3    H120542   6.068   6.483   2.455
 6867TIP3    H220543   6.174   6.585   2.491
 6868TIP3   OH220544   7.807   6.509   4.172
 6868TIP3    H120545   7.715   6.517   4.149
 6868TIP3    H220546   7.833   6.598   4.197
 6869TIP3   OH220547   4.419   3.399   4.103
 6869TIP3    H120548   4.439   3.306   4.099
 6869TIP3    H220549   4.490   3.441   4.054
 6870TIP3   OH220550   7.041   2.639   2.669
 6870TIP3    H120551   6.977   2.606   2.732
 6870TIP3    H220552   7.061   2.565   2.612
 6871TIP3   OH220553   0.907   0.226   3.742
 6871TIP3    H120554   0.898   0.159   3.810
 6871TIP3    H220555   0.911   0.177   3.660
 6872TIP3   OH220556   1.752   3.781   0.454
 6872TIP3    H120557   1.744   3.691   0.484
 6872TIP3    H220558   1.739   3.834   0.532
 6873TIP3   OH220559   7.139   4.643   4.289
 6873TIP3    H120560   7.189   4.571   4.251
 6873TIP3    H220561   7.087   4.678   4.216
 6874TIP3   OH220562   1.633   4.401   1.838
 6874TIP3    H120563   1.613   4.492   1.815
 6874TIP3    H220564   1.624   4.353   1.756
 6875TIP3   OH220565   0.377   5.489   4.523
 6875TIP3    H120566   0.410   5.441   4.448
 6875TIP3    H220567   0.318   5.428   4.567
 6876TIP3   OH220568   2.713   2.100   4.543
 6876TIP3    H120569   2.791   2.156   4.546
 6876TIP3    H220570   2.747   2.011   4.538
 6877TIP3   OH220571   3.686   4.429   6.792
 6877TIP3    H120572   3.777   4.406   6.813
 6877TIP3    H220573   3.635   4.352   6.814
 6878TIP3   OH220574   7.026   1.068   5.110
 6878TIP3    H120575   6.945   1.099   5.150
 6878TIP3    H220576   7.037   1.122   5.032
 6879TIP3   OH220577   2.495   0.261   1.441
 6879TIP3    H120578   2.510   0.334   1.381
 6879TIP3    H220579   2.403   0.269   1.465
 6880TIP3   OH220580   0.009   1.424   4.478
 6880TIP3    H120581  -0.068   1.375   4.507
 6880TIP3    H220582   0.081   1.387   4.529
 6881TIP3   OH220583   1.294   3.509   2.875
 6881TIP3    H120584   1.343   3.552   2.945
 6881TIP3    H220585   1.314   3.416   2.886
 6882TIP3   OH220586   5.693   3.563   4.398
 6882TIP3    H120587   5.726   3.648   4.424
 6882TIP3    H220588   5.740   3.543   4.317
 6883TIP3   OH220589   5.276   6.711   3.085
 6883TIP3    H120590   5.225   6.784   3.049
 6883TIP3    H220591   5.336   6.687   3.015
 6884TIP3   OH220592   0.147   5.367   6.738
 6884TIP3    H120593   0.208   5.315   6.686
 6884TIP3    H220594   0.203   5.428   6.787
 6885TIP3   OH220595   4.572   6.837   3.189
 6885TIP3    H120596   4.643   6.830   3.252
 6885TIP3    H220597   4.588   6.920   3.144
 6886TIP3   OH220598   1.494   1.280   0.409
 6886TIP3    H120599   1.478   1.189   0.434
 6886TIP3    H220600   1.552   1.275   0.333
 6887TIP3   OH220601   1.298   4.431   1.039
 6887TIP3    H120602   1.363   4.419   0.970
 6887TIP3    H220603   1.331   4.505   1.090
 6888TIP3   OH220604   5.998   7.228   5.646
 6888TIP3    H120605   5.907   7.233   5.617
 6888TIP3    H220606   6.049   7.222   5.565
 6889TIP3   OH220607   2.690   4.316   5.909
 6889TIP3    H120608   2.712   4.304   5.817
 6889TIP3    H220609   2.598   4.342   5.909
 6890TIP3   OH220610   2.125   4.779   1.271
 6890TIP3    H120611   2.166   4.851   1.224
 6890TIP3    H220612   2.188   4.754   1.338
 6891TIP3   OH220613   7.114   1.228   6.310
 6891TIP3    H120614   7.154   1.251   6.226
 6891TIP3    H220615   7.121   1.132   6.314
 6892TIP3   OH220616   5.908   0.530   2.511
 6892TIP3    H120617   5.855   0.452   2.491
 6892TIP3    H220618   5.910   0.533   2.607
 6893TIP3   OH220619   2.559   7.742   2.135
 6893TIP3    H120620   2.594   7.816   2.086
 6893TIP3    H220621   2.498   7.700   2.074
 6894TIP3   OH220622   0.636   5.981   4.143
 6894TIP3    H120623   0.658   5.911   4.205
 6894TIP3    H220624   0.687   6.056   4.172
 6895TIP3   OH220625   2.627   7.090   0.556
 6895TIP3    H120626   2.531   7.091   0.557
 6895TIP3    H220627   2.650   7.117   0.467
 6896TIP3   OH220628   4.951   2.955   4.406
 6896TIP3    H120629   4.979   2.867   4.379
 6896TIP3    H220630   5.005   3.014   4.354
 6897TIP3   OH220631   7.128   0.711   3.847
 6897TIP3    H120632   7.049   0.656   3.852
 6897TIP3    H220633   7.094   0.800   3.842
 6898TIP3   OH220634   3.527   0.554   5.019
 6898TIP3    H120635   3.557   0.491   5.083
 6898TIP3    H220636   3.458   0.604   5.064
 6899TIP3   OH220637   7.036   2.385   5.658
 6899TIP3    H120638   7.102   2.396   5.726
 6899TIP3    H220639   6.958   2.429   5.693
 6900TIP3   OH220640   3.500   7.040   4.905
 6900TIP3    H120641   3.444   7.108   4.941
 6900TIP3    H220642   3.443   6.964   4.895
 6901TIP3   OH220643   5.035   3.710   3.208
 6901TIP3    H120644   5.032   3.804   3.190
 6901TIP3    H220645   5.045   3.704   3.303
 6902TIP3   OH220646   0.310   7.271   6.180
 6902TIP3    H120647   0.274   7.297   6.265
 6902TIP3    H220648   0.386   7.216   6.201
 6903TIP3   OH220649   5.955   4.883   1.724
 6903TIP3    H120650   5.908   4.838   1.795
 6903TIP3    H220651   5.887   4.907   1.661
 6904TIP3   OH220652   4.918   1.830   1.661
 6904TIP3    H120653   4.949   1.746   1.628
 6904TIP3    H220654   4.914   1.819   1.756
 6905TIP3   OH220655   2.989   4.942   5.654
 6905TIP3    H120656   3.059   4.988   5.607
 6905TIP3    H220657   3.000   4.967   5.745
 6906TIP3   OH220658   0.478   4.780   5.927
 6906TIP3    H120659   0.404   4.726   5.901
 6906TIP3    H220660   0.515   4.811   5.844
 6907TIP3   OH220661   6.467   5.852   5.949
 6907TIP3    H120662   6.515   5.791   5.893
 6907TIP3    H220663   6.533   5.885   6.009
 6908TIP3   OH220664   2.877   0.267   5.071
 6908TIP3    H120665   2.839   0.179   5.064
 6908TIP3    H220666   2.887   0.295   4.980
 6909TIP3   OH220667   2.944   4.248   0.873
 6909TIP3    H120668   2.947   4.273   0.966
 6909TIP3    H220669   3.019   4.190   0.862
 6910TIP3   OH220670   7.324   3.370   1.825
 6910TIP3    H120671   7.290   3.281   1.833
 6910TIP3    H220672   7.292   3.401   1.741
 6911TIP3   OH220673   2.679   7.025   2.371
 6911TIP3    H120674   2.677   6.935   2.404
 6911TIP3    H220675   2.589   7.041   2.341
 6912TIP3   OH220676   7.514   6.787   1.950
 6912TIP3    H120677   7.425   6.753   1.961
 6912TIP3    H220678   7.508   6.844   1.873
 6913TIP3   OH220679   1.458   7.343   2.304
 6913TIP3    H120680   1.373   7.371   2.271
 6913TIP3    H220681   1.438   7.285   2.377
 6914TIP3   OH220682   7.591   7.823   5.501
 6914TIP3    H120683   7.614   7.783   5.585
 6914TIP3    H220684   7.536   7.898   5.524
 6915TIP3   OH220685   6.599   4.620   3.357
 6915TIP3    H120686   6.533   4.673   3.401
 6915TIP3    H220687   6.550   4.544   3.323
 6916TIP3   OH220688   6.919   6.683   2.390
 6916TIP3    H120689   6.919   6.697   2.484
 6916TIP3    H220690   6.998   6.729   2.359
 6917TIP3   OH220691   6.174   7.161   4.651
 6917TIP3    H120692   6.155   7.227   4.717
 6917TIP3    H220693   6.149   7.078   4.691
 6918TIP3   OH220694   4.312   3.704   5.117
 6918TIP3    H120695   4.386   3.742   5.164
 6918TIP3    H220696   4.264   3.654   5.183
 6919TIP3   OH220697   0.926   2.497   5.788
 6919TIP3    H120698   0.846   2.448   5.769
 6919TIP3    H220699   0.969   2.446   5.857
 6920TIP3   OH220700   7.969   1.236   1.053
 6920TIP3    H120701   7.952   1.144   1.072
 6920TIP3    H220702   8.020   1.268   1.127
 6921TIP3   OH220703   7.225   2.321   0.276
 6921TIP3    H120704   7.161   2.361   0.335
 6921TIP3    H220705   7.279   2.394   0.246
 6922TIP3   OH220706   4.984   2.890   0.584
 6922TIP3    H120707   4.998   2.980   0.556
 6922TIP3    H220708   5.057   2.872   0.643
 6923TIP3   OH220709   1.213   6.675   3.930
 6923TIP3    H120710   1.164   6.597   3.902
 6923TIP3    H220711   1.218   6.730   3.851
 6924TIP3   OH220712   4.413   7.713   0.686
 6924TIP3    H120713   4.346   7.781   0.688
 6924TIP3    H220714   4.475   7.738   0.754
 6925TIP3   OH220715   4.104   5.151   6.825
 6925TIP3    H120716   4.165   5.143   6.751
 6925TIP3    H220717   4.057   5.067   6.826
 6926TIP3   OH220718   6.482   7.322   4.546
 6926TIP3    H120719   6.528   7.283   4.471
 6926TIP3    H220720   6.390   7.307   4.528
 6927TIP3   OH220721   7.687   4.612   6.174
 6927TIP3    H120722   7.773   4.572   6.187
 6927TIP3    H220723   7.629   4.539   6.156
 6928TIP3   OH220724   4.289   6.774   2.429
 6928TIP3    H120725   4.331   6.711   2.488
 6928TIP3    H220726   4.357   6.796   2.366
 6929TIP3   OH220727   5.898   2.762   3.908
 6929TIP3    H120728   5.814   2.805   3.924
 6929TIP3    H220729   5.875   2.671   3.889
 6930TIP3   OH220730   8.347   5.443   1.023
 6930TIP3    H120731   8.307   5.391   1.093
 6930TIP3    H220732   8.334   5.534   1.051
 6931TIP3   OH220733   4.080   7.328   6.480
 6931TIP3    H120734   4.105   7.277   6.557
 6931TIP3    H220735   3.999   7.288   6.449
 6932TIP3   OH220736   0.225   1.157   4.906
 6932TIP3    H120737   0.203   1.215   4.979
 6932TIP3    H220738   0.199   1.070   4.936
 6933TIP3   OH220739   4.865   4.334   0.012
 6933TIP3    H120740   4.859   4.427  -0.010
 6933TIP3    H220741   4.774   4.305   0.016
 6934TIP3   OH220742   5.725   5.670   3.186
 6934TIP3    H120743   5.757   5.753   3.152
 6934TIP3    H220744   5.785   5.604   3.149
 6935TIP3   OH220745   4.116   1.959   6.385
 6935TIP3    H120746   4.185   1.946   6.319
 6935TIP3    H220747   4.138   1.896   6.454
 6936TIP3   OH220748   0.984   6.917   1.460
 6936TIP3    H120749   1.018   7.006   1.454
 6936TIP3    H220750   0.964   6.893   1.369
 6937TIP3   OH220751   0.368   2.491   2.843
 6937TIP3    H120752   0.279   2.470   2.872
 6937TIP3    H220753   0.425   2.454   2.911
 6938TIP3   OH220754   4.867   7.351   3.448
 6938TIP3    H120755   4.830   7.432   3.483
 6938TIP3    H220756   4.883   7.296   3.525
 6939TIP3   OH220757   3.499   3.030   4.846
 6939TIP3    H120758   3.508   3.122   4.820
 6939TIP3    H220759   3.409   3.023   4.879
 6940TIP3   OH220760   1.054   3.522   5.949
 6940TIP3    H120761   1.092   3.597   5.993
 6940TIP3    H220762   1.064   3.541   5.855
 6941TIP3   OH220763   2.949   0.669   3.023
 6941TIP3    H120764   3.011   0.647   3.092
 6941TIP3    H220765   2.984   0.748   2.983
 6942TIP3   OH220766   5.992   3.463   5.411
 6942TIP3    H120767   5.953   3.523   5.348
 6942TIP3    H220768   6.074   3.435   5.369
 6943TIP3   OH220769   1.262   2.866   2.066
 6943TIP3    H120770   1.304   2.933   2.013
 6943TIP3    H220771   1.305   2.873   2.152
 6944TIP3   OH220772   6.567   6.105   3.154
 6944TIP3    H120773   6.616   6.187   3.163
 6944TIP3    H220774   6.487   6.129   3.106
 6945TIP3   OH220775   5.055   7.048   1.955
 6945TIP3    H120776   5.041   7.136   1.919
 6945TIP3    H220777   5.146   7.048   1.983
 6946TIP3   OH220778   0.098   1.295   6.610
 6946TIP3    H120779   0.113   1.387   6.634
 6946TIP3    H220780   0.003   1.288   6.601
 6947TIP3   OH220781   3.097   2.167   3.371
 6947TIP3    H120782   3.060   2.206   3.450
 6947TIP3    H220783   3.191   2.179   3.380
 6948TIP3   OH220784   6.020   4.105   1.565
 6948TIP3    H120785   6.073   4.028   1.545
 6948TIP3    H220786   5.961   4.075   1.635
 6949TIP3   OH220787   0.456   4.416   0.036
 6949TIP3    H120788   0.381   4.476   0.046
 6949TIP3    H220789   0.487   4.401   0.125
 6950TIP3   OH220790   3.605   2.322   5.455
 6950TIP3    H120791   3.558   2.382   5.513
 6950TIP3    H220792   3.676   2.287   5.510
 6951TIP3   OH220793   2.514   4.559   0.279
 6951TIP3    H120794   2.490   4.615   0.204
 6951TIP3    H220795   2.461   4.593   0.351
 6952TIP3   OH220796   2.491   2.293   1.803
 6952TIP3    H120797   2.420   2.331   1.750
 6952TIP3    H220798   2.461   2.302   1.893
 6953TIP3   OH220799   3.703   3.686   1.958
 6953TIP3    H120800   3.627   3.705   2.013
 6953TIP3    H220801   3.704   3.758   1.894
 6954TIP3   OH220802   7.427   6.572   1.177
 6954TIP3    H120803   7.342   6.529   1.167
 6954TIP3    H220804   7.460   6.580   1.088
 6955TIP3   OH220805   3.211   6.822   1.410
 6955TIP3    H120806   3.132   6.785   1.372
 6955TIP3    H220807   3.207   6.915   1.389
 6956TIP3   OH220808   7.370   4.368   6.306
 6956TIP3    H120809   7.275   4.364   6.309
 6956TIP3    H220810   7.390   4.461   6.303
 6957TIP3   OH220811   2.395   5.517   2.482
 6957TIP3    H120812   2.415   5.426   2.459
 6957TIP3    H220813   2.317   5.512   2.536
 6958TIP3   OH220814   5.174   7.726   2.571
 6958TIP3    H120815   5.146   7.757   2.485
 6958TIP3    H220816   5.153   7.798   2.630
 6959TIP3   OH220817   5.290   1.771   0.438
 6959TIP3    H120818   5.245   1.836   0.492
 6959TIP3    H220819   5.378   1.766   0.476
 6960TIP3   OH220820   0.560   4.277   1.863
 6960TIP3    H120821   0.469   4.274   1.893
 6960TIP3    H220822   0.561   4.343   1.794
 6961TIP3   OH220823   5.024   2.347   5.924
 6961TIP3    H120824   5.057   2.436   5.913
 6961TIP3    H220825   5.035   2.307   5.837
 6962TIP3   OH220826   8.196   1.503   1.070
 6962TIP3    H120827   8.170   1.594   1.053
 6962TIP3    H220828   8.176   1.457   0.989
 6963TIP3   OH220829   7.505   2.136   6.514
 6963TIP3    H120830   7.520   2.202   6.582
 6963TIP3    H220831   7.556   2.169   6.439
 6964TIP3   OH220832   0.560   7.246   2.845
 6964TIP3    H120833   0.578   7.162   2.803
 6964TIP3    H220834   0.644   7.273   2.881
 6965TIP3   OH220835   5.552   3.229   0.301
 6965TIP3    H120836   5.591   3.250   0.385
 6965TIP3    H220837   5.506   3.309   0.275
 6966TIP3   OH220838   1.317   2.252   2.162
 6966TIP3    H120839   1.287   2.276   2.075
 6966TIP3    H220840   1.352   2.163   2.151
 6967TIP3   OH220841   6.996   3.820   3.905
 6967TIP3    H120842   6.973   3.905   3.868
 6967TIP3    H220843   6.938   3.810   3.981
 6968TIP3   OH220844   6.204   5.698   3.048
 6968TIP3    H120845   6.172   5.786   3.031
 6968TIP3    H220846   6.243   5.702   3.135
 6969TIP3   OH220847   4.462   4.505   5.426
 6969TIP3    H120848   4.525   4.570   5.458
 6969TIP3    H220849   4.404   4.489   5.501
 6970TIP3   OH220850   1.962   0.068   0.500
 6970TIP3    H120851   1.998   0.149   0.462
 6970TIP3    H220852   1.876   0.059   0.460
 6971TIP3   OH220853   5.740   4.373   5.753
 6971TIP3    H120854   5.812   4.334   5.802
 6971TIP3    H220855   5.682   4.300   5.732
 6972TIP3   OH220856   3.851   5.221   5.184
 6972TIP3    H120857   3.789   5.242   5.254
 6972TIP3    H220858   3.853   5.125   5.183
 6973TIP3   OH220859   0.359   4.875   1.372
 6973TIP3    H120860   0.373   4.904   1.462
 6973TIP3    H220861   0.316   4.948   1.329
 6974TIP3   OH220862   6.765   2.431   0.536
 6974TIP3    H120863   6.683   2.450   0.581
 6974TIP3    H220864   6.795   2.517   0.505
 6975TIP3   OH220865   4.759   3.490   5.784
 6975TIP3    H120866   4.816   3.456   5.853
 6975TIP3    H220867   4.817   3.503   5.709
 6976TIP3   OH220868   3.151   2.007   0.386
 6976TIP3    H120869   3.173   2.093   0.352
 6976TIP3    H220870   3.185   1.946   0.321
 6977TIP3   OH220871   0.150   0.145   4.354
 6977TIP3    H120872   0.067   0.117   4.391
 6977TIP3    H220873   0.216   0.111   4.415
 6978TIP3   OH220874   7.752   7.229   4.633
 6978TIP3    H120875   7.822   7.201   4.691
 6978TIP3    H220876   7.787   7.214   4.545
 6979TIP3   OH220877   4.495   6.395   5.355
 6979TIP3    H120878   4.415   6.343   5.347
 6979TIP3    H220879   4.564   6.339   5.320
 6980TIP3   OH220880   0.908   0.739   2.829
 6980TIP3    H120881   0.961   0.667   2.795
 6980TIP3    H220882   0.941   0.755   2.917
 6981TIP3   OH220883   8.204   0.426   4.983
 6981TIP3    H120884   8.232   0.368   5.054
 6981TIP3    H220885   8.115   0.453   5.008
 6982TIP3   OH220886   0.348   7.326   0.069
 6982TIP3    H120887   0.408   7.332  -0.006
 6982TIP3    H220888   0.287   7.257   0.045
 6983TIP3   OH220889   4.286   5.954   1.711
 6983TIP3    H120890   4.295   5.997   1.796
 6983TIP3    H220891   4.192   5.956   1.694
 6984TIP3   OH220892   1.075   6.723   4.441
 6984TIP3    H120893   0.995   6.704   4.490
 6984TIP3    H220894   1.050   6.712   4.350
 6985TIP3   OH220895   3.768   5.840   4.121
 6985TIP3    H120896   3.796   5.768   4.178
 6985TIP3    H220897   3.779   5.919   4.175
 6986TIP3   OH220898   8.226   0.495   2.932
 6986TIP3    H120899   8.144   0.492   2.882
 6986TIP3    H220900   8.273   0.416   2.907
 6987TIP3   OH220901   2.022   6.167   1.054
 6987TIP3    H120902   1.930   6.146   1.043
 6987TIP3    H220903   2.068   6.084   1.040
 6988TIP3   OH220904   5.329   0.401   2.607
 6988TIP3    H120905   5.241   0.363   2.606
 6988TIP3    H220906   5.360   0.390   2.697
 6989TIP3   OH220907   1.257   2.288   5.383
 6989TIP3    H120908   1.187   2.266   5.322
 6989TIP3    H220909   1.222   2.265   5.469
 6990TIP3   OH220910   2.615   1.328   3.962
 6990TIP3    H120911   2.691   1.371   3.922
 6990TIP3    H220912   2.588   1.388   4.032
 6991TIP3   OH220913   3.894   4.369   1.603
 6991TIP3    H120914   3.800   4.381   1.615
 6991TIP3    H220915   3.915   4.293   1.657
 6992TIP3   OH220916   0.994   3.423   2.667
 6992TIP3    H120917   1.050   3.484   2.618
 6992TIP3    H220918   1.055   3.356   2.698
 6993TIP3   OH220919   6.817   6.002   3.139
 6993TIP3    H120920   6.730   5.994   3.101
 6993TIP3    H220921   6.852   6.083   3.102
 6994TIP3   OH220922   1.067   5.603   1.905
 6994TIP3    H120923   1.007   5.567   1.839
 6994TIP3    H220924   1.154   5.575   1.877
 6995TIP3   OH220925   7.015   2.516   0.350
 6995TIP3    H120926   7.093   2.571   0.348
 6995TIP3    H220927   6.951   2.567   0.400
 6996TIP3   OH220928   7.604   3.754   6.659
 6996TIP3    H120929   7.509   3.766   6.662
 6996TIP3    H220930   7.616   3.661   6.639
 6997TIP3   OH220931   0.819   3.423   2.930
 6997TIP3    H120932   0.736   3.378   2.916
 6997TIP3    H220933   0.869   3.407   2.849
 6998TIP3   OH220934   2.312   1.918   5.668
 6998TIP3    H120935   2.260   1.858   5.615
 6998TIP3    H220936   2.264   1.925   5.750
 6999TIP3   OH220937   2.083   5.664   6.579
 6999TIP3    H120938   2.007   5.693   6.629
 6999TIP3    H220939   2.109   5.741   6.529
 7000TIP3   OH220940   5.804   4.901   5.024
 7000TIP3    H120941   5.734   4.843   5.053
 7000TIP3    H220942   5.883   4.865   5.064
 7001TIP3   OH220943   5.552   0.416   1.956
 7001TIP3    H120944   5.473   0.431   1.905
 7001TIP3    H220945   5.622   0.411   1.891
 7002TIP3   OH220946   3.845   1.571   1.509
 7002TIP3    H120947   3.751   1.578   1.498
 7002TIP3    H220948   3.871   1.653   1.553
 7003TIP3   OH220949   1.919   6.023   1.679
 7003TIP3    H120950   1.838   5.998   1.723
 7003TIP3    H220951   1.892   6.048   1.591
 7004TIP3   OH220952   0.611   1.367   5.630
 7004TIP3    H120953   0.636   1.281   5.596
 7004TIP3    H220954   0.568   1.349   5.714
 7005TIP3   OH220955   2.555   6.760   2.361
 7005TIP3    H120956   2.605   6.728   2.286
 7005TIP3    H220957   2.506   6.683   2.391
 7006TIP3   OH220958   6.708   1.389   5.033
 7006TIP3    H120959   6.768   1.414   4.963
 7006TIP3    H220960   6.689   1.471   5.078
 7007TIP3   OH220961   6.379   0.060   6.487
 7007TIP3    H120962   6.289   0.056   6.520
 7007TIP3    H220963   6.405   0.151   6.500
 7008TIP3   OH220964   6.220   2.400   3.778
 7008TIP3    H120965   6.264   2.419   3.695
 7008TIP3    H220966   6.227   2.305   3.788
 7009TIP3   OH220967   3.922   4.375   6.581
 7009TIP3    H120968   3.937   4.354   6.673
 7009TIP3    H220969   3.835   4.415   6.581
 7010TIP3   OH220970   2.271   0.362   5.570
 7010TIP3    H120971   2.334   0.329   5.634
 7010TIP3    H220972   2.270   0.457   5.585
 7011TIP3   OH220973   5.583   2.301   1.108
 7011TIP3    H120974   5.509   2.305   1.048
 7011TIP3    H220975   5.634   2.381   1.089
 7012TIP3   OH220976   3.070   6.274   0.519
 7012TIP3    H120977   3.045   6.228   0.599
 7012TIP3    H220978   3.162   6.297   0.532
 7013TIP3   OH220979   2.520   1.034   4.836
 7013TIP3    H120980   2.568   1.113   4.861
 7013TIP3    H220981   2.438   1.040   4.885
 7014TIP3   OH220982   2.496   5.764   1.129
 7014TIP3    H120983   2.416   5.807   1.158
 7014TIP3    H220984   2.493   5.768   1.034
 7015TIP3   OH220985   7.828   1.072   4.713
 7015TIP3    H120986   7.806   1.142   4.653
 7015TIP3    H220987   7.757   1.008   4.702
 7016TIP3   OH220988   0.142   3.949   1.700
 7016TIP3    H120989   0.062   3.971   1.747
 7016TIP3    H220990   0.194   3.899   1.763
 7017TIP3   OH220991   4.534   5.733   1.964
 7017TIP3    H120992   4.540   5.724   1.869
 7017TIP3    H220993   4.454   5.783   1.978
 7018TIP3   OH220994   0.504   4.154   4.451
 7018TIP3    H120995   0.583   4.102   4.442
 7018TIP3    H220996   0.470   4.132   4.538
 7019TIP3   OH220997   2.672   6.625   4.903
 7019TIP3    H120998   2.582   6.649   4.881
 7019TIP3    H220999   2.683   6.651   4.995
 7020TIP3   OH221000   2.927   3.490   1.813
 7020TIP3    H121001   2.985   3.483   1.888
 7020TIP3    H221002   2.841   3.461   1.845
 7021TIP3   OH221003   2.729   2.747   1.644
 7021TIP3    H121004   2.715   2.824   1.589
 7021TIP3    H221005   2.645   2.702   1.643
 7022TIP3   OH221006   3.809   1.001   3.616
 7022TIP3    H121007   3.857   1.033   3.540
 7022TIP3    H221008   3.859   0.925   3.646
 7023TIP3   OH221009   4.564   3.877   0.608
 7023TIP3    H121010   4.600   3.833   0.530
 7023TIP3    H221011   4.622   3.952   0.622
 7024TIP3   OH221012   4.657   3.769   2.416
 7024TIP3    H121013   4.720   3.716   2.368
 7024TIP3    H221014   4.610   3.707   2.472
 7025TIP3   OH221015   7.692   0.672   2.481
 7025TIP3    H121016   7.754   0.689   2.552
 7025TIP3    H221017   7.654   0.757   2.461
 7026TIP3   OH221018   2.606   3.551   1.518
 7026TIP3    H121019   2.695   3.563   1.552
 7026TIP3    H221020   2.583   3.636   1.482
 7027TIP3   OH221021   6.468   6.844   6.731
 7027TIP3    H121022   6.432   6.908   6.669
 7027TIP3    H221023   6.557   6.875   6.749
 7028TIP3   OH221024   5.724   6.120   0.068
 7028TIP3    H121025   5.790   6.142   0.001
 7028TIP3    H221026   5.713   6.025   0.060
 7029TIP3   OH221027   3.373   7.655   3.918
 7029TIP3    H121028   3.306   7.716   3.950
 7029TIP3    H221029   3.356   7.647   3.824
 7030TIP3   OH221030   3.683   5.155   2.661
 7030TIP3    H121031   3.616   5.152   2.729
 7030TIP3    H221032   3.750   5.094   2.692
 7031TIP3   OH221033   7.559   1.447   3.282
 7031TIP3    H121034   7.548   1.362   3.239
 7031TIP3    H221035   7.644   1.441   3.325
 7032TIP3   OH221036   1.118   0.743   4.356
 7032TIP3    H121037   1.031   0.703   4.352
 7032TIP3    H221038   1.147   0.727   4.446
 7033TIP3   OH221039   4.033   0.789   0.884
 7033TIP3    H121040   4.090   0.740   0.824
 7033TIP3    H221041   3.955   0.735   0.892
 7034TIP3   OH221042   0.266   5.592   2.810
 7034TIP3    H121043   0.184   5.563   2.849
 7034TIP3    H221044   0.331   5.529   2.840
 7035TIP3   OH221045   6.260   1.931   2.914
 7035TIP3    H121046   6.311   1.868   2.964
 7035TIP3    H221047   6.307   1.940   2.831
 7036TIP3   OH221048   2.660   4.847   0.324
 7036TIP3    H121049   2.599   4.867   0.395
 7036TIP3    H221050   2.612   4.786   0.268
 7037TIP3   OH221051   0.213   0.467   4.404
 7037TIP3    H121052   0.142   0.508   4.455
 7037TIP3    H221053   0.263   0.417   4.468
 7038TIP3   OH221054   7.316   2.899   0.712
 7038TIP3    H121055   7.284   2.919   0.800
 7038TIP3    H221056   7.341   2.807   0.716
 7039TIP3   OH221057   3.848   0.125   3.494
 7039TIP3    H121058   3.808   0.189   3.435
 7039TIP3    H221059   3.778   0.063   3.514
 7040TIP3   OH221060   7.214   0.910   1.263
 7040TIP3    H121061   7.254   0.995   1.277
 7040TIP3    H221062   7.251   0.878   1.181
 7041TIP3   OH221063   3.773   3.045   2.461
 7041TIP3    H121064   3.731   3.127   2.435
 7041TIP3    H221065   3.866   3.066   2.465
 7042TIP3   OH221066   0.190   0.909   3.427
 7042TIP3    H121067   0.178   0.981   3.365
 7042TIP3    H221068   0.102   0.886   3.456
 7043TIP3   OH221069   0.384   4.579   0.959
 7043TIP3    H121070   0.468   4.546   0.926
 7043TIP3    H221071   0.396   4.584   1.054
 7044TIP3   OH221072   5.406   2.440   1.788
 7044TIP3    H121073   5.375   2.353   1.760
 7044TIP3    H221074   5.359   2.501   1.733
 7045TIP3   OH221075   4.117   7.100   4.307
 7045TIP3    H121076   4.151   7.040   4.373
 7045TIP3    H221077   4.166   7.079   4.227
 7046TIP3   OH221078   6.407   3.247   5.587
 7046TIP3    H121079   6.472   3.178   5.600
 7046TIP3    H221080   6.323   3.203   5.595
 7047TIP3   OH221081   8.218   5.874   0.289
 7047TIP3    H121082   8.226   5.958   0.334
 7047TIP3    H221083   8.307   5.854   0.260
 7048TIP3   OH221084   6.891   2.740   5.227
 7048TIP3    H121085   6.977   2.750   5.268
 7048TIP3    H221086   6.834   2.710   5.298
 7049TIP3   OH221087   1.082   1.715   5.967
 7049TIP3    H121088   1.064   1.686   6.056
 7049TIP3    H221089   1.135   1.794   5.978
 7050TIP3   OH221090   7.533   7.543   4.732
 7050TIP3    H121091   7.482   7.573   4.657
 7050TIP3    H221092   7.501   7.454   4.749
 7051TIP3   OH221093   2.368   3.981   2.267
 7051TIP3    H121094   2.284   4.026   2.271
 7051TIP3    H221095   2.395   3.971   2.358
 7052TIP3   OH221096   2.106   0.388   2.446
 7052TIP3    H121097   2.077   0.449   2.378
 7052TIP3    H221098   2.202   0.393   2.444
 7053TIP3   OH221099   6.402   5.155   5.961
 7053TIP3    H121100   6.352   5.122   6.035
 7053TIP3    H221101   6.494   5.143   5.986
 7054TIP3   OH221102   4.687   5.501   4.715
 7054TIP3    H121103   4.600   5.464   4.730
 7054TIP3    H221104   4.734   5.433   4.666
 7055TIP3   OH221105   7.941   6.562   1.855
 7055TIP3    H121106   7.890   6.493   1.898
 7055TIP3    H221107   7.989   6.604   1.926
 7056TIP3   OH221108   3.956   6.815   4.510
 7056TIP3    H121109   3.887   6.792   4.447
 7056TIP3    H221110   3.942   6.909   4.527
 7057TIP3   OH221111   6.920   1.863   0.448
 7057TIP3    H121112   6.958   1.860   0.360
 7057TIP3    H221113   6.827   1.848   0.434
 7058TIP3   OH221114   7.219   2.674   0.283
 7058TIP3    H121115   7.247   2.738   0.218
 7058TIP3    H221116   7.274   2.690   0.359
 7059TIP3   OH221117   3.755   2.865   2.677
 7059TIP3    H121118   3.714   2.909   2.603
 7059TIP3    H221119   3.835   2.827   2.641
 7060TIP3   OH221120   5.274   5.827   0.928
 7060TIP3    H121121   5.342   5.895   0.934
 7060TIP3    H221122   5.197   5.868   0.967
 7061TIP3   OH221123   6.494   5.721   3.969
 7061TIP3    H121124   6.407   5.683   3.981
 7061TIP3    H221125   6.535   5.717   4.055
 7062TIP3   OH221126   4.383   0.087   5.568
 7062TIP3    H121127   4.389   0.107   5.662
 7062TIP3    H221128   4.353  -0.004   5.566
 7063TIP3   OH221129   3.232   4.442   0.777
 7063TIP3    H121130   3.180   4.420   0.700
 7063TIP3    H221131   3.216   4.535   0.793
 7064TIP3   OH221132   2.402   0.633   3.338
 7064TIP3    H121133   2.332   0.572   3.315
 7064TIP3    H221134   2.377   0.667   3.424
 7065TIP3   OH221135   3.665   5.144   4.896
 7065TIP3    H121136   3.647   5.116   4.807
 7065TIP3    H221137   3.660   5.239   4.893
 7066TIP3   OH221138   2.229   0.282   3.561
 7066TIP3    H121139   2.191   0.334   3.632
 7066TIP3    H221140   2.163   0.214   3.543
 7067TIP3   OH221141   2.683   2.738   4.121
 7067TIP3    H121142   2.678   2.754   4.215
 7067TIP3    H221143   2.594   2.753   4.089
 7068TIP3   OH221144   0.679   6.517   0.890
 7068TIP3    H121145   0.589   6.504   0.922
 7068TIP3    H221146   0.687   6.457   0.816
 7069TIP3   OH221147   2.540   2.886   3.570
 7069TIP3    H121148   2.523   2.797   3.540
 7069TIP3    H221149   2.464   2.908   3.624
 7070TIP3   OH221150   1.213   3.606   1.770
 7070TIP3    H121151   1.219   3.533   1.709
 7070TIP3    H221152   1.256   3.575   1.849
 7071TIP3   OH221153   0.917   0.952   0.915
 7071TIP3    H121154   0.866   1.006   0.976
 7071TIP3    H221155   0.908   0.863   0.949
 7072TIP3   OH221156   7.636   2.411   5.643
 7072TIP3    H121157   7.550   2.447   5.665
 7072TIP3    H221158   7.692   2.433   5.717
 7073TIP3   OH221159   1.170   7.117   5.173
 7073TIP3    H121160   1.151   7.096   5.081
 7073TIP3    H221161   1.256   7.079   5.189
 7074TIP3   OH221162   5.126   3.312   5.828
 7074TIP3    H121163   5.123   3.388   5.770
 7074TIP3    H221164   5.205   3.324   5.881
 7075TIP3   OH221165   1.723   2.809   3.148
 7075TIP3    H121166   1.785   2.883   3.148
 7075TIP3    H221167   1.759   2.748   3.084
 7076TIP3   OH221168   3.246   0.771   3.106
 7076TIP3    H121169   3.258   0.803   3.016
 7076TIP3    H221170   3.288   0.837   3.160
 7077TIP3   OH221171   5.216   7.385   1.366
 7077TIP3    H121172   5.189   7.422   1.450
 7077TIP3    H221173   5.271   7.310   1.389
 7078TIP3   OH221174   5.148   2.723   3.368
 7078TIP3    H121175   5.189   2.729   3.454
 7078TIP3    H221176   5.206   2.667   3.317
 7079TIP3   OH221177   0.249   3.036   1.891
 7079TIP3    H121178   0.268   3.130   1.896
 7079TIP3    H221179   0.286   3.008   1.808
 7080TIP3   OH221180   0.955   1.032   5.633
 7080TIP3    H121181   1.004   0.965   5.586
 7080TIP3    H221182   1.009   1.111   5.626
 7081TIP3   OH221183   5.270   6.228   0.925
 7081TIP3    H121184   5.255   6.290   0.854
 7081TIP3    H221185   5.196   6.166   0.918
 7082TIP3   OH221186   1.953   3.015   0.236
 7082TIP3    H121187   1.887   3.063   0.186
 7082TIP3    H221188   2.033   3.065   0.224
 7083TIP3   OH221189   7.841   7.524   4.650
 7083TIP3    H121190   7.915   7.495   4.597
 7083TIP3    H221191   7.781   7.449   4.649
 7084TIP3   OH221192   1.483   1.815   6.223
 7084TIP3    H121193   1.545   1.746   6.249
 7084TIP3    H221194   1.430   1.830   6.301
 7085TIP3   OH221195   3.062   0.674   6.213
 7085TIP3    H121196   3.119   0.696   6.140
 7085TIP3    H221197   2.993   0.619   6.174
 7086TIP3   OH221198   8.310   4.653   3.724
 7086TIP3    H121199   8.276   4.591   3.789
 7086TIP3    H221200   8.249   4.727   3.728
 7087TIP3   OH221201   5.499   5.178   4.558
 7087TIP3    H121202   5.553   5.100   4.549
 7087TIP3    H221203   5.547   5.233   4.619
 7088TIP3   OH221204   0.884   6.832   1.217
 7088TIP3    H121205   0.833   6.754   1.240
 7088TIP3    H221206   0.953   6.799   1.161
 7089TIP3   OH221207   6.068   4.137   3.966
 7089TIP3    H121208   6.154   4.177   3.978
 7089TIP3    H221209   6.007   4.211   3.966
 7090TIP3   OH221210   6.576   1.460   1.884
 7090TIP3    H121211   6.633   1.452   1.960
 7090TIP3    H221212   6.567   1.554   1.869
 7091TIP3   OH221213   3.213   4.142   0.900
 7091TIP3    H121214   3.239   4.102   0.817
 7091TIP3    H221215   3.230   4.235   0.889
 7092TIP3   OH221216   5.341   1.796   2.799
 7092TIP3    H121217   5.386   1.722   2.760
 7092TIP3    H221218   5.396   1.822   2.873
 7093TIP3   OH221219   4.393   5.982   5.417
 7093TIP3    H121220   4.372   5.969   5.509
 7093TIP3    H221221   4.320   6.033   5.382
 7094TIP3   OH221222   1.322   1.496   2.880
 7094TIP3    H121223   1.235   1.457   2.875
 7094TIP3    H221224   1.361   1.456   2.958
 7095TIP3   OH221225   0.661   4.826   4.007
 7095TIP3    H121226   0.696   4.914   4.021
 7095TIP3    H221227   0.724   4.768   4.051
 7096TIP3   OH221228   2.757   6.903   6.334
 7096TIP3    H121229   2.710   6.974   6.379
 7096TIP3    H221230   2.687   6.847   6.299
 7097TIP3   OH221231   3.420   6.668   4.305
 7097TIP3    H121232   3.450   6.753   4.337
 7097TIP3    H221233   3.410   6.615   4.384
 7098TIP3   OH221234   7.894   0.555   1.290
 7098TIP3    H121235   7.901   0.487   1.223
 7098TIP3    H221236   7.973   0.546   1.342
 7099TIP3   OH221237   3.023   1.942   1.852
 7099TIP3    H121238   3.042   2.027   1.812
 7099TIP3    H221239   2.957   1.961   1.919
 7100TIP3   OH221240   0.938   5.482   4.543
 7100TIP3    H121241   1.022   5.528   4.541
 7100TIP3    H221242   0.961   5.391   4.563
 7101TIP3   OH221243   7.579   0.419   3.918
 7101TIP3    H121244   7.518   0.401   3.846
 7101TIP3    H221245   7.545   0.499   3.958
 7102TIP3   OH221246   6.079   7.758   2.512
 7102TIP3    H121247   6.080   7.722   2.600
 7102TIP3    H221248   6.105   7.685   2.455
 7103TIP3   OH221249   1.138   6.216   0.547
 7103TIP3    H121250   1.111   6.291   0.494
 7103TIP3    H221251   1.224   6.193   0.514
 7104TIP3   OH221252   5.108   4.623   5.147
 7104TIP3    H121253   5.048   4.690   5.115
 7104TIP3    H221254   5.052   4.557   5.188
 7105TIP3   OH221255   6.379   5.253   4.042
 7105TIP3    H121256   6.351   5.274   3.953
 7105TIP3    H221257   6.428   5.171   4.033
 7106TIP3   OH221258   3.811   4.228   6.072
 7106TIP3    H121259   3.832   4.244   6.164
 7106TIP3    H221260   3.887   4.182   6.037
 7107TIP3   OH221261   8.124   1.860   4.510
 7107TIP3    H121262   8.166   1.844   4.595
 7107TIP3    H221263   8.114   1.773   4.471
 7108TIP3   OH221264   3.191   0.157   2.378
 7108TIP3    H121265   3.172   0.068   2.406
 7108TIP3    H221266   3.105   0.194   2.356
 7109TIP3   OH221267   7.218   5.307   2.340
 7109TIP3    H121268   7.124   5.322   2.335
 7109TIP3    H221269   7.229   5.245   2.412
 7110TIP3   OH221270   2.790   5.904   3.263
 7110TIP3    H121271   2.759   5.897   3.173
 7110TIP3    H221272   2.718   5.868   3.316
 7111TIP3   OH221273   2.570   5.902   6.028
 7111TIP3    H121274   2.604   5.943   5.948
 7111TIP3    H221275   2.645   5.852   6.062
 7112TIP3   OH221276   6.627   0.196   1.487
 7112TIP3    H121277   6.716   0.193   1.450
 7112TIP3    H221278   6.623   0.281   1.531
 7113TIP3   OH221279   4.020   1.698   4.571
 7113TIP3    H121280   3.992   1.757   4.641
 7113TIP3    H221281   4.034   1.755   4.496
 7114TIP3   OH221282   2.992   7.732   3.303
 7114TIP3    H121283   3.082   7.709   3.278
 7114TIP3    H221284   2.991   7.827   3.302
 7115TIP3   OH221285   4.392   0.852   3.159
 7115TIP3    H121286   4.383   0.940   3.198
 7115TIP3    H221287   4.351   0.794   3.223
 7116TIP3   OH221288   6.508   2.040   6.844
 7116TIP3    H121289   6.525   1.964   6.788
 7116TIP3    H221290   6.418   2.064   6.824
 7117TIP3   OH221291   7.200   7.111   5.995
 7117TIP3    H121292   7.219   7.054   5.921
 7117TIP3    H221293   7.267   7.090   6.060
 7118TIP3   OH221294   4.238   2.400   5.504
 7118TIP3    H121295   4.203   2.385   5.417
 7118TIP3    H221296   4.209   2.325   5.556
 7119TIP3   OH221297   3.680   2.032   1.366
 7119TIP3    H121298   3.714   2.119   1.382
 7119TIP3    H221299   3.638   2.037   1.280
 7120TIP3   OH221300   6.264   3.686   4.415
 7120TIP3    H121301   6.350   3.696   4.457
 7120TIP3    H221302   6.281   3.702   4.322
 7121TIP3   OH221303   5.334   5.610   3.960
 7121TIP3    H121304   5.247   5.588   3.992
 7121TIP3    H221305   5.378   5.649   4.036
 7122TIP3   OH221306   1.276   6.551   2.863
 7122TIP3    H121307   1.357   6.548   2.913
 7122TIP3    H221308   1.276   6.469   2.813
 7123TIP3   OH221309   4.446   1.533   1.877
 7123TIP3    H121310   4.393   1.523   1.798
 7123TIP3    H221311   4.391   1.587   1.934
 7124TIP3   OH221312   1.150   2.920   0.155
 7124TIP3    H121313   1.099   2.859   0.208
 7124TIP3    H221314   1.237   2.919   0.194
 7125TIP3   OH221315   5.654   4.961   4.597
 7125TIP3    H121316   5.615   4.890   4.648
 7125TIP3    H221317   5.745   4.964   4.627
 7126TIP3   OH221318   5.059   3.703   6.831
 7126TIP3    H121319   4.978   3.723   6.878
 7126TIP3    H221320   5.093   3.789   6.805
 7127TIP3   OH221321   3.866   6.952   6.768
 7127TIP3    H121322   3.863   7.046   6.785
 7127TIP3    H221323   3.906   6.915   6.847
 7128TIP3   OH221324   1.766   5.036   3.196
 7128TIP3    H121325   1.725   5.117   3.228
 7128TIP3    H221326   1.700   4.969   3.211
 7129TIP3   OH221327   8.089   0.410   5.671
 7129TIP3    H121328   8.079   0.337   5.610
 7129TIP3    H221329   8.108   0.368   5.755
 7130TIP3   OH221330   6.368   7.452   4.183
 7130TIP3    H121331   6.411   7.368   4.198
 7130TIP3    H221332   6.420   7.515   4.233
 7131TIP3   OH221333   0.011   0.612   4.526
 7131TIP3    H121334  -0.020   0.689   4.478
 7131TIP3    H221335   0.048   0.647   4.607
 7132TIP3   OH221336   7.928   7.686   1.995
 7132TIP3    H121337   7.920   7.591   1.997
 7132TIP3    H221338   7.935   7.712   2.087
 7133TIP3   OH221339   1.940   5.025   1.275
 7133TIP3    H121340   1.846   5.024   1.258
 7133TIP3    H221341   1.963   4.933   1.289
 7134TIP3   OH221342   1.088   1.254   0.321
 7134TIP3    H121343   1.078   1.223   0.411
 7134TIP3    H221344   1.003   1.238   0.281
 7135TIP3   OH221345   2.499   6.130   1.826
 7135TIP3    H121346   2.536   6.179   1.752
 7135TIP3    H221347   2.567   6.068   1.850
 7136TIP3   OH221348   5.319   6.387   4.141
 7136TIP3    H121349   5.257   6.322   4.108
 7136TIP3    H221350   5.385   6.395   4.072
 7137TIP3   OH221351   2.035   4.103   1.421
 7137TIP3    H121352   2.034   4.007   1.415
 7137TIP3    H221353   2.091   4.122   1.497
 7138TIP3   OH221354   3.032   7.339   2.885
 7138TIP3    H121355   2.972   7.386   2.943
 7138TIP3    H221356   3.028   7.388   2.803
 7139TIP3   OH221357   3.500   4.774   5.143
 7139TIP3    H121358   3.468   4.726   5.066
 7139TIP3    H221359   3.426   4.776   5.203
 7140TIP3   OH221360   1.119   1.656   4.762
 7140TIP3    H121361   1.123   1.713   4.685
 7140TIP3    H221362   1.047   1.595   4.743
 7141TIP3   OH221363   6.963   1.475   0.205
 7141TIP3    H121364   6.997   1.413   0.270
 7141TIP3    H221365   7.012   1.455   0.125
 7142TIP3   OH221366   3.915   0.532   3.225
 7142TIP3    H121367   3.891   0.550   3.134
 7142TIP3    H221368   3.855   0.584   3.277
 7143TIP3   OH221369   7.350   4.699   3.612
 7143TIP3    H121370   7.443   4.675   3.607
 7143TIP3    H221371   7.350   4.795   3.612
 7144TIP3   OH221372   2.799   0.968   6.592
 7144TIP3    H121373   2.814   1.039   6.530
 7144TIP3    H221374   2.775   0.893   6.538
 7145TIP3   OH221375   3.550   3.593   5.999
 7145TIP3    H121376   3.483   3.540   5.955
 7145TIP3    H221377   3.626   3.535   6.005
 7146TIP3   OH221378   5.877   6.732   0.372
 7146TIP3    H121379   5.957   6.705   0.416
 7146TIP3    H221380   5.890   6.825   0.354
 7147TIP3   OH221381   1.379   2.150   0.465
 7147TIP3    H121382   1.370   2.137   0.371
 7147TIP3    H221383   1.356   2.242   0.479
 7148TIP3   OH221384   6.817   6.026   4.125
 7148TIP3    H121385   6.737   6.078   4.116
 7148TIP3    H221386   6.873   6.078   4.184
 7149TIP3   OH221387   2.575   7.449   5.309
 7149TIP3    H121388   2.540   7.538   5.305
 7149TIP3    H221389   2.562   7.414   5.221
 7150TIP3   OH221390   6.067   0.565   4.573
 7150TIP3    H121391   6.001   0.616   4.526
 7150TIP3    H221392   6.149   0.610   4.555
 7151TIP3   OH221393   7.399   6.133   2.698
 7151TIP3    H121394   7.465   6.064   2.711
 7151TIP3    H221395   7.421   6.170   2.612
 7152TIP3   OH221396   8.367   6.165   3.827
 7152TIP3    H121397   8.295   6.181   3.887
 7152TIP3    H221398   8.442   6.146   3.884
 7153TIP3   OH221399   2.922   2.424   4.816
 7153TIP3    H121400   2.938   2.404   4.909
 7153TIP3    H221401   3.007   2.415   4.774
 7154TIP3   OH221402   5.820   7.725   4.104
 7154TIP3    H121403   5.767   7.673   4.165
 7154TIP3    H221404   5.835   7.666   4.030
 7155TIP3   OH221405   1.365   2.677   4.676
 7155TIP3    H121406   1.285   2.624   4.679
 7155TIP3    H221407   1.351   2.745   4.742
 7156TIP3   OH221408   7.804   1.416   3.428
 7156TIP3    H121409   7.877   1.398   3.369
 7156TIP3    H221410   7.845   1.462   3.502
 7157TIP3   OH221411   0.271   5.176   2.440
 7157TIP3    H121412   0.272   5.080   2.437
 7157TIP3    H221413   0.246   5.203   2.352
 7158TIP3   OH221414   2.876   7.053   4.025
 7158TIP3    H121415   2.874   6.970   4.072
 7158TIP3    H221416   2.840   7.033   3.939
 7159TIP3   OH221417   7.555   3.787   1.473
 7159TIP3    H121418   7.631   3.729   1.472
 7159TIP3    H221419   7.528   3.790   1.565
 7160TIP3   OH221420   7.891   4.856   4.920
 7160TIP3    H121421   7.937   4.873   4.838
 7160TIP3    H221422   7.881   4.761   4.923
 7161TIP3   OH221423   1.762   4.976   2.483
 7161TIP3    H121424   1.764   4.891   2.526
 7161TIP3    H221425   1.722   4.959   2.398
 7162TIP3   OH221426   3.456   1.246   5.815
 7162TIP3    H121427   3.511   1.213   5.886
 7162TIP3    H221428   3.367   1.217   5.838
 7163TIP3   OH221429   3.579   5.666   4.794
 7163TIP3    H121430   3.637   5.734   4.827
 7163TIP3    H221431   3.491   5.698   4.812
 7164TIP3   OH221432   7.617   4.325   0.270
 7164TIP3    H121433   7.563   4.404   0.266
 7164TIP3    H221434   7.707   4.359   0.272
 7165TIP3   OH221435   1.738   5.755   2.064
 7165TIP3    H121436   1.761   5.721   2.150
 7165TIP3    H221437   1.746   5.850   2.072
 7166TIP3   OH221438   2.010   2.269   1.092
 7166TIP3    H121439   2.070   2.326   1.044
 7166TIP3    H221440   1.957   2.226   1.025
 7167TIP3   OH221441   6.471   5.958   2.075
 7167TIP3    H121442   6.516   5.997   2.150
 7167TIP3    H221443   6.541   5.913   2.026
 7168TIP3   OH221444   8.249   7.887   6.129
 7168TIP3    H121445   8.200   7.852   6.202
 7168TIP3    H221446   8.316   7.943   6.170
 7169TIP3   OH221447   5.294   6.299   1.949
 7169TIP3    H121448   5.317   6.390   1.929
 7169TIP3    H221449   5.274   6.260   1.863
 7170TIP3   OH221450   6.628   0.512   3.727
 7170TIP3    H121451   6.591   0.502   3.815
 7170TIP3    H221452   6.693   0.582   3.736
 7171TIP3   OH221453   0.208   7.473   3.805
 7171TIP3    H121454   0.282   7.535   3.807
 7171TIP3    H221455   0.133   7.525   3.832
 7172TIP3   OH221456   3.568   6.682   5.574
 7172TIP3    H121457   3.586   6.769   5.611
 7172TIP3    H221458   3.541   6.629   5.649
 7173TIP3   OH221459   7.378   2.861   3.206
 7173TIP3    H121460   7.379   2.816   3.121
 7173TIP3    H221461   7.289   2.846   3.240
 7174TIP3   OH221462   5.442   1.929   3.029
 7174TIP3    H121463   5.471   1.907   3.118
 7174TIP3    H221464   5.421   2.023   3.034
 7175TIP3   OH221465   4.881   2.333   3.735
 7175TIP3    H121466   4.945   2.381   3.682
 7175TIP3    H221467   4.851   2.262   3.678
 7176TIP3   OH221468   0.657   5.384   0.121
 7176TIP3    H121469   0.689   5.300   0.088
 7176TIP3    H221470   0.675   5.381   0.215
 7177TIP3   OH221471   6.953   3.864   1.903
 7177TIP3    H121472   6.871   3.900   1.934
 7177TIP3    H221473   7.020   3.925   1.934
 7178TIP3   OH221474   0.343   7.398   3.316
 7178TIP3    H121475   0.433   7.424   3.338
 7178TIP3    H221476   0.353   7.310   3.280
 7179TIP3   OH221477   6.312   4.309   6.563
 7179TIP3    H121478   6.330   4.307   6.469
 7179TIP3    H221479   6.341   4.223   6.594
 7180TIP3   OH221480   4.649   5.467   6.493
 7180TIP3    H121481   4.695   5.503   6.417
 7180TIP3    H221482   4.573   5.524   6.504
 7181TIP3   OH221483   5.289   6.775   4.353
 7181TIP3    H121484   5.218   6.837   4.369
 7181TIP3    H221485   5.329   6.805   4.271
 7182TIP3   OH221486   4.330   5.024   1.005
 7182TIP3    H121487   4.273   5.089   1.047
 7182TIP3    H221488   4.413   5.071   0.992
 7183TIP3   OH221489   5.063   2.602   5.827
 7183TIP3    H121490   5.106   2.683   5.855
 7183TIP3    H221491   5.112   2.574   5.750
 7184TIP3   OH221492   3.775   3.579   4.780
 7184TIP3    H121493   3.698   3.525   4.760
 7184TIP3    H221494   3.799   3.618   4.696
 7185TIP3   OH221495   7.590   1.165   3.184
 7185TIP3    H121496   7.549   1.115   3.254
 7185TIP3    H221497   7.655   1.105   3.147
 7186TIP3   OH221498   0.601   6.606   6.504
 7186TIP3    H121499   0.629   6.538   6.566
 7186TIP3    H221500   0.675   6.613   6.443
 7187TIP3   OH221501   1.266   5.178   0.895
 7187TIP3    H121502   1.193   5.116   0.899
 7187TIP3    H221503   1.329   5.137   0.836
 7188TIP3   OH221504   7.571   1.588   2.535
 7188TIP3    H121505   7.499   1.611   2.594
 7188TIP3    H221506   7.649   1.595   2.589
 7189TIP3   OH221507   3.495   0.522   6.861
 7189TIP3    H121508   3.588   0.509   6.882
 7189TIP3    H221509   3.496   0.580   6.785
 7190TIP3   OH221510   2.574   1.451   0.061
 7190TIP3    H121511   2.616   1.537   0.061
 7190TIP3    H221512   2.554   1.434   0.153
 7191TIP3   OH221513   0.620   2.542   5.087
 7191TIP3    H121514   0.555   2.555   5.017
 7191TIP3    H221515   0.634   2.629   5.123
 7192TIP3   OH221516   2.726   7.056   3.338
 7192TIP3    H121517   2.637   7.090   3.341
 7192TIP3    H221518   2.721   6.982   3.277
 7193TIP3   OH221519   6.042   2.480   5.091
 7193TIP3    H121520   5.961   2.497   5.042
 7193TIP3    H221521   6.071   2.394   5.061
 7194TIP3   OH221522   6.575   4.445   5.032
 7194TIP3    H121523   6.605   4.390   5.105
 7194TIP3    H221524   6.626   4.525   5.040
 7195TIP3   OH221525   0.995   2.280   2.061
 7195TIP3    H121526   0.990   2.215   1.991
 7195TIP3    H221527   1.068   2.337   2.035
 7196TIP3   OH221528   1.160   2.686   3.747
 7196TIP3    H121529   1.138   2.634   3.669
 7196TIP3    H221530   1.230   2.745   3.718
 7197TIP3   OH221531   6.645   1.808   2.107
 7197TIP3    H121532   6.694   1.886   2.133
 7197TIP3    H221533   6.687   1.737   2.155
 7198TIP3   OH221534   6.609   1.304   3.848
 7198TIP3    H121535   6.648   1.326   3.933
 7198TIP3    H221536   6.519   1.280   3.868
 7199TIP3   OH221537   5.976   0.020   1.861
 7199TIP3    H121538   6.041  -0.034   1.815
 7199TIP3    H221539   6.012   0.109   1.858
 7200TIP3   OH221540   8.316   4.548   2.079
 7200TIP3    H121541   8.291   4.460   2.106
 7200TIP3    H221542   8.287   4.555   1.988
 7201TIP3   OH221543   2.490   0.351   3.513
 7201TIP3    H121544   2.402   0.333   3.545
 7201TIP3    H221545   2.546   0.293   3.565
 7202TIP3   OH221546   8.163   3.564   0.762
 7202TIP3    H121547   8.140   3.618   0.838
 7202TIP3    H221548   8.091   3.501   0.755
 7203TIP3   OH221549   5.430   3.470   0.239
 7203TIP3    H121550   5.349   3.501   0.198
 7203TIP3    H221551   5.453   3.539   0.301
 7204TIP3   OH221552   0.819   5.972   3.194
 7204TIP3    H121553   0.787   6.053   3.154
 7204TIP3    H221554   0.764   5.960   3.272
 7205TIP3   OH221555   2.139   5.413   5.435
 7205TIP3    H121556   2.127   5.318   5.439
 7205TIP3    H221557   2.167   5.438   5.523
 7206TIP3   OH221558   5.006   5.047   3.064
 7206TIP3    H121559   4.914   5.065   3.083
 7206TIP3    H221560   5.043   5.133   3.043
 7207TIP3   OH221561   8.215   1.531   5.486
 7207TIP3    H121562   8.141   1.471   5.491
 7207TIP3    H221563   8.273   1.503   5.556
 7208TIP3   OH221564   2.007   1.794   4.716
 7208TIP3    H121565   2.051   1.722   4.759
 7208TIP3    H221566   1.918   1.794   4.752
 7209TIP3   OH221567   3.072   2.068   3.882
 7209TIP3    H121568   3.107   2.151   3.851
 7209TIP3    H221569   3.148   2.011   3.891
 7210TIP3   OH221570   4.842   5.955   6.822
 7210TIP3    H121571   4.825   5.861   6.817
 7210TIP3    H221572   4.757   5.994   6.842
 7211TIP3   OH221573   2.000   1.137   0.814
 7211TIP3    H121574   1.906   1.154   0.819
 7211TIP3    H221575   2.025   1.114   0.903
 7212TIP3   OH221576   1.017   1.846   0.509
 7212TIP3    H121577   1.098   1.895   0.493
 7212TIP3    H221578   1.026   1.767   0.455
 7213TIP3   OH221579   5.361   1.890   1.472
 7213TIP3    H121580   5.394   1.805   1.443
 7213TIP3    H221581   5.266   1.881   1.470
 7214TIP3   OH221582   0.352   4.420   3.900
 7214TIP3    H121583   0.265   4.402   3.865
 7214TIP3    H221584   0.379   4.501   3.856
 7215TIP3   OH221585   0.253   3.134   3.233
 7215TIP3    H121586   0.277   3.179   3.152
 7215TIP3    H221587   0.171   3.090   3.212
 7216TIP3   OH221588   5.044   5.370   0.025
 7216TIP3    H121589   4.959   5.413   0.013
 7216TIP3    H221590   5.097   5.433   0.074
 7217TIP3   OH221591   5.072   4.366   3.596
 7217TIP3    H121592   5.030   4.286   3.627
 7217TIP3    H221593   5.023   4.389   3.516
 7218TIP3   OH221594   3.400   6.548   6.148
 7218TIP3    H121595   3.407   6.569   6.241
 7218TIP3    H221596   3.442   6.462   6.140
 7219TIP3   OH221597   3.373   6.560   0.871
 7219TIP3    H121598   3.460   6.523   0.877
 7219TIP3    H221599   3.369   6.626   0.941
 7220TIP3   OH221600   4.161   3.252   1.200
 7220TIP3    H121601   4.217   3.290   1.133
 7220TIP3    H221602   4.079   3.301   1.194
 7221TIP3   OH221603   0.238   0.426   2.788
 7221TIP3    H121604   0.281   0.403   2.705
 7221TIP3    H221605   0.310   0.446   2.847
 7222TIP3   OH221606   7.996   7.519   3.624
 7222TIP3    H121607   7.941   7.576   3.570
 7222TIP3    H221608   7.966   7.431   3.603
 7223TIP3   OH221609   6.864   0.484   5.516
 7223TIP3    H121610   6.902   0.532   5.590
 7223TIP3    H221611   6.931   0.421   5.492
 7224TIP3   OH221612   5.174   4.723   0.816
 7224TIP3    H121613   5.262   4.761   0.818
 7224TIP3    H221614   5.189   4.629   0.806
 7225TIP3   OH221615   7.189   4.274   4.940
 7225TIP3    H121616   7.198   4.327   4.861
 7225TIP3    H221617   7.145   4.194   4.909
 7226TIP3   OH221618   7.188   5.711   3.611
 7226TIP3    H121619   7.212   5.765   3.685
 7226TIP3    H221620   7.153   5.631   3.650
 7227TIP3   OH221621   4.261   1.385   3.283
 7227TIP3    H121622   4.182   1.353   3.239
 7227TIP3    H221623   4.322   1.403   3.212
 7228TIP3   OH221624   4.487   1.435   2.390
 7228TIP3    H121625   4.520   1.394   2.310
 7228TIP3    H221626   4.392   1.431   2.382
 7229TIP3   OH221627   1.945   0.948   0.220
 7229TIP3    H121628   2.022   0.960   0.275
 7229TIP3    H221629   1.935   1.032   0.175
 7230TIP3   OH221630   0.218   5.693   2.575
 7230TIP3    H121631   0.296   5.663   2.529
 7230TIP3    H221632   0.228   5.662   2.664
 7231TIP3   OH221633   2.988   7.207   2.086
 7231TIP3    H121634   3.051   7.269   2.052
 7231TIP3    H221635   2.954   7.248   2.166
 7232TIP3   OH221636   8.001   2.875   2.683
 7232TIP3    H121637   8.071   2.811   2.667
 7232TIP3    H221638   7.938   2.828   2.738
 7233TIP3   OH221639   1.077   5.311   0.495
 7233TIP3    H121640   0.992   5.330   0.456
 7233TIP3    H221641   1.060   5.302   0.589
 7234TIP3   OH221642   6.958   3.081   1.137
 7234TIP3    H121643   6.914   3.018   1.080
 7234TIP3    H221644   7.041   3.040   1.158
 7235TIP3   OH221645   5.210   4.749   2.494
 7235TIP3    H121646   5.134   4.730   2.549
 7235TIP3    H221647   5.180   4.819   2.435
 7236TIP3   OH221648   0.857   3.098   5.172
 7236TIP3    H121649   0.914   3.026   5.146
 7236TIP3    H221650   0.775   3.055   5.198
 7237TIP3   OH221651   6.610   3.581   2.761
 7237TIP3    H121652   6.675   3.643   2.794
 7237TIP3    H221653   6.640   3.557   2.674
 7238TIP3   OH221654   4.122   1.263   6.274
 7238TIP3    H121655   4.117   1.347   6.229
 7238TIP3    H221656   4.111   1.285   6.366
 7239TIP3   OH221657   2.839   3.653   1.599
 7239TIP3    H121658   2.876   3.734   1.633
 7239TIP3    H221659   2.878   3.584   1.652
 7240TIP3   OH221660   0.250   5.465   3.474
 7240TIP3    H121661   0.263   5.512   3.391
 7240TIP3    H221662   0.286   5.378   3.457
 7241TIP3   OH221663   2.786   6.659   5.175
 7241TIP3    H121664   2.783   6.564   5.190
 7241TIP3    H221665   2.703   6.691   5.209
 7242TIP3   OH221666   4.644   0.187   6.385
 7242TIP3    H121667   4.562   0.144   6.410
 7242TIP3    H221668   4.672   0.142   6.306
 7243TIP3   OH221669   7.826   0.642   6.408
 7243TIP3    H121670   7.765   0.696   6.357
 7243TIP3    H221671   7.896   0.702   6.432
 7244TIP3   OH221672   1.773   1.841   6.564
 7244TIP3    H121673   1.862   1.865   6.589
 7244TIP3    H221674   1.739   1.795   6.641
 7245TIP3   OH221675   2.710   3.408   6.768
 7245TIP3    H121676   2.651   3.460   6.823
 7245TIP3    H221677   2.797   3.424   6.804
 7246TIP3   OH221678   4.875   6.937   3.791
 7246TIP3    H121679   4.951   6.916   3.845
 7246TIP3    H221680   4.809   6.871   3.816
 7247TIP3   OH221681   7.377   1.623   2.720
 7247TIP3    H121682   7.371   1.612   2.815
 7247TIP3    H221683   7.286   1.618   2.690
 7248TIP3   OH221684   0.011   3.823   0.793
 7248TIP3    H121685  -0.050   3.864   0.732
 7248TIP3    H221686   0.067   3.768   0.739
 7249TIP3   OH221687   7.563   3.116   6.238
 7249TIP3    H121688   7.621   3.144   6.308
 7249TIP3    H221689   7.516   3.196   6.213
 7250TIP3   OH221690   6.669   3.015   1.419
 7250TIP3    H121691   6.604   2.987   1.354
 7250TIP3    H221692   6.742   3.048   1.367
 7251TIP3   OH221693   5.903   3.131   1.351
 7251TIP3    H121694   5.974   3.110   1.412
 7251TIP3    H221695   5.830   3.159   1.407
 7252TIP3   OH221696   3.014   4.662   2.074
 7252TIP3    H121697   2.984   4.589   2.129
 7252TIP3    H221698   2.953   4.733   2.092
 7253TIP3   OH221699   2.952   4.709   4.817
 7253TIP3    H121700   2.941   4.614   4.808
 7253TIP3    H221701   2.995   4.721   4.901
 7254TIP3   OH221702   5.577   2.895   0.905
 7254TIP3    H121703   5.621   2.972   0.940
 7254TIP3    H221704   5.534   2.855   0.981
 7255TIP3   OH221705   4.951   0.884   6.054
 7255TIP3    H121706   4.957   0.952   6.121
 7255TIP3    H221707   4.946   0.802   6.104
 7256TIP3   OH221708   3.348   7.495   2.965
 7256TIP3    H121709   3.355   7.446   2.883
 7256TIP3    H221710   3.438   7.510   2.993
 7257TIP3   OH221711   5.691   1.991   2.765
 7257TIP3    H121712   5.612   2.019   2.811
 7257TIP3    H221713   5.661   1.969   2.677
 7258TIP3   OH221714   7.575   2.679   1.704
 7258TIP3    H121715   7.496   2.633   1.674
 7258TIP3    H221716   7.569   2.674   1.799
 7259TIP3   OH221717   1.440   0.785   3.187
 7259TIP3    H121718   1.390   0.867   3.193
 7259TIP3    H221719   1.495   0.796   3.110
 7260TIP3   OH221720   5.573   1.402   1.376
 7260TIP3    H121721   5.491   1.380   1.420
 7260TIP3    H221722   5.557   1.489   1.339
 7261TIP3   OH221723   6.865   5.327   3.581
 7261TIP3    H121724   6.805   5.402   3.584
 7261TIP3    H221725   6.842   5.281   3.500
 7262TIP3   OH221726   0.734   4.006   4.435
 7262TIP3    H121727   0.794   4.002   4.360
 7262TIP3    H221728   0.758   3.930   4.488
 7263TIP3   OH221729   2.157   1.482   0.591
 7263TIP3    H121730   2.140   1.399   0.548
 7263TIP3    H221731   2.234   1.517   0.547
 7264TIP3   OH221732   1.170   0.868   0.541
 7264TIP3    H121733   1.075   0.869   0.553
 7264TIP3    H221734   1.183   0.831   0.453
 7265TIP3   OH221735   3.427   3.284   1.517
 7265TIP3    H121736   3.476   3.202   1.518
 7265TIP3    H221737   3.408   3.302   1.610
 7266TIP3   OH221738   3.466   1.297   0.932
 7266TIP3    H121739   3.473   1.387   0.964
 7266TIP3    H221740   3.525   1.294   0.857
 7267TIP3   OH221741   2.794   0.415   2.462
 7267TIP3    H121742   2.814   0.502   2.427
 7267TIP3    H221743   2.865   0.359   2.429
 7268TIP3   OH221744   6.211   6.947   3.861
 7268TIP3    H121745   6.122   6.982   3.871
 7268TIP3    H221746   6.222   6.935   3.766
 7269TIP3   OH221747   5.285   7.354   2.215
 7269TIP3    H121748   5.230   7.315   2.283
 7269TIP3    H221749   5.259   7.446   2.213
 7270TIP3   OH221750   8.224   7.182   0.032
 7270TIP3    H121751   8.201   7.090   0.022
 7270TIP3    H221752   8.199   7.203   0.122
 7271TIP3   OH221753   3.763   2.657   4.950
 7271TIP3    H121754   3.850   2.695   4.961
 7271TIP3    H221755   3.774   2.564   4.968
 7272TIP3   OH221756   3.795   5.530   3.336
 7272TIP3    H121757   3.822   5.501   3.249
 7272TIP3    H221758   3.869   5.581   3.368
 7273TIP3   OH221759   2.655   0.978   4.369
 7273TIP3    H121760   2.570   1.018   4.383
 7273TIP3    H221761   2.696   1.032   4.301
 7274TIP3   OH221762   7.375   0.834   0.272
 7274TIP3    H121763   7.415   0.804   0.190
 7274TIP3    H221764   7.288   0.865   0.247
 7275TIP3   OH221765   5.601   6.853   4.796
 7275TIP3    H121766   5.664   6.790   4.761
 7275TIP3    H221767   5.655   6.921   4.836
 7276TIP3   OH221768   1.337   6.229   2.419
 7276TIP3    H121769   1.383   6.145   2.412
 7276TIP3    H221770   1.313   6.235   2.511
 7277TIP3   OH221771   7.555   7.106   5.928
 7277TIP3    H121772   7.629   7.103   5.989
 7277TIP3    H221773   7.539   7.014   5.905
 7278TIP3   OH221774   3.022   6.482   5.902
 7278TIP3    H121775   3.077   6.447   5.972
 7278TIP3    H221776   3.080   6.539   5.852
 7279TIP3   OH221777   0.830   5.749   2.671
 7279TIP3    H121778   0.817   5.833   2.716
 7279TIP3    H221779   0.877   5.771   2.591
 7280TIP3   OH221780   6.821   0.425   0.854
 7280TIP3    H121781   6.838   0.518   0.869
 7280TIP3    H221782   6.778   0.421   0.769
 7281TIP3   OH221783   0.201   1.962   3.623
 7281TIP3    H121784   0.198   2.010   3.706
 7281TIP3    H221785   0.142   2.010   3.565
 7282TIP3   OH221786   6.775   4.440   6.058
 7282TIP3    H121787   6.720   4.410   6.130
 7282TIP3    H221788   6.794   4.532   6.078
 7283TIP3   OH221789   1.720   6.598   5.127
 7283TIP3    H121790   1.649   6.534   5.118
 7283TIP3    H221791   1.691   6.674   5.077
 7284TIP3   OH221792   5.913   4.506   1.181
 7284TIP3    H121793   5.926   4.496   1.275
 7284TIP3    H221794   5.922   4.600   1.165
 7285TIP3   OH221795   8.155   1.788   6.639
 7285TIP3    H121796   8.108   1.830   6.711
 7285TIP3    H221797   8.133   1.840   6.562
 7286TIP3   OH221798   7.778   5.081   3.850
 7286TIP3    H121799   7.734   5.164   3.868
 7286TIP3    H221800   7.710   5.027   3.808
 7287TIP3   OH221801   2.469   3.727   5.349
 7287TIP3    H121802   2.495   3.782   5.275
 7287TIP3    H221803   2.410   3.663   5.310
 7288TIP3   OH221804   0.393   0.540   2.037
 7288TIP3    H121805   0.320   0.487   2.069
 7288TIP3    H221806   0.445   0.559   2.115
 7289TIP3   OH221807   3.859   7.591   3.842
 7289TIP3    H121808   3.838   7.663   3.783
 7289TIP3    H221809   3.774   7.566   3.880
 7290TIP3   OH221810   2.617   6.625   3.403
 7290TIP3    H121811   2.609   6.715   3.436
 7290TIP3    H221812   2.700   6.625   3.355
 7291TIP3   OH221813   8.056   5.929   0.794
 7291TIP3    H121814   8.150   5.940   0.803
 7291TIP3    H221815   8.038   5.946   0.702
 7292TIP3   OH221816   1.519   1.782   0.119
 7292TIP3    H121817   1.596   1.807   0.069
 7292TIP3    H221818   1.512   1.849   0.188
 7293TIP3   OH221819   5.153   1.784   4.077
 7293TIP3    H121820   5.131   1.692   4.063
 7293TIP3    H221821   5.077   1.820   4.123
 7294TIP3   OH221822   7.312   5.067   4.270
 7294TIP3    H121823   7.228   5.022   4.258
 7294TIP3    H221824   7.309   5.098   4.361
 7295TIP3   OH221825   7.938   6.109   6.768
 7295TIP3    H121826   8.002   6.078   6.831
 7295TIP3    H221827   7.948   6.051   6.692
 7296TIP3   OH221828   5.275   4.086   5.465
 7296TIP3    H121829   5.208   4.112   5.528
 7296TIP3    H221830   5.350   4.061   5.519
 7297TIP3   OH221831   1.699   2.804   3.854
 7297TIP3    H121832   1.622   2.805   3.911
 7297TIP3    H221833   1.765   2.756   3.904
 7298TIP3   OH221834   6.444   4.058   4.034
 7298TIP3    H121835   6.401   4.065   4.120
 7298TIP3    H221836   6.390   3.996   3.985
 7299TIP3   OH221837   2.921   7.795   6.366
 7299TIP3    H121838   2.945   7.838   6.448
 7299TIP3    H221839   3.003   7.761   6.332
 7300TIP3   OH221840   1.947   3.855   1.313
 7300TIP3    H121841   1.957   3.762   1.331
 7300TIP3    H221842   1.924   3.859   1.220
 7301TIP3   OH221843   4.395   2.154   5.583
 7301TIP3    H121844   4.422   2.207   5.658
 7301TIP3    H221845   4.449   2.187   5.511
 7302TIP3   OH221846   1.827   4.309   4.900
 7302TIP3    H121847   1.859   4.399   4.888
 7302TIP3    H221848   1.851   4.288   4.990
 7303TIP3   OH221849   7.461   5.483   2.372
 7303TIP3    H121850   7.410   5.562   2.359
 7303TIP3    H221851   7.396   5.414   2.383
 7304TIP3   OH221852   4.923   0.847   2.340
 7304TIP3    H121853   4.959   0.780   2.281
 7304TIP3    H221854   4.952   0.930   2.303
 7305TIP3   OH221855   4.314   2.346   3.788
 7305TIP3    H121856   4.391   2.391   3.754
 7305TIP3    H221857   4.250   2.415   3.806
 7306TIP3   OH221858   4.422   5.906   4.652
 7306TIP3    H121859   4.464   5.915   4.566
 7306TIP3    H221860   4.331   5.931   4.637
 7307TIP3   OH221861   7.147   3.742   4.216
 7307TIP3    H121862   7.102   3.659   4.200
 7307TIP3    H221863   7.239   3.723   4.200
 7308TIP3   OH221864   8.274   5.938   5.564
 7308TIP3    H121865   8.260   5.845   5.580
 7308TIP3    H221866   8.304   5.943   5.473
 7309TIP3   OH221867   1.634   4.851   2.743
 7309TIP3    H121868   1.697   4.915   2.776
 7309TIP3    H221869   1.666   4.767   2.776
 7310TIP3   OH221870   5.939   3.173   5.131
 7310TIP3    H121871   5.934   3.171   5.036
 7310TIP3    H221872   5.879   3.243   5.157
 7311TIP3   OH221873   3.707   4.856   6.805
 7311TIP3    H121874   3.646   4.783   6.814
 7311TIP3    H221875   3.790   4.821   6.836
 7312TIP3   OH221876   1.970   3.510   2.911
 7312TIP3    H121877   1.919   3.591   2.912
 7312TIP3    H221878   2.006   3.506   2.822
 7313TIP3   OH221879   3.824   2.000   4.379
 7313TIP3    H121880   3.805   1.909   4.358
 7313TIP3    H221881   3.799   2.010   4.471
 7314TIP3   OH221882   8.114   4.247   5.661
 7314TIP3    H121883   8.098   4.162   5.620
 7314TIP3    H221884   8.206   4.266   5.643
 7315TIP3   OH221885   4.156   0.713   2.255
 7315TIP3    H121886   4.112   0.721   2.171
 7315TIP3    H221887   4.234   0.769   2.247
 7316TIP3   OH221888   1.942   1.228   0.101
 7316TIP3    H121889   1.996   1.191   0.031
 7316TIP3    H221890   1.910   1.311   0.064
 7317TIP3   OH221891   0.511   5.355   4.054
 7317TIP3    H121892   0.582   5.315   4.104
 7317TIP3    H221893   0.441   5.368   4.118
 7318TIP3   OH221894   7.931   3.550   5.189
 7318TIP3    H121895   7.986   3.601   5.248
 7318TIP3    H221896   7.937   3.596   5.105
 7319TIP3   OH221897   0.384   3.845   4.887
 7319TIP3    H121898   0.303   3.806   4.856
 7319TIP3    H221899   0.361   3.936   4.907
 7320TIP3   OH221900   3.686   5.802   0.738
 7320TIP3    H121901   3.657   5.886   0.774
 7320TIP3    H221902   3.773   5.819   0.703
 7321TIP3   OH221903   1.428   0.468   3.645
 7321TIP3    H121904   1.462   0.484   3.557
 7321TIP3    H221905   1.382   0.548   3.668
 7322TIP3   OH221906   1.612   3.008   4.516
 7322TIP3    H121907   1.668   2.953   4.461
 7322TIP3    H221908   1.543   2.949   4.547
 7323TIP3   OH221909   2.464   7.921   6.683
 7323TIP3    H121910   2.466   7.831   6.649
 7323TIP3    H221911   2.461   7.976   6.605
 7324TIP3   OH221912   6.452   3.264   2.907
 7324TIP3    H121913   6.499   3.337   2.947
 7324TIP3    H221914   6.366   3.264   2.949
 7325TIP3   OH221915   6.167   1.211   0.763
 7325TIP3    H121916   6.115   1.287   0.789
 7325TIP3    H221917   6.126   1.179   0.683
 7326TIP3   OH221918   3.799   3.364   0.432
 7326TIP3    H121919   3.803   3.335   0.341
 7326TIP3    H221920   3.761   3.452   0.427
 7327TIP3   OH221921   5.020   7.297   0.957
 7327TIP3    H121922   5.101   7.332   0.920
 7327TIP3    H221923   4.985   7.241   0.887
 7328TIP3   OH221924   3.804   2.009   2.342
 7328TIP3    H121925   3.891   1.988   2.374
 7328TIP3    H221926   3.808   1.992   2.248
 7329TIP3   OH221927   0.859   4.703   5.566
 7329TIP3    H121928   0.938   4.654   5.545
 7329TIP3    H221929   0.872   4.732   5.657
 7330TIP3   OH221930   0.251   3.182   0.778
 7330TIP3    H121931   0.157   3.167   0.788
 7330TIP3    H221932   0.292   3.106   0.819
 7331TIP3   OH221933   4.087   1.514   6.113
 7331TIP3    H121934   4.150   1.536   6.044
 7331TIP3    H221935   4.074   1.596   6.160
 7332TIP3   OH221936   5.839   2.585   0.788
 7332TIP3    H121937   5.925   2.607   0.752
 7332TIP3    H221938   5.826   2.493   0.765
 7333TIP3   OH221939   1.286   5.275   2.079
 7333TIP3    H121940   1.317   5.241   1.995
 7333TIP3    H221941   1.205   5.321   2.057
 7334TIP3   OH221942   0.090   3.832   6.028
 7334TIP3    H121943   0.040   3.897   5.978
 7334TIP3    H221944   0.128   3.882   6.101
 7335TIP3   OH221945   1.831   6.186   2.843
 7335TIP3    H121946   1.752   6.135   2.826
 7335TIP3    H221947   1.851   6.228   2.760
 7336TIP3   OH221948   2.617   4.216   1.578
 7336TIP3    H121949   2.565   4.284   1.620
 7336TIP3    H221950   2.590   4.135   1.622
 7337TIP3   OH221951   8.399   4.960   4.045
 7337TIP3    H121952   8.416   4.898   3.975
 7337TIP3    H221953   8.331   4.919   4.098
 7338TIP3   OH221954   4.745   0.184   3.865
 7338TIP3    H121955   4.694   0.105   3.848
 7338TIP3    H221956   4.702   0.252   3.814
 7339TIP3   OH221957   1.616   2.677   0.214
 7339TIP3    H121958   1.565   2.749   0.178
 7339TIP3    H221959   1.703   2.714   0.231
 7340TIP3   OH221960   3.804   7.542   3.478
 7340TIP3    H121961   3.787   7.623   3.429
 7340TIP3    H221962   3.718   7.503   3.490
 7341TIP3   OH221963   2.956   0.579   4.898
 7341TIP3    H121964   3.046   0.607   4.883
 7341TIP3    H221965   2.925   0.635   4.969
 7342TIP3   OH221966   4.211   7.384   5.692
 7342TIP3    H121967   4.182   7.469   5.725
 7342TIP3    H221968   4.300   7.400   5.661
 7343TIP3   OH221969   2.920   1.769   3.079
 7343TIP3    H121970   2.937   1.819   3.160
 7343TIP3    H221971   2.998   1.715   3.068
 7344TIP3   OH221972   8.277   0.401   4.715
 7344TIP3    H121973   8.275   0.494   4.692
 7344TIP3    H221974   8.252   0.398   4.807
 7345TIP3   OH221975   0.055   2.261   5.484
 7345TIP3    H121976   0.111   2.275   5.407
 7345TIP3    H221977   0.074   2.336   5.541
 7346TIP3   OH221978   3.750   4.250   2.892
 7346TIP3    H121979   3.715   4.317   2.950
 7346TIP3    H221980   3.736   4.168   2.939
 7347TIP3   OH221981   3.213   2.649   5.900
 7347TIP3    H121982   3.128   2.609   5.917
 7347TIP3    H221983   3.241   2.684   5.984
 7348TIP3   OH221984   7.865   7.531   0.866
 7348TIP3    H121985   7.845   7.624   0.866
 7348TIP3    H221986   7.796   7.492   0.811
 7349TIP3   OH221987   0.192   0.476   2.249
 7349TIP3    H121988   0.175   0.513   2.336
 7349TIP3    H221989   0.204   0.382   2.266
 7350TIP3   OH221990   0.570   1.874   6.186
 7350TIP3    H121991   0.535   1.857   6.098
 7350TIP3    H221992   0.518   1.818   6.243
 7351TIP3   OH221993   5.965   3.181   3.628
 7351TIP3    H121994   6.015   3.261   3.645
 7351TIP3    H221995   5.896   3.209   3.568
 7352TIP3   OH221996   6.653   7.236   2.515
 7352TIP3    H121997   6.586   7.263   2.578
 7352TIP3    H221998   6.690   7.318   2.483
 7353TIP3   OH221999   6.899   1.593   5.259
 7353TIP3    H122000   6.815   1.630   5.233
 7353TIP3    H222001   6.954   1.601   5.182
 7354TIP3   OH222002   4.033   5.265   2.539
 7354TIP3    H122003   4.001   5.351   2.511
 7354TIP3    H222004   4.013   5.207   2.466
 7355TIP3   OH222005   5.749   4.869   3.229
 7355TIP3    H122006   5.658   4.891   3.247
 7355TIP3    H222007   5.791   4.954   3.213
 7356TIP3   OH222008   5.490   0.922   4.864
 7356TIP3    H122009   5.399   0.940   4.840
 7356TIP3    H222010   5.492   0.829   4.885
 7357TIP3   OH222011   5.478   3.757   2.489
 7357TIP3    H122012   5.407   3.799   2.537
 7357TIP3    H222013   5.529   3.830   2.453
 7358TIP3   OH222014   5.566   5.506   0.325
 7358TIP3    H122015   5.484   5.523   0.372
 7358TIP3    H222016   5.633   5.551   0.375
 7359TIP3   OH222017   2.500   1.108   0.989
 7359TIP3    H122018   2.494   1.182   1.049
 7359TIP3    H222019   2.570   1.053   1.025
 7360TIP3   OH222020   2.033   0.379   0.051
 7360TIP3    H122021   2.099   0.448   0.051
 7360TIP3    H222022   1.973   0.403  -0.020
 7361TIP3   OH222023   1.534   2.629   4.464
 7361TIP3    H122024   1.617   2.671   4.491
 7361TIP3    H222025   1.469   2.664   4.525
 7362TIP3   OH222026   6.731   2.031   0.865
 7362TIP3    H122027   6.656   2.065   0.817
 7362TIP3    H222028   6.693   1.974   0.932
 7363TIP3   OH222029   7.404   5.076   3.381
 7363TIP3    H122030   7.376   5.012   3.316
 7363TIP3    H222031   7.473   5.127   3.338
 7364TIP3   OH222032   8.064   0.853   0.810
 7364TIP3    H122033   8.118   0.774   0.818
 7364TIP3    H222034   7.993   0.827   0.751
 7365TIP3   OH222035   3.392   1.106   0.627
 7365TIP3    H122036   3.331   1.129   0.696
 7365TIP3    H222037   3.364   1.019   0.598
 7366TIP3   OH222038   1.541   4.389   5.814
 7366TIP3    H122039   1.595   4.417   5.741
 7366TIP3    H222040   1.548   4.293   5.813
 7367TIP3   OH222041   0.990   2.123   1.828
 7367TIP3    H122042   0.909   2.120   1.778
 7367TIP3    H222043   1.050   2.066   1.780
 7368TIP3   OH222044   4.194   3.872   4.942
 7368TIP3    H122045   4.131   3.925   4.991
 7368TIP3    H222046   4.209   3.795   4.997
 7369TIP3   OH222047   2.248   5.866   2.580
 7369TIP3    H122048   2.274   5.775   2.595
 7369TIP3    H222049   2.202   5.890   2.660
 7370TIP3   OH222050   7.697   0.997   5.602
 7370TIP3    H122051   7.778   0.980   5.649
 7370TIP3    H222052   7.648   0.914   5.608
 7371TIP3   OH222053   0.282   3.090   2.364
 7371TIP3    H122054   0.189   3.109   2.376
 7371TIP3    H222055   0.286   3.038   2.284
 7372TIP3   OH222056   2.970   5.252   3.833
 7372TIP3    H122057   2.965   5.179   3.770
 7372TIP3    H222058   3.043   5.229   3.890
 7373TIP3   OH222059   1.336   2.705   1.139
 7373TIP3    H122060   1.266   2.701   1.074
 7373TIP3    H222061   1.412   2.665   1.095
 7374TIP3   OH222062   8.201   1.575   2.998
 7374TIP3    H122063   8.120   1.537   2.964
 7374TIP3    H222064   8.201   1.552   3.091
 7375TIP3   OH222065   8.078   3.309   4.785
 7375TIP3    H122066   8.113   3.361   4.857
 7375TIP3    H222067   8.078   3.219   4.818
 7376TIP3   OH222068   2.859   6.803   5.794
 7376TIP3    H122069   2.792   6.851   5.841
 7376TIP3    H222070   2.928   6.788   5.859
 7377TIP3   OH222071   8.257   7.375   1.707
 7377TIP3    H122072   8.212   7.454   1.736
 7377TIP3    H222073   8.216   7.304   1.757
 7378TIP3   OH222074   7.105   0.332   1.495
 7378TIP3    H122075   7.186   0.293   1.528
 7378TIP3    H222076   7.081   0.398   1.561
 7379TIP3   OH222077   6.218   2.121   1.243
 7379TIP3    H122078   6.274   2.199   1.247
 7379TIP3    H222079   6.180   2.115   1.331
 7380TIP3   OH222080   1.424   4.046   3.394
 7380TIP3    H122081   1.369   3.981   3.436
 7380TIP3    H222082   1.486   3.996   3.341
 7381TIP3   OH222083   1.082   2.351   3.779
 7381TIP3    H122084   1.072   2.389   3.691
 7381TIP3    H222085   1.177   2.345   3.791
 7382TIP3   OH222086   7.700   7.310   3.948
 7382TIP3    H122087   7.644   7.343   3.878
 7382TIP3    H222088   7.745   7.235   3.909
 7383TIP3   OH222089   5.645   1.845   0.091
 7383TIP3    H122090   5.645   1.936   0.123
 7383TIP3    H222091   5.726   1.808   0.126
 7384TIP3   OH222092   5.228   6.031   4.839
 7384TIP3    H122093   5.138   6.020   4.870
 7384TIP3    H222094   5.271   6.078   4.911
 7385TIP3   OH222095   7.837   6.744   5.454
 7385TIP3    H122096   7.801   6.762   5.541
 7385TIP3    H222097   7.921   6.789   5.452
 7386TIP3   OH222098   5.286   4.938   0.395
 7386TIP3    H122099   5.354   4.980   0.342
 7386TIP3    H222100   5.209   4.937   0.338
 7387TIP3   OH222101   8.272   1.740   3.504
 7387TIP3    H122102   8.238   1.822   3.539
 7387TIP3    H222103   8.360   1.732   3.542
 7388TIP3   OH222104   7.990   7.684   6.552
 7388TIP3    H122105   7.959   7.730   6.630
 7388TIP3    H222106   8.037   7.608   6.585
 7389TIP3   OH222107   3.205   1.896   2.445
 7389TIP3    H122108   3.244   1.809   2.450
 7389TIP3    H222109   3.238   1.942   2.522
 7390TIP3   OH222110   1.559   5.874   2.312
 7390TIP3    H122111   1.514   5.881   2.227
 7390TIP3    H222112   1.588   5.783   2.316
 7391TIP3   OH222113   5.874   7.875   2.941
 7391TIP3    H122114   5.938   7.839   3.003
 7391TIP3    H222115   5.876   7.815   2.867
 7392TIP3   OH222116   6.641   5.530   2.327
 7392TIP3    H122117   6.645   5.533   2.422
 7392TIP3    H222118   6.553   5.560   2.305
 7393TIP3   OH222119   5.880   0.640   0.592
 7393TIP3    H122120   5.872   0.567   0.530
 7393TIP3    H222121   5.936   0.606   0.662
 7394TIP3   OH222122   2.265   1.290   2.894
 7394TIP3    H122123   2.310   1.210   2.866
 7394TIP3    H222124   2.237   1.331   2.812
 7395TIP3   OH222125   2.384   4.333   5.865
 7395TIP3    H122126   2.353   4.282   5.940
 7395TIP3    H222127   2.313   4.327   5.802
 7396TIP3   OH222128   3.665   6.283   4.811
 7396TIP3    H122129   3.718   6.217   4.855
 7396TIP3    H222130   3.642   6.244   4.727
 7397TIP3   OH222131   8.071   2.084   3.125
 7397TIP3    H122132   8.035   2.172   3.114
 7397TIP3    H222133   7.994   2.029   3.141
 7398TIP3   OH222134   1.320   4.264   5.517
 7398TIP3    H122135   1.345   4.352   5.490
 7398TIP3    H222136   1.398   4.211   5.503
 7399TIP3   OH222137   0.243   2.092   5.667
 7399TIP3    H122138   0.284   2.024   5.613
 7399TIP3    H222139   0.153   2.098   5.635
 7400TIP3   OH222140   7.249   4.464   3.686
 7400TIP3    H122141   7.336   4.431   3.708
 7400TIP3    H222142   7.265   4.551   3.649
 7401TIP3   OH222143   1.780   3.983   1.527
 7401TIP3    H122144   1.780   3.899   1.482
 7401TIP3    H222145   1.862   4.025   1.501
 7402TIP3   OH222146   6.314   2.647   0.317
 7402TIP3    H122147   6.403   2.671   0.293
 7402TIP3    H222148   6.325   2.580   0.385
 7403TIP3   OH222149   3.835   2.336   4.591
 7403TIP3    H122150   3.802   2.418   4.554
 7403TIP3    H222151   3.903   2.307   4.530
 7404TIP3   OH222152   0.769   5.005   5.756
 7404TIP3    H122153   0.817   5.007   5.674
 7404TIP3    H222154   0.686   4.963   5.735
 7405TIP3   OH222155   1.899   1.134   6.684
 7405TIP3    H122156   1.812   1.153   6.719
 7405TIP3    H222157   1.912   1.197   6.613
 7406TIP3   OH222158   1.702   3.619   1.892
 7406TIP3    H122159   1.663   3.555   1.833
 7406TIP3    H222160   1.791   3.586   1.907
 7407TIP3   OH222161   4.662   7.389   3.272
 7407TIP3    H122162   4.735   7.380   3.334
 7407TIP3    H222163   4.605   7.455   3.312
 7408TIP3   OH222164   4.523   5.453   3.749
 7408TIP3    H122165   4.598   5.397   3.727
 7408TIP3    H222166   4.545   5.490   3.834
 7409TIP3   OH222167   3.185   2.591   3.032
 7409TIP3    H122168   3.172   2.496   3.035
 7409TIP3    H222169   3.099   2.625   3.008
 7410TIP3   OH222170   2.205   5.417   1.673
 7410TIP3    H122171   2.149   5.494   1.666
 7410TIP3    H222172   2.192   5.371   1.590
 7411TIP3   OH222173   1.598   3.282   2.097
 7411TIP3    H122174   1.675   3.288   2.041
 7411TIP3    H222175   1.600   3.194   2.133
 7412TIP3   OH222176   1.965   6.956   5.891
 7412TIP3    H122177   1.990   7.012   5.818
 7412TIP3    H222178   1.938   6.874   5.851
 7413TIP3   OH222179   6.358   4.190   0.300
 7413TIP3    H122180   6.449   4.160   0.310
 7413TIP3    H222181   6.306   4.110   0.306
 7414TIP3   OH222182   3.634   3.789   2.370
 7414TIP3    H122183   3.564   3.848   2.399
 7414TIP3    H222184   3.714   3.842   2.378
 7415TIP3   OH222185   2.418   7.513   1.343
 7415TIP3    H122186   2.377   7.510   1.257
 7415TIP3    H222187   2.504   7.552   1.328
 7416TIP3   OH222188   5.714   0.242   0.436
 7416TIP3    H122189   5.810   0.244   0.431
 7416TIP3    H222190   5.695   0.247   0.530
 7417TIP3   OH222191   6.377   5.486   0.370
 7417TIP3    H122192   6.367   5.581   0.360
 7417TIP3    H222193   6.467   5.475   0.401
 7418TIP3   OH222194   3.883   5.041   5.592
 7418TIP3    H122195   3.907   4.951   5.572
 7418TIP3    H222196   3.797   5.052   5.551
 7419TIP3   OH222197   2.127   3.153   3.597
 7419TIP3    H122198   2.195   3.220   3.603
 7419TIP3    H222199   2.105   3.150   3.504
 7420TIP3   OH222200   5.967   6.631   4.134
 7420TIP3    H122201   6.032   6.561   4.132
 7420TIP3    H222202   6.018   6.710   4.152
 7421TIP3   OH222203   3.660   4.727   3.785
 7421TIP3    H122204   3.640   4.816   3.813
 7421TIP3    H222205   3.707   4.689   3.859
 7422TIP3   OH222206   6.833   2.508   3.745
 7422TIP3    H122207   6.749   2.481   3.781
 7422TIP3    H222208   6.826   2.493   3.651
 7423TIP3   OH222209   7.747   5.015   6.544
 7423TIP3    H122210   7.804   4.945   6.574
 7423TIP3    H222211   7.663   4.972   6.526
 7424TIP3   OH222212   7.709   4.502   1.296
 7424TIP3    H122213   7.734   4.496   1.388
 7424TIP3    H222214   7.622   4.541   1.297
 7425TIP3   OH222215   5.159   3.963   6.761
 7425TIP3    H122216   5.184   4.015   6.684
 7425TIP3    H222217   5.220   3.989   6.829
 7426TIP3   OH222218   5.679   0.328   1.042
 7426TIP3    H122219   5.730   0.386   0.985
 7426TIP3    H222220   5.661   0.251   0.988
 7427TIP3   OH222221   3.208   0.322   3.823
 7427TIP3    H122222   3.122   0.362   3.830
 7427TIP3    H222223   3.241   0.351   3.737
 7428TIP3   OH222224   7.780   7.596   3.342
 7428TIP3    H122225   7.764   7.656   3.414
 7428TIP3    H222226   7.773   7.651   3.263
 7429TIP3   OH222227   6.600   6.311   0.334
 7429TIP3    H122228   6.686   6.317   0.375
 7429TIP3    H222229   6.538   6.318   0.407
 7430TIP3   OH222230   7.005   2.224   2.784
 7430TIP3    H122231   6.929   2.251   2.836
 7430TIP3    H222232   7.069   2.193   2.849
 7431TIP3   OH222233   1.748   1.269   4.017
 7431TIP3    H122234   1.759   1.262   4.112
 7431TIP3    H222235   1.748   1.179   3.986
 7432TIP3   OH222236   3.156   1.330   0.216
 7432TIP3    H122237   3.202   1.251   0.244
 7432TIP3    H222238   3.123   1.369   0.297
 7433TIP3   OH222239   3.060   5.228   1.106
 7433TIP3    H122240   2.973   5.232   1.146
 7433TIP3    H222241   3.049   5.271   1.021
 7434TIP3   OH222242   6.183   6.623   1.624
 7434TIP3    H122243   6.116   6.573   1.577
 7434TIP3    H222244   6.242   6.655   1.555
 7435TIP3   OH222245   0.045   6.929   4.828
 7435TIP3    H122246   0.139   6.908   4.834
 7435TIP3    H222247   0.029   6.986   4.903
 7436TIP3   OH222248   3.153   4.279   3.250
 7436TIP3    H122249   3.154   4.289   3.155
 7436TIP3    H222250   3.241   4.250   3.272
 7437TIP3   OH222251   2.708   7.156   5.128
 7437TIP3    H122252   2.769   7.121   5.062
 7437TIP3    H222253   2.690   7.082   5.185
 7438TIP3   OH222254   3.904   5.299   2.082
 7438TIP3    H122255   3.951   5.257   2.154
 7438TIP3    H222256   3.902   5.233   2.013
 7439TIP3   OH222257   6.068   4.804   4.996
 7439TIP3    H122258   6.080   4.880   4.939
 7439TIP3    H222259   6.150   4.798   5.045
 7440TIP3   OH222260   7.561   0.789   6.291
 7440TIP3    H122261   7.604   0.867   6.256
 7440TIP3    H222262   7.537   0.813   6.381
 7441TIP3   OH222263   7.547   1.061   6.822
 7441TIP3    H122264   7.549   1.148   6.862
 7441TIP3    H222265   7.619   1.062   6.759
 7442TIP3   OH222266   3.141   5.554   0.491
 7442TIP3    H122267   3.168   5.577   0.402
 7442TIP3    H222268   3.175   5.465   0.504
 7443TIP3   OH222269   3.825   0.573   2.972
 7443TIP3    H122270   3.783   0.656   2.995
 7443TIP3    H222271   3.877   0.594   2.894
 7444TIP3   OH222272   7.304   5.542   1.157
 7444TIP3    H122273   7.286   5.636   1.154
 7444TIP3    H222274   7.333   5.527   1.247
 7445TIP3   OH222275   0.373   7.292   4.151
 7445TIP3    H122276   0.445   7.350   4.176
 7445TIP3    H222277   0.302   7.316   4.212
 7446TIP3   OH222278   0.590   2.832   0.653
 7446TIP3    H122279   0.584   2.902   0.589
 7446TIP3    H222280   0.523   2.853   0.718
 7447TIP3   OH222281   0.313   2.832   5.042
 7447TIP3    H122282   0.340   2.893   5.111
 7447TIP3    H222283   0.220   2.850   5.029
 7448TIP3   OH222284   6.805   4.190   6.235
 7448TIP3    H122285   6.889   4.145   6.241
 7448TIP3    H222286   6.778   4.178   6.144
 7449TIP3   OH222287   5.116   5.892   0.434
 7449TIP3    H122288   5.166   5.878   0.515
 7449TIP3    H222289   5.147   5.977   0.402
 7450TIP3   OH222290   0.675   3.241   2.116
 7450TIP3    H122291   0.626   3.161   2.094
 7450TIP3    H222292   0.722   3.218   2.197
 7451TIP3   OH222293   0.249   2.328   5.816
 7451TIP3    H122294   0.246   2.254   5.756
 7451TIP3    H222295   0.204   2.297   5.895
 7452TIP3   OH222296   1.031   0.458   2.288
 7452TIP3    H122297   0.940   0.441   2.314
 7452TIP3    H222298   1.053   0.540   2.331
 7453TIP3   OH222299   2.943   0.883   4.420
 7453TIP3    H122300   2.943   0.855   4.512
 7453TIP3    H222301   2.919   0.804   4.371
 7454TIP3   OH222302   3.765   5.791   1.178
 7454TIP3    H122303   3.803   5.724   1.234
 7454TIP3    H222304   3.747   5.864   1.237
 7455TIP3   OH222305   3.905   3.737   2.926
 7455TIP3    H122306   3.886   3.677   2.998
 7455TIP3    H222307   3.966   3.801   2.963
 7456TIP3   OH222308   2.507   6.625   3.930
 7456TIP3    H122309   2.538   6.716   3.929
 7456TIP3    H222310   2.503   6.602   4.023
 7457TIP3   OH222311   7.883   3.906   3.255
 7457TIP3    H122312   7.922   3.984   3.216
 7457TIP3    H222313   7.802   3.937   3.295
 7458TIP3   OH222314   8.233   7.680   3.070
 7458TIP3    H122315   8.167   7.618   3.100
 7458TIP3    H222316   8.185   7.760   3.050
 7459TIP3   OH222317   5.464   3.988   4.661
 7459TIP3    H122318   5.450   3.895   4.646
 7459TIP3    H222319   5.389   4.031   4.619
 7460TIP3   OH222320   1.685   6.268   3.877
 7460TIP3    H122321   1.762   6.310   3.839
 7460TIP3    H222322   1.623   6.340   3.891
 7461TIP3   OH222323   3.074   4.869   0.426
 7461TIP3    H122324   3.056   4.962   0.434
 7461TIP3    H222325   3.168   4.864   0.410
 7462TIP3   OH222326   3.619   6.078   3.821
 7462TIP3    H122327   3.612   6.100   3.914
 7462TIP3    H222328   3.618   5.983   3.819
 7463TIP3   OH222329   1.407   5.682   0.187
 7463TIP3    H122330   1.454   5.762   0.161
 7463TIP3    H222331   1.350   5.710   0.259
 7464TIP3   OH222332   7.413   7.535   2.922
 7464TIP3    H122333   7.472   7.602   2.886
 7464TIP3    H222334   7.327   7.578   2.924
 7465TIP3   OH222335   1.326   0.082   5.454
 7465TIP3    H122336   1.265   0.153   5.433
 7465TIP3    H222337   1.270   0.011   5.486
 7466TIP3   OH222338   6.050   5.571   3.324
 7466TIP3    H122339   6.080   5.658   3.347
 7466TIP3    H222340   6.020   5.579   3.233
 7467TIP3   OH222341   6.856   2.699   6.560
 7467TIP3    H122342   6.776   2.677   6.512
 7467TIP3    H222343   6.835   2.677   6.651
 7468TIP3   OH222344   6.255   7.536   3.418
 7468TIP3    H122345   6.174   7.586   3.425
 7468TIP3    H222346   6.310   7.569   3.488
 7469TIP3   OH222347   3.790   0.665   3.505
 7469TIP3    H122348   3.752   0.732   3.563
 7469TIP3    H222349   3.874   0.644   3.547
 7470TIP3   OH222350   6.413   0.021   0.627
 7470TIP3    H122351   6.492  -0.010   0.581
 7470TIP3    H222352   6.444   0.040   0.715
 7471TIP3   OH222353   8.227   2.798   4.245
 7471TIP3    H122354   8.232   2.893   4.254
 7471TIP3    H222355   8.141   2.782   4.205
 7472TIP3   OH222356   5.380   3.006   3.205
 7472TIP3    H122357   5.455   3.030   3.150
 7472TIP3    H222358   5.308   2.994   3.143
 7473TIP3   OH222359   7.791   0.952   6.718
 7473TIP3    H122360   7.858   0.984   6.778
 7473TIP3    H222361   7.839   0.891   6.661
 7474TIP3   OH222362   1.594   0.194   3.378
 7474TIP3    H122363   1.550   0.261   3.326
 7474TIP3    H222364   1.606   0.120   3.319
 7475TIP3   OH222365   7.558   1.313   0.100
 7475TIP3    H122366   7.471   1.333   0.064
 7475TIP3    H222367   7.604   1.397   0.099
 7476TIP3   OH222368   5.172   1.588   6.170
 7476TIP3    H122369   5.119   1.608   6.093
 7476TIP3    H222370   5.249   1.644   6.161
 7477TIP3   OH222371   3.053   4.532   3.369
 7477TIP3    H122372   2.968   4.495   3.391
 7477TIP3    H222373   3.096   4.464   3.316
 7478TIP3   OH222374   4.485   2.649   6.263
 7478TIP3    H122375   4.491   2.600   6.180
 7478TIP3    H222376   4.394   2.677   6.267
 7479TIP3   OH222377   7.233   0.858   6.803
 7479TIP3    H122378   7.265   0.935   6.757
 7479TIP3    H222379   7.258   0.784   6.748
 7480TIP3   OH222380   7.184   4.648   1.283
 7480TIP3    H122381   7.220   4.677   1.199
 7480TIP3    H222382   7.115   4.587   1.259
 7481TIP3   OH222383   7.073   3.124   0.616
 7481TIP3    H122384   7.163   3.101   0.639
 7481TIP3    H222385   7.056   3.206   0.661
 7482TIP3   OH222386   1.836   3.411   3.130
 7482TIP3    H122387   1.891   3.439   3.057
 7482TIP3    H222388   1.758   3.465   3.124
 7483TIP3   OH222389   6.623   7.050   2.766
 7483TIP3    H122390   6.574   6.979   2.725
 7483TIP3    H222391   6.576   7.129   2.739
 7484TIP3   OH222392   6.955   4.766   3.057
 7484TIP3    H122393   7.034   4.714   3.038
 7484TIP3    H222394   6.972   4.804   3.144
 7485TIP3   OH222395   5.874   7.630   0.990
 7485TIP3    H122396   5.823   7.579   0.926
 7485TIP3    H222397   5.822   7.709   1.003
 7486TIP3   OH222398   2.212   1.167   6.231
 7486TIP3    H122399   2.185   1.201   6.146
 7486TIP3    H222400   2.261   1.239   6.272
 7487TIP3   OH222401   5.841   5.128   4.856
 7487TIP3    H122402   5.908   5.104   4.792
 7487TIP3    H222403   5.839   5.055   4.917
 7488TIP3   OH222404   4.901   4.494   0.650
 7488TIP3    H122405   4.835   4.561   0.636
 7488TIP3    H222406   4.851   4.417   0.677
 7489TIP3   OH222407   7.996   1.689   3.807
 7489TIP3    H122408   8.090   1.673   3.800
 7489TIP3    H222409   7.988   1.762   3.868
 7490TIP3   OH222410   7.528   2.518   3.732
 7490TIP3    H122411   7.514   2.505   3.826
 7490TIP3    H222412   7.476   2.595   3.711
 7491TIP3   OH222413   0.442   3.054   0.041
 7491TIP3    H122414   0.486   3.003   0.109
 7491TIP3    H222415   0.502   3.127   0.024
 7492TIP3   OH222416   3.786   4.013   4.820
 7492TIP3    H122417   3.861   3.955   4.830
 7492TIP3    H222418   3.781   4.060   4.903
 7493TIP3   OH222419   2.110   6.441   1.964
 7493TIP3    H122420   2.095   6.533   1.983
 7493TIP3    H222421   2.156   6.408   2.041
 7494TIP3   OH222422   7.878   2.881   3.215
 7494TIP3    H122423   7.856   2.806   3.160
 7494TIP3    H222424   7.795   2.929   3.223
 7495TIP3   OH222425   5.596   7.845   5.981
 7495TIP3    H122426   5.629   7.934   5.985
 7495TIP3    H222427   5.674   7.791   5.967
 7496TIP3   OH222428   1.217   7.412   3.793
 7496TIP3    H122429   1.283   7.349   3.765
 7496TIP3    H222430   1.242   7.494   3.749
 7497TIP3   OH222431   3.454   0.382   2.774
 7497TIP3    H122432   3.511   0.408   2.702
 7497TIP3    H222433   3.373   0.354   2.731
 7498TIP3   OH222434   1.759   1.940   5.774
 7498TIP3    H122435   1.847   1.948   5.811
 7498TIP3    H222436   1.773   1.941   5.679
 7499TIP3   OH222437   0.952   3.050   0.393
 7499TIP3    H122438   0.990   3.128   0.434
 7499TIP3    H222439   0.927   3.079   0.305
 7500TIP3   OH222440   1.509   3.061   5.831
 7500TIP3    H122441   1.472   3.134   5.781
 7500TIP3    H222442   1.483   3.078   5.922
 7501TIP3   OH222443   1.670   1.372   4.541
 7501TIP3    H122444   1.706   1.460   4.555
 7501TIP3    H222445   1.577   1.381   4.559
 7502TIP3   OH222446   7.610   5.192   6.044
 7502TIP3    H122447   7.568   5.240   6.115
 7502TIP3    H222448   7.563   5.219   5.965
 7503TIP3   OH222449   1.539   6.076   5.018
 7503TIP3    H122450   1.572   6.111   4.936
 7503TIP3    H222451   1.493   5.996   4.993
 7504TIP3   OH222452   7.614   2.982   3.659
 7504TIP3    H122453   7.566   2.923   3.718
 7504TIP3    H222454   7.559   2.987   3.581
 7505TIP3   OH222455   3.251   0.764   6.503
 7505TIP3    H122456   3.170   0.716   6.491
 7505TIP3    H222457   3.224   0.855   6.516
 7506TIP3   OH222458   1.442   4.797   6.495
 7506TIP3    H122459   1.403   4.884   6.490
 7506TIP3    H222460   1.527   4.806   6.453
 7507TIP3   OH222461   3.679   3.239   4.577
 7507TIP3    H122462   3.769   3.245   4.546
 7507TIP3    H222463   3.642   3.166   4.529
 7508TIP3   OH222464   8.340   6.549   5.364
 7508TIP3    H122465   8.370   6.550   5.455
 7508TIP3    H222466   8.420   6.537   5.312
 7509TIP3   OH222467   7.655   4.809   2.280
 7509TIP3    H122468   7.737   4.790   2.235
 7509TIP3    H222469   7.598   4.735   2.261
 7510TIP3   OH222470   3.067   3.544   0.425
 7510TIP3    H122471   2.992   3.551   0.366
 7510TIP3    H222472   3.119   3.623   0.407
 7511TIP3   OH222473   0.291   4.849   5.642
 7511TIP3    H122474   0.206   4.887   5.620
 7511TIP3    H222475   0.281   4.755   5.626
 7512TIP3   OH222476   2.725   4.374   4.518
 7512TIP3    H122477   2.717   4.320   4.439
 7512TIP3    H222478   2.818   4.395   4.523
 7513TIP3   OH222479   0.816   2.597   4.398
 7513TIP3    H122480   0.874   2.570   4.326
 7513TIP3    H222481   0.747   2.531   4.399
 7514TIP3   OH222482   4.084   2.657   5.334
 7514TIP3    H122483   4.007   2.713   5.320
 7514TIP3    H222484   4.053   2.588   5.392
 7515TIP3   OH222485   2.175   6.775   4.070
 7515TIP3    H122486   2.240   6.840   4.097
 7515TIP3    H222487   2.116   6.768   4.145
 7516TIP3   OH222488   6.932   4.410   4.941
 7516TIP3    H122489   6.928   4.315   4.938
 7516TIP3    H222490   6.969   4.436   4.857
 7517TIP3   OH222491   0.235   3.905   6.224
 7517TIP3    H122492   0.178   3.841   6.267
 7517TIP3    H222493   0.252   3.971   6.291
 7518TIP3   OH222494   4.899   6.344   0.637
 7518TIP3    H122495   4.994   6.349   0.631
 7518TIP3    H222496   4.882   6.272   0.698
 7519TIP3   OH222497   7.038   5.350   1.816
 7519TIP3    H122498   7.068   5.371   1.904
 7519TIP3    H222499   6.981   5.423   1.791
 7520TIP3   OH222500   7.689   2.954   6.038
 7520TIP3    H122501   7.642   2.992   6.112
 7520TIP3    H222502   7.693   2.860   6.057
 7521TIP3   OH222503   2.750   6.849   4.173
 7521TIP3    H122504   2.809   6.856   4.248
 7521TIP3    H222505   2.774   6.767   4.131
 7522TIP3   OH222506   6.905   7.015   6.445
 7522TIP3    H122507   6.911   7.045   6.354
 7522TIP3    H222508   6.995   7.017   6.476
 7523TIP3   OH222509   6.729   1.895   6.010
 7523TIP3    H122510   6.759   1.932   5.927
 7523TIP3    H222511   6.796   1.830   6.032
 7524TIP3   OH222512   4.097   3.278   5.414
 7524TIP3    H122513   4.169   3.298   5.473
 7524TIP3    H222514   4.020   3.317   5.456
 7525TIP3   OH222515   5.226   2.175   2.061
 7525TIP3    H122516   5.143   2.220   2.047
 7525TIP3    H222517   5.278   2.236   2.113
 7526TIP3   OH222518   2.592   3.163   3.546
 7526TIP3    H122519   2.577   3.171   3.452
 7526TIP3    H222520   2.569   3.072   3.566
 7527TIP3   OH222521   4.102   6.187   4.941
 7527TIP3    H122522   4.188   6.204   4.978
 7527TIP3    H222523   4.109   6.217   4.850
 7528TIP3   OH222524   1.008   2.103   2.958
 7528TIP3    H122525   0.957   2.050   3.019
 7528TIP3    H222526   0.960   2.096   2.875
 7529TIP3   OH222527  -0.011   3.855   5.576
 7529TIP3    H122528  -0.001   3.901   5.659
 7529TIP3    H222529   0.015   3.765   5.595
 7530TIP3   OH222530   3.569   6.835   6.013
 7530TIP3    H122531   3.516   6.760   5.986
 7530TIP3    H222532   3.542   6.852   6.104
 7531TIP3   OH222533   0.280   2.269   3.470
 7531TIP3    H122534   0.186   2.274   3.486
 7531TIP3    H222535   0.296   2.178   3.445
 7532TIP3   OH222536   6.190   6.925   5.125
 7532TIP3    H122537   6.259   6.915   5.059
 7532TIP3    H222538   6.115   6.880   5.087
 7533TIP3   OH222539   4.247   0.616   1.585
 7533TIP3    H122540   4.319   0.630   1.647
 7533TIP3    H222541   4.267   0.533   1.544
 7534TIP3   OH222542   1.337   0.707   5.246
 7534TIP3    H122543   1.348   0.753   5.329
 7534TIP3    H222544   1.422   0.717   5.202
 7535TIP3   OH222545   6.279   5.271   6.488
 7535TIP3    H122546   6.262   5.338   6.555
 7535TIP3    H222547   6.193   5.249   6.454
 7536TIP3   OH222548   6.553   2.010   1.302
 7536TIP3    H122549   6.548   2.056   1.386
 7536TIP3    H222550   6.566   1.918   1.325
 7537TIP3   OH222551   4.226   3.000   6.161
 7537TIP3    H122552   4.220   2.905   6.154
 7537TIP3    H222553   4.318   3.020   6.144
 7538TIP3   OH222554   7.930   5.386   0.841
 7538TIP3    H122555   8.011   5.397   0.790
 7538TIP3    H222556   7.885   5.313   0.799
 7539TIP3   OH222557   2.301   1.751   1.659
 7539TIP3    H122558   2.353   1.820   1.618
 7539TIP3    H222559   2.220   1.794   1.686
 7540TIP3   OH222560   8.224   5.997   5.892
 7540TIP3    H122561   8.273   6.075   5.867
 7540TIP3    H222562   8.165   5.981   5.818
 7541TIP3   OH222563   4.239   4.928   2.685
 7541TIP3    H122564   4.324   4.903   2.721
 7541TIP3    H222565   4.183   4.853   2.703
 7542TIP3   OH222566   6.465   6.666   3.827
 7542TIP3    H122567   6.552   6.706   3.830
 7542TIP3    H222568   6.415   6.710   3.895
 7543TIP3   OH222569   0.519   0.093   4.969
 7543TIP3    H122570   0.553   0.099   4.879
 7543TIP3    H222571   0.569   0.160   5.017
 7544TIP3   OH222572   5.018   1.792   3.101
 7544TIP3    H122573   4.943   1.838   3.138
 7544TIP3    H222574   5.016   1.812   3.008
 7545TIP3   OH222575   2.244   1.240   5.694
 7545TIP3    H122576   2.216   1.298   5.623
 7545TIP3    H222577   2.339   1.240   5.689
 7546TIP3   OH222578   5.234   6.397   1.205
 7546TIP3    H122579   5.275   6.311   1.192
 7546TIP3    H222580   5.166   6.401   1.138
 7547TIP3   OH222581   2.851   1.360   5.759
 7547TIP3    H122582   2.769   1.311   5.759
 7547TIP3    H222583   2.903   1.320   5.829
 7548TIP3   OH222584   4.859   6.186   6.277
 7548TIP3    H122585   4.859   6.137   6.195
 7548TIP3    H222586   4.771   6.223   6.282
 7549TIP3   OH222587   1.226   2.382   6.269
 7549TIP3    H122588   1.229   2.469   6.229
 7549TIP3    H222589   1.216   2.399   6.362
 7550TIP3   OH222590   3.833   1.039   4.611
 7550TIP3    H122591   3.900   0.995   4.558
 7550TIP3    H222592   3.860   1.021   4.701
 7551TIP3   OH222593   2.970   4.897   1.553
 7551TIP3    H122594   2.998   4.968   1.495
 7551TIP3    H222595   2.910   4.938   1.615
 7552TIP3   OH222596   1.379   5.840   2.755
 7552TIP3    H122597   1.438   5.851   2.681
 7552TIP3    H222598   1.293   5.825   2.715
 7553TIP3   OH222599   1.409   3.078   1.985
 7553TIP3    H122600   1.496   3.059   2.021
 7553TIP3    H222601   1.362   3.123   2.056
 7554TIP3   OH222602   8.415   1.630   1.750
 7554TIP3    H122603   8.381   1.714   1.720
 7554TIP3    H222604   8.375   1.566   1.691
 7555TIP3   OH222605   4.120   6.479   6.040
 7555TIP3    H122606   4.163   6.501   6.124
 7555TIP3    H222607   4.027   6.493   6.056
 7556TIP3   OH222608   8.343   2.304   4.843
 7556TIP3    H122609   8.327   2.221   4.889
 7556TIP3    H222610   8.300   2.293   4.758
 7557TIP3   OH222611   4.053   0.400   0.800
 7557TIP3    H122612   4.083   0.490   0.790
 7557TIP3    H222613   3.970   0.397   0.752
 7558TIP3   OH222614   0.476   4.248   3.638
 7558TIP3    H122615   0.556   4.281   3.596
 7558TIP3    H222616   0.440   4.323   3.684
 7559TIP3   OH222617   3.007   6.667   2.952
 7559TIP3    H122618   3.037   6.697   3.038
 7559TIP3    H222619   2.967   6.745   2.913
 7560TIP3   OH222620   8.373   6.716   4.385
 7560TIP3    H122621   8.311   6.777   4.346
 7560TIP3    H222622   8.383   6.647   4.320
 7561TIP3   OH222623   1.191   7.680   3.694
 7561TIP3    H122624   1.260   7.731   3.736
 7561TIP3    H222625   1.197   7.705   3.601
 7562TIP3   OH222626   2.846   7.224   5.865
 7562TIP3    H122627   2.788   7.281   5.814
 7562TIP3    H222628   2.787   7.164   5.910
 7563TIP3   OH222629   5.884   2.509   2.323
 7563TIP3    H122630   5.808   2.480   2.373
 7563TIP3    H222631   5.848   2.566   2.256
 7564TIP3   OH222632   4.315   2.182   2.913
 7564TIP3    H122633   4.222   2.206   2.910
 7564TIP3    H222634   4.330   2.154   3.003
 7565TIP3   OH222635   2.151   3.857   2.694
 7565TIP3    H122636   2.108   3.940   2.673
 7565TIP3    H222637   2.152   3.855   2.790
 7566TIP3   OH222638   0.296   0.712   2.661
 7566TIP3    H122639   0.369   0.774   2.671
 7566TIP3    H222640   0.285   0.675   2.749
 7567TIP3   OH222641   1.414   6.529   0.401
 7567TIP3    H122642   1.341   6.522   0.463
 7567TIP3    H222643   1.493   6.520   0.456
 7568TIP3   OH222644   1.848   0.428   4.112
 7568TIP3    H122645   1.784   0.481   4.160
 7568TIP3    H222646   1.824   0.338   4.132
 7569TIP3   OH222647   2.298   7.194   2.886
 7569TIP3    H122648   2.260   7.205   2.799
 7569TIP3    H222649   2.292   7.100   2.903
 7570TIP3   OH222650   6.765   5.967   2.317
 7570TIP3    H122651   6.674   5.948   2.337
 7570TIP3    H222652   6.790   6.035   2.380
 7571TIP3   OH222653   4.667   4.217   2.767
 7571TIP3    H122654   4.623   4.133   2.753
 7571TIP3    H222655   4.746   4.213   2.713
 7572TIP3   OH222656   6.880   6.503   0.950
 7572TIP3    H122657   6.810   6.554   0.991
 7572TIP3    H222658   6.835   6.432   0.905
 7573TIP3   OH222659   0.977   1.118   6.098
 7573TIP3    H122660   0.939   1.031   6.092
 7573TIP3    H222661   0.915   1.175   6.053
 7574TIP3   OH222662   7.535   3.863   2.459
 7574TIP3    H122663   7.507   3.836   2.371
 7574TIP3    H222664   7.585   3.943   2.444
 7575TIP3   OH222665   6.478   7.915   3.888
 7575TIP3    H122666   6.489   7.927   3.982
 7575TIP3    H222667   6.386   7.889   3.878
 7576TIP3   OH222668   2.317   6.050   5.535
 7576TIP3    H122669   2.341   6.008   5.617
 7576TIP3    H222670   2.224   6.071   5.544
 7577TIP3   OH222671   5.763   7.012   0.843
 7577TIP3    H122672   5.817   6.952   0.895
 7577TIP3    H222673   5.751   6.967   0.760
 7578TIP3   OH222674   8.301   4.374   5.375
 7578TIP3    H122675   8.362   4.333   5.436
 7578TIP3    H222676   8.260   4.444   5.426
 7579TIP3   OH222677   4.253   7.509   5.180
 7579TIP3    H122678   4.309   7.583   5.202
 7579TIP3    H222679   4.262   7.499   5.085
 7580TIP3   OH222680   1.466   6.064   1.142
 7580TIP3    H122681   1.407   5.989   1.143
 7580TIP3    H222682   1.447   6.109   1.060
 7581TIP3   OH222683   7.137   4.155   0.738
 7581TIP3    H122684   7.145   4.138   0.832
 7581TIP3    H222685   7.112   4.247   0.733
 7582TIP3   OH222686   5.336   2.528   3.215
 7582TIP3    H122687   5.405   2.564   3.159
 7582TIP3    H222688   5.382   2.472   3.277
 7583TIP3   OH222689   7.587   7.507   5.929
 7583TIP3    H122690   7.531   7.444   5.974
 7583TIP3    H222691   7.528   7.578   5.904
 7584TIP3   OH222692   0.569   3.643   0.678
 7584TIP3    H122693   0.558   3.661   0.585
 7584TIP3    H222694   0.563   3.728   0.720
 7585TIP3   OH222695   6.419   3.814   2.240
 7585TIP3    H122696   6.499   3.776   2.278
 7585TIP3    H222697   6.404   3.893   2.292
 7586TIP3   OH222698   1.808   0.872   5.342
 7586TIP3    H122699   1.794   0.883   5.248
 7586TIP3    H222700   1.804   0.961   5.377
 7587TIP3   OH222701   2.890   1.027   2.058
 7587TIP3    H122702   2.900   1.012   1.964
 7587TIP3    H222703   2.966   1.078   2.083
 7588TIP3   OH222704   4.515   6.004   1.577
 7588TIP3    H122705   4.548   6.089   1.605
 7588TIP3    H222706   4.442   5.986   1.636
 7589TIP3   OH222707   5.847   2.224   4.584
 7589TIP3    H122708   5.933   2.245   4.620
 7589TIP3    H222709   5.785   2.251   4.652
 7590TIP3   OH222710   2.015   5.717   1.369
 7590TIP3    H122711   2.044   5.797   1.326
 7590TIP3    H222712   1.921   5.730   1.384
 7591TIP3   OH222713   6.444   5.096   2.439
 7591TIP3    H122714   6.422   5.061   2.525
 7591TIP3    H222715   6.423   5.189   2.445
 7592TIP3   OH222716   1.177   4.186   3.951
 7592TIP3    H122717   1.190   4.156   4.041
 7592TIP3    H222718   1.265   4.190   3.914
 7593TIP3   OH222719   1.578   7.076   0.033
 7593TIP3    H122720   1.552   6.984   0.020
 7593TIP3    H222721   1.659   7.070   0.084
 7594TIP3   OH222722   3.407   3.572   5.407
 7594TIP3    H122723   3.355   3.651   5.399
 7594TIP3    H222724   3.344   3.502   5.423
 7595TIP3   OH222725   0.461   5.999   3.239
 7595TIP3    H122726   0.516   5.976   3.314
 7595TIP3    H222727   0.378   6.027   3.277
 7596TIP3   OH222728   2.000   2.147   5.407
 7596TIP3    H122729   2.057   2.137   5.331
 7596TIP3    H222730   2.054   2.190   5.473
 7597TIP3   OH222731   4.350   3.965   2.077
 7597TIP3    H122732   4.310   3.977   2.163
 7597TIP3    H222733   4.401   3.884   2.085
 7598TIP3   OH222734   4.464   4.067   3.372
 7598TIP3    H122735   4.424   4.123   3.306
 7598TIP3    H222736   4.482   4.125   3.446
 7599TIP3   OH222737   2.009   0.648   4.661
 7599TIP3    H122738   2.016   0.694   4.745
 7599TIP3    H222739   2.054   0.565   4.676
 7600TIP3   OH222740   0.525   7.680   5.607
 7600TIP3    H122741   0.452   7.711   5.660
 7600TIP3    H222742   0.513   7.722   5.522
 7601TIP3   OH222743   2.510   4.052   6.082
 7601TIP3    H122744   2.563   4.063   6.004
 7601TIP3    H222745   2.463   3.970   6.069
 7602TIP3   OH222746   7.078   7.781   3.875
 7602TIP3    H122747   7.118   7.865   3.852
 7602TIP3    H222748   6.985   7.793   3.855
 7603TIP3   OH222749   4.942   1.410   5.873
 7603TIP3    H122750   4.949   1.355   5.951
 7603TIP3    H222751   4.994   1.487   5.893
 7604TIP3   OH222752   3.111   5.169   0.439
 7604TIP3    H122753   3.201   5.192   0.417
 7604TIP3    H222754   3.058   5.239   0.401
 7605TIP3   OH222755   5.107   5.806   6.808
 7605TIP3    H122756   5.138   5.890   6.843
 7605TIP3    H222757   5.057   5.831   6.730
 7606TIP3   OH222758   4.865   6.101   1.947
 7606TIP3    H122759   4.883   6.008   1.934
 7606TIP3    H222760   4.822   6.105   2.032
 7607TIP3   OH222761   7.507   3.920   5.208
 7607TIP3    H122762   7.512   4.013   5.186
 7607TIP3    H222763   7.597   3.890   5.203
 7608TIP3   OH222764   7.328   4.214   2.521
 7608TIP3    H122765   7.251   4.221   2.465
 7608TIP3    H222766   7.400   4.195   2.461
 7609TIP3   OH222767   5.536   3.818   2.809
 7609TIP3    H122768   5.632   3.820   2.803
 7609TIP3    H222769   5.506   3.806   2.719
 7610TIP3   OH222770   8.062   7.259   0.257
 7610TIP3    H122771   8.012   7.277   0.178
 7610TIP3    H222772   8.048   7.336   0.312
 7611TIP3   OH222773   6.010   1.874   0.020
 7611TIP3    H122774   6.097   1.880  -0.020
 7611TIP3    H222775   6.015   1.932   0.097
 7612TIP3   OH222776   8.129   3.279   0.227
 7612TIP3    H122777   8.197   3.291   0.160
 7612TIP3    H222778   8.103   3.369   0.250
 7613TIP3   OH222779   6.358   2.670   2.455
 7613TIP3    H122780   6.373   2.630   2.540
 7613TIP3    H222781   6.276   2.630   2.425
 7614TIP3   OH222782   6.152   1.568   1.810
 7614TIP3    H122783   6.229   1.570   1.752
 7614TIP3    H222784   6.093   1.505   1.769
 7615TIP3   OH222785   7.080   1.388   1.509
 7615TIP3    H122786   7.073   1.459   1.572
 7615TIP3    H222787   7.003   1.398   1.452
 7616TIP3   OH222788   4.629   0.074   1.106
 7616TIP3    H122789   4.547   0.098   1.062
 7616TIP3    H222790   4.672   0.158   1.123
 7617TIP3   OH222791   4.657   6.762   1.700
 7617TIP3    H122792   4.615   6.687   1.658
 7617TIP3    H222793   4.602   6.779   1.777
 7618TIP3   OH222794   3.041   5.983   1.293
 7618TIP3    H122795   2.995   6.006   1.212
 7618TIP3    H222796   3.013   5.893   1.312
 7619TIP3   OH222797   2.013   2.017   0.624
 7619TIP3    H122798   2.013   1.921   0.624
 7619TIP3    H222799   2.106   2.041   0.622
 7620TIP3   OH222800   6.786   3.988   0.725
 7620TIP3    H122801   6.871   3.945   0.717
 7620TIP3    H222802   6.722   3.920   0.700
 7621TIP3   OH222803   1.314   5.321   0.002
 7621TIP3    H122804   1.226   5.353  -0.016
 7621TIP3    H222805   1.322   5.242  -0.051
 7622TIP3   OH222806   0.914   7.316   5.192
 7622TIP3    H122807   0.927   7.254   5.119
 7622TIP3    H222808   0.999   7.359   5.202
 7623TIP3   OH222809   0.257   5.372   4.182
 7623TIP3    H122810   0.211   5.310   4.126
 7623TIP3    H222811   0.202   5.380   4.260
 7624TIP3   OH222812   3.951   0.102   3.045
 7624TIP3    H122813   4.016   0.143   2.988
 7624TIP3    H222814   4.001   0.072   3.121
 7625TIP3   OH222815   7.312   3.992   3.338
 7625TIP3    H122816   7.289   3.983   3.245
 7625TIP3    H222817   7.379   3.926   3.352
 7626TIP3   OH222818   7.679   2.049   5.038
 7626TIP3    H122819   7.740   1.980   5.065
 7626TIP3    H222820   7.682   2.049   4.943
 7627TIP3   OH222821   1.182   4.053   6.453
 7627TIP3    H122822   1.154   4.131   6.404
 7627TIP3    H222823   1.265   4.028   6.411
 7628TIP3   OH222824   6.711   7.499   4.419
 7628TIP3    H122825   6.652   7.566   4.384
 7628TIP3    H222826   6.729   7.528   4.509
 7629TIP3   OH222827   1.898   0.181   5.767
 7629TIP3    H122828   1.934   0.094   5.779
 7629TIP3    H222829   1.899   0.195   5.672
 7630TIP3   OH222830   5.278   2.271   5.508
 7630TIP3    H122831   5.250   2.297   5.421
 7630TIP3    H222832   5.333   2.194   5.493
 7631TIP3   OH222833   4.388   1.878   5.532
 7631TIP3    H122834   4.411   1.969   5.552
 7631TIP3    H222835   4.463   1.827   5.562
 7632TIP3   OH222836   6.182   1.953   1.029
 7632TIP3    H122837   6.141   1.868   1.042
 7632TIP3    H222838   6.166   2.001   1.110
 7633TIP3   OH222839   0.615   6.617   6.810
 7633TIP3    H122840   0.627   6.527   6.780
 7633TIP3    H222841   0.704   6.649   6.827
 7634TIP3   OH222842   3.041   2.888   2.718
 7634TIP3    H122843   3.105   2.956   2.698
 7634TIP3    H222844   3.039   2.884   2.813
 7635TIP3   OH222845   1.307   0.174   0.433
 7635TIP3    H122846   1.380   0.177   0.370
 7635TIP3    H222847   1.271   0.262   0.431
 7636TIP3   OH222848   7.476   0.365   1.605
 7636TIP3    H122849   7.437   0.278   1.594
 7636TIP3    H222850   7.479   0.401   1.516
 7637TIP3   OH222851   7.866   1.694   5.953
 7637TIP3    H122852   7.800   1.730   6.013
 7637TIP3    H222853   7.843   1.602   5.946
 7638TIP3   OH222854   5.634   0.805   6.383
 7638TIP3    H122855   5.692   0.812   6.308
 7638TIP3    H222856   5.587   0.722   6.370
 7639TIP3   OH222857   5.037   5.789   1.723
 7639TIP3    H122858   5.116   5.750   1.685
 7639TIP3    H222859   4.997   5.838   1.651
 7640TIP3   OH222860   2.736   0.282   2.709
 7640TIP3    H122861   2.744   0.330   2.627
 7640TIP3    H222862   2.701   0.196   2.683
 7641TIP3   OH222863   5.930   5.915   5.701
 7641TIP3    H122864   5.961   5.986   5.757
 7641TIP3    H222865   5.841   5.941   5.677
 7642TIP3   OH222866   4.150   3.746   3.234
 7642TIP3    H122867   4.203   3.716   3.160
 7642TIP3    H222868   4.103   3.822   3.201
 7643TIP3   OH222869   6.817   2.069   3.825
 7643TIP3    H122870   6.856   2.023   3.900
 7643TIP3    H222871   6.737   2.021   3.807
 7644TIP3   OH222872   7.162   5.418   0.017
 7644TIP3    H122873   7.145   5.505   0.052
 7644TIP3    H222874   7.252   5.399   0.041
 7645TIP3   OH222875   2.448   4.721   3.867
 7645TIP3    H122876   2.510   4.664   3.912
 7645TIP3    H222877   2.495   4.803   3.855
 7646TIP3   OH222878   4.946   0.180   1.500
 7646TIP3    H122879   4.865   0.210   1.542
 7646TIP3    H222880   4.987   0.261   1.469
 7647TIP3   OH222881   8.134   2.517   5.535
 7647TIP3    H122882   8.167   2.445   5.481
 7647TIP3    H222883   8.075   2.475   5.597
 7648TIP3   OH222884   3.249   1.883   6.695
 7648TIP3    H122885   3.156   1.905   6.688
 7648TIP3    H222886   3.253   1.790   6.675
 7649TIP3   OH222887   4.112   1.543   0.768
 7649TIP3    H122888   4.076   1.596   0.840
 7649TIP3    H222889   4.184   1.495   0.808
 7650TIP3   OH222890   7.809   6.558   0.389
 7650TIP3    H122891   7.851   6.487   0.339
 7650TIP3    H222892   7.754   6.603   0.326
 7651TIP3   OH222893   0.753   1.562   3.442
 7651TIP3    H122894   0.659   1.554   3.426
 7651TIP3    H222895   0.793   1.551   3.356
 7652TIP3   OH222896   5.271   3.099   4.790
 7652TIP3    H122897   5.226   3.177   4.756
 7652TIP3    H222898   5.293   3.121   4.880
 7653TIP3   OH222899   0.741   3.030   3.313
 7653TIP3    H122900   0.806   2.967   3.344
 7653TIP3    H222901   0.679   3.039   3.385
 7654TIP3   OH222902   3.391   1.556   4.833
 7654TIP3    H122903   3.454   1.507   4.780
 7654TIP3    H222904   3.330   1.490   4.866
 7655TIP3   OH222905   1.413   1.379   2.171
 7655TIP3    H122906   1.384   1.457   2.219
 7655TIP3    H222907   1.477   1.338   2.229
 7656TIP3   OH222908   5.542   3.244   3.162
 7656TIP3    H122909   5.628   3.237   3.122
 7656TIP3    H222910   5.496   3.310   3.110
 7657TIP3   OH222911   5.719   4.892   1.916
 7657TIP3    H122912   5.654   4.917   1.983
 7657TIP3    H222913   5.784   4.962   1.919
 7658TIP3   OH222914   7.495   6.244   4.655
 7658TIP3    H122915   7.521   6.328   4.691
 7658TIP3    H222916   7.413   6.261   4.609
 7659TIP3   OH222917   1.592   5.768   3.623
 7659TIP3    H122918   1.510   5.802   3.588
 7659TIP3    H222919   1.575   5.676   3.642
 7660TIP3   OH222920   4.008   6.369   1.757
 7660TIP3    H122921   3.942   6.437   1.766
 7660TIP3    H222922   4.091   6.416   1.760
 7661TIP3   OH222923   7.601   5.254   3.299
 7661TIP3    H122924   7.691   5.220   3.296
 7661TIP3    H222925   7.594   5.310   3.222
 7662TIP3   OH222926   4.197   4.552   5.137
 7662TIP3    H122927   4.113   4.591   5.110
 7662TIP3    H222928   4.262   4.617   5.112
 7663TIP3   OH222929   4.880   5.592   2.411
 7663TIP3    H122930   4.918   5.608   2.497
 7663TIP3    H222931   4.943   5.631   2.349
 7664TIP3   OH222932   2.103   3.196   4.041
 7664TIP3    H122933   2.037   3.153   3.986
 7664TIP3    H222934   2.128   3.274   3.992
 7665TIP3   OH222935   5.061   2.571   0.733
 7665TIP3    H122936   5.075   2.480   0.705
 7665TIP3    H222937   4.976   2.594   0.696
 7666TIP3   OH222938   6.434   6.339   0.013
 7666TIP3    H122939   6.382   6.349   0.092
 7666TIP3    H222940   6.405   6.410  -0.045
 7667TIP3   OH222941   3.744   7.653   0.305
 7667TIP3    H122942   3.739   7.630   0.398
 7667TIP3    H222943   3.829   7.694   0.295
 7668TIP3   OH222944   2.793   5.392   3.357
 7668TIP3    H122945   2.709   5.379   3.314
 7668TIP3    H222946   2.858   5.383   3.287
 7669TIP3   OH222947   0.126   7.754   2.445
 7669TIP3    H122948   0.211   7.780   2.481
 7669TIP3    H222949   0.123   7.659   2.457
 7670TIP3   OH222950   0.601   1.928   1.088
 7670TIP3    H122951   0.584   1.857   1.150
 7670TIP3    H222952   0.624   1.884   1.007
 7671TIP3   OH222953   5.570   0.230   3.420
 7671TIP3    H122954   5.553   0.213   3.513
 7671TIP3    H222955   5.486   0.258   3.385
 7672TIP3   OH222956   5.379   5.646   5.490
 7672TIP3    H122957   5.327   5.672   5.414
 7672TIP3    H222958   5.370   5.551   5.493
 7673TIP3   OH222959   3.986   6.244   4.435
 7673TIP3    H122960   4.046   6.209   4.500
 7673TIP3    H222961   3.920   6.292   4.486
 7674TIP3   OH222962   3.441   2.002   2.071
 7674TIP3    H122963   3.517   2.005   2.130
 7674TIP3    H222964   3.368   2.030   2.126
 7675TIP3   OH222965   7.961   2.659   5.016
 7675TIP3    H122966   8.007   2.586   4.977
 7675TIP3    H222967   7.984   2.655   5.109
 7676TIP3   OH222968   8.063   5.384   5.291
 7676TIP3    H122969   8.135   5.435   5.329
 7676TIP3    H222970   7.985   5.438   5.305
 7677TIP3   OH222971   3.213   1.510   1.455
 7677TIP3    H122972   3.119   1.512   1.473
 7677TIP3    H222973   3.233   1.418   1.441
 7678TIP3   OH222974   8.076   2.544   1.155
 7678TIP3    H122975   8.125   2.625   1.138
 7678TIP3    H222976   8.055   2.510   1.068
 7679TIP3   OH222977   4.219   2.489   5.035
 7679TIP3    H122978   4.172   2.475   5.118
 7679TIP3    H222979   4.166   2.444   4.969
 7680TIP3   OH222980   1.043   5.332   0.761
 7680TIP3    H122981   0.980   5.334   0.833
 7680TIP3    H222982   1.113   5.273   0.792
 7681TIP3   OH222983   6.643   7.310   0.200
 7681TIP3    H122984   6.610   7.387   0.154
 7681TIP3    H222985   6.649   7.243   0.133
 7682TIP3   OH222986   4.769   5.104   2.254
 7682TIP3    H122987   4.757   5.198   2.238
 7682TIP3    H222988   4.730   5.090   2.341
 7683TIP3   OH222989   4.995   5.194   1.673
 7683TIP3    H122990   5.083   5.233   1.668
 7683TIP3    H222991   5.006   5.106   1.637
 7684TIP3   OH222992   5.248   6.851   2.692
 7684TIP3    H122993   5.185   6.787   2.726
 7684TIP3    H222994   5.204   6.935   2.701
 7685TIP3   OH222995   5.255   0.205   5.045
 7685TIP3    H122996   5.292   0.289   5.075
 7685TIP3    H222997   5.283   0.142   5.111
 7686TIP3   OH222998   2.316   7.778   5.881
 7686TIP3    H122999   2.319   7.703   5.821
 7686TIP3    H223000   2.406   7.811   5.883
 7687TIP3   OH223001   7.218   1.347   3.155
 7687TIP3    H123002   7.235   1.261   3.117
 7687TIP3    H223003   7.122   1.353   3.158
 7688TIP3   OH223004   6.345   3.667   4.147
 7688TIP3    H123005   6.435   3.664   4.116
 7688TIP3    H223006   6.311   3.579   4.134
 7689TIP3   OH223007   6.687   5.756   0.542
 7689TIP3    H123008   6.593   5.757   0.520
 7689TIP3    H223009   6.697   5.825   0.606
 7690TIP3   OH223010   0.082   3.434   1.633
 7690TIP3    H123011  -0.007   3.410   1.607
 7690TIP3    H223012   0.097   3.386   1.714
 7691TIP3   OH223013   5.825   1.351   6.275
 7691TIP3    H123014   5.860   1.414   6.212
 7691TIP3    H223015   5.885   1.277   6.271
 7692TIP3   OH223016   3.283   6.991   6.253
 7692TIP3    H123017   3.302   7.075   6.211
 7692TIP3    H223018   3.196   7.003   6.292
 7693TIP3   OH223019   6.612   3.895   2.571
 7693TIP3    H123020   6.569   3.946   2.639
 7693TIP3    H223021   6.686   3.950   2.542
 7694TIP3   OH223022   7.105   4.931   6.197
 7694TIP3    H123023   7.120   4.864   6.131
 7694TIP3    H223024   7.094   4.883   6.279
 7695TIP3   OH223025   6.044   0.425   1.477
 7695TIP3    H123026   5.959   0.461   1.456
 7695TIP3    H223027   6.027   0.333   1.498
 7696TIP3   OH223028   6.677   4.934   3.330
 7696TIP3    H123029   6.658   4.938   3.237
 7696TIP3    H223030   6.592   4.919   3.371
 7697TIP3   OH223031   2.106   4.001   1.053
 7697TIP3    H123032   2.012   4.013   1.041
 7697TIP3    H223033   2.132   3.941   0.984
 7698TIP3   OH223034   5.784   4.823   6.435
 7698TIP3    H123035   5.787   4.917   6.448
 7698TIP3    H223036   5.805   4.811   6.342
 7699TIP3   OH223037   3.090  -0.011   6.704
 7699TIP3    H123038   3.050  -0.061   6.775
 7699TIP3    H223039   3.092   0.079   6.736
 7700TIP3   OH223040   5.226   4.999   4.610
 7700TIP3    H123041   5.167   5.058   4.563
 7700TIP3    H223042   5.313   5.037   4.598
 7701TIP3   OH223043   3.854   7.062   5.594
 7701TIP3    H123044   3.811   7.146   5.576
 7701TIP3    H223045   3.947   7.085   5.603
 7702TIP3   OH223046   4.250   0.255   1.740
 7702TIP3    H123047   4.221   0.291   1.656
 7702TIP3    H223048   4.254   0.330   1.799
 7703TIP3   OH223049   6.172   3.476   3.266
 7703TIP3    H123050   6.234   3.501   3.198
 7703TIP3    H223051   6.223   3.419   3.325
 7704TIP3   OH223052   0.166   3.083  -0.030
 7704TIP3    H123053   0.258   3.068  -0.052
 7704TIP3    H223054   0.168   3.143   0.044
 7705TIP3   OH223055   5.564   7.517   5.051
 7705TIP3    H123056   5.654   7.487   5.055
 7705TIP3    H223057   5.540   7.511   4.958
 7706TIP3   OH223058   0.065   0.415   3.650
 7706TIP3    H123059  -0.009   0.422   3.710
 7706TIP3    H223060   0.140   0.395   3.707
 7707TIP3   OH223061   4.814   5.632   1.035
 7707TIP3    H123062   4.758   5.555   1.046
 7707TIP3    H223063   4.858   5.617   0.951
 7708TIP3   OH223064   7.667   1.548   2.927
 7708TIP3    H123065   7.603   1.613   2.957
 7708TIP3    H223066   7.723   1.595   2.866
 7709TIP3   OH223067   4.283   3.908   6.314
 7709TIP3    H123068   4.238   3.833   6.277
 7709TIP3    H223069   4.214   3.974   6.326
 7710TIP3   OH223070   2.446   7.277   5.066
 7710TIP3    H123071   2.538   7.257   5.048
 7710TIP3    H223072   2.402   7.192   5.064
 7711TIP3   OH223073   7.570   4.381   2.903
 7711TIP3    H123074   7.560   4.316   2.972
 7711TIP3    H223075   7.660   4.369   2.871
 7712TIP3   OH223076   7.986   2.573   5.992
 7712TIP3    H123077   7.955   2.520   6.065
 7712TIP3    H223078   8.069   2.609   6.022
 7713TIP3   OH223079   8.287   0.861   1.090
 7713TIP3    H123080   8.249   0.800   1.154
 7713TIP3    H223081   8.325   0.805   1.023
 7714TIP3   OH223082   6.500   4.366   1.114
 7714TIP3    H123083   6.552   4.443   1.138
 7714TIP3    H223084   6.565   4.301   1.086
 7715TIP3   OH223085   3.864   7.234   4.058
 7715TIP3    H123086   3.900   7.145   4.063
 7715TIP3    H223087   3.839   7.254   4.148
 7716TIP3   OH223088   1.022   5.057   1.156
 7716TIP3    H123089   1.024   5.137   1.209
 7716TIP3    H223090   1.107   5.016   1.173
 7717TIP3   OH223091   7.493   4.933   5.727
 7717TIP3    H123092   7.490   4.905   5.635
 7717TIP3    H223093   7.583   4.963   5.739
 7718TIP3   OH223094   2.717   2.562   5.552
 7718TIP3    H123095   2.797   2.614   5.541
 7718TIP3    H223096   2.682   2.591   5.636
 7719TIP3   OH223097   1.526   4.123   6.486
 7719TIP3    H123098   1.468   4.192   6.518
 7719TIP3    H223099   1.598   4.120   6.549
 7720TIP3   OH223100   2.009   1.653   2.468
 7720TIP3    H123101   1.942   1.585   2.477
 7720TIP3    H223102   1.959   1.735   2.466
 7721TIP3   OH223103   5.283   4.848   3.322
 7721TIP3    H123104   5.360   4.897   3.351
 7721TIP3    H223105   5.300   4.758   3.351
 7722TIP3   OH223106   5.404   2.186   4.394
 7722TIP3    H123107   5.325   2.181   4.341
 7722TIP3    H223108   5.377   2.156   4.481
 7723TIP3   OH223109   4.555   6.468   4.514
 7723TIP3    H123110   4.543   6.502   4.425
 7723TIP3    H223111   4.635   6.511   4.546
 7724TIP3   OH223112   1.422   1.200   4.848
 7724TIP3    H123113   1.514   1.185   4.867
 7724TIP3    H223114   1.407   1.155   4.765
 7725TIP3   OH223115   1.947   7.594   4.277
 7725TIP3    H123116   1.865   7.605   4.228
 7725TIP3    H223117   1.997   7.672   4.257
 7726TIP3   OH223118   5.188   0.661   0.207
 7726TIP3    H123119   5.189   0.688   0.299
 7726TIP3    H223120   5.248   0.587   0.203
 7727TIP3   OH223121   6.420   1.732   3.032
 7727TIP3    H123122   6.511   1.708   3.012
 7727TIP3    H223123   6.381   1.651   3.063
 7728TIP3   OH223124   7.552   5.908   5.885
 7728TIP3    H123125   7.599   5.880   5.806
 7728TIP3    H223126   7.460   5.892   5.864
 7729TIP3   OH223127   1.854   0.505   5.561
 7729TIP3    H123128   1.907   0.579   5.530
 7729TIP3    H223129   1.800   0.542   5.631
 7730TIP3   OH223130   6.248   2.132   5.700
 7730TIP3    H123131   6.324   2.155   5.647
 7730TIP3    H223132   6.280   2.069   5.764
 7731TIP3   OH223133   4.902   7.117   0.771
 7731TIP3    H123134   4.835   7.049   0.775
 7731TIP3    H223135   4.966   7.083   0.709
 7732TIP3   OH223136   2.323   4.848   1.731
 7732TIP3    H123137   2.340   4.942   1.726
 7732TIP3    H223138   2.409   4.808   1.721
 7733TIP3   OH223139   4.789   3.227   4.006
 7733TIP3    H123140   4.777   3.235   4.100
 7733TIP3    H223141   4.704   3.247   3.968
 7734TIP3   OH223142   6.703   5.840   1.964
 7734TIP3    H123143   6.707   5.745   1.971
 7734TIP3    H223144   6.786   5.871   2.001
 7735TIP3   OH223145   1.718   4.409   5.590
 7735TIP3    H123146   1.683   4.349   5.523
 7735TIP3    H223147   1.761   4.478   5.540
 7736TIP3   OH223148   1.823   3.315   1.320
 7736TIP3    H123149   1.910   3.284   1.344
 7736TIP3    H223150   1.779   3.334   1.403
 7737TIP3   OH223151   1.318   3.294   3.473
 7737TIP3    H123152   1.232   3.332   3.459
 7737TIP3    H223153   1.324   3.282   3.567
 7738TIP3   OH223154   7.855   3.966   0.245
 7738TIP3    H123155   7.923   4.012   0.196
 7738TIP3    H223156   7.776   3.978   0.193
 7739TIP3   OH223157   2.844   2.802   6.433
 7739TIP3    H123158   2.804   2.715   6.435
 7739TIP3    H223159   2.881   2.813   6.521
 7740TIP3   OH223160   5.139   2.661   1.713
 7740TIP3    H123161   5.201   2.722   1.673
 7740TIP3    H223162   5.111   2.605   1.640
 7741TIP3   OH223163   1.022   2.135   0.144
 7741TIP3    H123164   1.012   2.185   0.224
 7741TIP3    H223165   1.063   2.053   0.172
 7742TIP3   OH223166   0.362   0.402   6.566
 7742TIP3    H123167   0.369   0.432   6.657
 7742TIP3    H223168   0.273   0.367   6.559
 7743TIP3   OH223169   8.096   4.064   4.957
 7743TIP3    H123170   8.159   4.004   4.997
 7743TIP3    H223171   8.135   4.086   4.872
 7744TIP3   OH223172   4.536   0.322   1.320
 7744TIP3    H123173   4.620   0.318   1.275
 7744TIP3    H223174   4.485   0.387   1.272
 7745TIP3   OH223175   1.511   3.745   5.129
 7745TIP3    H123176   1.497   3.810   5.060
 7745TIP3    H223177   1.444   3.679   5.113
 7746TIP3   OH223178   7.463   7.807   5.163
 7746TIP3    H123179   7.444   7.774   5.075
 7746TIP3    H223180   7.422   7.743   5.221
 7747TIP3   OH223181   7.779   5.946   1.279
 7747TIP3    H123182   7.855   5.939   1.338
 7747TIP3    H223183   7.721   6.009   1.323
 7748TIP3   OH223184   4.366   0.698   5.143
 7748TIP3    H123185   4.319   0.758   5.200
 7748TIP3    H223186   4.388   0.751   5.066
 7749TIP3   OH223187   2.304   4.354   3.646
 7749TIP3    H123188   2.395   4.381   3.644
 7749TIP3    H223189   2.254   4.433   3.628
 7750TIP3   OH223190   4.341   1.544   3.672
 7750TIP3    H123191   4.256   1.586   3.671
 7750TIP3    H223192   4.333   1.472   3.734
 7751TIP3   OH223193   2.319   2.414   6.159
 7751TIP3    H123194   2.381   2.379   6.223
 7751TIP3    H223195   2.273   2.484   6.204
 7752TIP3   OH223196   6.794   4.307   2.808
 7752TIP3    H123197   6.869   4.326   2.864
 7752TIP3    H223198   6.747   4.238   2.854
 7753TIP3   OH223199   8.216   5.113   0.332
 7753TIP3    H123200   8.272   5.168   0.387
 7753TIP3    H223201   8.270   5.090   0.257
 7754TIP3   OH223202   5.671   0.472   0.223
 7754TIP3    H123203   5.690   0.447   0.313
 7754TIP3    H223204   5.674   0.568   0.223
 7755TIP3   OH223205   4.780   1.706   3.643
 7755TIP3    H123206   4.737   1.641   3.698
 7755TIP3    H223207   4.727   1.708   3.563
 7756TIP3   OH223208   5.470   3.971   1.500
 7756TIP3    H123209   5.513   3.960   1.415
 7756TIP3    H223210   5.410   3.897   1.507
 7757TIP3   OH223211   2.733   3.573   2.459
 7757TIP3    H123212   2.771   3.546   2.375
 7757TIP3    H223213   2.650   3.614   2.435
 7758TIP3   OH223214   7.162   1.238   4.187
 7758TIP3    H123215   7.076   1.256   4.151
 7758TIP3    H223216   7.193   1.162   4.137
 7759TIP3   OH223217   5.471   1.089   1.465
 7759TIP3    H123218   5.499   1.180   1.459
 7759TIP3    H223219   5.437   1.068   1.378
 7760TIP3   OH223220   2.229   2.632   0.459
 7760TIP3    H123221   2.254   2.722   0.439
 7760TIP3    H223222   2.295   2.602   0.522
 7761TIP3   OH223223   3.067   0.962   6.059
 7761TIP3    H123224   3.054   0.938   6.151
 7761TIP3    H223225   3.018   0.895   6.010
 7762TIP3   OH223226   7.816   1.387   0.527
 7762TIP3    H123227   7.752   1.454   0.502
 7762TIP3    H223228   7.892   1.406   0.471
 7763TIP3   OH223229   4.368   1.883   6.226
 7763TIP3    H123230   4.446   1.930   6.196
 7763TIP3    H223231   4.317   1.866   6.147
 7764TIP3   OH223232   6.128   0.408   3.033
 7764TIP3    H123233   6.076   0.333   3.064
 7764TIP3    H223234   6.190   0.425   3.105
 7765TIP3   OH223235   4.284   6.494   1.642
 7765TIP3    H123236   4.309   6.441   1.718
 7765TIP3    H223237   4.309   6.440   1.567
 7766TIP3   OH223238   0.674   2.362   1.212
 7766TIP3    H123239   0.632   2.447   1.203
 7766TIP3    H223240   0.746   2.377   1.274
 7767TIP3   OH223241   3.450   6.697   0.567
 7767TIP3    H123242   3.399   6.658   0.638
 7767TIP3    H223243   3.529   6.643   0.561
 7768TIP3   OH223244   7.731   2.393   1.700
 7768TIP3    H123245   7.637   2.378   1.690
 7768TIP3    H223246   7.772   2.332   1.639
 7769TIP3   OH223247   6.309   1.819   6.610
 7769TIP3    H123248   6.395   1.827   6.651
 7769TIP3    H223249   6.318   1.742   6.553
 7770TIP3   OH223250   5.492   3.345   6.657
 7770TIP3    H123251   5.470   3.278   6.721
 7770TIP3    H223252   5.566   3.392   6.696
 7771TIP3   OH223253   1.908   3.965   4.606
 7771TIP3    H123254   1.848   4.025   4.650
 7771TIP3    H223255   1.857   3.886   4.593
 7772TIP3   OH223256   0.568   3.814   1.943
 7772TIP3    H123257   0.629   3.880   1.976
 7772TIP3    H223258   0.620   3.761   1.882
 7773TIP3   OH223259   5.058   6.632   3.231
 7773TIP3    H123260   5.081   6.576   3.305
 7773TIP3    H223261   5.142   6.667   3.201
 7774TIP3   OH223262   6.751   0.950   4.333
 7774TIP3    H123263   6.688   1.021   4.319
 7774TIP3    H223264   6.820   0.990   4.386
 7775TIP3   OH223265   3.564   5.996   1.459
 7775TIP3    H123266   3.558   6.089   1.438
 7775TIP3    H223267   3.478   5.974   1.495
 7776TIP3   OH223268   6.318   1.948   4.072
 7776TIP3    H123269   6.281   1.910   4.152
 7776TIP3    H223270   6.260   2.021   4.051
 7777TIP3   OH223271   3.164   7.226   2.367
 7777TIP3    H123272   3.072   7.218   2.341
 7777TIP3    H223273   3.192   7.309   2.329
 7778TIP3   OH223274   6.385   2.040   6.453
 7778TIP3    H123275   6.373   1.956   6.496
 7778TIP3    H223276   6.352   2.105   6.516
 7779TIP3   OH223277   2.316   3.005   4.022
 7779TIP3    H123278   2.297   2.920   4.061
 7779TIP3    H223279   2.243   3.061   4.049
 7780TIP3   OH223280   8.380   1.996   2.209
 7780TIP3    H123281   8.330   1.986   2.128
 7780TIP3    H223282   8.345   2.074   2.250
 7781TIP3   OH223283   7.616   6.816   1.058
 7781TIP3    H123284   7.593   6.723   1.053
 7781TIP3    H223285   7.711   6.818   1.060
 7782TIP3   OH223286   1.408   5.144   2.902
 7782TIP3    H123287   1.344   5.191   2.955
 7782TIP3    H223288   1.398   5.052   2.928
 7783TIP3   OH223289   5.769   5.691   0.459
 7783TIP3    H123290   5.850   5.696   0.409
 7783TIP3    H223291   5.781   5.753   0.531
 7784TIP3   OH223292   0.404   1.076   5.547
 7784TIP3    H123293   0.482   1.090   5.601
 7784TIP3    H223294   0.395   0.980   5.543
 7785TIP3   OH223295   7.931   2.323   3.529
 7785TIP3    H123296   7.856   2.308   3.472
 7785TIP3    H223297   7.896   2.374   3.602
 7786TIP3   OH223298   4.179   2.270   1.874
 7786TIP3    H123299   4.243   2.296   1.808
 7786TIP3    H223300   4.099   2.253   1.825
 7787TIP3   OH223301   3.119   5.050   4.072
 7787TIP3    H123302   3.057   5.042   4.144
 7787TIP3    H223303   3.119   5.144   4.051
 7788TIP3   OH223304   4.290   2.757   2.151
 7788TIP3    H123305   4.317   2.665   2.146
 7788TIP3    H223306   4.295   2.779   2.244
 7789TIP3   OH223307   3.250   3.097   6.834
 7789TIP3    H123308   3.246   3.010   6.794
 7789TIP3    H223309   3.246   3.157   6.760
 7790TIP3   OH223310   5.589   3.571   1.441
 7790TIP3    H123311   5.577   3.590   1.534
 7790TIP3    H223312   5.676   3.532   1.435
 7791TIP3   OH223313   8.219   5.667   4.220
 7791TIP3    H123314   8.245   5.636   4.133
 7791TIP3    H223315   8.123   5.672   4.216
 7792TIP3   OH223316   0.190   7.042   5.669
 7792TIP3    H123317   0.171   7.134   5.649
 7792TIP3    H223318   0.268   7.022   5.617
 7793TIP3   OH223319   4.890   1.555   4.627
 7793TIP3    H123320   4.974   1.541   4.583
 7793TIP3    H223321   4.913   1.586   4.715
 7794TIP3   OH223322   3.891   4.030   5.373
 7794TIP3    H123323   3.826   4.033   5.443
 7794TIP3    H223324   3.965   4.081   5.406
 7795TIP3   OH223325   3.206   3.639   0.861
 7795TIP3    H123326   3.165   3.601   0.783
 7795TIP3    H223327   3.194   3.572   0.928
 7796TIP3   OH223328   3.285   0.630   1.712
 7796TIP3    H123329   3.365   0.648   1.761
 7796TIP3    H223330   3.225   0.700   1.737
 7797TIP3   OH223331   6.250   2.218   4.346
 7797TIP3    H123332   6.169   2.167   4.353
 7797TIP3    H223333   6.237   2.273   4.269
 7798TIP3   OH223334   7.481   4.914   6.568
 7798TIP3    H123335   7.517   4.852   6.630
 7798TIP3    H223336   7.386   4.906   6.578
 7799TIP3   OH223337   4.789   5.858   0.342
 7799TIP3    H123338   4.736   5.917   0.397
 7799TIP3    H223339   4.877   5.865   0.377
 7800TIP3   OH223340   4.712   4.558   1.696
 7800TIP3    H123341   4.777   4.507   1.744
 7800TIP3    H223342   4.659   4.600   1.765
 7801TIP3   OH223343   4.708   4.572   6.271
 7801TIP3    H123344   4.669   4.571   6.359
 7801TIP3    H223345   4.793   4.531   6.282
 7802TIP3   OH223346   2.330   4.782   5.065
 7802TIP3    H123347   2.337   4.739   5.151
 7802TIP3    H223348   2.291   4.867   5.084
 7803TIP3   OH223349   6.885   3.059   2.945
 7803TIP3    H123350   6.871   3.148   2.912
 7803TIP3    H223351   6.888   3.004   2.867
 7804TIP3   OH223352   0.833   4.960   5.471
 7804TIP3    H123353   0.919   5.001   5.476
 7804TIP3    H223354   0.847   4.870   5.499
 7805TIP3   OH223355   6.170   3.350   4.491
 7805TIP3    H123356   6.252   3.380   4.529
 7805TIP3    H223357   6.127   3.302   4.562
 7806TIP3   OH223358   5.828   1.771   0.299
 7806TIP3    H123359   5.913   1.747   0.336
 7806TIP3    H223360   5.827   1.866   0.301
 7807TIP3   OH223361   7.187   3.079   4.868
 7807TIP3    H123362   7.135   3.092   4.947
 7807TIP3    H223363   7.125   3.092   4.796
 7808TIP3   OH223364   3.094   3.623   2.778
 7808TIP3    H123365   3.154   3.550   2.796
 7808TIP3    H223366   3.149   3.701   2.786
 7809TIP3   OH223367   7.610   5.865   3.232
 7809TIP3    H123368   7.652   5.951   3.230
 7809TIP3    H223369   7.669   5.811   3.285
 7810TIP3   OH223370   4.310   2.679   3.391
 7810TIP3    H123371   4.216   2.690   3.403
 7810TIP3    H223372   4.343   2.766   3.372
 7811TIP3   OH223373   4.780   0.248   1.845
 7811TIP3    H123374   4.826   0.164   1.837
 7811TIP3    H223375   4.848   0.309   1.875
 7812TIP3   OH223376   1.695   2.916   5.006
 7812TIP3    H123377   1.634   2.859   5.053
 7812TIP3    H223378   1.743   2.857   4.948
 7813TIP3   OH223379   3.686   5.974   4.695
 7813TIP3    H123380   3.641   5.979   4.779
 7813TIP3    H223381   3.778   5.959   4.717
 7814TIP3   OH223382   4.979   0.357   3.716
 7814TIP3    H123383   4.980   0.448   3.746
 7814TIP3    H223384   4.887   0.331   3.723
 7815TIP3   OH223385   7.892   6.772   5.162
 7815TIP3    H123386   7.922   6.809   5.079
 7815TIP3    H223387   7.926   6.683   5.163
 7816TIP3   OH223388   8.133   6.722   3.237
 7816TIP3    H123389   8.067   6.706   3.170
 7816TIP3    H223390   8.206   6.763   3.190
 7817TIP3   OH223391   2.997   2.572   6.113
 7817TIP3    H123392   3.036   2.511   6.176
 7817TIP3    H223393   2.965   2.517   6.042
 7818TIP3   OH223394   7.145   0.915   5.468
 7818TIP3    H123395   7.163   0.925   5.375
 7818TIP3    H223396   7.197   0.983   5.511
 7819TIP3   OH223397   6.850   7.873   1.245
 7819TIP3    H123398   6.825   7.838   1.159
 7819TIP3    H223399   6.786   7.942   1.262
 7820TIP3   OH223400   7.643   4.294   4.560
 7820TIP3    H123401   7.720   4.283   4.503
 7820TIP3    H223402   7.658   4.379   4.602
 7821TIP3   OH223403   5.958   1.001   1.324
 7821TIP3    H123404   5.917   1.077   1.284
 7821TIP3    H223405   6.040   1.033   1.360
 7822TIP3   OH223406   5.955   1.588   1.061
 7822TIP3    H123407   5.976   1.578   1.154
 7822TIP3    H223408   5.866   1.554   1.053
 7823TIP3   OH223409   1.729   4.137   4.724
 7823TIP3    H123410   1.680   4.203   4.674
 7823TIP3    H223411   1.764   4.184   4.799
 7824TIP3   OH223412   8.145   0.126   3.152
 7824TIP3    H123413   8.149   0.081   3.068
 7824TIP3    H223414   8.171   0.059   3.216
 7825TIP3   OH223415   6.249   5.941   6.220
 7825TIP3    H123416   6.179   5.974   6.163
 7825TIP3    H223417   6.329   5.982   6.186
 7826TIP3   OH223418   6.649   1.103   0.617
 7826TIP3    H123419   6.646   1.127   0.525
 7826TIP3    H223420   6.557   1.091   0.642
 7827TIP3   OH223421   3.182   7.340   0.674
 7827TIP3    H123422   3.109   7.392   0.708
 7827TIP3    H223423   3.259   7.371   0.722
 7828TIP3   OH223424   2.344   7.519   4.053
 7828TIP3    H123425   2.300   7.599   4.025
 7828TIP3    H223426   2.293   7.489   4.128
 7829TIP3   OH223427   7.039   7.575   6.522
 7829TIP3    H123428   7.076   7.492   6.493
 7829TIP3    H223429   6.951   7.577   6.484
 7830TIP3   OH223430   2.414   6.591   0.874
 7830TIP3    H123431   2.388   6.598   0.782
 7830TIP3    H223432   2.356   6.524   0.911
 7831TIP3   OH223433   7.901   1.091   1.636
 7831TIP3    H123434   7.962   1.032   1.592
 7831TIP3    H223435   7.952   1.170   1.653
 7832TIP3   OH223436   4.681   6.582   1.028
 7832TIP3    H123437   4.632   6.661   1.049
 7832TIP3    H223438   4.642   6.551   0.946
 7833TIP3   OH223439   2.705   7.325   2.720
 7833TIP3    H123440   2.705   7.239   2.763
 7833TIP3    H223441   2.792   7.331   2.680
 7834TIP3   OH223442   1.865   2.145   5.080
 7834TIP3    H123443   1.838   2.123   4.991
 7834TIP3    H223444   1.960   2.138   5.079
 7835TIP3   OH223445   2.716   0.740   0.702
 7835TIP3    H123446   2.620   0.743   0.696
 7835TIP3    H223447   2.740   0.826   0.737
 7836TIP3   OH223448   2.894   6.294   1.225
 7836TIP3    H123449   2.924   6.329   1.141
 7836TIP3    H223450   2.818   6.241   1.203
 7837TIP3   OH223451   2.631   7.033   3.731
 7837TIP3    H123452   2.620   7.126   3.752
 7837TIP3    H223453   2.623   6.988   3.815
 7838TIP3   OH223454   2.089   1.452   6.570
 7838TIP3    H123455   2.088   1.504   6.650
 7838TIP3    H223456   2.014   1.483   6.520
 7839TIP3   OH223457   2.880   7.481   5.627
 7839TIP3    H123458   2.850   7.507   5.714
 7839TIP3    H223459   2.960   7.430   5.644
 7840TIP3   OH223460   2.168   7.010   5.520
 7840TIP3    H123461   2.093   6.967   5.481
 7840TIP3    H223462   2.242   6.989   5.462
 7841TIP3   OH223463   8.145   1.070   3.888
 7841TIP3    H123464   8.088   1.021   3.828
 7841TIP3    H223465   8.122   1.161   3.873
 7842TIP3   OH223466   1.245   6.834   2.810
 7842TIP3    H123467   1.232   6.842   2.716
 7842TIP3    H223468   1.283   6.747   2.822
 7843TIP3   OH223469   0.684   3.324   5.757
 7843TIP3    H123470   0.695   3.246   5.812
 7843TIP3    H223471   0.594   3.318   5.726
 7844TIP3   OH223472   1.729   6.484   4.747
 7844TIP3    H123473   1.641   6.516   4.729
 7844TIP3    H223474   1.775   6.560   4.784
 7845TIP3   OH223475   0.548   2.152   0.479
 7845TIP3    H123476   0.620   2.191   0.429
 7845TIP3    H223477   0.510   2.087   0.420
 7846TIP3   OH223478   3.349   4.525   3.243
 7846TIP3    H123479   3.432   4.533   3.195
 7846TIP3    H223480   3.311   4.612   3.239
 7847TIP3   OH223481   0.488   5.585   4.779
 7847TIP3    H123482   0.511   5.586   4.686
 7847TIP3    H223483   0.413   5.645   4.785
 7848TIP3   OH223484   4.713   1.678   4.979
 7848TIP3    H123485   4.638   1.688   4.921
 7848TIP3    H223486   4.700   1.744   5.047
 7849TIP3   OH223487   0.170   2.552   0.725
 7849TIP3    H123488   0.178   2.457   0.718
 7849TIP3    H223489   0.257   2.586   0.708
 7850TIP3   OH223490   2.023   1.953   6.602
 7850TIP3    H123491   2.007   1.997   6.686
 7850TIP3    H223492   2.118   1.939   6.601
 7851TIP3   OH223493   5.205   6.921   6.332
 7851TIP3    H123494   5.243   6.834   6.338
 7851TIP3    H223495   5.280   6.980   6.330
 7852TIP3   OH223496   2.279   0.462   4.442
 7852TIP3    H123497   2.249   0.387   4.391
 7852TIP3    H223498   2.223   0.462   4.520
 7853TIP3   OH223499   5.429   7.254   5.986
 7853TIP3    H123500   5.350   7.256   5.932
 7853TIP3    H223501   5.448   7.346   6.005
 7854TIP3   OH223502   2.600   6.569   0.327
 7854TIP3    H123503   2.592   6.651   0.377
 7854TIP3    H223504   2.684   6.575   0.283
 7855TIP3   OH223505   4.578   6.357   3.501
 7855TIP3    H123506   4.614   6.269   3.509
 7855TIP3    H223507   4.648   6.409   3.462
 7856TIP3   OH223508   1.103   5.962   3.303
 7856TIP3    H123509   1.018   5.964   3.347
 7856TIP3    H223510   1.090   6.011   3.222
 7857TIP3   OH223511   1.448   4.156   3.851
 7857TIP3    H123512   1.422   4.070   3.820
 7857TIP3    H223513   1.520   4.182   3.793
 7858TIP3   OH223514   5.205   6.185   6.226
 7858TIP3    H123515   5.299   6.176   6.243
 7858TIP3    H223516   5.168   6.206   6.312
 7859TIP3   OH223517   0.510   7.261   1.904
 7859TIP3    H123518   0.529   7.233   1.993
 7859TIP3    H223519   0.493   7.179   1.856
 7860TIP3   OH223520   1.838   6.729   5.797
 7860TIP3    H123521   1.753   6.773   5.807
 7860TIP3    H223522   1.817   6.636   5.794
 7861TIP3   OH223523   1.575   6.991   2.654
 7861TIP3    H123524   1.620   7.036   2.725
 7861TIP3    H223525   1.639   6.989   2.582
 7862TIP3   OH223526   5.977   0.853   4.761
 7862TIP3    H123527   6.048   0.918   4.758
 7862TIP3    H223528   6.019   0.775   4.796
 7863TIP3   OH223529   3.060   4.100   3.499
 7863TIP3    H123530   3.053   4.167   3.431
 7863TIP3    H223531   3.025   4.020   3.458
 7864TIP3   OH223532   3.792   0.522   6.446
 7864TIP3    H123533   3.798   0.600   6.501
 7864TIP3    H223534   3.741   0.550   6.370
 7865TIP3   OH223535   1.892   5.523   3.295
 7865TIP3    H123536   1.882   5.450   3.356
 7865TIP3    H223537   1.866   5.600   3.346
 7866TIP3   OH223538   8.189   7.896   1.941
 7866TIP3    H123539   8.284   7.888   1.934
 7866TIP3    H223540   8.163   7.943   1.862
 7867TIP3   OH223541   5.429   4.895   5.158
 7867TIP3    H123542   5.436   4.801   5.170
 7867TIP3    H223543   5.343   4.918   5.192
 7868TIP3   OH223544   3.448   6.028   0.634
 7868TIP3    H123545   3.471   6.086   0.707
 7868TIP3    H223546   3.408   5.952   0.676
 7869TIP3   OH223547   1.149   3.630   4.211
 7869TIP3    H123548   1.197   3.700   4.166
 7869TIP3    H223549   1.160   3.648   4.304
 7870TIP3   OH223550   2.330   7.638   2.458
 7870TIP3    H123551   2.319   7.644   2.553
 7870TIP3    H223552   2.244   7.663   2.423
 7871TIP3   OH223553   6.595   7.611   5.305
 7871TIP3    H123554   6.612   7.524   5.341
 7871TIP3    H223555   6.626   7.607   5.215
 7872TIP3   OH223556   3.965   4.288   0.537
 7872TIP3    H123557   3.987   4.360   0.479
 7872TIP3    H223558   4.043   4.274   0.590
 7873TIP3   OH223559   5.593   5.263   2.393
 7873TIP3    H123560   5.662   5.258   2.459
 7873TIP3    H223561   5.516   5.292   2.442
 7874TIP3   OH223562   4.605   1.370   2.830
 7874TIP3    H123563   4.676   1.435   2.827
 7874TIP3    H223564   4.529   1.417   2.795
 7875TIP3   OH223565   0.127   2.013   6.716
 7875TIP3    H123566   0.104   1.987   6.805
 7875TIP3    H223567   0.072   2.089   6.698
 7876TIP3   OH223568   2.025   3.527   3.768
 7876TIP3    H123569   2.096   3.470   3.799
 7876TIP3    H223570   2.019   3.509   3.674
 7877TIP3   OH223571   3.551   6.942   3.375
 7877TIP3    H123572   3.604   6.961   3.452
 7877TIP3    H223573   3.579   7.006   3.309
 7878TIP3   OH223574   0.125   7.323   2.923
 7878TIP3    H123575   0.094   7.409   2.894
 7878TIP3    H223576   0.216   7.338   2.949
 7879TIP3   OH223577   4.376   4.914   6.097
 7879TIP3    H123578   4.454   4.945   6.142
 7879TIP3    H223579   4.354   4.832   6.141
 7880TIP3   OH223580   7.249   5.073   5.784
 7880TIP3    H123581   7.333   5.028   5.779
 7880TIP3    H223582   7.184   5.004   5.769
 7881TIP3   OH223583   1.180   5.921   0.111
 7881TIP3    H123584   1.248   5.984   0.086
 7881TIP3    H223585   1.112   5.932   0.044
 7882TIP3   OH223586   4.518   7.642   5.361
 7882TIP3    H123587   4.551   7.558   5.394
 7882TIP3    H223588   4.509   7.629   5.267
 7883TIP3   OH223589   2.948   4.766   0.208
 7883TIP3    H123590   3.007   4.808   0.270
 7883TIP3    H223591   2.860   4.785   0.242
 7884TIP3   OH223592   6.251   3.435   5.231
 7884TIP3    H123593   6.336   3.435   5.274
 7884TIP3    H223594   6.243   3.348   5.193
 7885TIP3   OH223595   8.019   0.140   2.333
 7885TIP3    H123596   8.046   0.214   2.279
 7885TIP3    H223597   8.101   0.101   2.363
 7886TIP3   OH223598   6.148   7.809   6.707
 7886TIP3    H123599   6.087   7.882   6.721
 7886TIP3    H223600   6.092   7.733   6.693
 7887TIP3   OH223601   5.954   4.209   3.714
 7887TIP3    H123602   5.938   4.291   3.761
 7887TIP3    H223603   5.910   4.142   3.766
 7888TIP3   OH223604   5.251   6.398   2.829
 7888TIP3    H123605   5.303   6.325   2.797
 7888TIP3    H223606   5.161   6.366   2.829
 7889TIP3   OH223607   2.011   0.150   2.379
 7889TIP3    H123608   2.086   0.137   2.321
 7889TIP3    H223609   2.025   0.237   2.417
 7890TIP3   OH223610   6.142   6.442   4.424
 7890TIP3    H123611   6.171   6.502   4.492
 7890TIP3    H223612   6.192   6.467   4.346
 7891TIP3   OH223613   2.526   1.004   3.024
 7891TIP3    H123614   2.457   0.988   2.959
 7891TIP3    H223615   2.602   0.957   2.991
 7892TIP3   OH223616   5.599   0.252   5.145
 7892TIP3    H123617   5.533   0.315   5.173
 7892TIP3    H223618   5.555   0.167   5.149
 7893TIP3   OH223619   0.697   0.279   5.142
 7893TIP3    H123620   0.717   0.215   5.210
 7893TIP3    H223621   0.708   0.364   5.185
 7894TIP3   OH223622   2.010   0.197   2.016
 7894TIP3    H123623   2.084   0.168   2.070
 7894TIP3    H223624   1.964   0.260   2.072
 7895TIP3   OH223625   7.980   5.965   1.874
 7895TIP3    H123626   8.060   6.008   1.904
 7895TIP3    H223627   7.909   6.022   1.904
 7896TIP3   OH223628   7.866   4.563   3.912
 7896TIP3    H123629   7.840   4.650   3.941
 7896TIP3    H223630   7.907   4.577   3.826
 7897TIP3   OH223631   3.846   7.130   4.336
 7897TIP3    H123632   3.941   7.121   4.339
 7897TIP3    H223633   3.816   7.103   4.423
 7898TIP3   OH223634   6.796   4.645   0.602
 7898TIP3    H123635   6.865   4.704   0.630
 7898TIP3    H223636   6.765   4.603   0.682
 7899TIP3   OH223637   3.931   4.662   5.122
 7899TIP3    H123638   3.850   4.643   5.073
 7899TIP3    H223639   3.981   4.719   5.064
 7900TIP3   OH223640   0.129   4.881   2.048
 7900TIP3    H123641   0.125   4.814   2.116
 7900TIP3    H223642   0.221   4.904   2.041
 7901TIP3   OH223643   3.265   6.843   2.492
 7901TIP3    H123644   3.205   6.790   2.439
 7901TIP3    H223645   3.349   6.834   2.448
 7902TIP3   OH223646   2.870   4.807   6.071
 7902TIP3    H123647   2.792   4.863   6.078
 7902TIP3    H223648   2.854   4.753   5.993
 7903TIP3   OH223649   3.165   3.501   0.026
 7903TIP3    H123650   3.088   3.497   0.083
 7903TIP3    H223651   3.193   3.410   0.018
 7904TIP3   OH223652   6.344   6.763   6.186
 7904TIP3    H123653   6.406   6.794   6.253
 7904TIP3    H223654   6.259   6.767   6.229
 7905TIP3   OH223655   7.632   7.863   2.579
 7905TIP3    H123656   7.594   7.921   2.512
 7905TIP3    H223657   7.720   7.898   2.594
 7906TIP3   OH223658   3.159   0.132   3.189
 7906TIP3    H123659   3.189   0.042   3.185
 7906TIP3    H223660   3.078   0.133   3.139
 7907TIP3   OH223661   2.669   5.218   3.810
 7907TIP3    H123662   2.764   5.216   3.818
 7907TIP3    H223663   2.643   5.300   3.850
 7908TIP3   OH223664   6.012   1.295   1.100
 7908TIP3    H123665   6.022   1.206   1.064
 7908TIP3    H223666   5.951   1.284   1.173
 7909TIP3   OH223667   5.843   0.716   1.873
 7909TIP3    H123668   5.871   0.625   1.868
 7909TIP3    H223669   5.899   0.763   1.811
 7910TIP3   OH223670   3.884   0.256   4.483
 7910TIP3    H123671   3.907   0.338   4.440
 7910TIP3    H223672   3.955   0.240   4.545
 7911TIP3   OH223673   2.572   6.275   2.382
 7911TIP3    H123674   2.626   6.203   2.350
 7911TIP3    H223675   2.553   6.327   2.303
 7912TIP3   OH223676   5.154   7.268   4.705
 7912TIP3    H123677   5.105   7.230   4.632
 7912TIP3    H223678   5.224   7.318   4.664
 7913TIP3   OH223679   5.846   5.243   2.504
 7913TIP3    H123680   5.922   5.300   2.501
 7913TIP3    H223681   5.873   5.164   2.458
 7914TIP3   OH223682   7.295   4.747   0.527
 7914TIP3    H123683   7.302   4.652   0.521
 7914TIP3    H223684   7.220   4.769   0.472
 7915TIP3   OH223685   0.692   2.704   4.087
 7915TIP3    H123686   0.611   2.706   4.139
 7915TIP3    H223687   0.760   2.682   4.150
 7916TIP3   OH223688   6.492   7.356   1.065
 7916TIP3    H123689   6.508   7.317   1.151
 7916TIP3    H223690   6.541   7.301   1.004
 7917TIP3   OH223691   7.693   1.047   0.082
 7917TIP3    H123692   7.701   1.041   0.177
 7917TIP3    H223693   7.648   1.130   0.067
 7918TIP3   OH223694   1.481   1.879   0.386
 7918TIP3    H123695   1.427   1.807   0.418
 7918TIP3    H223696   1.435   1.958   0.414
 7919TIP3   OH223697   0.953   7.057   6.690
 7919TIP3    H123698   1.042   7.083   6.711
 7919TIP3    H223699   0.908   7.139   6.670
 7920TIP3   OH223700   5.548   0.963   3.449
 7920TIP3    H123701   5.573   1.044   3.492
 7920TIP3    H223702   5.456   0.950   3.472
 7921TIP3   OH223703   7.264   5.063   5.068
 7921TIP3    H123704   7.198   5.127   5.044
 7921TIP3    H223705   7.347   5.104   5.046
 7922TIP3   OH223706   6.860   1.201   6.657
 7922TIP3    H123707   6.822   1.237   6.577
 7922TIP3    H223708   6.941   1.159   6.628
 7923TIP3   OH223709   6.416   0.958   5.002
 7923TIP3    H123710   6.429   0.878   4.951
 7923TIP3    H223711   6.439   0.934   5.092
 7924TIP3   OH223712   4.426   7.454   0.648
 7924TIP3    H123713   4.499   7.434   0.706
 7924TIP3    H223714   4.420   7.549   0.647
 7925TIP3   OH223715   8.387   4.243   4.122
 7925TIP3    H123716   8.299   4.235   4.158
 7925TIP3    H223717   8.443   4.262   4.197
 7926TIP3   OH223718   5.776   6.687   4.643
 7926TIP3    H123719   5.696   6.659   4.597
 7926TIP3    H223720   5.837   6.614   4.632
 7927TIP3   OH223721   4.143   5.257   5.114
 7927TIP3    H123722   4.061   5.267   5.163
 7927TIP3    H223723   4.189   5.185   5.158
 7928TIP3   OH223724   6.711   6.255   6.611
 7928TIP3    H123725   6.615   6.249   6.607
 7928TIP3    H223726   6.733   6.217   6.696
 7929TIP3   OH223727   1.353   2.826   4.891
 7929TIP3    H123728   1.430   2.804   4.943
 7929TIP3    H223729   1.368   2.917   4.863
 7930TIP3   OH223730   3.180   0.048   1.733
 7930TIP3    H123731   3.139   0.133   1.715
 7930TIP3    H223732   3.168   0.035   1.827
 7931TIP3   OH223733   5.311   0.496   1.788
 7931TIP3    H123734   5.324   0.562   1.856
 7931TIP3    H223735   5.313   0.545   1.706
 7932TIP3   OH223736   6.148   3.558   1.082
 7932TIP3    H123737   6.067   3.523   1.044
 7932TIP3    H223738   6.191   3.481   1.120
 7933TIP3   OH223739   4.315   4.711   1.733
 7933TIP3    H123740   4.345   4.624   1.759
 7933TIP3    H223741   4.377   4.738   1.665
 7934TIP3   OH223742   3.279   2.773   3.910
 7934TIP3    H123743   3.234   2.761   3.826
 7934TIP3    H223744   3.254   2.696   3.961
 7935TIP3   OH223745   8.256   2.477   2.546
 7935TIP3    H123746   8.347   2.501   2.528
 7935TIP3    H223747   8.262   2.390   2.586
 7936TIP3   OH223748   0.201   7.736   6.513
 7936TIP3    H123749   0.109   7.762   6.516
 7936TIP3    H223750   0.245   7.794   6.575
 7937TIP3   OH223751   7.454   7.101   0.818
 7937TIP3    H123752   7.516   7.142   0.757
 7937TIP3    H223753   7.424   7.023   0.772
 7938TIP3   OH223754   4.664   4.052   2.130
 7938TIP3    H123755   4.719   4.091   2.063
 7938TIP3    H223756   4.602   3.996   2.082
 7939TIP3   OH223757   5.748   2.547   1.039
 7939TIP3    H123758   5.750   2.570   0.946
 7939TIP3    H223759   5.835   2.572   1.072
 7940TIP3   OH223760   6.692   7.871   0.733
 7940TIP3    H123761   6.604   7.873   0.771
 7940TIP3    H223762   6.685   7.808   0.661
 7941TIP3   OH223763   1.212   4.207   4.785
 7941TIP3    H123764   1.300   4.191   4.820
 7941TIP3    H223765   1.217   4.178   4.694
 7942TIP3   OH223766   2.918   5.533   0.646
 7942TIP3    H123767   2.972   5.548   0.569
 7942TIP3    H223768   2.977   5.494   0.710
 7943TIP3   OH223769   1.498   7.446   1.991
 7943TIP3    H123770   1.546   7.440   1.908
 7943TIP3    H223771   1.444   7.524   1.981
 7944TIP3   OH223772   6.940   6.613   1.314
 7944TIP3    H123773   7.025   6.654   1.300
 7944TIP3    H223774   6.885   6.648   1.243
 7945TIP3   OH223775   4.806   7.045   4.683
 7945TIP3    H123776   4.858   6.972   4.715
 7945TIP3    H223777   4.723   7.006   4.656
 7946TIP3   OH223778   6.815   3.729   2.934
 7946TIP3    H123779   6.838   3.678   3.012
 7946TIP3    H223780   6.773   3.807   2.969
 7947TIP3   OH223781   1.646   1.717   2.549
 7947TIP3    H123782   1.660   1.789   2.487
 7947TIP3    H223783   1.596   1.756   2.621
 7948TIP3   OH223784   3.394   7.277   2.475
 7948TIP3    H123785   3.305   7.245   2.461
 7948TIP3    H223786   3.436   7.270   2.390
 7949TIP3   OH223787   3.350   1.354   2.261
 7949TIP3    H123788   3.339   1.288   2.193
 7949TIP3    H223789   3.292   1.426   2.234
 7950TIP3   OH223790   6.769   4.006   2.031
 7950TIP3    H123791   6.771   4.102   2.030
 7950TIP3    H223792   6.677   3.985   2.044
 7951TIP3   OH223793   2.360   1.762   1.968
 7951TIP3    H123794   2.344   1.773   1.875
 7951TIP3    H223795   2.273   1.751   2.007
 7952TIP3   OH223796   5.001   2.680   2.500
 7952TIP3    H123797   5.046   2.672   2.416
 7952TIP3    H223798   4.943   2.604   2.503
 7953TIP3   OH223799   0.387   0.709   5.095
 7953TIP3    H123800   0.461   0.726   5.037
 7953TIP3    H223801   0.365   0.796   5.131
 7954TIP3   OH223802   3.908   5.568   2.165
 7954TIP3    H123803   3.906   5.480   2.126
 7954TIP3    H223804   3.992   5.571   2.212
 7955TIP3   OH223805   7.524   5.007   4.733
 7955TIP3    H123806   7.491   5.088   4.695
 7955TIP3    H223807   7.549   5.030   4.822
 7956TIP3   OH223808   1.182   7.547   0.358
 7956TIP3    H123809   1.158   7.515   0.445
 7956TIP3    H223810   1.214   7.469   0.312
 7957TIP3   OH223811   0.598   6.685   5.639
 7957TIP3    H123812   0.674   6.669   5.582
 7957TIP3    H223813   0.525   6.640   5.594
 7958TIP3   OH223814   0.682   2.922   1.794
 7958TIP3    H123815   0.742   2.960   1.859
 7958TIP3    H223816   0.696   2.975   1.715
 7959TIP3   OH223817   5.354   1.096   1.904
 7959TIP3    H123818   5.413   1.137   1.841
 7959TIP3    H223819   5.411   1.040   1.957
 7960TIP3   OH223820   2.252   6.254   3.167
 7960TIP3    H123821   2.224   6.238   3.257
 7960TIP3    H223822   2.319   6.322   3.173
 7961TIP3   OH223823   7.722   4.450   0.567
 7961TIP3    H123824   7.684   4.460   0.480
 7961TIP3    H223825   7.755   4.537   0.589
 7962TIP3   OH223826   2.887   6.759   3.826
 7962TIP3    H123827   2.960   6.772   3.886
 7962TIP3    H223828   2.908   6.814   3.750
 7963TIP3   OH223829   4.805   5.355   3.794
 7963TIP3    H123830   4.789   5.346   3.888
 7963TIP3    H223831   4.841   5.444   3.785
 7964TIP3   OH223832   8.375   2.356   5.956
 7964TIP3    H123833   8.300   2.348   6.015
 7964TIP3    H223834   8.424   2.274   5.968
 7965TIP3   OH223835   6.830   2.156   6.764
 7965TIP3    H123836   6.762   2.187   6.705
 7965TIP3    H223837   6.906   2.212   6.745
 7966TIP3   OH223838   6.074   2.116   3.864
 7966TIP3    H123839   6.110   2.151   3.945
 7966TIP3    H223840   6.062   2.023   3.881
 7967TIP3   OH223841   3.662   7.501   5.914
 7967TIP3    H123842   3.705   7.516   5.998
 7967TIP3    H223843   3.595   7.569   5.909
 7968TIP3   OH223844   1.006   1.028   1.877
 7968TIP3    H123845   1.066   1.033   1.803
 7968TIP3    H223846   0.995   1.118   1.905
 7969TIP3   OH223847   0.134   3.585   1.394
 7969TIP3    H123848   0.162   3.526   1.464
 7969TIP3    H223849   0.106   3.665   1.440
 7970TIP3   OH223850   7.022   1.802   0.206
 7970TIP3    H123851   6.967   1.854   0.148
 7970TIP3    H223852   7.053   1.729   0.151
 7971TIP3   OH223853   2.386   1.658   5.943
 7971TIP3    H123854   2.354   1.748   5.944
 7971TIP3    H223855   2.462   1.661   5.885
 7972TIP3   OH223856   5.396   1.194   0.247
 7972TIP3    H123857   5.412   1.270   0.304
 7972TIP3    H223858   5.347   1.133   0.302
 7973TIP3   OH223859   7.678   0.434   6.028
 7973TIP3    H123860   7.592   0.465   6.002
 7973TIP3    H223861   7.668   0.340   6.038
 7974TIP3   OH223862   1.821   2.167  -0.002
 7974TIP3    H123863   1.777   2.247  -0.031
 7974TIP3    H223864   1.788   2.152   0.087
 7975TIP3   OH223865   2.956   4.795   6.781
 7975TIP3    H123866   2.980   4.849   6.706
 7975TIP3    H223867   2.889   4.735   6.748
 7976TIP3   OH223868   2.885   7.750   2.935
 7976TIP3    H123869   2.860   7.688   3.003
 7976TIP3    H223870   2.970   7.718   2.904
 7977TIP3   OH223871   5.605   6.295   5.255
 7977TIP3    H123872   5.527   6.269   5.304
 7977TIP3    H223873   5.667   6.320   5.323
 7978TIP3   OH223874   7.284   1.154   0.407
 7978TIP3    H123875   7.231   1.188   0.335
 7978TIP3    H223876   7.374   1.172   0.381
 7979TIP3   OH223877   4.137   7.084   5.568
 7979TIP3    H123878   4.169   7.167   5.533
 7979TIP3    H223879   4.133   7.026   5.492
 7980TIP3   OH223880   0.583   7.739   3.923
 7980TIP3    H123881   0.542   7.656   3.947
 7980TIP3    H223882   0.666   7.739   3.970
 7981TIP3   OH223883   7.952   1.980   1.361
 7981TIP3    H123884   7.948   2.075   1.351
 7981TIP3    H223885   7.925   1.946   1.276
 7982TIP3   OH223886   3.227   7.437   2.193
 7982TIP3    H123887   3.308   7.486   2.182
 7982TIP3    H223888   3.173   7.462   2.118
 7983TIP3   OH223889   4.483   5.454   1.565
 7983TIP3    H123890   4.520   5.371   1.592
 7983TIP3    H223891   4.520   5.470   1.478
 7984TIP3   OH223892   0.712   7.747   2.480
 7984TIP3    H123893   0.701   7.656   2.510
 7984TIP3    H223894   0.787   7.743   2.421
 7985TIP3   OH223895   4.999   3.105   5.182
 7985TIP3    H123896   4.932   3.060   5.131
 7985TIP3    H223897   5.040   3.166   5.120
 7986TIP3   OH223898   6.367   3.415   1.187
 7986TIP3    H123899   6.399   3.486   1.243
 7986TIP3    H223900   6.322   3.356   1.247
 7987TIP3   OH223901   7.027   2.965   0.122
 7987TIP3    H123902   7.063   2.939   0.207
 7987TIP3    H223903   6.989   2.884   0.086
 7988TIP3   OH223904   4.820   3.903   3.748
 7988TIP3    H123905   4.891   3.858   3.795
 7988TIP3    H223906   4.750   3.838   3.743
 7989TIP3   OH223907   1.900   4.019   0.309
 7989TIP3    H123908   1.839   3.974   0.367
 7989TIP3    H223909   1.917   4.103   0.351
 7990TIP3   OH223910   3.642   0.966   3.300
 7990TIP3    H123911   3.724   0.957   3.349
 7990TIP3    H223912   3.573   0.957   3.365
 7991TIP3   OH223913   4.570   2.771   5.199
 7991TIP3    H123914   4.539   2.767   5.290
 7991TIP3    H223915   4.493   2.747   5.147
 7992TIP3   OH223916   4.042   3.802   2.650
 7992TIP3    H123917   3.985   3.795   2.727
 7992TIP3    H223918   4.071   3.712   2.634
 7993TIP3   OH223919   6.381   5.621   2.270
 7993TIP3    H123920   6.368   5.627   2.365
 7993TIP3    H223921   6.324   5.689   2.234
 7994TIP3   OH223922   2.901   1.265   5.528
 7994TIP3    H123923   2.918   1.330   5.597
 7994TIP3    H223924   2.840   1.203   5.568
 7995TIP3   OH223925   6.678   5.576   1.970
 7995TIP3    H123926   6.610   5.515   1.996
 7995TIP3    H223927   6.746   5.522   1.931
 7996TIP3   OH223928   3.054   4.938   4.670
 7996TIP3    H123929   3.036   4.858   4.721
 7996TIP3    H223930   3.047   5.009   4.734
 7997TIP3   OH223931   1.175   7.601   2.980
 7997TIP3    H123932   1.098   7.625   3.032
 7997TIP3    H223933   1.239   7.570   3.045
 7998TIP3   OH223934   0.699   0.953   3.594
 7998TIP3    H123935   0.610   0.936   3.624
 7998TIP3    H223936   0.754   0.937   3.671
 7999TIP3   OH223937   7.607   7.403   5.199
 7999TIP3    H123938   7.677   7.455   5.240
 7999TIP3    H223939   7.526   7.437   5.236
 8000TIP3   OH223940   0.832   7.890   5.656
 8000TIP3    H123941   0.814   7.911   5.564
 8000TIP3    H223942   0.893   7.817   5.652
 8001TIP3   OH223943   0.934   1.556   2.240
 8001TIP3    H123944   0.927   1.648   2.213
 8001TIP3    H223945   0.845   1.522   2.231
 8002TIP3   OH223946   3.263   3.382   1.329
 8002TIP3    H123947   3.189   3.420   1.377
 8002TIP3    H223948   3.331   3.372   1.395
 8003TIP3   OH223949   7.392   0.846   4.405
 8003TIP3    H123950   7.423   0.881   4.488
 8003TIP3    H223951   7.301   0.876   4.398
 8004TIP3   OH223952   2.859   7.686   4.733
 8004TIP3    H123953   2.782   7.744   4.730
 8004TIP3    H223954   2.913   7.714   4.660
 8005TIP3   OH223955   4.535   7.719   3.939
 8005TIP3    H123956   4.507   7.776   4.011
 8005TIP3    H223957   4.631   7.724   3.941
 8006TIP3   OH223958   3.837   0.472   0.220
 8006TIP3    H123959   3.808   0.549   0.171
 8006TIP3    H223960   3.881   0.417   0.154
 8007TIP3   OH223961   6.409   1.973   2.195
 8007TIP3    H123962   6.346   1.952   2.126
 8007TIP3    H223963   6.482   1.914   2.178
 8008TIP3   OH223964   2.361   6.024   6.118
 8008TIP3    H123965   2.432   5.962   6.101
 8008TIP3    H223966   2.312   5.984   6.190
 8009TIP3   OH223967   3.146   3.314   2.342
 8009TIP3    H123968   3.079   3.278   2.284
 8009TIP3    H223969   3.097   3.368   2.404
 8010TIP3   OH223970   0.021   3.792   0.395
 8010TIP3    H123971   0.079   3.739   0.341
 8010TIP3    H223972   0.011   3.742   0.476
 8011TIP3   OH223973   4.877   4.823   1.298
 8011TIP3    H123974   4.894   4.812   1.205
 8011TIP3    H223975   4.917   4.907   1.320
 8012TIP3   OH223976   3.552   3.621   3.102
 8012TIP3    H123977   3.566   3.632   3.008
 8012TIP3    H223978   3.625   3.667   3.142
 8013TIP3   OH223979   4.152   2.593   6.611
 8013TIP3    H123980   4.139   2.587   6.706
 8013TIP3    H223981   4.246   2.609   6.601
 8014TIP3   OH223982   5.439   7.118   0.536
 8014TIP3    H123983   5.529   7.150   0.530
 8014TIP3    H223984   5.387   7.197   0.557
 8015TIP3   OH223985   7.903   3.853   2.196
 8015TIP3    H123986   7.844   3.777   2.194
 8015TIP3    H223987   7.853   3.920   2.243
 8016TIP3   OH223988   6.994   2.777   3.170
 8016TIP3    H123989   7.005   2.856   3.117
 8016TIP3    H223990   7.063   2.718   3.139
 8017TIP3   OH223991   0.216   2.125   2.305
 8017TIP3    H123992   0.272   2.059   2.345
 8017TIP3    H223993   0.135   2.079   2.286
 8018TIP3   OH223994   6.449   4.844   3.496
 8018TIP3    H123995   6.354   4.835   3.503
 8018TIP3    H223996   6.482   4.825   3.584
 8019TIP3   OH223997   2.598   4.988   1.105
 8019TIP3    H123998   2.567   5.076   1.083
 8019TIP3    H223999   2.626   4.951   1.021
 8020TIP3   OH224000   4.587   0.567   3.525
 8020TIP3    H124001   4.538   0.520   3.458
 8020TIP3    H224002   4.535   0.646   3.542
 8021TIP3   OH224003   1.602   0.954   4.603
 8021TIP3    H124004   1.694   0.945   4.627
 8021TIP3    H224005   1.600   1.028   4.542
 8022TIP3   OH224006   3.603   3.644   0.615
 8022TIP3    H124007   3.614   3.552   0.639
 8022TIP3    H224008   3.691   3.681   0.623
 8023TIP3   OH224009   5.991   7.261   0.881
 8023TIP3    H124010   5.996   7.172   0.845
 8023TIP3    H224011   5.950   7.313   0.813
 8024TIP3   OH224012   5.770   5.593   1.831
 8024TIP3    H124013   5.738   5.683   1.840
 8024TIP3    H224014   5.800   5.587   1.740
 8025TIP3   OH224015   1.894   5.963   0.576
 8025TIP3    H124016   1.869   5.912   0.653
 8025TIP3    H224017   1.821   6.022   0.561
 8026TIP3   OH224018   5.999   5.963   0.108
 8026TIP3    H124019   6.019   6.022   0.035
 8026TIP3    H224020   5.981   5.879   0.066
 8027TIP3   OH224021   5.633   4.699   6.641
 8027TIP3    H124022   5.709   4.710   6.583
 8027TIP3    H224023   5.604   4.788   6.659
 8028TIP3   OH224024   5.102   5.059   3.407
 8028TIP3    H124025   5.050   5.121   3.357
 8028TIP3    H224026   5.168   5.027   3.345
 8029TIP3   OH224027   0.558   4.080   0.609
 8029TIP3    H124028   0.529   4.117   0.526
 8029TIP3    H224029   0.629   4.137   0.638
 8030TIP3   OH224030   3.798   7.255   1.097
 8030TIP3    H124031   3.823   7.234   1.187
 8030TIP3    H224032   3.876   7.294   1.059
 8031TIP3   OH224033   8.125   0.551   0.232
 8031TIP3    H124034   8.096   0.534   0.143
 8031TIP3    H224035   8.062   0.505   0.287
 8032TIP3   OH224036   2.918   5.313   0.294
 8032TIP3    H124037   2.872   5.237   0.329
 8032TIP3    H224038   2.942   5.288   0.205
 8033TIP3   OH224039   7.840   6.184   0.345
 8033TIP3    H124040   7.895   6.119   0.302
 8033TIP3    H224041   7.752   6.145   0.344
 8034TIP3   OH224042   8.036   7.514   0.381
 8034TIP3    H124043   7.955   7.554   0.413
 8034TIP3    H224044   8.098   7.527   0.452
 8035TIP3   OH224045   1.113   0.532   0.733
 8035TIP3    H124046   1.121   0.537   0.637
 8035TIP3    H224047   1.144   0.444   0.754
 8036TIP3   OH224048   4.282   1.826   3.374
 8036TIP3    H124049   4.263   1.781   3.292
 8036TIP3    H224050   4.362   1.785   3.406
 8037TIP3   OH224051   7.899   6.240   4.150
 8037TIP3    H124052   7.874   6.320   4.197
 8037TIP3    H224053   7.992   6.253   4.129
 8038TIP3   OH224054   4.224   3.283   4.997
 8038TIP3    H124055   4.274   3.284   5.078
 8038TIP3    H224056   4.195   3.192   4.988
 8039TIP3   OH224057   6.910   3.909   5.728
 8039TIP3    H124058   6.819   3.939   5.719
 8039TIP3    H224059   6.960   3.968   5.672
 8040TIP3   OH224060   6.075   6.179   4.082
 8040TIP3    H124061   6.157   6.227   4.091
 8040TIP3    H224062   6.061   6.174   3.987
 8041TIP3   OH224063   5.051   1.894   0.789
 8041TIP3    H124064   5.061   1.886   0.694
 8041TIP3    H224065   4.958   1.883   0.804
 8042TIP3   OH224066   7.316   0.064   2.678
 8042TIP3    H124067   7.284   0.013   2.753
 8042TIP3    H224068   7.406   0.035   2.667
 8043TIP3   OH224069   6.220   6.781   6.488
 8043TIP3    H124070   6.272   6.855   6.517
 8043TIP3    H224071   6.155   6.819   6.429
 8044TIP3   OH224072   7.806   4.157   2.066
 8044TIP3    H124073   7.842   4.167   2.153
 8044TIP3    H224074   7.880   4.130   2.012
 8045TIP3   OH224075   7.979   0.712   2.897
 8045TIP3    H124076   7.981   0.629   2.851
 8045TIP3    H224077   7.917   0.698   2.969
 8046TIP3   OH224078   0.217   5.206   4.913
 8046TIP3    H124079   0.140   5.158   4.943
 8046TIP3    H224080   0.245   5.257   4.989
 8047TIP3   OH224081   6.800   5.019   1.586
 8047TIP3    H124082   6.820   4.933   1.622
 8047TIP3    H224083   6.727   5.004   1.525
 8048TIP3   OH224084   1.855   6.900   6.559
 8048TIP3    H124085   1.808   6.891   6.642
 8048TIP3    H224086   1.940   6.936   6.583
 8049TIP3   OH224087   4.045   3.946   3.047
 8049TIP3    H124088   4.111   3.997   3.002
 8049TIP3    H224089   4.039   3.985   3.135
 8050TIP3   OH224090   1.052   0.497   5.437
 8050TIP3    H124091   0.979   0.527   5.491
 8050TIP3    H224092   1.104   0.441   5.495
 8051TIP3   OH224093   1.701   7.681   5.933
 8051TIP3    H124094   1.614   7.719   5.946
 8051TIP3    H224095   1.742   7.736   5.866
 8052TIP3   OH224096   0.761   1.218   1.037
 8052TIP3    H124097   0.764   1.307   1.002
 8052TIP3    H224098   0.841   1.210   1.089
 8053TIP3   OH224099   0.688   1.560   5.948
 8053TIP3    H124100   0.741   1.584   6.024
 8053TIP3    H224101   0.750   1.557   5.876
 8054TIP3   OH224102   2.749   2.656   0.913
 8054TIP3    H124103   2.736   2.751   0.915
 8054TIP3    H224104   2.783   2.639   0.825
 8055TIP3   OH224105   5.290   5.831   1.605
 8055TIP3    H124106   5.350   5.836   1.679
 8055TIP3    H224107   5.311   5.908   1.552
 8056TIP3   OH224108   5.878   4.282   2.081
 8056TIP3    H124109   5.825   4.362   2.087
 8056TIP3    H224110   5.958   4.302   2.129
 8057TIP3   OH224111   5.744   1.628   0.672
 8057TIP3    H124112   5.824   1.605   0.626
 8057TIP3    H224113   5.773   1.675   0.750
 8058TIP3   OH224114   5.868   4.486   1.630
 8058TIP3    H124115   5.790   4.486   1.576
 8058TIP3    H224116   5.849   4.549   1.700
 8059TIP3   OH224117   2.781   5.626   0.968
 8059TIP3    H124118   2.836   5.648   0.893
 8059TIP3    H224119   2.832   5.652   1.045
 8060TIP3   OH224120   1.496   5.078   4.241
 8060TIP3    H124121   1.501   4.987   4.269
 8060TIP3    H224122   1.531   5.128   4.315
 8061TIP3   OH224123   6.617   7.724   3.683
 8061TIP3    H124124   6.688   7.685   3.733
 8061TIP3    H224125   6.554   7.754   3.749
 8062TIP3   OH224126   3.341   5.329   0.464
 8062TIP3    H124127   3.354   5.315   0.558
 8062TIP3    H224128   3.404   5.397   0.441
 8063TIP3   OH224129   5.895   7.213   6.492
 8063TIP3    H124130   5.902   7.143   6.557
 8063TIP3    H224131   5.892   7.167   6.408
 8064TIP3   OH224132   3.298   1.038   5.889
 8064TIP3    H124133   3.241   0.978   5.938
 8064TIP3    H224134   3.386   1.007   5.908
 8065TIP3   OH224135   7.918   1.484   3.034
 8065TIP3    H124136   7.830   1.466   3.001
 8065TIP3    H224137   7.908   1.561   3.090
 8066TIP3   OH224138   6.491   2.116   2.450
 8066TIP3    H124139   6.459   2.202   2.423
 8066TIP3    H224140   6.479   2.061   2.373
 8067TIP3   OH224141   7.074   5.670   4.310
 8067TIP3    H124142   7.120   5.615   4.374
 8067TIP3    H224143   7.118   5.755   4.317
 8068TIP3   OH224144   7.636   2.255   6.002
 8068TIP3    H124145   7.560   2.233   5.947
 8068TIP3    H224146   7.674   2.332   5.960
 8069TIP3   OH224147   2.346   4.940   5.904
 8069TIP3    H124148   2.377   5.013   5.851
 8069TIP3    H224149   2.267   4.910   5.860
 8070TIP3   OH224150   6.480   7.106   1.887
 8070TIP3    H124151   6.510   7.058   1.964
 8070TIP3    H224152   6.464   7.195   1.920
 8071TIP3   OH224153   1.825   6.894   2.917
 8071TIP3    H124154   1.822   6.803   2.886
 8071TIP3    H224155   1.734   6.918   2.931
 8072TIP3   OH224156   1.227   1.606   1.728
 8072TIP3    H124157   1.228   1.527   1.673
 8072TIP3    H224158   1.304   1.655   1.699
 8073TIP3   OH224159   4.795   1.149   6.445
 8073TIP3    H124160   4.796   1.058   6.475
 8073TIP3    H224161   4.707   1.180   6.465
 8074TIP3   OH224162   7.145   4.698   6.011
 8074TIP3    H124163   7.124   4.654   5.928
 8074TIP3    H224164   7.239   4.714   6.007
 8075TIP3   OH224165   8.255   0.034   3.969
 8075TIP3    H124166   8.336   0.078   3.993
 8075TIP3    H224167   8.257  -0.049   4.017
 8076TIP3   OH224168   8.137   7.674   0.921
 8076TIP3    H124169   8.077   7.611   0.963
 8076TIP3    H224170   8.081   7.748   0.897
 8077TIP3   OH224171   7.849   3.014   3.927
 8077TIP3    H124172   7.779   2.949   3.938
 8077TIP3    H224173   7.834   3.050   3.840
 8078TIP3   OH224174   6.703   0.349   6.183
 8078TIP3    H124175   6.786   0.307   6.203
 8078TIP3    H224176   6.638   0.301   6.235
 8079TIP3   OH224177   1.531   3.530   2.659
 8079TIP3    H124178   1.507   3.532   2.752
 8079TIP3    H224179   1.610   3.477   2.656
 8080TIP3   OH224180   0.246   0.407   3.882
 8080TIP3    H124181   0.327   0.458   3.881
 8080TIP3    H224182   0.227   0.392   3.974
 8081TIP3   OH224183   1.647   2.618   5.822
 8081TIP3    H124184   1.729   2.655   5.787
 8081TIP3    H224185   1.675   2.563   5.895
 8082TIP3   OH224186   1.409   5.849   1.759
 8082TIP3    H124187   1.433   5.772   1.810
 8082TIP3    H224188   1.405   5.818   1.669
 8083TIP3   OH224189   6.781   3.210   6.254
 8083TIP3    H124190   6.792   3.135   6.312
 8083TIP3    H224191   6.859   3.211   6.200
 8084TIP3   OH224192   7.066   4.740   1.855
 8084TIP3    H124193   6.972   4.751   1.837
 8084TIP3    H224194   7.095   4.676   1.790
 8085TIP3   OH224195   0.193   6.004   0.614
 8085TIP3    H124196   0.114   5.966   0.575
 8085TIP3    H224197   0.235   5.932   0.660
 8086TIP3   OH224198   5.973   3.219   3.929
 8086TIP3    H124199   5.947   3.147   3.986
 8086TIP3    H224200   5.891   3.248   3.889
 8087TIP3   OH224201   6.233   7.505   2.559
 8087TIP3    H124202   6.201   7.480   2.472
 8087TIP3    H224203   6.153   7.523   2.608
 8088TIP3   OH224204   5.746   0.394   4.008
 8088TIP3    H124205   5.754   0.306   4.045
 8088TIP3    H224206   5.747   0.452   4.084
 8089TIP3   OH224207   0.951   1.661   5.099
 8089TIP3    H124208   0.885   1.630   5.036
 8089TIP3    H224209   1.029   1.610   5.079
 8090TIP3   OH224210   4.742   5.081   5.356
 8090TIP3    H124211   4.752   5.047   5.445
 8090TIP3    H224212   4.763   5.174   5.362
 8091TIP3   OH224213   7.165   4.741   3.846
 8091TIP3    H124214   7.227   4.743   3.773
 8091TIP3    H224215   7.166   4.830   3.880
 8092TIP3   OH224216   4.292   1.343   0.807
 8092TIP3    H124217   4.247   1.267   0.771
 8092TIP3    H224218   4.385   1.319   0.808
 8093TIP3   OH224219   5.079   7.055   2.683
 8093TIP3    H124220   5.001   7.013   2.646
 8093TIP3    H224221   5.112   7.110   2.611
 8094TIP3   OH224222   5.218   6.010   4.560
 8094TIP3    H124223   5.154   6.065   4.515
 8094TIP3    H224224   5.222   6.046   4.649
 8095TIP3   OH224225   3.042   5.349   3.232
 8095TIP3    H124226   3.074   5.401   3.305
 8095TIP3    H224227   3.100   5.370   3.159
 8096TIP3   OH224228   5.488   7.614   2.063
 8096TIP3    H124229   5.520   7.685   2.119
 8096TIP3    H224230   5.492   7.536   2.118
 8097TIP3   OH224231   5.758   5.974   5.237
 8097TIP3    H124232   5.718   5.955   5.152
 8097TIP3    H224233   5.701   5.931   5.301
 8098TIP3   OH224234   3.918   4.778   2.506
 8098TIP3    H124235   3.829   4.782   2.471
 8098TIP3    H224236   3.949   4.869   2.502
 8099TIP3   OH224237   2.358   3.073   6.879
 8099TIP3    H124238   2.390   3.064   6.790
 8099TIP3    H224239   2.266   3.097   6.869
 8100TIP3   OH224240   0.394   1.724   6.316
 8100TIP3    H124241   0.361   1.774   6.390
 8100TIP3    H224242   0.323   1.725   6.252
 8101TIP3   OH224243   7.897   4.323   6.398
 8101TIP3    H124244   7.836   4.321   6.472
 8101TIP3    H224245   7.878   4.243   6.349
 8102TIP3   OH224246   6.598   6.204   4.186
 8102TIP3    H124247   6.603   6.251   4.269
 8102TIP3    H224248   6.560   6.119   4.210
 8103TIP3   OH224249   2.891   5.007   3.676
 8103TIP3    H124250   2.851   4.920   3.688
 8103TIP3    H224251   2.984   4.993   3.694
 8104TIP3   OH224252   1.824   3.805   2.791
 8104TIP3    H124253   1.763   3.877   2.808
 8104TIP3    H224254   1.909   3.838   2.821
 8105TIP3   OH224255   6.529   7.503   6.548
 8105TIP3    H124256   6.527   7.505   6.452
 8105TIP3    H224257   6.537   7.411   6.570
 8106TIP3   OH224258   5.223   0.554   5.650
 8106TIP3    H124259   5.199   0.485   5.713
 8106TIP3    H224260   5.142   0.571   5.601
 8107TIP3   OH224261   6.599   0.589   5.401
 8107TIP3    H124262   6.631   0.636   5.325
 8107TIP3    H224263   6.666   0.524   5.420
 8108TIP3   OH224264   1.806   3.712   1.546
 8108TIP3    H124265   1.868   3.640   1.533
 8108TIP3    H224266   1.722   3.668   1.565
 8109TIP3   OH224267   3.805   5.817   2.144
 8109TIP3    H124268   3.714   5.788   2.147
 8109TIP3    H224269   3.856   5.736   2.158
 8110TIP3   OH224270   5.692   0.388   4.911
 8110TIP3    H124271   5.633   0.334   4.963
 8110TIP3    H224272   5.754   0.326   4.872
 8111TIP3   OH224273   5.047   2.900   6.789
 8111TIP3    H124274   4.970   2.865   6.834
 8111TIP3    H224275   5.011   2.963   6.727
 8112TIP3   OH224276   1.052  -0.024   4.352
 8112TIP3    H124277   1.110   0.019   4.414
 8112TIP3    H224278   0.972   0.029   4.353
 8113TIP3   OH224279   7.699   0.339   6.781
 8113TIP3    H124280   7.768   0.329   6.846
 8113TIP3    H224281   7.740   0.315   6.698
 8114TIP3   OH224282   4.108   2.201   3.631
 8114TIP3    H124283   4.177   2.241   3.684
 8114TIP3    H224284   4.033   2.197   3.690
 8115TIP3   OH224285   4.054   7.061   3.217
 8115TIP3    H124286   4.132   7.115   3.229
 8115TIP3    H224287   4.015   7.055   3.304
 8116TIP3   OH224288   2.025   5.516   1.201
 8116TIP3    H124289   1.939   5.528   1.160
 8116TIP3    H224290   2.025   5.577   1.274
 8117TIP3   OH224291   5.580   3.735   6.698
 8117TIP3    H124292   5.500   3.727   6.750
 8117TIP3    H224293   5.631   3.657   6.720
 8118TIP3   OH224294   6.263   3.039   1.209
 8118TIP3    H124295   6.239   3.115   1.262
 8118TIP3    H224296   6.264   3.072   1.119
 8119TIP3   OH224297   0.808   3.204   0.784
 8119TIP3    H124298   0.824   3.139   0.716
 8119TIP3    H224299   0.886   3.199   0.840
 8120TIP3   OH224300   8.363   5.141   5.072
 8120TIP3    H124301   8.301   5.140   5.145
 8120TIP3    H224302   8.327   5.079   5.009
 8121TIP3   OH224303   7.155   0.368   1.926
 8121TIP3    H124304   7.091   0.418   1.977
 8121TIP3    H224305   7.216   0.334   1.991
 8122TIP3   OH224306   2.092   0.258   0.333
 8122TIP3    H124307   2.101   0.348   0.302
 8122TIP3    H224308   2.182   0.231   0.354
 8123TIP3   OH224309   5.026   3.535   4.334
 8123TIP3    H124310   4.953   3.475   4.326
 8123TIP3    H224311   5.062   3.518   4.421
 8124TIP3   OH224312   0.673   6.846   4.043
 8124TIP3    H124313   0.722   6.787   3.986
 8124TIP3    H224314   0.585   6.848   4.005
 8125TIP3   OH224315   8.068   2.166   0.188
 8125TIP3    H124316   8.065   2.261   0.193
 8125TIP3    H224317   8.062   2.147   0.094
 8126TIP3   OH224318   2.681   7.375   6.129
 8126TIP3    H124319   2.726   7.450   6.168
 8126TIP3    H224320   2.636   7.412   6.052
 8127TIP3   OH224321   2.142   6.340   6.376
 8127TIP3    H124322   2.111   6.317   6.288
 8127TIP3    H224323   2.216   6.398   6.360
 8128TIP3   OH224324   1.889   1.604   6.451
 8128TIP3    H124325   1.821   1.667   6.477
 8128TIP3    H224326   1.843   1.542   6.394
 8129TIP3   OH224327   1.776   1.512   2.183
 8129TIP3    H124328   1.707   1.478   2.127
 8129TIP3    H224329   1.746   1.600   2.207
 8130TIP3   OH224330   1.384   4.709   4.727
 8130TIP3    H124331   1.478   4.694   4.738
 8130TIP3    H224332   1.342   4.630   4.763
 8131TIP3   OH224333   6.168   4.730   1.089
 8131TIP3    H124334   6.222   4.651   1.081
 8131TIP3    H224335   6.122   4.736   1.006
 8132TIP3   OH224336   7.904   7.081   4.459
 8132TIP3    H124337   7.936   7.003   4.504
 8132TIP3    H224338   7.938   7.074   4.370
 8133TIP3   OH224339   6.227   0.021   0.886
 8133TIP3    H124340   6.209   0.073   0.965
 8133TIP3    H224341   6.149  -0.033   0.875
 8134TIP3   OH224342   5.139   6.837   1.360
 8134TIP3    H124343   5.220   6.839   1.412
 8134TIP3    H224344   5.154   6.901   1.291
 8135TIP3   OH224345   3.273   4.277   4.926
 8135TIP3    H124346   3.367   4.285   4.941
 8135TIP3    H224347   3.233   4.306   5.009
 8136TIP3   OH224348   1.625   4.595   6.670
 8136TIP3    H124349   1.533   4.620   6.671
 8136TIP3    H224350   1.646   4.584   6.577
 8137TIP3   OH224351   5.354   2.788   1.588
 8137TIP3    H124352   5.366   2.878   1.620
 8137TIP3    H224353   5.411   2.783   1.511
 8138TIP3   OH224354   3.034   4.097   0.605
 8138TIP3    H124355   3.016   4.186   0.637
 8138TIP3    H224356   3.129   4.088   0.610
 8139TIP3   OH224357   4.718   2.194   5.572
 8139TIP3    H124358   4.804   2.203   5.531
 8139TIP3    H224359   4.671   2.273   5.545
 8140TIP3   OH224360   7.690   5.538   1.985
 8140TIP3    H124361   7.652   5.624   2.003
 8140TIP3    H224362   7.645   5.478   2.045
 8141TIP3   OH224363   2.850   7.544   3.533
 8141TIP3    H124364   2.771   7.498   3.504
 8141TIP3    H224365   2.907   7.545   3.456
 8142TIP3   OH224366   7.084   7.754   0.663
 8142TIP3    H124367   7.024   7.811   0.711
 8142TIP3    H224368   7.171   7.788   0.683
 8143TIP3   OH224369   4.158   2.790   3.988
 8143TIP3    H124370   4.245   2.828   3.975
 8143TIP3    H224371   4.111   2.811   3.906
 8144TIP3   OH224372   1.157   4.393   1.672
 8144TIP3    H124373   1.160   4.327   1.741
 8144TIP3    H224374   1.202   4.469   1.710
 8145TIP3   OH224375   7.216   7.246   3.236
 8145TIP3    H124376   7.178   7.323   3.278
 8145TIP3    H224377   7.168   7.236   3.154
 8146TIP3   OH224378   3.792   1.634   2.980
 8146TIP3    H124379   3.786   1.540   2.994
 8146TIP3    H224380   3.885   1.655   2.994
 8147TIP3   OH224381   0.717   1.013   0.374
 8147TIP3    H124382   0.770   1.029   0.295
 8147TIP3    H224383   0.781   0.997   0.443
 8148TIP3   OH224384   4.027   7.859   6.309
 8148TIP3    H124385   3.951   7.864   6.250
 8148TIP3    H224386   4.020   7.773   6.350
 8149TIP3   OH224387   5.077   6.897   3.003
 8149TIP3    H124388   5.034   6.821   2.963
 8149TIP3    H224389   5.025   6.972   2.973
 8150TIP3   OH224390   1.549   5.082   5.893
 8150TIP3    H124391   1.639   5.076   5.862
 8150TIP3    H224392   1.554   5.136   5.972
 8151TIP3   OH224393   3.899   2.372   0.042
 8151TIP3    H124394   3.965   2.365   0.111
 8151TIP3    H224395   3.842   2.296   0.056
 8152TIP3   OH224396   2.281   4.460   4.881
 8152TIP3    H124397   2.238   4.544   4.865
 8152TIP3    H224398   2.251   4.433   4.968
 8153TIP3   OH224399   0.558   3.300   6.386
 8153TIP3    H124400   0.619   3.371   6.407
 8153TIP3    H224401   0.609   3.240   6.332
 8154TIP3   OH224402   8.372   3.594   0.565
 8154TIP3    H124403   8.299   3.586   0.625
 8154TIP3    H224404   8.450   3.577   0.618
 8155TIP3   OH224405   2.276   1.907   5.995
 8155TIP3    H124406   2.225   1.975   6.039
 8155TIP3    H224407   2.367   1.936   6.003
 8156TIP3   OH224408   4.682   2.825   6.305
 8156TIP3    H124409   4.625   2.748   6.298
 8156TIP3    H224410   4.623   2.899   6.293
 8157TIP3   OH224411   0.712   6.967   5.512
 8157TIP3    H124412   0.778   6.908   5.475
 8157TIP3    H224413   0.752   7.054   5.507
 8158TIP3   OH224414   6.806   1.627   2.652
 8158TIP3    H124415   6.885   1.661   2.692
 8158TIP3    H224416   6.831   1.603   2.563
 8159TIP3   OH224417   6.613   5.312   4.429
 8159TIP3    H124418   6.573   5.310   4.342
 8159TIP3    H224419   6.696   5.266   4.418
 8160TIP3   OH224420   3.297   1.359   1.904
 8160TIP3    H124421   3.358   1.329   1.971
 8160TIP3    H224422   3.310   1.299   1.831
 8161TIP3   OH224423   3.871   2.987   4.571
 8161TIP3    H124424   3.883   2.965   4.479
 8161TIP3    H224425   3.940   3.051   4.590
 8162TIP3   OH224426   6.897   1.781   3.529
 8162TIP3    H124427   6.882   1.865   3.571
 8162TIP3    H224428   6.867   1.794   3.439
 8163TIP3   OH224429   4.455   4.794   0.926
 8163TIP3    H124430   4.479   4.838   0.845
 8163TIP3    H224431   4.400   4.857   0.973
 8164TIP3   OH224432   2.755   7.606   3.819
 8164TIP3    H124433   2.764   7.595   3.724
 8164TIP3    H224434   2.667   7.642   3.831
 8165TIP3   OH224435   0.258   0.448   1.520
 8165TIP3    H124436   0.221   0.397   1.592
 8165TIP3    H224437   0.240   0.396   1.441
 8166TIP3   OH224438   3.365   5.042   5.222
 8166TIP3    H124439   3.348   5.002   5.307
 8166TIP3    H224440   3.390   5.132   5.243
 8167TIP3   OH224441   6.819   7.381   1.412
 8167TIP3    H124442   6.806   7.475   1.396
 8167TIP3    H224443   6.823   7.373   1.507
 8168TIP3   OH224444   3.994   0.087   4.829
 8168TIP3    H124445   4.022   0.158   4.771
 8168TIP3    H224446   4.067   0.075   4.890
 8169TIP3   OH224447   6.791   4.539   0.854
 8169TIP3    H124448   6.827   4.478   0.919
 8169TIP3    H224449   6.789   4.623   0.900
 8170TIP3   OH224450   7.472   1.135   6.292
 8170TIP3    H124451   7.540   1.124   6.358
 8170TIP3    H224452   7.401   1.078   6.322
 8171TIP3   OH224453   0.026   6.808   5.608
 8171TIP3    H124454   0.101   6.861   5.635
 8171TIP3    H224455   0.055   6.717   5.621
 8172TIP3   OH224456   8.028   6.479   6.488
 8172TIP3    H124457   7.970   6.414   6.448
 8172TIP3    H224458   8.087   6.505   6.418
 8173TIP3   OH224459   0.807   1.814   3.520
 8173TIP3    H124460   0.717   1.832   3.496
 8173TIP3    H224461   0.832   1.739   3.466
 8174TIP3   OH224462   4.213   5.393   1.342
 8174TIP3    H124463   4.267   5.442   1.281
 8174TIP3    H224464   4.205   5.450   1.419
 8175TIP3   OH224465   1.290   6.986   1.409
 8175TIP3    H124466   1.330   6.927   1.346
 8175TIP3    H224467   1.214   7.022   1.364
 8176TIP3   OH224468   2.889   1.736   0.897
 8176TIP3    H124469   2.796   1.755   0.897
 8176TIP3    H224470   2.923   1.783   0.974
 8177TIP3   OH224471   4.453   6.616   5.976
 8177TIP3    H124472   4.522   6.651   5.920
 8177TIP3    H224473   4.481   6.528   5.998
 8178TIP3   OH224474   1.851   7.374   5.286
 8178TIP3    H124475   1.876   7.351   5.376
 8178TIP3    H224476   1.930   7.357   5.235
 8179TIP3   OH224477   7.817   0.816   0.617
 8179TIP3    H124478   7.806   0.769   0.534
 8179TIP3    H224479   7.729   0.846   0.639
 8180TIP3   OH224480   0.752   2.803   4.907
 8180TIP3    H124481   0.720   2.808   4.997
 8180TIP3    H224482   0.680   2.762   4.859
 8181TIP3   OH224483   7.505   0.751   3.465
 8181TIP3    H124484   7.452   0.757   3.544
 8181TIP3    H224485   7.536   0.661   3.463
 8182TIP3   OH224486   0.827   3.640   1.188
 8182TIP3    H124487   0.793   3.714   1.237
 8182TIP3    H224488   0.910   3.619   1.231
 8183TIP3   OH224489   0.429   4.706   4.123
 8183TIP3    H124490   0.456   4.620   4.156
 8183TIP3    H224491   0.504   4.738   4.074
 8184TIP3   OH224492   2.714   5.045   5.071
 8184TIP3    H124493   2.766   5.036   5.151
 8184TIP3    H224494   2.624   5.045   5.101
 8185TIP3   OH224495   4.571   5.447   3.223
 8185TIP3    H124496   4.558   5.374   3.283
 8185TIP3    H224497   4.606   5.407   3.144
 8186TIP3   OH224498   3.949   1.266   3.477
 8186TIP3    H124499   3.961   1.353   3.438
 8186TIP3    H224500   3.871   1.231   3.434
 8187TIP3   OH224501   3.576   1.553   1.432
 8187TIP3    H124502   3.572   1.538   1.338
 8187TIP3    H224503   3.507   1.616   1.450
 8188TIP3   OH224504   4.734   5.869   3.627
 8188TIP3    H124505   4.685   5.824   3.558
 8188TIP3    H224506   4.737   5.805   3.699
 8189TIP3   OH224507   4.505   2.757   5.636
 8189TIP3    H124508   4.449   2.759   5.559
 8189TIP3    H224509   4.594   2.746   5.602
 8190TIP3   OH224510   5.349   3.892   5.247
 8190TIP3    H124511   5.334   3.981   5.214
 8190TIP3    H224512   5.301   3.835   5.187
 8191TIP3   OH224513   6.555   1.637   0.126
 8191TIP3    H124514   6.540   1.569   0.192
 8191TIP3    H224515   6.471   1.682   0.119
 8192TIP3   OH224516   3.055   0.874   1.147
 8192TIP3    H124517   3.012   0.807   1.095
 8192TIP3    H224518   3.030   0.957   1.106
 8193TIP3   OH224519   6.966   6.356   3.415
 8193TIP3    H124520   6.928   6.429   3.464
 8193TIP3    H224521   6.938   6.278   3.463
 8194TIP3   OH224522   2.347   3.031   6.278
 8194TIP3    H124523   2.432   3.041   6.235
 8194TIP3    H224524   2.291   3.094   6.235
 8195TIP3   OH224525   7.352   5.948   4.110
 8195TIP3    H124526   7.276   5.912   4.065
 8195TIP3    H224527   7.427   5.922   4.057
 8196TIP3   OH224528   4.027   4.914   3.193
 8196TIP3    H124529   4.081   4.845   3.157
 8196TIP3    H224530   4.008   4.885   3.283
 8197TIP3   OH224531   3.589   4.556   0.402
 8197TIP3    H124532   3.663   4.611   0.375
 8197TIP3    H224533   3.618   4.515   0.484
 8198TIP3   OH224534   0.636   2.105   5.246
 8198TIP3    H124535   0.662   2.128   5.335
 8198TIP3    H224536   0.704   2.045   5.215
 8199TIP3   OH224537   3.301   6.034   3.298
 8199TIP3    H124538   3.322   6.001   3.211
 8199TIP3    H224539   3.214   6.074   3.288
 8200TIP3   OH224540   0.747   3.960   5.659
 8200TIP3    H124541   0.751   3.874   5.700
 8200TIP3    H224542   0.676   4.005   5.705
 8201TIP3   OH224543   4.390   0.142   1.008
 8201TIP3    H124544   4.320   0.082   0.983
 8201TIP3    H224545   4.368   0.224   0.963
 8202TIP3   OH224546   1.649   7.549   5.362
 8202TIP3    H124547   1.590   7.508   5.425
 8202TIP3    H224548   1.698   7.477   5.324
 8203TIP3   OH224549   2.905   4.494   4.014
 8203TIP3    H124550   2.909   4.452   3.928
 8203TIP3    H224551   2.977   4.557   4.012
 8204TIP3   OH224552   3.111   0.088   0.300
 8204TIP3    H124553   3.198   0.080   0.260
 8204TIP3    H224554   3.123   0.151   0.371
 8205TIP3   OH224555   1.255   3.037   1.328
 8205TIP3    H124556   1.334   3.077   1.365
 8205TIP3    H224557   1.275   3.026   1.235
 8206TIP3   OH224558   7.097   6.503   5.573
 8206TIP3    H124559   7.160   6.500   5.501
 8206TIP3    H224560   7.149   6.520   5.651
 8207TIP3   OH224561   7.413   4.846   4.118
 8207TIP3    H124562   7.386   4.907   4.186
 8207TIP3    H224563   7.354   4.864   4.045
 8208TIP3   OH224564   0.531   4.289   6.610
 8208TIP3    H124565   0.605   4.229   6.610
 8208TIP3    H224566   0.491   4.278   6.696
 8209TIP3   OH224567   2.864   7.509   3.084
 8209TIP3    H124568   2.923   7.505   3.158
 8209TIP3    H224569   2.785   7.551   3.118
 8210TIP3   OH224570   2.193   5.337   5.121
 8210TIP3    H124571   2.188   5.376   5.033
 8210TIP3    H224572   2.200   5.243   5.105
 8211TIP3   OH224573   4.498   0.968   5.320
 8211TIP3    H124574   4.403   0.957   5.314
 8211TIP3    H224575   4.532   0.881   5.340
 8212TIP3   OH224576   8.086   1.931   6.427
 8212TIP3    H124577   8.076   1.933   6.332
 8212TIP3    H224578   8.003   1.964   6.460
 8213TIP3   OH224579   0.387   6.354   1.811
 8213TIP3    H124580   0.410   6.404   1.733
 8213TIP3    H224581   0.470   6.338   1.856
 8214TIP3   OH224582   7.472   1.097   5.167
 8214TIP3    H124583   7.504   1.039   5.099
 8214TIP3    H224584   7.532   1.083   5.241
 8215TIP3   OH224585   4.247   6.259   5.323
 8215TIP3    H124586   4.169   6.306   5.351
 8215TIP3    H224587   4.215   6.173   5.295
 8216TIP3   OH224588   2.469   3.770   3.252
 8216TIP3    H124589   2.553   3.725   3.257
 8216TIP3    H224590   2.485   3.856   3.292
 8217TIP3   OH224591   4.757   3.025  -0.011
 8217TIP3    H124592   4.683   2.964  -0.010
 8217TIP3    H224593   4.754   3.068   0.075
 8218TIP3   OH224594   0.982   2.981   5.659
 8218TIP3    H124595   1.049   2.952   5.598
 8218TIP3    H224596   1.030   3.024   5.729
 8219TIP3   OH224597   2.458   0.832   0.691
 8219TIP3    H124598   2.422   0.838   0.780
 8219TIP3    H224599   2.467   0.923   0.663
 8220TIP3   OH224600   3.170   6.147   4.066
 8220TIP3    H124601   3.133   6.160   4.153
 8220TIP3    H224602   3.207   6.233   4.043
 8221TIP3   OH224603   2.251   6.715   1.902
 8221TIP3    H124604   2.322   6.768   1.937
 8221TIP3    H224605   2.197   6.776   1.852
 8222TIP3   OH224606   7.928   3.665   6.137
 8222TIP3    H124607   7.931   3.595   6.203
 8222TIP3    H224608   7.837   3.693   6.136
 8223TIP3   OH224609   2.583   1.261   4.637
 8223TIP3    H124610   2.519   1.193   4.621
 8223TIP3    H224611   2.554   1.303   4.719
 8224TIP3   OH224612   1.121   4.913   0.928
 8224TIP3    H124613   1.071   4.851   0.875
 8224TIP3    H224614   1.056   4.955   0.985
 8225TIP3   OH224615   2.956   6.170   4.770
 8225TIP3    H124616   2.883   6.230   4.781
 8225TIP3    H224617   3.017   6.193   4.840
 8226TIP3   OH224618   2.083   3.703   0.590
 8226TIP3    H124619   2.000   3.656   0.592
 8226TIP3    H224620   2.064   3.788   0.629
 8227TIP3   OH224621   6.953   4.416   1.584
 8227TIP3    H124622   6.964   4.497   1.534
 8227TIP3    H224623   6.925   4.444   1.671
 8228TIP3   OH224624   5.944   7.036   3.845
 8228TIP3    H124625   5.916   7.020   3.935
 8228TIP3    H224626   5.935   7.131   3.834
 8229TIP3   OH224627   3.894   5.130   6.128
 8229TIP3    H124628   3.981   5.100   6.101
 8229TIP3    H224629   3.849   5.151   6.046
 8230TIP3   OH224630   6.176   4.021   5.603
 8230TIP3    H124631   6.210   4.042   5.690
 8230TIP3    H224632   6.096   3.971   5.620
 8231TIP3   OH224633   5.265   5.489   0.420
 8231TIP3    H124634   5.312   5.476   0.503
 8231TIP3    H224635   5.231   5.402   0.399
 8232TIP3   OH224636   6.943   1.738   1.866
 8232TIP3    H124637   6.996   1.698   1.935
 8232TIP3    H224638   6.909   1.664   1.816
 8233TIP3   OH224639   2.592   0.461   5.624
 8233TIP3    H124640   2.648   0.393   5.662
 8233TIP3    H224641   2.653   0.523   5.584
 8234TIP3   OH224642   4.079   7.448   2.286
 8234TIP3    H124643   4.153   7.494   2.326
 8234TIP3    H224644   4.111   7.359   2.270
 8235TIP3   OH224645   1.480   6.440   3.859
 8235TIP3    H124646   1.388   6.455   3.839
 8235TIP3    H224647   1.515   6.527   3.878
 8236TIP3   OH224648   6.434   4.683   0.895
 8236TIP3    H124649   6.471   4.708   0.980
 8236TIP3    H224650   6.358   4.628   0.917
 8237TIP3   OH224651   6.313   0.599   3.836
 8237TIP3    H124652   6.307   0.523   3.893
 8237TIP3    H224653   6.256   0.580   3.762
 8238TIP3   OH224654   0.650   2.831   5.880
 8238TIP3    H124655   0.691   2.900   5.932
 8238TIP3    H224656   0.695   2.834   5.796
 8239TIP3   OH224657   7.943   5.645   1.418
 8239TIP3    H124658   7.985   5.731   1.421
 8239TIP3    H224659   7.865   5.658   1.364
 8240TIP3   OH224660   0.433   4.626   2.167
 8240TIP3    H124661   0.451   4.694   2.231
 8240TIP3    H224662   0.514   4.575   2.162
 8241TIP3   OH224663   4.715   3.202   6.094
 8241TIP3    H124664   4.804   3.210   6.129
 8241TIP3    H224665   4.698   3.286   6.051
 8242TIP3   OH224666   4.929   1.102   4.368
 8242TIP3    H124667   4.980   1.147   4.435
 8242TIP3    H224668   4.917   1.013   4.402
 8243TIP3   OH224669   6.883   2.771   4.799
 8243TIP3    H124670   6.803   2.748   4.847
 8243TIP3    H224671   6.950   2.778   4.866
 8244TIP3   OH224672   2.143   4.225   5.721
 8244TIP3    H124673   2.050   4.207   5.734
 8244TIP3    H224674   2.144   4.291   5.652
 8245TIP3   OH224675   7.574   4.737   6.760
 8245TIP3    H124676   7.653   4.738   6.813
 8245TIP3    H224677   7.597   4.689   6.681
 8246TIP3   OH224678   6.388   0.722   4.846
 8246TIP3    H124679   6.296   0.748   4.853
 8246TIP3    H224680   6.384   0.627   4.830
 8247TIP3   OH224681   8.148   1.257   5.152
 8247TIP3    H124682   8.219   1.212   5.106
 8247TIP3    H224683   8.190   1.291   5.231
 8248TIP3   OH224684   4.217   1.897   1.879
 8248TIP3    H124685   4.179   1.868   1.796
 8248TIP3    H224686   4.242   1.988   1.863
 8249TIP3   OH224687   4.214   3.645   0.703
 8249TIP3    H124688   4.251   3.579   0.643
 8249TIP3    H224689   4.122   3.620   0.711
 8250TIP3   OH224690   0.735   0.753   1.279
 8250TIP3    H124691   0.725   0.805   1.199
 8250TIP3    H224692   0.649   0.715   1.294
 8251TIP3   OH224693   7.710   6.490   5.777
 8251TIP3    H124694   7.750   6.491   5.691
 8251TIP3    H224695   7.712   6.398   5.804
 8252TIP3   OH224696   1.457   2.711   1.922
 8252TIP3    H124697   1.447   2.626   1.880
 8252TIP3    H224698   1.370   2.733   1.955
 8253TIP3   OH224699   1.695   3.807   5.783
 8253TIP3    H124700   1.644   3.737   5.743
 8253TIP3    H224701   1.786   3.782   5.769
 8254TIP3   OH224702   0.459   4.557   6.642
 8254TIP3    H124703   0.433   4.466   6.627
 8254TIP3    H224704   0.513   4.554   6.721
 8255TIP3   OH224705   6.071   1.506   2.171
 8255TIP3    H124706   6.043   1.578   2.113
 8255TIP3    H224707   6.167   1.512   2.172
 8256TIP3   OH224708   6.430   3.448   4.555
 8256TIP3    H124709   6.483   3.473   4.479
 8256TIP3    H224710   6.488   3.462   4.629
 8257TIP3   OH224711   2.122   4.078   2.360
 8257TIP3    H124712   2.104   4.053   2.450
 8257TIP3    H224713   2.051   4.039   2.309
 8258TIP3   OH224714   2.450   7.522   1.944
 8258TIP3    H124715   2.359   7.494   1.958
 8258TIP3    H224716   2.502   7.443   1.956
 8259TIP3   OH224717   1.013   7.176   5.694
 8259TIP3    H124718   0.954   7.171   5.618
 8259TIP3    H224719   1.060   7.258   5.681
 8260TIP3   OH224720   4.517   4.187   3.607
 8260TIP3    H124721   4.458   4.241   3.660
 8260TIP3    H224722   4.601   4.189   3.654
 8261TIP3   OH224723   8.068   1.478   4.625
 8261TIP3    H124724   8.032   1.447   4.542
 8261TIP3    H224725   8.033   1.418   4.691
 8262TIP3   OH224726   5.614   0.181   6.280
 8262TIP3    H124727   5.552   0.254   6.278
 8262TIP3    H224728   5.582   0.123   6.349
 8263TIP3   OH224729   3.544   3.631   6.276
 8263TIP3    H124730   3.490   3.709   6.282
 8263TIP3    H224731   3.561   3.620   6.182
 8264TIP3   OH224732   4.667   3.094   0.230
 8264TIP3    H124733   4.592   3.109   0.287
 8264TIP3    H224734   4.713   3.020   0.269
 8265TIP3   OH224735   1.122   5.190   3.729
 8265TIP3    H124736   1.059   5.261   3.720
 8265TIP3    H224737   1.080   5.127   3.788
 8266TIP3   OH224738   7.890   3.454   1.033
 8266TIP3    H124739   7.899   3.370   1.077
 8266TIP3    H224740   7.796   3.466   1.021
 8267TIP3   OH224741   1.062   4.686   4.518
 8267TIP3    H124742   1.120   4.717   4.448
 8267TIP3    H224743   0.981   4.663   4.472
 8268TIP3   OH224744   3.531   5.008   3.988
 8268TIP3    H124745   3.516   4.924   4.032
 8268TIP3    H224746   3.541   4.985   3.895
 8269TIP3   OH224747   0.813   1.409   0.032
 8269TIP3    H124748   0.775   1.360  -0.041
 8269TIP3    H224749   0.907   1.411   0.012
 8270TIP3   OH224750   7.853   0.472   2.379
 8270TIP3    H124751   7.941   0.500   2.354
 8270TIP3    H224752   7.803   0.553   2.389
 8271TIP3   OH224753   2.871   6.549   2.758
 8271TIP3    H124754   2.788   6.512   2.788
 8271TIP3    H224755   2.914   6.579   2.838
 8272TIP3   OH224756   6.335   7.303   6.777
 8272TIP3    H124757   6.297   7.371   6.721
 8272TIP3    H224758   6.260   7.256   6.813
 8273TIP3   OH224759   1.800   0.806   6.628
 8273TIP3    H124760   1.889   0.824   6.600
 8273TIP3    H224761   1.745   0.864   6.575
 8274TIP3   OH224762   7.390   6.160   1.232
 8274TIP3    H124763   7.322   6.096   1.253
 8274TIP3    H224764   7.397   6.157   1.136
 8275TIP3   OH224765   0.241   6.931   0.144
 8275TIP3    H124766   0.154   6.918   0.182
 8275TIP3    H224767   0.299   6.940   0.219
 8276TIP3   OH224768   6.861   3.648   5.806
 8276TIP3    H124769   6.870   3.728   5.754
 8276TIP3    H224770   6.866   3.577   5.741
 8277TIP3   OH224771   4.496   4.163   1.751
 8277TIP3    H124772   4.524   4.097   1.687
 8277TIP3    H224773   4.517   4.246   1.710
 8278TIP3   OH224774   6.974   1.834   4.641
 8278TIP3    H124775   6.982   1.929   4.646
 8278TIP3    H224776   7.002   1.804   4.727
 8279TIP3   OH224777   3.199   4.751   3.475
 8279TIP3    H124778   3.145   4.829   3.460
 8279TIP3    H224779   3.148   4.679   3.438
 8280TIP3   OH224780   6.817   4.803   6.691
 8280TIP3    H124781   6.902   4.837   6.666
 8280TIP3    H224782   6.755   4.845   6.631
 8281TIP3   OH224783   3.252   5.647   1.787
 8281TIP3    H124784   3.252   5.564   1.739
 8281TIP3    H224785   3.244   5.622   1.879
 8282TIP3   OH224786   6.150   7.156   4.133
 8282TIP3    H124787   6.088   7.137   4.062
 8282TIP3    H224788   6.235   7.160   4.090
 8283TIP3   OH224789   8.294   2.946   6.040
 8283TIP3    H124790   8.374   2.937   6.092
 8283TIP3    H224791   8.317   2.910   5.955
 8284TIP3   OH224792   6.862   0.530   6.431
 8284TIP3    H124793   6.773   0.498   6.447
 8284TIP3    H224794   6.853   0.594   6.360
 8285TIP3   OH224795   4.236   5.078   6.600
 8285TIP3    H124796   4.204   5.132   6.527
 8285TIP3    H224797   4.233   4.989   6.567
 8286TIP3   OH224798   0.680   4.905   2.020
 8286TIP3    H124799   0.674   4.975   2.084
 8286TIP3    H224800   0.764   4.862   2.039
 8287TIP3   OH224801   3.655   6.077   2.532
 8287TIP3    H124802   3.664   5.984   2.509
 8287TIP3    H224803   3.619   6.076   2.621
 8288TIP3   OH224804   4.012   5.838   5.686
 8288TIP3    H124805   4.055   5.911   5.732
 8288TIP3    H224806   4.065   5.762   5.707
 8289TIP3   OH224807   3.121   0.642   3.685
 8289TIP3    H124808   3.069   0.565   3.708
 8289TIP3    H224809   3.200   0.635   3.739
 8290TIP3   OH224810   4.336   5.751   3.197
 8290TIP3    H124811   4.326   5.656   3.204
 8290TIP3    H224812   4.246   5.785   3.200
 8291TIP3   OH224813   5.178   5.411   2.329
 8291TIP3    H124814   5.212   5.500   2.335
 8291TIP3    H224815   5.149   5.403   2.238
 8292TIP3   OH224816   6.403   1.723   3.884
 8292TIP3    H124817   6.406   1.648   3.944
 8292TIP3    H224818   6.364   1.794   3.936
 8293TIP3   OH224819   6.444   3.191   3.862
 8293TIP3    H124820   6.381   3.138   3.813
 8293TIP3    H224821   6.442   3.277   3.820
 8294TIP3   OH224822   2.857   3.142   5.496
 8294TIP3    H124823   2.884   3.072   5.556
 8294TIP3    H224824   2.849   3.098   5.411
 8295TIP3   OH224825   0.908   0.629   3.903
 8295TIP3    H124826   0.987   0.681   3.919
 8295TIP3    H224827   0.931   0.542   3.936
 8296TIP3   OH224828   4.771   5.377   4.377
 8296TIP3    H124829   4.773   5.286   4.406
 8296TIP3    H224830   4.857   5.392   4.339
 8297TIP3   OH224831   3.309   0.443   6.123
 8297TIP3    H124832   3.335   0.522   6.075
 8297TIP3    H224833   3.301   0.473   6.214
 8298TIP3   OH224834   4.266   7.784   5.515
 8298TIP3    H124835   4.252   7.769   5.609
 8298TIP3    H224836   4.189   7.833   5.487
 8299TIP3   OH224837   3.342   3.480   4.280
 8299TIP3    H124838   3.337   3.406   4.220
 8299TIP3    H224839   3.432   3.511   4.272
 8300TIP3   OH224840   2.195   3.119   0.429
 8300TIP3    H124841   2.160   3.146   0.344
 8300TIP3    H224842   2.272   3.174   0.442
 8301TIP3   OH224843   7.888   0.678   4.662
 8301TIP3    H124844   7.829   0.677   4.587
 8301TIP3    H224845   7.975   0.691   4.624
 8302TIP3   OH224846   1.334   3.266   2.978
 8302TIP3    H124847   1.423   3.263   3.013
 8302TIP3    H224848   1.283   3.210   3.037
 8303TIP3   OH224849   1.896   3.418   2.007
 8303TIP3    H124850   1.919   3.369   2.086
 8303TIP3    H224851   1.973   3.471   1.988
 8304TIP3   OH224852   3.156   2.257   4.204
 8304TIP3    H124853   3.170   2.339   4.251
 8304TIP3    H224854   3.233   2.248   4.147
 8305TIP3   OH224855   8.294   3.077   1.506
 8305TIP3    H124856   8.341   3.063   1.424
 8305TIP3    H224857   8.355   3.047   1.573
 8306TIP3   OH224858   2.960   0.431   3.520
 8306TIP3    H124859   2.992   0.359   3.465
 8306TIP3    H224860   2.936   0.500   3.458
 8307TIP3   OH224861   5.299   2.178   3.934
 8307TIP3    H124862   5.330   2.172   3.844
 8307TIP3    H224863   5.219   2.125   3.935
 8308TIP3   OH224864   2.430   5.584   1.560
 8308TIP3    H124865   2.370   5.560   1.631
 8308TIP3    H224866   2.517   5.561   1.592
 8309TIP3   OH224867   0.794   0.645   0.127
 8309TIP3    H124868   0.795   0.595   0.209
 8309TIP3    H224869   0.816   0.580   0.060
 8310TIP3   OH224870   3.136   6.088   3.543
 8310TIP3    H124871   3.098   6.012   3.586
 8310TIP3    H224872   3.174   6.054   3.462
 8311TIP3   OH224873   4.960   3.648   6.183
 8311TIP3    H124874   4.902   3.723   6.201
 8311TIP3    H224875   5.048   3.680   6.202
 8312TIP3   OH224876   7.640   7.237   0.517
 8312TIP3    H124877   7.555   7.213   0.481
 8312TIP3    H224878   7.703   7.183   0.468
 8313TIP3   OH224879   1.740   0.127   2.229
 8313TIP3    H124880   1.750   0.199   2.167
 8313TIP3    H224881   1.829   0.103   2.254
 8314TIP3   OH224882   2.061   4.927   6.379
 8314TIP3    H124883   2.124   4.979   6.429
 8314TIP3    H224884   2.112   4.890   6.307
 8315TIP3   OH224885   4.950   1.751   6.348
 8315TIP3    H124886   4.939   1.682   6.282
 8315TIP3    H224887   4.872   1.806   6.337
 8316TIP3   OH224888   3.510   3.566   3.618
 8316TIP3    H124889   3.577   3.614   3.667
 8316TIP3    H224890   3.452   3.530   3.684
 8317TIP3   OH224891   3.064   5.818   2.719
 8317TIP3    H124892   3.080   5.759   2.645
 8317TIP3    H224893   3.149   5.824   2.764
 8318TIP3   OH224894   4.837   6.776   4.770
 8318TIP3    H124895   4.805   6.701   4.720
 8318TIP3    H224896   4.932   6.768   4.768
 8319TIP3   OH224897   0.596   1.348   4.980
 8319TIP3    H124898   0.548   1.383   5.055
 8319TIP3    H224899   0.604   1.255   4.998
 8320TIP3   OH224900   2.557   2.942   3.885
 8320TIP3    H124901   2.483   2.901   3.841
 8320TIP3    H224902   2.520   2.981   3.964
 8321TIP3   OH224903   2.212   1.884   3.694
 8321TIP3    H124904   2.293   1.923   3.725
 8321TIP3    H224905   2.238   1.800   3.656
 8322TIP3   OH224906   2.409   0.222   3.919
 8322TIP3    H124907   2.316   0.202   3.924
 8322TIP3    H224908   2.415   0.314   3.947
 8323TIP3   OH224909   6.950   3.218   2.701
 8323TIP3    H124910   6.887   3.248   2.766
 8323TIP3    H224911   7.028   3.271   2.717
 8324TIP3   OH224912   6.053   2.912   5.217
 8324TIP3    H124913   6.118   2.859   5.171
 8324TIP3    H224914   5.996   2.848   5.260
 8325TIP3   OH224915   2.709   1.129   0.471
 8325TIP3    H124916   2.670   1.107   0.555
 8325TIP3    H224917   2.683   1.058   0.412
 8326TIP3   OH224918   5.790   0.871   0.736
 8326TIP3    H124919   5.794   0.823   0.819
 8326TIP3    H224920   5.786   0.803   0.669
 8327TIP3   OH224921   5.371   0.723   1.970
 8327TIP3    H124922   5.451   0.732   1.918
 8327TIP3    H224923   5.300   0.743   1.909
 8328TIP3   OH224924   1.336   4.978   6.222
 8328TIP3    H124925   1.250   4.976   6.181
 8328TIP3    H224926   1.394   4.940   6.157
 8329TIP3   OH224927   7.728   6.099   1.940
 8329TIP3    H124928   7.662   6.099   1.870
 8329TIP3    H224929   7.759   6.189   1.944
 8330TIP3   OH224930   6.661   5.092   3.061
 8330TIP3    H124931   6.729   5.150   3.095
 8330TIP3    H224932   6.579   5.131   3.093
 8331TIP3   OH224933   7.807   2.736   6.228
 8331TIP3    H124934   7.861   2.794   6.174
 8331TIP3    H224935   7.807   2.777   6.314
 8332TIP3   OH224936   8.006   0.549   1.997
 8332TIP3    H124937   7.935   0.567   1.935
 8332TIP3    H224938   8.017   0.631   2.045
 8333TIP3   OH224939   4.537   0.269   4.330
 8333TIP3    H124940   4.538   0.281   4.235
 8333TIP3    H224941   4.523   0.176   4.343
 8334TIP3   OH224942   2.082   0.187   2.885
 8334TIP3    H124943   2.160   0.193   2.941
 8334TIP3    H224944   2.083   0.268   2.833
 8335TIP3   OH224945   7.639   3.360   4.124
 8335TIP3    H124946   7.618   3.348   4.031
 8335TIP3    H224947   7.713   3.301   4.139
 8336TIP3   OH224948   0.358   6.604   5.507
 8336TIP3    H124949   0.371   6.522   5.461
 8336TIP3    H224950   0.292   6.585   5.574
 8337TIP3   OH224951   0.709   7.714   5.066
 8337TIP3    H124952   0.680   7.715   4.974
 8337TIP3    H224953   0.798   7.681   5.063
 8338TIP3   OH224954   4.411   2.904   3.945
 8338TIP3    H124955   4.465   2.829   3.971
 8338TIP3    H224956   4.460   2.944   3.872
 8339TIP3   OH224957   3.669   6.553   0.463
 8339TIP3    H124958   3.679   6.476   0.519
 8339TIP3    H224959   3.751   6.602   0.476
 8340TIP3   OH224960   4.267   5.946   3.512
 8340TIP3    H124961   4.283   5.897   3.592
 8340TIP3    H224962   4.172   5.951   3.505
 8341TIP3   OH224963   5.898   6.337   3.714
 8341TIP3    H124964   5.892   6.312   3.622
 8341TIP3    H224965   5.811   6.317   3.750
 8342TIP3   OH224966   4.818   1.928   3.801
 8342TIP3    H124967   4.836   1.990   3.730
 8342TIP3    H224968   4.824   1.842   3.760
 8343TIP3   OH224969   1.308   0.066   4.736
 8343TIP3    H124970   1.387   0.023   4.769
 8343TIP3    H224971   1.240   0.044   4.799
 8344TIP3   OH224972   1.601   2.631   5.338
 8344TIP3    H124973   1.519   2.670   5.369
 8344TIP3    H224974   1.611   2.552   5.391
 8345TIP3   OH224975   3.471   1.758   3.498
 8345TIP3    H124976   3.434   1.796   3.579
 8345TIP3    H224977   3.400   1.762   3.435
 8346TIP3   OH224978   6.257   1.285   3.706
 8346TIP3    H124979   6.301   1.263   3.789
 8346TIP3    H224980   6.221   1.372   3.720
 8347TIP3   OH224981   0.913   6.976   3.413
 8347TIP3    H124982   0.931   7.070   3.403
 8347TIP3    H224983   0.869   6.969   3.497
 8348TIP3   OH224984   6.819   4.769   1.389
 8348TIP3    H124985   6.886   4.815   1.439
 8348TIP3    H224986   6.737   4.813   1.410
 8349TIP3   OH224987   3.378   1.734   0.398
 8349TIP3    H124988   3.449   1.670   0.383
 8349TIP3    H224989   3.326   1.696   0.469
 8350TIP3   OH224990   0.578   4.096   3.228
 8350TIP3    H124991   0.643   4.166   3.231
 8350TIP3    H224992   0.497   4.140   3.202
 8351TIP3   OH224993   6.967   7.227   1.247
 8351TIP3    H124994   6.919   7.297   1.290
 8351TIP3    H224995   7.038   7.205   1.308
 8352TIP3   OH224996   2.065   4.500   0.420
 8352TIP3    H124997   2.104   4.473   0.337
 8352TIP3    H224998   2.007   4.428   0.444
 8353TIP3   OH224999   3.269   4.696   6.007
 8353TIP3    H125000   3.363   4.699   6.028
 8353TIP3    H225001   3.240   4.612   6.042
 8354TIP3   OH225002   3.530   6.396   3.462
 8354TIP3    H125003   3.537   6.485   3.427
 8354TIP3    H225004   3.497   6.344   3.389
 8355TIP3   OH225005   4.038   4.718   4.882
 8355TIP3    H125006   4.129   4.701   4.860
 8355TIP3    H225007   3.989   4.700   4.802
 8356TIP3   OH225008   7.777   1.012   2.802
 8356TIP3    H125009   7.863   1.048   2.783
 8356TIP3    H225010   7.716   1.067   2.753
 8357TIP3   OH225011   4.898   1.581   3.239
 8357TIP3    H125012   4.936   1.647   3.181
 8357TIP3    H225013   4.958   1.507   3.234
 8358TIP3   OH225014   0.106   4.230   4.898
 8358TIP3    H125015   0.150   4.296   4.845
 8358TIP3    H225016   0.175   4.189   4.949
 8359TIP3   OH225017   0.501   6.840   6.570
 8359TIP3    H125018   0.525   6.753   6.538
 8359TIP3    H225019   0.540   6.845   6.657
 8360TIP3   OH225020   5.258   3.593   0.527
 8360TIP3    H125021   5.327   3.658   0.540
 8360TIP3    H225022   5.200   3.604   0.602
 8361TIP3   OH225023   6.575   4.168   6.037
 8361TIP3    H125024   6.504   4.230   6.017
 8361TIP3    H225025   6.628   4.167   5.957
 8362TIP3   OH225026   6.973   0.190   6.264
 8362TIP3    H125027   7.048   0.214   6.317
 8362TIP3    H225028   6.921   0.132   6.320
 8363TIP3   OH225029   5.763   5.975   3.022
 8363TIP3    H125030   5.690   5.969   3.084
 8363TIP3    H225031   5.785   6.068   3.020
 8364TIP3   OH225032   5.701   1.597   1.569
 8364TIP3    H125033   5.737   1.508   1.571
 8364TIP3    H225034   5.652   1.605   1.650
 8365TIP3   OH225035   6.659   5.157   6.241
 8365TIP3    H125036   6.587   5.093   6.234
 8365TIP3    H225037   6.636   5.224   6.177
 8366TIP3   OH225038   4.783   2.950   4.651
 8366TIP3    H125039   4.727   3.028   4.647
 8366TIP3    H225040   4.850   2.965   4.585
 8367TIP3   OH225041   0.109   1.825   5.432
 8367TIP3    H125042   0.196   1.833   5.472
 8367TIP3    H225043   0.055   1.889   5.479
 8368TIP3   OH225044   7.468   5.209   1.425
 8368TIP3    H125045   7.539   5.173   1.478
 8368TIP3    H225046   7.398   5.143   1.431
 8369TIP3   OH225047   3.094   6.166   5.740
 8369TIP3    H125048   3.076   6.148   5.648
 8369TIP3    H225049   3.172   6.222   5.739
 8370TIP3   OH225050   2.685   4.064   1.802
 8370TIP3    H125051   2.679   4.054   1.897
 8370TIP3    H225052   2.712   4.155   1.789
 8371TIP3   OH225053   2.685   3.291   3.139
 8371TIP3    H125054   2.642   3.278   3.054
 8371TIP3    H225055   2.662   3.212   3.189
 8372TIP3   OH225056   3.082   2.710   1.071
 8372TIP3    H125057   3.068   2.685   1.163
 8372TIP3    H225058   2.999   2.689   1.028
 8373TIP3   OH225059   0.075   3.462   6.321
 8373TIP3    H125060   0.122   3.524   6.266
 8373TIP3    H225061   0.063   3.509   6.404
 8374TIP3   OH225062   2.974   3.875   1.657
 8374TIP3    H125063   2.935   3.929   1.589
 8374TIP3    H225064   3.067   3.899   1.657
 8375TIP3   OH225065   7.368   1.629   5.843
 8375TIP3    H125066   7.348   1.579   5.764
 8375TIP3    H225067   7.314   1.708   5.836
 8376TIP3   OH225068   2.520   6.301   6.549
 8376TIP3    H125069   2.552   6.245   6.479
 8376TIP3    H225070   2.569   6.382   6.539
 8377TIP3   OH225071   0.332   3.802   3.224
 8377TIP3    H125072   0.262   3.783   3.287
 8377TIP3    H225073   0.313   3.891   3.194
 8378TIP3   OH225074   4.023   7.151   1.712
 8378TIP3    H125075   4.080   7.220   1.677
 8378TIP3    H225076   3.981   7.191   1.788
 8379TIP3   OH225077   0.572   7.452   0.428
 8379TIP3    H125078   0.582   7.547   0.429
 8379TIP3    H225079   0.650   7.419   0.473
 8380TIP3   OH225080   4.927   3.385   5.993
 8380TIP3    H125081   4.986   3.357   5.923
 8380TIP3    H225082   4.976   3.450   6.042
 8381TIP3   OH225083   0.827   1.018   6.375
 8381TIP3    H125084   0.828   1.047   6.285
 8381TIP3    H225085   0.861   0.928   6.371
 8382TIP3   OH225086   4.130   7.573   5.944
 8382TIP3    H125087   4.176   7.609   6.020
 8382TIP3    H225088   4.132   7.478   5.958
 8383TIP3   OH225089   1.790   6.058   2.390
 8383TIP3    H125090   1.725   6.008   2.342
 8383TIP3    H225091   1.830   5.994   2.449
 8384TIP3   OH225092   0.212   6.586   4.818
 8384TIP3    H125093   0.277   6.640   4.863
 8384TIP3    H225094   0.129   6.629   4.837
 8385TIP3   OH225095   3.463   6.159   1.881
 8385TIP3    H125096   3.381   6.200   1.907
 8385TIP3    H225097   3.521   6.232   1.859
 8386TIP3   OH225098   5.059   3.219   4.013
 8386TIP3    H125099   5.064   3.151   4.081
 8386TIP3    H225100   4.967   3.221   3.988
 8387TIP3   OH225101   1.362   1.704   0.573
 8387TIP3    H125102   1.356   1.767   0.645
 8387TIP3    H225103   1.290   1.643   0.589
 8388TIP3   OH225104   0.781   6.807   2.695
 8388TIP3    H125105   0.709   6.757   2.657
 8388TIP3    H225106   0.860   6.758   2.672
 8389TIP3   OH225107   7.747   7.520   4.928
 8389TIP3    H125108   7.653   7.518   4.913
 8389TIP3    H225109   7.786   7.540   4.843
 8390TIP3   OH225110   3.029   3.536   2.477
 8390TIP3    H125111   3.020   3.583   2.560
 8390TIP3    H225112   2.945   3.492   2.464
 8391TIP3   OH225113   8.119   1.036   3.392
 8391TIP3    H125114   8.114   0.941   3.395
 8391TIP3    H225115   8.189   1.059   3.454
 8392TIP3   OH225116   3.011   3.233   6.626
 8392TIP3    H125117   3.022   3.308   6.685
 8392TIP3    H225118   2.982   3.162   6.683
 8393TIP3   OH225119   3.713   2.885   0.758
 8393TIP3    H125120   3.775   2.834   0.706
 8393TIP3    H225121   3.766   2.927   0.825
 8394TIP3   OH225122   3.486   3.884   6.575
 8394TIP3    H125123   3.488   3.979   6.563
 8394TIP3    H225124   3.393   3.863   6.585
 8395TIP3   OH225125   5.293   3.100   1.052
 8395TIP3    H125126   5.368   3.093   0.993
 8395TIP3    H225127   5.246   3.018   1.041
 8396TIP3   OH225128   0.427   7.338   3.662
 8396TIP3    H125129   0.368   7.411   3.680
 8396TIP3    H225130   0.437   7.294   3.746
 8397TIP3   OH225131   0.968   3.843   5.111
 8397TIP3    H125132   0.891   3.842   5.167
 8397TIP3    H225133   1.016   3.764   5.133
 8398TIP3   OH225134   2.931   3.236   2.188
 8398TIP3    H125135   2.845   3.265   2.217
 8398TIP3    H225136   2.917   3.146   2.159
 8399TIP3   OH225137   4.936   5.926   4.132
 8399TIP3    H125138   4.855   5.977   4.134
 8399TIP3    H225139   5.005   5.989   4.153
 8400TIP3   OH225140   6.805   2.772   2.439
 8400TIP3    H125141   6.725   2.792   2.390
 8400TIP3    H225142   6.775   2.720   2.513
 8401TIP3   OH225143   7.046   6.637   0.330
 8401TIP3    H125144   7.048   6.559   0.385
 8401TIP3    H225145   6.961   6.677   0.349
 8402TIP3   OH225146   5.838   1.004   6.823
 8402TIP3    H125147   5.831   1.099   6.819
 8402TIP3    H225148   5.787   0.972   6.749
 8403TIP3   OH225149   2.823   7.139   1.861
 8403TIP3    H125150   2.878   7.127   1.939
 8403TIP3    H225151   2.796   7.231   1.866
 8404TIP3   OH225152   4.414   4.925   3.673
 8404TIP3    H125153   4.494   4.917   3.621
 8404TIP3    H225154   4.356   4.978   3.618
 8405TIP3   OH225155   2.229   1.491   0.272
 8405TIP3    H125156   2.161   1.443   0.319
 8405TIP3    H225157   2.181   1.546   0.209
 8406TIP3   OH225158   0.895   5.987   4.468
 8406TIP3    H125159   0.876   6.018   4.557
 8406TIP3    H225160   0.990   5.994   4.460
 8407TIP3   OH225161   7.582   5.289   4.625
 8407TIP3    H125162   7.562   5.365   4.570
 8407TIP3    H225163   7.635   5.325   4.697
 8408TIP3   OH225164   4.634   7.918   1.272
 8408TIP3    H125165   4.594   7.843   1.229
 8408TIP3    H225166   4.657   7.886   1.359
 8409TIP3   OH225167   1.868   5.491   4.166
 8409TIP3    H125168   1.791   5.542   4.140
 8409TIP3    H225169   1.836   5.435   4.238
 8410TIP3   OH225170   2.892   1.420   1.800
 8410TIP3    H125171   2.801   1.396   1.784
 8410TIP3    H225172   2.891   1.460   1.887
 8411TIP3   OH225173   7.656   1.806   3.347
 8411TIP3    H125174   7.628   1.812   3.438
 8411TIP3    H225175   7.710   1.884   3.334
 8412TIP3   OH225176   4.843   0.336   6.534
 8412TIP3    H125177   4.854   0.278   6.609
 8412TIP3    H225178   4.797   0.282   6.469
 8413TIP3   OH225179   3.206   5.999   0.426
 8413TIP3    H125180   3.278   6.041   0.474
 8413TIP3    H225181   3.247   5.925   0.382
 8414TIP3   OH225182   4.229   6.279   0.242
 8414TIP3    H125183   4.319   6.312   0.247
 8414TIP3    H225184   4.176   6.346   0.283
 8415TIP3   OH225185   1.690   4.861   5.420
 8415TIP3    H125186   1.664   4.873   5.328
 8415TIP3    H225187   1.642   4.928   5.468
 8416TIP3   OH225188   2.371   1.059   5.470
 8416TIP3    H125189   2.407   0.993   5.410
 8416TIP3    H225190   2.407   1.036   5.556
 8417TIP3   OH225191   4.197   0.420   2.062
 8417TIP3    H125192   4.261   0.431   2.132
 8417TIP3    H225193   4.116   0.396   2.107
 8418TIP3   OH225194   3.493   2.225   0.593
 8418TIP3    H125195   3.434   2.149   0.593
 8418TIP3    H225196   3.448   2.290   0.647
 8419TIP3   OH225197   1.493   1.876   2.759
 8419TIP3    H125198   1.468   1.847   2.847
 8419TIP3    H225199   1.418   1.926   2.728
 8420TIP3   OH225200   2.955   5.705   3.142
 8420TIP3    H125201   2.919   5.775   3.197
 8420TIP3    H225202   3.030   5.672   3.192
 8421TIP3   OH225203   4.277   7.152   1.827
 8421TIP3    H125204   4.265   7.116   1.915
 8421TIP3    H225205   4.241   7.085   1.769
 8422TIP3   OH225206   0.527   3.876   0.800
 8422TIP3    H125207   0.509   3.915   0.886
 8422TIP3    H225208   0.487   3.935   0.737
 8423TIP3   OH225209   1.809   7.378   1.485
 8423TIP3    H125210   1.854   7.314   1.539
 8423TIP3    H225211   1.871   7.451   1.477
 8424TIP3   OH225212   0.594   5.167   1.855
 8424TIP3    H125213   0.636   5.195   1.936
 8424TIP3    H225214   0.665   5.170   1.790
 8425TIP3   OH225215   3.344   5.573   2.257
 8425TIP3    H125216   3.415   5.636   2.248
 8425TIP3    H225217   3.352   5.541   2.347
 8426TIP3   OH225218   0.759   0.109   1.738
 8426TIP3    H125219   0.695   0.157   1.791
 8426TIP3    H225220   0.816   0.177   1.703
 8427TIP3   OH225221   5.232   1.105   2.546
 8427TIP3    H125222   5.149   1.106   2.594
 8427TIP3    H225223   5.215   1.158   2.468
 8428TIP3   OH225224   0.422   1.487   0.697
 8428TIP3    H125225   0.517   1.486   0.679
 8428TIP3    H225226   0.383   1.443   0.621
 8429TIP3   OH225227   4.997   7.487   4.771
 8429TIP3    H125228   5.056   7.416   4.748
 8429TIP3    H225229   4.909   7.450   4.760
 8430TIP3   OH225230   7.960   6.421   1.598
 8430TIP3    H125231   8.054   6.432   1.589
 8430TIP3    H225232   7.939   6.459   1.683
 8431TIP3   OH225233   6.689   4.879   2.895
 8431TIP3    H125234   6.660   4.958   2.940
 8431TIP3    H225235   6.679   4.899   2.802
 8432TIP3   OH225236   6.272   2.018   0.409
 8432TIP3    H125237   6.189   2.000   0.455
 8432TIP3    H225238   6.303   2.100   0.449
 8433TIP3   OH225239   0.254   2.279   0.574
 8433TIP3    H125240   0.244   2.200   0.627
 8433TIP3    H225241   0.338   2.268   0.530
 8434TIP3   OH225242   6.705   2.944   4.468
 8434TIP3    H125243   6.796   2.968   4.454
 8434TIP3    H225244   6.660   3.027   4.482
 8435TIP3   OH225245   3.730   2.375   5.023
 8435TIP3    H125246   3.786   2.298   5.038
 8435TIP3    H225247   3.694   2.361   4.935
 8436TIP3   OH225248   3.322   5.848   6.580
 8436TIP3    H125249   3.328   5.761   6.620
 8436TIP3    H225250   3.385   5.845   6.508
 8437TIP3   OH225251   7.110   1.827   1.271
 8437TIP3    H125252   7.018   1.854   1.281
 8437TIP3    H225253   7.110   1.734   1.294
 8438TIP3   OH225254   1.222   0.628   1.148
 8438TIP3    H125255   1.260   0.667   1.069
 8438TIP3    H225256   1.266   0.673   1.220
 8439TIP3   OH225257   4.728   2.946   0.699
 8439TIP3    H125258   4.806   2.900   0.668
 8439TIP3    H225259   4.732   3.031   0.657
 8440TIP3   OH225260   5.514   5.316   0.929
 8440TIP3    H125261   5.536   5.250   0.994
 8440TIP3    H225262   5.461   5.270   0.864
 8441TIP3   OH225263   5.573   3.894   3.320
 8441TIP3    H125264   5.565   3.984   3.352
 8441TIP3    H225265   5.609   3.903   3.232
 8442TIP3   OH225266   4.976   7.175   4.502
 8442TIP3    H125267   4.891   7.132   4.490
 8442TIP3    H225268   4.960   7.267   4.480
 8443TIP3   OH225269   5.668   3.327   5.464
 8443TIP3    H125270   5.696   3.308   5.374
 8443TIP3    H225271   5.750   3.343   5.511
 8444TIP3   OH225272   3.411   4.405   2.162
 8444TIP3    H125273   3.472   4.372   2.228
 8444TIP3    H225274   3.392   4.494   2.189
 8445TIP3   OH225275   6.644   3.307   5.981
 8445TIP3    H125276   6.683   3.267   6.058
 8445TIP3    H225277   6.582   3.371   6.015
 8446TIP3   OH225278   2.914   0.936   2.530
 8446TIP3    H125279   2.934   0.871   2.598
 8446TIP3    H225280   2.998   0.957   2.491
 8447TIP3   OH225281   2.890   3.576   6.327
 8447TIP3    H125282   2.871   3.539   6.241
 8447TIP3    H225283   2.874   3.505   6.388
 8448TIP3   OH225284   1.817   1.260   4.279
 8448TIP3    H125285   1.756   1.255   4.353
 8448TIP3    H225286   1.880   1.327   4.304
 8449TIP3   OH225287   8.336   3.858   2.640
 8449TIP3    H125288   8.431   3.871   2.643
 8449TIP3    H225289   8.308   3.862   2.731
 8450TIP3   OH225290   4.977   2.432   1.411
 8450TIP3    H125291   4.937   2.388   1.336
 8450TIP3    H225292   5.064   2.394   1.417
 8451TIP3   OH225293   5.673   3.487   6.811
 8451TIP3    H125294   5.726   3.414   6.842
 8451TIP3    H225295   5.637   3.526   6.890
 8452TIP3   OH225296   5.617   4.315   2.514
 8452TIP3    H125297   5.563   4.309   2.435
 8452TIP3    H225298   5.580   4.251   2.574
 8453TIP3   OH225299   5.711   5.223   2.146
 8453TIP3    H125300   5.678   5.256   2.229
 8453TIP3    H225301   5.660   5.271   2.080
 8454TIP3   OH225302   3.987   3.800   6.509
 8454TIP3    H125303   3.900   3.838   6.506
 8454TIP3    H225304   4.021   3.812   6.420
 8455TIP3   OH225305   4.297   3.352   5.596
 8455TIP3    H125306   4.336   3.271   5.630
 8455TIP3    H225307   4.359   3.420   5.622
 8456TIP3   OH225308   3.468   7.614   6.720
 8456TIP3    H125309   3.454   7.699   6.763
 8456TIP3    H225310   3.399   7.609   6.654
 8457TIP3   OH225311   6.617   3.048   4.083
 8457TIP3    H125312   6.550   3.113   4.064
 8457TIP3    H225313   6.687   3.096   4.126
 8458TIP3   OH225314   8.171   6.319   3.987
 8458TIP3    H125315   8.201   6.317   4.078
 8458TIP3    H225316   8.181   6.411   3.960
 8459TIP3   OH225317   0.922   1.973   1.475
 8459TIP3    H125318   0.934   2.032   1.400
 8459TIP3    H225319   0.864   2.020   1.534
 8460TIP3   OH225320   5.420   1.081   0.604
 8460TIP3    H125321   5.488   1.035   0.653
 8460TIP3    H225322   5.340   1.066   0.654
 8461TIP3   OH225323   6.396   6.194   6.218
 8461TIP3    H125324   6.342   6.194   6.297
 8461TIP3    H225325   6.441   6.278   6.221
 8462TIP3   OH225326   1.502   6.036   6.669
 8462TIP3    H125327   1.476   6.078   6.587
 8462TIP3    H225328   1.598   6.041   6.669
 8463TIP3   OH225329   5.009   7.702   6.740
 8463TIP3    H125330   5.062   7.634   6.698
 8463TIP3    H225331   4.930   7.709   6.687
 8464TIP3   OH225332   3.047   5.610   5.055
 8464TIP3    H125333   3.055   5.548   4.982
 8464TIP3    H225334   3.045   5.696   5.014
 8465TIP3   OH225335   3.200   2.731   0.256
 8465TIP3    H125336   3.151   2.733   0.338
 8465TIP3    H225337   3.286   2.768   0.278
 8466TIP3   OH225338   2.921   2.041   2.656
 8466TIP3    H125339   2.861   1.994   2.598
 8466TIP3    H225340   2.893   2.017   2.744
 8467TIP3   OH225341   2.611   7.451   3.472
 8467TIP3    H125342   2.541   7.512   3.499
 8467TIP3    H225343   2.564   7.378   3.431
 8468TIP3   OH225344   1.076   6.951   2.484
 8468TIP3    H125345   1.058   6.874   2.538
 8468TIP3    H225346   1.004   6.952   2.421
 8469TIP3   OH225347   5.329   5.070   4.004
 8469TIP3    H125348   5.283   5.142   3.961
 8469TIP3    H225349   5.338   5.003   3.936
 8470TIP3   OH225350   7.519   6.649   3.384
 8470TIP3    H125351   7.577   6.576   3.403
 8470TIP3    H225352   7.570   6.727   3.409
 8471TIP3   OH225353   7.200   5.685   0.363
 8471TIP3    H125354   7.222   5.777   0.375
 8471TIP3    H225355   7.284   5.639   0.367
 8472TIP3   OH225356   5.319   1.423   3.948
 8472TIP3    H125357   5.295   1.415   3.856
 8472TIP3    H225358   5.236   1.439   3.993
 8473TIP3   OH225359   0.472   7.221   4.739
 8473TIP3    H125360   0.528   7.286   4.695
 8473TIP3    H225361   0.520   7.199   4.818
 8474TIP3   OH225362   6.045   1.835   2.712
 8474TIP3    H125363   6.050   1.742   2.731
 8474TIP3    H225364   6.137   1.864   2.712
 8475TIP3   OH225365   4.064   2.048  -0.031
 8475TIP3    H125366   3.996   1.982  -0.025
 8475TIP3    H225367   4.080   2.075   0.060
 8476TIP3   OH225368   0.297   0.542   5.951
 8476TIP3    H125369   0.380   0.588   5.960
 8476TIP3    H225370   0.322   0.449   5.949
 8477TIP3   OH225371   7.663   7.809   4.831
 8477TIP3    H125372   7.646   7.811   4.736
 8477TIP3    H225373   7.635   7.721   4.858
 8478TIP3   OH225374   4.245   6.160   0.910
 8478TIP3    H125375   4.193   6.237   0.885
 8478TIP3    H225376   4.180   6.092   0.926
 8479TIP3   OH225377   6.235   6.355   4.724
 8479TIP3    H125378   6.176   6.428   4.742
 8479TIP3    H225379   6.312   6.396   4.684
 8480TIP3   OH225380   0.557   5.297   1.038
 8480TIP3    H125381   0.597   5.383   1.052
 8480TIP3    H225382   0.597   5.240   1.104
 8481TIP3   OH225383   7.048   1.927   6.617
 8481TIP3    H125384   7.082   1.999   6.670
 8481TIP3    H225385   7.007   1.868   6.680
 8482TIP3   OH225386   6.987   7.212   4.941
 8482TIP3    H125387   7.016   7.285   4.887
 8482TIP3    H225388   6.967   7.142   4.879
 8483TIP3   OH225389   8.355   1.357   3.276
 8483TIP3    H125390   8.328   1.273   3.241
 8483TIP3    H225391   8.276   1.411   3.273
 8484TIP3   OH225392   8.160   2.244   3.433
 8484TIP3    H125393   8.080   2.266   3.480
 8484TIP3    H225394   8.139   2.259   3.341
 8485TIP3   OH225395   2.471   1.182   6.475
 8485TIP3    H125396   2.510   1.127   6.543
 8485TIP3    H225397   2.378   1.185   6.497
 8486TIP3   OH225398   0.484   2.092   2.812
 8486TIP3    H125399   0.528   2.163   2.766
 8486TIP3    H225400   0.482   2.019   2.749
 8487TIP3   OH225401   5.849   3.235   3.117
 8487TIP3    H125402   5.821   3.310   3.170
 8487TIP3    H225403   5.899   3.180   3.178
 8488TIP3   OH225404   7.466   0.859   3.187
 8488TIP3    H125405   7.450   0.849   3.281
 8488TIP3    H225406   7.409   0.793   3.146
 8489TIP3   OH225407   1.919   7.698   5.425
 8489TIP3    H125408   1.854   7.636   5.457
 8489TIP3    H225409   1.874   7.783   5.427
 8490TIP3   OH225410   1.962   2.162   3.235
 8490TIP3    H125411   1.877   2.125   3.258
 8490TIP3    H225412   2.025   2.096   3.261
 8491TIP3   OH225413   7.037   0.273   0.321
 8491TIP3    H125414   7.129   0.249   0.310
 8491TIP3    H225415   7.040   0.359   0.364
 8492TIP3   OH225416   5.288   2.371   4.156
 8492TIP3    H125417   5.233   2.327   4.220
 8492TIP3    H225418   5.295   2.310   4.083
 8493TIP3   OH225419   7.433   1.621   6.109
 8493TIP3    H125420   7.405   1.646   6.021
 8493TIP3    H225421   7.493   1.548   6.096
 8494TIP3   OH225422   5.911   6.364   1.120
 8494TIP3    H125423   5.869   6.306   1.182
 8494TIP3    H225424   5.839   6.411   1.078
 8495TIP3   OH225425   8.100   7.292   0.696
 8495TIP3    H125426   8.058   7.250   0.621
 8495TIP3    H225427   8.107   7.384   0.672
 8496TIP3   OH225428   3.029   5.049   1.976
 8496TIP3    H125429   3.116   5.013   1.992
 8496TIP3    H225430   2.971   4.974   1.977
 8497TIP3   OH225431   5.896   7.939   1.247
 8497TIP3    H125432   5.950   7.896   1.181
 8497TIP3    H225433   5.841   7.869   1.283
 8498TIP3   OH225434   2.843   2.265   6.615
 8498TIP3    H125435   2.881   2.212   6.546
 8498TIP3    H225436   2.775   2.210   6.653
 8499TIP3   OH225437   6.893   3.598   4.873
 8499TIP3    H125438   6.957   3.545   4.825
 8499TIP3    H225439   6.920   3.589   4.965
 8500TIP3   OH225440   0.132   7.702   3.604
 8500TIP3    H125441   0.087   7.679   3.685
 8500TIP3    H225442   0.085   7.780   3.573
 8501TIP3   OH225443   4.114   7.833   1.311
 8501TIP3    H125444   4.157   7.845   1.227
 8501TIP3    H225445   4.093   7.922   1.341
 8502TIP3   OH225446   1.473   3.619   4.830
 8502TIP3    H125447   1.424   3.587   4.755
 8502TIP3    H225448   1.475   3.545   4.891
 8503TIP3   OH225449   7.338   0.372   3.780
 8503TIP3    H125450   7.302   0.296   3.735
 8503TIP3    H225451   7.299   0.369   3.867
 8504TIP3   OH225452   2.439   6.183   0.025
 8504TIP3    H125453   2.471   6.268   0.054
 8504TIP3    H225454   2.377   6.202  -0.045
 8505TIP3   OH225455   4.906   4.881   0.676
 8505TIP3    H125456   4.998   4.905   0.678
 8505TIP3    H225457   4.897   4.828   0.597
 8506TIP3   OH225458   5.744   5.053   3.519
 8506TIP3    H125459   5.762   5.146   3.515
 8506TIP3    H225460   5.831   5.011   3.516
 8507TIP3   OH225461   1.445   5.490   0.448
 8507TIP3    H125462   1.508   5.481   0.377
 8507TIP3    H225463   1.499   5.493   0.527
 8508TIP3   OH225464   7.084   2.139   5.878
 8508TIP3    H125465   7.118   2.222   5.912
 8508TIP3    H225466   7.001   2.163   5.837
 8509TIP3   OH225467   1.738   4.575   3.598
 8509TIP3    H125468   1.788   4.497   3.622
 8509TIP3    H225469   1.761   4.590   3.507
 8510TIP3   OH225470   5.425   7.247   4.111
 8510TIP3    H125471   5.500   7.306   4.110
 8510TIP3    H225472   5.456   7.167   4.070
 8511TIP3   OH225473   5.927   3.879   0.849
 8511TIP3    H125474   5.994   3.946   0.866
 8511TIP3    H225475   5.917   3.878   0.754
 8512TIP3   OH225476   4.666   3.756   5.792
 8512TIP3    H125477   4.721   3.833   5.811
 8512TIP3    H225478   4.727   3.682   5.799
 8513TIP3   OH225479   2.678   0.705   1.372
 8513TIP3    H125480   2.646   0.787   1.408
 8513TIP3    H225481   2.599   0.659   1.343
 8514TIP3   OH225482   6.965   3.858   4.913
 8514TIP3    H125483   6.945   3.771   4.878
 8514TIP3    H225484   7.058   3.853   4.937
 8515TIP3   OH225485   6.712   5.057   3.951
 8515TIP3    H125486   6.749   5.140   3.982
 8515TIP3    H225487   6.732   5.056   3.857
 8516TIP3   OH225488   3.518   6.630   2.979
 8516TIP3    H125489   3.514   6.680   2.898
 8516TIP3    H225490   3.454   6.673   3.036
 8517TIP3   OH225491   4.136   4.717   0.558
 8517TIP3    H125492   4.156   4.677   0.643
 8517TIP3    H225493   4.214   4.769   0.537
 8518TIP3   OH225494   7.334   3.670   1.912
 8518TIP3    H125495   7.355   3.577   1.905
 8518TIP3    H225496   7.255   3.681   1.858
 8519TIP3   OH225497   1.077   6.420   2.098
 8519TIP3    H125498   1.120   6.432   2.183
 8519TIP3    H225499   1.075   6.325   2.086
 8520TIP3   OH225500   4.517   6.947   2.840
 8520TIP3    H125501   4.561   7.028   2.867
 8520TIP3    H225502   4.430   6.953   2.881
 8521TIP3   OH225503   4.799   0.248   4.822
 8521TIP3    H125504   4.810   0.154   4.837
 8521TIP3    H225505   4.758   0.254   4.736
 8522TIP3   OH225506   2.231   6.379   0.947
 8522TIP3    H125507   2.205   6.414   1.033
 8522TIP3    H225508   2.272   6.295   0.966
 8523TIP3   OH225509   2.394   2.938   5.942
 8523TIP3    H125510   2.386   2.939   5.847
 8523TIP3    H225511   2.455   2.867   5.960
 8524TIP3   OH225512   0.150   2.458   4.800
 8524TIP3    H125513   0.115   2.375   4.831
 8524TIP3    H225514   0.086   2.489   4.736
 8525TIP3   OH225515   7.236   6.601   4.381
 8525TIP3    H125516   7.288   6.529   4.345
 8525TIP3    H225517   7.263   6.678   4.330
 8526TIP3   OH225518   1.324   1.062   1.145
 8526TIP3    H125519   1.386   0.996   1.113
 8526TIP3    H225520   1.246   1.050   1.091
 8527TIP3   OH225521   6.112   2.270   4.735
 8527TIP3    H125522   6.096   2.195   4.791
 8527TIP3    H225523   6.198   2.302   4.760
 8528TIP3   OH225524   0.054   1.019   4.426
 8528TIP3    H125525   0.001   0.939   4.419
 8528TIP3    H225526   0.012   1.081   4.367
 8529TIP3   OH225527   2.567   1.870   6.033
 8529TIP3    H125528   2.573   1.794   6.091
 8529TIP3    H225529   2.596   1.837   5.948
 8530TIP3   OH225530   5.560   5.070   4.993
 8530TIP3    H125531   5.612   5.018   4.932
 8530TIP3    H225532   5.513   5.005   5.045
 8531TIP3   OH225533   5.222   2.816   1.037
 8531TIP3    H125534   5.271   2.762   1.099
 8531TIP3    H225535   5.132   2.784   1.044
 8532TIP3   OH225536   7.628   0.964   1.610
 8532TIP3    H125537   7.670   0.883   1.581
 8532TIP3    H225538   7.700   1.017   1.646
 8533TIP3   OH225539   7.754   1.856   4.456
 8533TIP3    H125540   7.672   1.812   4.432
 8533TIP3    H225541   7.822   1.792   4.434
 8534TIP3   OH225542   4.176   3.655   4.681
 8534TIP3    H125543   4.150   3.605   4.758
 8534TIP3    H225544   4.107   3.720   4.670
 8535TIP3   OH225545   1.542   1.265   1.107
 8535TIP3    H125546   1.555   1.309   1.192
 8535TIP3    H225547   1.463   1.213   1.120
 8536TIP3   OH225548   4.906   0.810   4.435
 8536TIP3    H125549   4.818   0.819   4.399
 8536TIP3    H225550   4.930   0.719   4.418
 8537TIP3   OH225551   1.169   5.581   0.369
 8537TIP3    H125552   1.118   5.518   0.317
 8537TIP3    H225553   1.235   5.527   0.413
 8538TIP3   OH225554   6.064   1.478   0.843
 8538TIP3    H125555   6.059   1.551   0.781
 8538TIP3    H225556   6.053   1.519   0.929
 8539TIP3   OH225557   3.174   5.662   4.249
 8539TIP3    H125558   3.096   5.611   4.268
 8539TIP3    H225559   3.171   5.675   4.154
 8540TIP3   OH225560   1.964   7.474   3.333
 8540TIP3    H125561   1.882   7.454   3.378
 8540TIP3    H225562   2.027   7.486   3.404
 8541TIP3   OH225563   2.378   3.899   2.546
 8541TIP3    H125564   2.303   3.881   2.603
 8541TIP3    H225565   2.447   3.842   2.577
 8542TIP3   OH225566   5.399   0.894   2.538
 8542TIP3    H125567   5.366   0.983   2.527
 8542TIP3    H225568   5.356   0.863   2.618
 8543TIP3   OH225569   7.206   7.494   3.754
 8543TIP3    H125570   7.127   7.489   3.809
 8543TIP3    H225571   7.214   7.407   3.715
 8544TIP3   OH225572   3.627   2.162   5.734
 8544TIP3    H125573   3.640   2.116   5.817
 8544TIP3    H225574   3.643   2.097   5.667
 8545TIP3   OH225575   5.572   1.557   2.915
 8545TIP3    H125576   5.644   1.619   2.908
 8545TIP3    H225577   5.614   1.471   2.906
 8546TIP3   OH225578   3.741   7.156   5.156
 8546TIP3    H125579   3.756   7.075   5.108
 8546TIP3    H225580   3.719   7.128   5.245
 8547TIP3   OH225581   1.091   1.572   0.926
 8547TIP3    H125582   1.113   1.546   1.015
 8547TIP3    H225583   1.155   1.527   0.871
 8548TIP3   OH225584   1.834   1.231   3.418
 8548TIP3    H125585   1.885   1.298   3.463
 8548TIP3    H225586   1.853   1.150   3.466
 8549TIP3   OH225587   0.029   4.257   0.079
 8549TIP3    H125588   0.078   4.290   0.003
 8549TIP3    H225589   0.092   4.259   0.151
 8550TIP3   OH225590   1.000   5.566   3.496
 8550TIP3    H125591   1.034   5.546   3.409
 8550TIP3    H225592   1.078   5.578   3.550
 8551TIP3   OH225593   2.365   5.844   1.486
 8551TIP3    H125594   2.400   5.758   1.511
 8551TIP3    H225595   2.293   5.858   1.548
 8552TIP3   OH225596   2.907   7.291   6.261
 8552TIP3    H125597   2.811   7.283   6.260
 8552TIP3    H225598   2.926   7.363   6.201
 8553TIP3   OH225599   8.287   1.129   1.405
 8553TIP3    H125600   8.346   1.150   1.477
 8553TIP3    H225601   8.344   1.114   1.330
 8554TIP3   OH225602   1.488   2.098   0.956
 8554TIP3    H125603   1.515   2.136   0.873
 8554TIP3    H225604   1.567   2.061   0.993
 8555TIP3   OH225605   0.079   4.669   6.142
 8555TIP3    H125606   0.013   4.618   6.188
 8555TIP3    H225607   0.036   4.696   6.061
 8556TIP3   OH225608   1.232   3.019   1.045
 8556TIP3    H125609   1.147   3.060   1.031
 8556TIP3    H225610   1.215   2.925   1.035
 8557TIP3   OH225611   7.320   4.487   4.037
 8557TIP3    H125612   7.353   4.532   3.960
 8557TIP3    H225613   7.230   4.464   4.015
 8558TIP3   OH225614   5.419   7.740   4.147
 8558TIP3    H125615   5.364   7.748   4.226
 8558TIP3    H225616   5.470   7.661   4.161
 8559TIP3   OH225617   4.557   7.337   4.639
 8559TIP3    H125618   4.472   7.300   4.665
 8559TIP3    H225619   4.537   7.387   4.559
 8560TIP3   OH225620   7.979   3.933   0.506
 8560TIP3    H125621   7.932   3.908   0.426
 8560TIP3    H225622   7.928   4.005   0.542
 8561TIP3   OH225623   3.489   1.249   5.442
 8561TIP3    H125624   3.497   1.305   5.365
 8561TIP3    H225625   3.448   1.169   5.408
 8562TIP3   OH225626   3.351   1.905   3.692
 8562TIP3    H125627   3.282   1.840   3.692
 8562TIP3    H225628   3.376   1.915   3.784
 8563TIP3   OH225629   6.700   0.074   2.047
 8563TIP3    H125630   6.790   0.086   2.076
 8563TIP3    H225631   6.696   0.116   1.961
 8564TIP3   OH225632   6.061   6.014   4.989
 8564TIP3    H125633   5.996   5.948   4.966
 8564TIP3    H225634   6.085   5.993   5.079
 8565TIP3   OH225635   5.684   1.386   4.767
 8565TIP3    H125636   5.627   1.443   4.715
 8565TIP3    H225637   5.627   1.315   4.796
 8566TIP3   OH225638   6.030   5.381   3.517
 8566TIP3    H125639   6.047   5.451   3.454
 8566TIP3    H225640   6.049   5.420   3.602
 8567TIP3   OH225641   1.498   1.079   2.703
 8567TIP3    H125642   1.569   1.018   2.722
 8567TIP3    H225643   1.540   1.166   2.708
 8568TIP3   OH225644   1.108   3.493   3.486
 8568TIP3    H125645   1.037   3.434   3.509
 8568TIP3    H225646   1.119   3.549   3.564
 8569TIP3   OH225647   0.625   4.466   3.967
 8569TIP3    H125648   0.667   4.489   3.884
 8569TIP3    H225649   0.533   4.449   3.944
 8570TIP3   OH225650   2.600   4.469   3.369
 8570TIP3    H125651   2.549   4.452   3.290
 8570TIP3    H225652   2.637   4.556   3.354
 8571TIP3   OH225653   1.342   6.250   4.732
 8571TIP3    H125654   1.432   6.271   4.758
 8571TIP3    H225655   1.341   6.264   4.637
 8572TIP3   OH225656   6.136   0.536   1.058
 8572TIP3    H125657   6.161   0.526   1.150
 8572TIP3    H225658   6.110   0.448   1.030
 8573TIP3   OH225659   5.731   5.454   5.360
 8573TIP3    H125660   5.705   5.402   5.284
 8573TIP3    H225661   5.803   5.404   5.399
 8574TIP3   OH225662   4.885   2.313   5.299
 8574TIP3    H125663   4.817   2.355   5.246
 8574TIP3    H225664   4.855   2.223   5.308
 8575TIP3   OH225665   6.874   7.626   1.084
 8575TIP3    H125666   6.884   7.711   1.042
 8575TIP3    H225667   6.780   7.606   1.076
 8576TIP3   OH225668   6.305   2.585   2.710
 8576TIP3    H125669   6.248   2.645   2.757
 8576TIP3    H225670   6.332   2.520   2.776
 8577TIP3   OH225671   3.883   0.448   2.517
 8577TIP3    H125672   3.923   0.437   2.431
 8577TIP3    H225673   3.957   0.458   2.577
 8578TIP3   OH225674   4.040   6.720   2.328
 8578TIP3    H125675   4.109   6.717   2.394
 8578TIP3    H225676   4.084   6.742   2.247
 8579TIP3   OH225677   5.343   3.083   3.603
 8579TIP3    H125678   5.410   3.123   3.549
 8579TIP3    H225679   5.291   3.030   3.542
 8580TIP3   OH225680   1.304   3.017   3.410
 8580TIP3    H125681   1.320   3.112   3.418
 8580TIP3    H225682   1.372   2.988   3.349
 8581TIP3   OH225683   0.741   0.420   0.983
 8581TIP3    H125684   0.712   0.372   1.061
 8581TIP3    H225685   0.749   0.353   0.915
 8582TIP3   OH225686   7.650   6.312   1.074
 8582TIP3    H125687   7.653   6.351   1.161
 8582TIP3    H225688   7.680   6.381   1.015
 8583TIP3   OH225689   3.731   3.277   1.391
 8583TIP3    H125690   3.662   3.262   1.456
 8583TIP3    H225691   3.728   3.371   1.375
 8584TIP3   OH225692   6.076   1.058   0.973
 8584TIP3    H125693   6.068   0.963   0.966
 8584TIP3    H225694   6.095   1.087   0.884
 8585TIP3   OH225695   0.146   0.526   5.019
 8585TIP3    H125696   0.143   0.620   5.033
 8585TIP3    H225697   0.237   0.502   5.037
 8586TIP3   OH225698   7.354   5.732   6.084
 8586TIP3    H125699   7.322   5.770   6.002
 8586TIP3    H225700   7.448   5.749   6.083
 8587TIP3   OH225701   3.698   6.438   5.017
 8587TIP3    H125702   3.717   6.383   4.941
 8587TIP3    H225703   3.609   6.470   5.002
 8588TIP3   OH225704   0.167   6.323   5.465
 8588TIP3    H125705   0.179   6.231   5.443
 8588TIP3    H225706   0.135   6.363   5.384
 8589TIP3   OH225707   8.331   2.075   3.195
 8589TIP3    H125708   8.375   2.093   3.111
 8589TIP3    H225709   8.240   2.099   3.179
 8590TIP3   OH225710   6.495   2.733   6.883
 8590TIP3    H125711   6.456   2.656   6.923
 8590TIP3    H225712   6.513   2.707   6.793
 8591TIP3   OH225713   6.766   7.553   2.465
 8591TIP3    H125714   6.835   7.590   2.520
 8591TIP3    H225715   6.716   7.629   2.435
 8592TIP3   OH225716   2.295   2.061   0.556
 8592TIP3    H125717   2.347   2.046   0.477
 8592TIP3    H225718   2.340   2.131   0.602
 8593TIP3   OH225719   1.142   0.545   5.165
 8593TIP3    H125720   1.202   0.619   5.165
 8593TIP3    H225721   1.093   0.554   5.247
 8594TIP3   OH225722   5.090   0.692   2.994
 8594TIP3    H125723   5.003   0.729   2.980
 8594TIP3    H225724   5.125   0.742   3.068
 8595TIP3   OH225725   0.146   3.106   5.885
 8595TIP3    H125726   0.195   3.164   5.944
 8595TIP3    H225727   0.084   3.164   5.841
 8596TIP3   OH225728   0.710   2.345   5.739
 8596TIP3    H125729   0.652   2.420   5.731
 8596TIP3    H225730   0.655   2.277   5.780
 8597TIP3   OH225731   2.179   7.724   3.932
 8597TIP3    H125732   2.179   7.783   3.857
 8597TIP3    H225733   2.154   7.779   4.007
 8598TIP3   OH225734   3.379   2.355   4.481
 8598TIP3    H125735   3.400   2.263   4.463
 8598TIP3    H225736   3.442   2.382   4.547
 8599TIP3   OH225737   6.139   3.889   1.513
 8599TIP3    H125738   6.205   3.853   1.573
 8599TIP3    H225739   6.130   3.822   1.445
 8600TIP3   OH225740   0.743   3.114   5.992
 8600TIP3    H125741   0.737   3.108   6.087
 8600TIP3    H225742   0.824   3.162   5.975
 8601TIP3   OH225743   8.275   7.652   1.454
 8601TIP3    H125744   8.318   7.737   1.459
 8601TIP3    H225745   8.341   7.595   1.415
 8602TIP3   OH225746   6.636   1.665   1.554
 8602TIP3    H125747   6.587   1.718   1.617
 8602TIP3    H225748   6.621   1.708   1.470
 8603TIP3   OH225749   3.198   0.963   2.209
 8603TIP3    H125750   3.179   0.880   2.253
 8603TIP3    H225751   3.288   0.953   2.177
 8604TIP3   OH225752   5.101   5.679   5.078
 8604TIP3    H125753   5.171   5.667   5.014
 8604TIP3    H225754   5.059   5.593   5.086
 8605TIP3   OH225755   0.319   4.407   5.275
 8605TIP3    H125756   0.409   4.398   5.307
 8605TIP3    H225757   0.269   4.432   5.353
 8606TIP3   OH225758   4.403   2.649   1.764
 8606TIP3    H125759   4.477   2.612   1.813
 8606TIP3    H225760   4.399   2.596   1.684
 8607TIP3   OH225761   2.925   2.295   3.557
 8607TIP3    H125762   2.947   2.379   3.517
 8607TIP3    H225763   2.875   2.319   3.636
 8608TIP3   OH225764   0.841   7.292   6.639
 8608TIP3    H125765   0.752   7.296   6.674
 8608TIP3    H225766   0.830   7.262   6.549
 8609TIP3   OH225767   5.014   3.442   1.638
 8609TIP3    H125768   5.096   3.465   1.683
 8609TIP3    H225769   4.954   3.514   1.660
 8610TIP3   OH225770   4.342   0.497   1.867
 8610TIP3    H125771   4.294   0.452   1.936
 8610TIP3    H225772   4.377   0.575   1.910
 8611TIP3   OH225773   7.397   3.863   0.444
 8611TIP3    H125774   7.341   3.869   0.522
 8611TIP3    H225775   7.421   3.954   0.424
 8612TIP3   OH225776   1.887   3.777   5.152
 8612TIP3    H125777   1.844   3.761   5.068
 8612TIP3    H225778   1.979   3.793   5.129
 8613TIP3   OH225779   0.114   0.848   1.543
 8613TIP3    H125780   0.093   0.815   1.456
 8613TIP3    H225781   0.063   0.794   1.603
 8614TIP3   OH225782   3.195   0.658   5.791
 8614TIP3    H125783   3.240   0.696   5.715
 8614TIP3    H225784   3.191   0.564   5.771
 8615TIP3   OH225785   3.300   0.028   4.180
 8615TIP3    H125786   3.263  -0.034   4.117
 8615TIP3    H225787   3.249   0.109   4.166
 8616TIP3   OH225788   4.627   6.337   1.134
 8616TIP3    H125789   4.653   6.425   1.109
 8616TIP3    H225790   4.676   6.279   1.075
 8617TIP3   OH225791   6.709   0.940   6.413
 8617TIP3    H125792   6.768   0.945   6.489
 8617TIP3    H225793   6.700   1.031   6.385
 8618TIP3   OH225794   2.392   2.417   2.373
 8618TIP3    H125795   2.303   2.443   2.346
 8618TIP3    H225796   2.381   2.329   2.409
 8619TIP3   OH225797   7.774   6.934   4.042
 8619TIP3    H125798   7.810   6.847   4.025
 8619TIP3    H225799   7.787   6.982   3.960
 8620TIP3   OH225800   3.775   3.825   1.302
 8620TIP3    H125801   3.718   3.900   1.285
 8620TIP3    H225802   3.864   3.858   1.287
 8621TIP3   OH225803   1.805   4.940   0.220
 8621TIP3    H125804   1.874   4.898   0.169
 8621TIP3    H225805   1.732   4.947   0.159
 8622TIP3   OH225806   4.852   6.333   5.887
 8622TIP3    H125807   4.885   6.245   5.867
 8622TIP3    H225808   4.903   6.361   5.963
 8623TIP3   OH225809   8.193   4.773   4.523
 8623TIP3    H125810   8.284   4.801   4.533
 8623TIP3    H225811   8.198   4.678   4.511
 8624TIP3   OH225812   0.496   2.836   6.575
 8624TIP3    H125813   0.570   2.894   6.591
 8624TIP3    H225814   0.533   2.759   6.533
 8625TIP3   OH225815   1.954   1.373   2.333
 8625TIP3    H125816   1.913   1.395   2.417
 8625TIP3    H225817   1.908   1.427   2.269
 8626TIP3   OH225818   2.262   1.039   4.974
 8626TIP3    H125819   2.203   0.993   5.035
 8626TIP3    H225820   2.262   1.129   5.004
 8627TIP3   OH225821   6.582   2.493   5.101
 8627TIP3    H125822   6.508   2.484   5.161
 8627TIP3    H225823   6.548   2.545   5.028
 8628TIP3   OH225824   1.444   7.755   2.482
 8628TIP3    H125825   1.384   7.687   2.514
 8628TIP3    H225826   1.387   7.829   2.461
 8629TIP3   OH225827   1.451   7.769   5.944
 8629TIP3    H125828   1.390   7.789   5.873
 8629TIP3    H225829   1.398   7.719   6.007
 8630TIP3   OH225830   2.144   5.459   0.802
 8630TIP3    H125831   2.187   5.410   0.872
 8630TIP3    H225832   2.076   5.399   0.770
 8631TIP3   OH225833   0.068   5.593   0.540
 8631TIP3    H125834   0.143   5.588   0.600
 8631TIP3    H225835   0.034   5.682   0.551
 8632TIP3   OH225836   7.072   6.080   6.656
 8632TIP3    H125837   6.992   6.073   6.708
 8632TIP3    H225838   7.090   5.990   6.628
 8633TIP3   OH225839   5.553   6.258   3.282
 8633TIP3    H125840   5.578   6.298   3.365
 8633TIP3    H225841   5.601   6.176   3.280
 8634TIP3   OH225842   4.148   4.909   4.483
 8634TIP3    H125843   4.061   4.911   4.525
 8634TIP3    H225844   4.209   4.897   4.556
 8635TIP3   OH225845   3.123   6.657   5.683
 8635TIP3    H125846   3.108   6.726   5.748
 8635TIP3    H225847   3.171   6.700   5.613
 8636TIP3   OH225848   7.951   4.272   5.080
 8636TIP3    H125849   7.904   4.220   5.146
 8636TIP3    H225850   7.998   4.207   5.028
 8637TIP3   OH225851   0.029   6.472   1.185
 8637TIP3    H125852   0.023   6.426   1.269
 8637TIP3    H225853  -0.051   6.524   1.180
 8638TIP3   OH225854   7.851   1.039   3.081
 8638TIP3    H125855   7.945   1.052   3.070
 8638TIP3    H225856   7.819   1.019   2.992
 8639TIP3   OH225857   6.376   4.526   4.182
 8639TIP3    H125858   6.323   4.596   4.220
 8639TIP3    H225859   6.448   4.572   4.138
 8640TIP3   OH225860   1.073   7.177   1.452
 8640TIP3    H125861   1.165   7.201   1.438
 8640TIP3    H225862   1.027   7.261   1.449
 8641TIP3   OH225863   1.682   2.641   3.627
 8641TIP3    H125864   1.646   2.559   3.661
 8641TIP3    H225865   1.695   2.696   3.705
 8642TIP3   OH225866   7.075   7.680   1.317
 8642TIP3    H125867   7.058   7.626   1.240
 8642TIP3    H225868   6.996   7.735   1.326
 8643TIP3   OH225869   2.652   2.432   2.458
 8643TIP3    H125870   2.565   2.395   2.473
 8643TIP3    H225871   2.655   2.447   2.363
 8644TIP3   OH225872   4.453   1.931   4.656
 8644TIP3    H125873   4.450   1.903   4.565
 8644TIP3    H225874   4.502   2.014   4.654
 8645TIP3   OH225875   2.916   2.434   3.040
 8645TIP3    H125876   2.958   2.424   2.955
 8645TIP3    H225877   2.880   2.522   3.039
 8646TIP3   OH225878   7.192   2.611   3.117
 8646TIP3    H125879   7.263   2.576   3.171
 8646TIP3    H225880   7.235   2.635   3.035
 8647TIP3   OH225881   4.920   4.842   3.461
 8647TIP3    H125882   4.962   4.922   3.428
 8647TIP3    H225883   4.980   4.809   3.527
 8648TIP3   OH225884   4.644   6.190   5.246
 8648TIP3    H125885   4.687   6.194   5.161
 8648TIP3    H225886   4.578   6.121   5.236
 8649TIP3   OH225887   6.867   5.591  -0.024
 8649TIP3    H125888   6.835   5.506   0.005
 8649TIP3    H225889   6.923   5.621   0.048
 8650TIP3   OH225890   5.991   5.915   3.771
 8650TIP3    H125891   5.935   5.952   3.703
 8650TIP3    H225892   6.036   5.990   3.809
 8651TIP3   OH225893   1.261   1.983   1.060
 8651TIP3    H125894   1.266   1.943   1.147
 8651TIP3    H225895   1.353   1.993   1.033
 8652TIP3   OH225896   8.276   3.046   4.246
 8652TIP3    H125897   8.337   3.120   4.254
 8652TIP3    H225898   8.207   3.064   4.310
 8653TIP3   OH225899   7.489   3.360   6.164
 8653TIP3    H125900   7.463   3.451   6.152
 8653TIP3    H225901   7.474   3.319   6.078
 8654TIP3   OH225902   6.069   2.882   1.303
 8654TIP3    H125903   6.078   2.925   1.388
 8654TIP3    H225904   6.127   2.930   1.244
 8655TIP3   OH225905   1.849   4.244   5.753
 8655TIP3    H125906   1.815   4.155   5.742
 8655TIP3    H225907   1.797   4.297   5.692
 8656TIP3   OH225908   6.416   7.825   6.667
 8656TIP3    H125909   6.329   7.811   6.705
 8656TIP3    H225910   6.473   7.763   6.711
 8657TIP3   OH225911   5.291   4.322   3.788
 8657TIP3    H125912   5.297   4.237   3.833
 8657TIP3    H225913   5.208   4.318   3.740
 8658TIP3   OH225914   4.158   0.085   0.838
 8658TIP3    H125915   4.144   0.169   0.795
 8658TIP3    H225916   4.080   0.073   0.893
 8659TIP3   OH225917   3.797   1.269   4.350
 8659TIP3    H125918   3.724   1.230   4.398
 8659TIP3    H225919   3.800   1.360   4.382
 8660TIP3   OH225920   1.103   1.814   6.620
 8660TIP3    H125921   1.152   1.731   6.626
 8660TIP3    H225922   1.056   1.807   6.537
 8661TIP3   OH225923   2.467   2.836   4.781
 8661TIP3    H125924   2.533   2.836   4.712
 8661TIP3    H225925   2.424   2.921   4.773
 8662TIP3   OH225926   6.581   0.533   5.736
 8662TIP3    H125927   6.577   0.594   5.662
 8662TIP3    H225928   6.560   0.587   5.812
 8663TIP3   OH225929   5.811   2.003   3.742
 8663TIP3    H125930   5.772   1.950   3.673
 8663TIP3    H225931   5.745   2.005   3.811
 8664TIP3   OH225932   5.602   5.871   0.301
 8664TIP3    H125933   5.660   5.854   0.376
 8664TIP3    H225934   5.522   5.823   0.321
 8665TIP3   OH225935   5.618   4.578   3.217
 8665TIP3    H125936   5.702   4.622   3.209
 8665TIP3    H225937   5.640   4.485   3.217
 8666TIP3   OH225938   1.421   6.926   2.192
 8666TIP3    H125939   1.484   6.983   2.238
 8666TIP3    H225940   1.463   6.840   2.191
 8667TIP3   OH225941   2.331   4.909   1.147
 8667TIP3    H125942   2.416   4.951   1.155
 8667TIP3    H225943   2.325   4.885   1.055
 8668TIP3   OH225944   1.035   1.271   4.275
 8668TIP3    H125945   0.977   1.272   4.351
 8668TIP3    H225946   1.103   1.207   4.298
 8669TIP3   OH225947   6.436   4.867   1.818
 8669TIP3    H125948   6.421   4.908   1.733
 8669TIP3    H225949   6.441   4.773   1.799
 8670TIP3   OH225950   2.693   5.908   1.258
 8670TIP3    H125951   2.611   5.865   1.233
 8670TIP3    H225952   2.734   5.930   1.174
 8671TIP3   OH225953   6.590   0.162   5.439
 8671TIP3    H125954   6.540   0.235   5.402
 8671TIP3    H225955   6.674   0.165   5.394
 8672TIP3   OH225956   3.944   7.844   0.281
 8672TIP3    H125957   3.928   7.858   0.187
 8672TIP3    H225958   4.038   7.859   0.291
 8673TIP3   OH225959   1.727   5.344   4.340
 8673TIP3    H125960   1.697   5.300   4.419
 8673TIP3    H225961   1.648   5.378   4.299
 8674TIP3   OH225962   0.174   4.581   6.851
 8674TIP3    H125963   0.103   4.638   6.883
 8674TIP3    H225964   0.160   4.577   6.757
 8675TIP3   OH225965   7.266   6.705   3.829
 8675TIP3    H125966   7.279   6.726   3.921
 8675TIP3    H225967   7.203   6.633   3.830
 8676TIP3   OH225968   3.985   6.673   0.792
 8676TIP3    H125969   3.970   6.682   0.698
 8676TIP3    H225970   4.080   6.677   0.801
 8677TIP3   OH225971   1.733   3.498   6.403
 8677TIP3    H125972   1.780   3.456   6.475
 8677TIP3    H225973   1.788   3.574   6.380
 8678TIP3   OH225974   5.379   0.358   2.940
 8678TIP3    H125975   5.300   0.408   2.919
 8678TIP3    H225976   5.349   0.267   2.944
 8679TIP3   OH225977   0.710   0.850   1.695
 8679TIP3    H125978   0.728   0.925   1.639
 8679TIP3    H225979   0.675   0.887   1.776
 8680TIP3   OH225980   2.812   4.400   6.384
 8680TIP3    H125981   2.740   4.364   6.436
 8680TIP3    H225982   2.774   4.414   6.298
 8681TIP3   OH225983   3.965   7.869   5.920
 8681TIP3    H125984   3.954   7.915   5.837
 8681TIP3    H225985   4.058   7.879   5.942
 8682TIP3   OH225986   7.111   5.384   2.066
 8682TIP3    H125987   7.087   5.434   2.144
 8682TIP3    H225988   7.130   5.296   2.098
 8683TIP3   OH225989   6.145   6.857   2.936
 8683TIP3    H125990   6.231   6.870   2.977
 8683TIP3    H225991   6.152   6.772   2.892
 8684TIP3   OH225992   6.140   2.708   3.785
 8684TIP3    H125993   6.201   2.775   3.814
 8684TIP3    H225994   6.065   2.716   3.845
 8685TIP3   OH225995   7.715   3.610   4.060
 8685TIP3    H125996   7.794   3.602   4.007
 8685TIP3    H225997   7.698   3.522   4.093
 8686TIP3   OH225998   7.051   3.961   1.231
 8686TIP3    H125999   7.140   3.930   1.248
 8686TIP3    H226000   7.064   4.047   1.189
 8687TIP3   OH226001   3.906   6.277   2.388
 8687TIP3    H126002   3.856   6.209   2.344
 8687TIP3    H226003   3.928   6.240   2.473
 8688TIP3   OH226004   3.081   7.806   6.622
 8688TIP3    H126005   3.014   7.738   6.619
 8688TIP3    H226006   3.071   7.846   6.709
 8689TIP3   OH226007   8.117   6.775   5.518
 8689TIP3    H126008   8.176   6.767   5.593
 8689TIP3    H226009   8.149   6.851   5.469
 8690TIP3   OH226010   6.867   7.774   1.670
 8690TIP3    H126011   6.828   7.714   1.605
 8690TIP3    H226012   6.915   7.717   1.730
 8691TIP3   OH226013   4.458   3.130   1.346
 8691TIP3    H126014   4.473   3.120   1.252
 8691TIP3    H226015   4.367   3.104   1.359
 8692TIP3   OH226016   1.857   2.669   5.666
 8692TIP3    H126017   1.850   2.716   5.583
 8692TIP3    H226018   1.892   2.583   5.643
 8693TIP3   OH226019   5.991   6.779   1.775
 8693TIP3    H126020   6.043   6.710   1.733
 8693TIP3    H226021   5.932   6.809   1.705
 8694TIP3   OH226022   4.017   2.656   1.908
 8694TIP3    H126023   3.976   2.741   1.923
 8694TIP3    H226024   3.952   2.593   1.941
 8695TIP3   OH226025   4.916   6.911   5.388
 8695TIP3    H126026   4.913   6.836   5.447
 8695TIP3    H226027   4.935   6.874   5.302
 8696TIP3   OH226028   3.567   2.061   6.312
 8696TIP3    H126029   3.523   2.067   6.397
 8696TIP3    H226030   3.657   2.038   6.333
 8697TIP3   OH226031   5.071   0.347   2.069
 8697TIP3    H126032   5.057   0.426   2.017
 8697TIP3    H226033   5.050   0.373   2.159
 8698TIP3   OH226034   3.657   2.034   5.970
 8698TIP3    H126035   3.704   2.081   6.039
 8698TIP3    H226036   3.722   1.975   5.933
 8699TIP3   OH226037   5.752   1.454   2.231
 8699TIP3    H126038   5.767   1.548   2.244
 8699TIP3    H226039   5.840   1.415   2.234
 8700TIP3   OH226040   2.889   2.070   0.186
 8700TIP3    H126041   2.847   2.036   0.265
 8700TIP3    H226042   2.967   2.115   0.217
 8701TIP3   OH226043   1.373   4.040   1.944
 8701TIP3    H126044   1.426   3.985   2.001
 8701TIP3    H226045   1.389   4.006   1.856
 8702TIP3   OH226046   3.262   1.845   4.198
 8702TIP3    H126047   3.228   1.766   4.239
 8702TIP3    H226048   3.332   1.874   4.257
 8703TIP3   OH226049   7.590   1.789   5.740
 8703TIP3    H126050   7.556   1.725   5.802
 8703TIP3    H226051   7.624   1.737   5.667
 8704TIP3   OH226052   5.716   2.445   1.563
 8704TIP3    H126053   5.743   2.358   1.535
 8704TIP3    H226054   5.736   2.448   1.657
 8705TIP3   OH226055   0.511   5.202   0.486
 8705TIP3    H126056   0.545   5.233   0.570
 8705TIP3    H226057   0.543   5.113   0.479
 8706TIP3   OH226058   1.305   1.321   0.903
 8706TIP3    H126059   1.352   1.373   0.969
 8706TIP3    H226060   1.371   1.259   0.870
 8707TIP3   OH226061   8.331   5.619   6.383
 8707TIP3    H126062   8.387   5.686   6.422
 8707TIP3    H226063   8.326   5.550   6.450
 8708TIP3   OH226064   6.636   3.272   1.533
 8708TIP3    H126065   6.673   3.310   1.453
 8708TIP3    H226066   6.649   3.177   1.522
 8709TIP3   OH226067   2.299   1.978   6.597
 8709TIP3    H126068   2.322   2.030   6.674
 8709TIP3    H226069   2.309   2.039   6.524
 8710TIP3   OH226070   2.590   2.763   4.533
 8710TIP3    H126071   2.652   2.811   4.478
 8710TIP3    H226072   2.615   2.671   4.524
 8711TIP3   OH226073   2.630   3.233   2.880
 8711TIP3    H126074   2.630   3.307   2.819
 8711TIP3    H226075   2.659   3.158   2.828
 8712TIP3   OH226076   0.302   2.314   3.104
 8712TIP3    H126077   0.248   2.253   3.054
 8712TIP3    H226078   0.240   2.376   3.142
 8713TIP3   OH226079   6.657   3.508   4.689
 8713TIP3    H126080   6.731   3.526   4.632
 8713TIP3    H226081   6.671   3.564   4.766
 8714TIP3   OH226082   0.159   4.950   6.310
 8714TIP3    H126083   0.104   4.880   6.276
 8714TIP3    H226084   0.235   4.950   6.252
 8715TIP3   OH226085   3.954   1.895   5.342
 8715TIP3    H126086   3.939   1.808   5.305
 8715TIP3    H226087   3.868   1.937   5.340
 8716TIP3   OH226088   4.643   0.923   3.389
 8716TIP3    H126089   4.648   0.954   3.299
 8716TIP3    H226090   4.713   0.859   3.397
 8717TIP3   OH226091   5.757   0.985   0.482
 8717TIP3    H126092   5.757   1.080   0.470
 8717TIP3    H226093   5.759   0.973   0.577
 8718TIP3   OH226094   8.059   6.278   5.879
 8718TIP3    H126095   8.152   6.278   5.855
 8718TIP3    H226096   8.057   6.323   5.963
 8719TIP3   OH226097   5.257   0.356   0.191
 8719TIP3    H126098   5.206   0.363   0.110
 8719TIP3    H226099   5.191   0.342   0.259
 8720TIP3   OH226100   5.136   4.418   0.806
 8720TIP3    H126101   5.150   4.329   0.771
 8720TIP3    H226102   5.059   4.450   0.759
 8721TIP3   OH226103   1.378   6.763   0.256
 8721TIP3    H126104   1.286   6.753   0.231
 8721TIP3    H226105   1.406   6.675   0.281
 8722TIP3   OH226106   1.547   4.189   2.712
 8722TIP3    H126107   1.532   4.279   2.741
 8722TIP3    H226108   1.492   4.179   2.635
 8723TIP3   OH226109   8.143   4.692   6.075
 8723TIP3    H126110   8.137   4.776   6.119
 8723TIP3    H226111   8.079   4.637   6.119
 8724TIP3   OH226112   1.574   5.011   6.756
 8724TIP3    H126113   1.557   5.083   6.694
 8724TIP3    H226114   1.492   4.963   6.761
 8725TIP3   OH226115   2.422   1.278   5.263
 8725TIP3    H126116   2.500   1.222   5.256
 8725TIP3    H226117   2.373   1.242   5.337
 8726TIP3   OH226118   4.057   2.525   5.796
 8726TIP3    H126119   4.063   2.568   5.882
 8726TIP3    H226120   4.058   2.597   5.733
 8727TIP3   OH226121   3.486   4.742   3.462
 8727TIP3    H126122   3.393   4.721   3.462
 8727TIP3    H226123   3.527   4.671   3.414
 8728TIP3   OH226124   2.669   1.990   1.481
 8728TIP3    H126125   2.687   1.941   1.562
 8728TIP3    H226126   2.574   1.998   1.478
 8729TIP3   OH226127   7.453   3.235   5.884
 8729TIP3    H126128   7.387   3.169   5.863
 8729TIP3    H226129   7.536   3.192   5.864
 8730TIP3   OH226130   5.194   6.008   2.231
 8730TIP3    H126131   5.218   5.981   2.143
 8730TIP3    H226132   5.098   6.015   2.229
 8731TIP3   OH226133   4.762   4.533   5.092
 8731TIP3    H126134   4.738   4.615   5.050
 8731TIP3    H226135   4.822   4.491   5.030
 8732TIP3   OH226136   0.940   0.592   1.439
 8732TIP3    H126137   0.943   0.598   1.535
 8732TIP3    H226138   0.851   0.618   1.416
 8733TIP3   OH226139   0.526   1.155   6.362
 8733TIP3    H126140   0.615   1.190   6.374
 8733TIP3    H226141   0.475   1.194   6.433
 8734TIP3   OH226142   0.276   1.413   0.464
 8734TIP3    H126143   0.214   1.343   0.483
 8734TIP3    H226144   0.221   1.489   0.443
 8735TIP3   OH226145   6.569   5.577   5.169
 8735TIP3    H126146   6.533   5.516   5.105
 8735TIP3    H226147   6.584   5.524   5.247
 8736TIP3   OH226148   3.204   1.453   3.457
 8736TIP3    H126149   3.154   1.526   3.495
 8736TIP3    H226150   3.172   1.376   3.503
 8737TIP3   OH226151   1.879   4.861   5.670
 8737TIP3    H126152   1.850   4.778   5.710
 8737TIP3    H226153   1.834   4.864   5.585
 8738TIP3   OH226154   4.723   4.304   4.871
 8738TIP3    H126155   4.685   4.318   4.784
 8738TIP3    H226156   4.815   4.326   4.861
 8739TIP3   OH226157   2.871   0.158   0.144
 8739TIP3    H126158   2.946   0.143   0.202
 8739TIP3    H226159   2.902   0.130   0.058
 8740TIP3   OH226160   0.197   7.579   2.026
 8740TIP3    H126161   0.243   7.510   2.074
 8740TIP3    H226162   0.178   7.542   1.940
 8741TIP3   OH226163   7.160   6.162   5.931
 8741TIP3    H126164   7.169   6.072   5.963
 8741TIP3    H226165   7.215   6.214   5.990
 8742TIP3   OH226166   5.453   7.601   0.454
 8742TIP3    H126167   5.429   7.636   0.368
 8742TIP3    H226168   5.383   7.540   0.476
 8743TIP3   OH226169   5.921   2.217   3.007
 8743TIP3    H126170   5.952   2.142   3.058
 8743TIP3    H226171   5.968   2.292   3.044
 8744TIP3   OH226172   3.411   0.903   1.666
 8744TIP3    H126173   3.454   0.948   1.739
 8744TIP3    H226174   3.403   0.971   1.599
 8745TIP3   OH226175   1.442   0.086   5.725
 8745TIP3    H126176   1.430   0.102   5.632
 8745TIP3    H226177   1.354   0.097   5.762
 8746TIP3   OH226178   0.700   0.530   2.029
 8746TIP3    H126179   0.615   0.561   1.997
 8746TIP3    H226180   0.759   0.544   1.955
 8747TIP3   OH226181   3.043   6.617   4.840
 8747TIP3    H126182   3.089   6.565   4.775
 8747TIP3    H226183   3.032   6.558   4.915
 8748TIP3   OH226184   1.863   0.757   2.302
 8748TIP3    H126185   1.914   0.734   2.380
 8748TIP3    H226186   1.774   0.770   2.335
 8749TIP3   OH226187   4.310   1.576   0.976
 8749TIP3    H126188   4.359   1.621   1.045
 8749TIP3    H226189   4.298   1.487   1.008
 8750TIP3   OH226190   0.754   1.582   6.642
 8750TIP3    H126191   0.821   1.647   6.623
 8750TIP3    H226192   0.702   1.577   6.561
 8751TIP3   OH226193   6.722   1.397   2.103
 8751TIP3    H126194   6.675   1.345   2.167
 8751TIP3    H226195   6.761   1.333   2.043
 8752TIP3   OH226196   6.176   0.310   2.113
 8752TIP3    H126197   6.169   0.215   2.102
 8752TIP3    H226198   6.181   0.323   2.208
 8753TIP3   OH226199   5.149   3.425   0.020
 8753TIP3    H126200   5.146   3.466   0.107
 8753TIP3    H226201   5.100   3.344   0.030
 8754TIP3   OH226202   3.484   3.979   4.522
 8754TIP3    H126203   3.436   4.009   4.599
 8754TIP3    H226204   3.496   4.057   4.469
 8755TIP3   OH226205   5.455   7.554   0.101
 8755TIP3    H126206   5.515   7.623   0.074
 8755TIP3    H226207   5.381   7.600   0.139
 8756TIP3   OH226208   1.272   2.788   2.802
 8756TIP3    H126209   1.328   2.718   2.834
 8756TIP3    H226210   1.196   2.786   2.859
 8757TIP3   OH226211   4.884   1.466   6.558
 8757TIP3    H126212   4.944   1.536   6.586
 8757TIP3    H226213   4.911   1.446   6.469
 8758TIP3   OH226214   0.419   1.851   4.645
 8758TIP3    H126215   0.361   1.837   4.720
 8758TIP3    H226216   0.403   1.775   4.588
 8759TIP3   OH226217   6.640   3.377   2.214
 8759TIP3    H126218   6.599   3.439   2.275
 8759TIP3    H226219   6.699   3.325   2.269
 8760TIP3   OH226220   6.804   7.284   3.820
 8760TIP3    H126221   6.710   7.299   3.829
 8760TIP3    H226222   6.816   7.192   3.845
 8761TIP3   OH226223   2.433   4.227   4.851
 8761TIP3    H126224   2.389   4.306   4.884
 8761TIP3    H226225   2.397   4.156   4.905
 8762TIP3   OH226226   5.496   4.827   2.423
 8762TIP3    H126227   5.586   4.851   2.448
 8762TIP3    H226228   5.469   4.897   2.364
 8763TIP3   OH226229   6.363   1.226   4.911
 8763TIP3    H126230   6.376   1.270   4.995
 8763TIP3    H226231   6.372   1.133   4.931
 8764TIP3   OH226232   2.032   4.585   5.595
 8764TIP3    H126233   1.952   4.608   5.548
 8764TIP3    H226234   2.002   4.555   5.681
 8765TIP3   OH226235   7.936   0.910   5.389
 8765TIP3    H126236   7.953   0.880   5.299
 8765TIP3    H226237   7.910   0.831   5.436
 8766TIP3   OH226238   5.756   1.691   5.076
 8766TIP3    H126239   5.812   1.636   5.131
 8766TIP3    H226240   5.683   1.715   5.133
 8767TIP3   OH226241   0.644   3.121   1.359
 8767TIP3    H126242   0.631   3.196   1.301
 8767TIP3    H226243   0.719   3.075   1.323
 8768TIP3   OH226244   0.474   0.556   3.194
 8768TIP3    H126245   0.433   0.629   3.241
 8768TIP3    H226246   0.446   0.478   3.242
 8769TIP3   OH226247   7.310   5.451   0.560
 8769TIP3    H126248   7.355   5.468   0.642
 8769TIP3    H226249   7.368   5.487   0.492
 8770TIP3   OH226250   3.573   0.421   5.242
 8770TIP3    H126251   3.580   0.329   5.216
 8770TIP3    H226252   3.520   0.420   5.321
 8771TIP3   OH226253   2.650   1.701   0.176
 8771TIP3    H126254   2.671   1.758   0.102
 8771TIP3    H226255   2.561   1.727   0.201
 8772TIP3   OH226256   2.971   1.193   0.609
 8772TIP3    H126257   3.011   1.166   0.692
 8772TIP3    H226258   2.879   1.207   0.631
 8773TIP3   OH226259   2.615   7.082   1.369
 8773TIP3    H126260   2.573   7.154   1.416
 8773TIP3    H226261   2.679   7.125   1.312
 8774TIP3   OH226262   0.688   6.173   2.708
 8774TIP3    H126263   0.739   6.247   2.673
 8774TIP3    H226264   0.599   6.190   2.678
 8775TIP3   OH226265   1.542   5.405   4.127
 8775TIP3    H126266   1.531   5.440   4.039
 8775TIP3    H226267   1.570   5.480   4.180
 8776TIP3   OH226268   7.573   1.896   3.598
 8776TIP3    H126269   7.491   1.874   3.554
 8776TIP3    H226270   7.573   1.843   3.678
 8777TIP3   OH226271   2.479   2.973   1.710
 8777TIP3    H126272   2.415   3.017   1.654
 8777TIP3    H226273   2.460   2.879   1.699
 8778TIP3   OH226274   1.871   4.367   3.681
 8778TIP3    H126275   1.889   4.334   3.593
 8778TIP3    H226276   1.950   4.348   3.731
 8779TIP3   OH226277   1.114   0.988   2.492
 8779TIP3    H126278   1.037   0.996   2.436
 8779TIP3    H226279   1.110   1.064   2.550
 8780TIP3   OH226280   3.587   6.332   2.590
 8780TIP3    H126281   3.632   6.249   2.574
 8780TIP3    H226282   3.624   6.364   2.672
 8781TIP3   OH226283   7.569   5.683   3.029
 8781TIP3    H126284   7.494   5.624   3.039
 8781TIP3    H226285   7.561   5.744   3.103
 8782TIP3   OH226286   2.639   2.428   1.583
 8782TIP3    H126287   2.604   2.391   1.664
 8782TIP3    H226288   2.569   2.485   1.551
 8783TIP3   OH226289   4.297   3.389   6.206
 8783TIP3    H126290   4.305   3.393   6.301
 8783TIP3    H226291   4.387   3.382   6.175
 8784TIP3   OH226292   4.550   1.261   4.874
 8784TIP3    H126293   4.477   1.322   4.882
 8784TIP3    H226294   4.604   1.296   4.803
 8785TIP3   OH226295   3.449   6.528   1.629
 8785TIP3    H126296   3.376   6.475   1.660
 8785TIP3    H226297   3.441   6.611   1.677
 8786TIP3   OH226298   2.115   1.531   4.171
 8786TIP3    H126299   2.064   1.506   4.249
 8786TIP3    H226300   2.091   1.466   4.105
 8787TIP3   OH226301   0.038   3.251   4.295
 8787TIP3    H126302   0.036   3.341   4.262
 8787TIP3    H226303   0.089   3.256   4.376
 8788TIP3   OH226304   7.071   0.775   6.190
 8788TIP3    H126305   7.091   0.856   6.146
 8788TIP3    H226306   6.978   0.760   6.172
 8789TIP3   OH226307   3.431   6.881   2.059
 8789TIP3    H126308   3.399   6.924   1.979
 8789TIP3    H226309   3.400   6.937   2.130
 8790TIP3   OH226310   4.781   0.123   5.564
 8790TIP3    H126311   4.803   0.188   5.497
 8790TIP3    H226312   4.717   0.167   5.619
 8791TIP3   OH226313   0.534   4.048   5.797
 8791TIP3    H126314   0.519   4.017   5.886
 8791TIP3    H226315   0.448   4.076   5.766
 8792TIP3   OH226316   2.569   5.045   2.845
 8792TIP3    H126317   2.475   5.048   2.865
 8792TIP3    H226318   2.601   5.132   2.867
 8793TIP3   OH226319   2.103   4.359   2.383
 8793TIP3    H126320   2.129   4.267   2.384
 8793TIP3    H226321   2.186   4.407   2.389
 8794TIP3   OH226322   2.943   2.463   1.222
 8794TIP3    H126323   2.898   2.401   1.279
 8794TIP3    H226324   2.987   2.409   1.157
 8795TIP3   OH226325   3.857   4.281   1.904
 8795TIP3    H126326   3.786   4.275   1.968
 8795TIP3    H226327   3.915   4.349   1.939
 8796TIP3   OH226328   1.359   6.861   5.774
 8796TIP3    H126329   1.347   6.896   5.686
 8796TIP3    H226330   1.308   6.919   5.830
 8797TIP3   OH226331   7.567   2.739   1.004
 8797TIP3    H126332   7.484   2.724   0.959
 8797TIP3    H226333   7.585   2.657   1.051
 8798TIP3   OH226334   7.423   1.998   5.879
 8798TIP3    H126335   7.483   1.927   5.855
 8798TIP3    H226336   7.336   1.958   5.878
 8799TIP3   OH226337   2.891   5.622   3.476
 8799TIP3    H126338   2.864   5.537   3.441
 8799TIP3    H226339   2.846   5.686   3.421
 8800TIP3   OH226340   2.313   6.206   1.278
 8800TIP3    H126341   2.248   6.276   1.289
 8800TIP3    H226342   2.390   6.238   1.325
 8801TIP3   OH226343   4.856   6.822   3.287
 8801TIP3    H126344   4.935   6.788   3.247
 8801TIP3    H226345   4.853   6.783   3.374
 8802TIP3   OH226346   7.523   3.745   0.774
 8802TIP3    H126347   7.537   3.724   0.867
 8802TIP3    H226348   7.430   3.765   0.768
 8803TIP3   OH226349   7.946   7.741   2.261
 8803TIP3    H126350   7.913   7.662   2.303
 8803TIP3    H226351   8.033   7.755   2.299
 8804TIP3   OH226352   4.777   0.346   3.318
 8804TIP3    H126353   4.765   0.437   3.346
 8804TIP3    H226354   4.853   0.347   3.261
 8805TIP3   OH226355   0.050   4.947   5.594
 8805TIP3    H126356  -0.032   4.960   5.642
 8805TIP3    H226357   0.028   4.881   5.528
 8806TIP3   OH226358   6.441   5.466   5.839
 8806TIP3    H126359   6.378   5.408   5.797
 8806TIP3    H226360   6.459   5.533   5.774
 8807TIP3   OH226361   0.060   1.793   2.617
 8807TIP3    H126362   0.026   1.753   2.697
 8807TIP3    H226363   0.021   1.741   2.546
 8808TIP3   OH226364   1.326   0.603   2.493
 8808TIP3    H126365   1.386   0.664   2.537
 8808TIP3    H226366   1.241   0.622   2.533
 8809TIP3   OH226367   5.571   2.936   0.318
 8809TIP3    H126368   5.527   3.021   0.321
 8809TIP3    H226369   5.658   2.952   0.355
 8810TIP3   OH226370   2.284   0.547   0.083
 8810TIP3    H126371   2.342   0.471   0.078
 8810TIP3    H226372   2.342   0.623   0.074
 8811TIP3   OH226373   7.199   5.641   4.926
 8811TIP3    H126374   7.279   5.598   4.893
 8811TIP3    H226375   7.207   5.732   4.898
 8812TIP3   OH226376   0.712   2.634   0.429
 8812TIP3    H126377   0.650   2.677   0.487
 8812TIP3    H226378   0.660   2.569   0.382
 8813TIP3   OH226379   6.455   6.384   1.999
 8813TIP3    H126380   6.419   6.353   2.082
 8813TIP3    H226381   6.469   6.478   2.013
 8814TIP3   OH226382   0.995   3.837   1.522
 8814TIP3    H126383   0.990   3.811   1.614
 8814TIP3    H226384   1.036   3.924   1.523
 8815TIP3   OH226385   3.185   0.268   4.107
 8815TIP3    H126386   3.266   0.315   4.125
 8815TIP3    H226387   3.178   0.269   4.011
 8816TIP3   OH226388   7.909   7.419   5.505
 8816TIP3    H126389   7.899   7.330   5.536
 8816TIP3    H226390   7.922   7.472   5.584
 8817TIP3   OH226391   2.552   6.568   2.615
 8817TIP3    H126392   2.548   6.514   2.693
 8817TIP3    H226393   2.564   6.657   2.648
 8818TIP3   OH226394   0.227   6.312   4.690
 8818TIP3    H126395   0.189   6.394   4.721
 8818TIP3    H226396   0.306   6.338   4.642
 8819TIP3   OH226397   4.666   6.856   0.351
 8819TIP3    H126398   4.691   6.844   0.443
 8819TIP3    H226399   4.728   6.921   0.318
 8820TIP3   OH226400   3.713   6.172   6.027
 8820TIP3    H126401   3.789   6.150   6.080
 8820TIP3    H226402   3.654   6.097   6.038
 8821TIP3   OH226403   3.901   5.573   6.053
 8821TIP3    H126404   3.826   5.632   6.046
 8821TIP3    H226405   3.977   5.632   6.058
 8822TIP3   OH226406   5.536   5.573   1.568
 8822TIP3    H126407   5.485   5.525   1.633
 8822TIP3    H226408   5.518   5.527   1.485
 8823TIP3   OH226409   3.502   3.210   5.755
 8823TIP3    H126410   3.586   3.234   5.716
 8823TIP3    H226411   3.459   3.156   5.689
 8824TIP3   OH226412   5.454   0.145   0.372
 8824TIP3    H126413   5.444   0.148   0.277
 8824TIP3    H226414   5.541   0.182   0.389
 8825TIP3   OH226415   6.966   2.766   6.163
 8825TIP3    H126416   6.917   2.685   6.173
 8825TIP3    H226417   7.032   2.764   6.232
 8826TIP3   OH226418   4.276   7.236   0.770
 8826TIP3    H126419   4.348   7.299   0.772
 8826TIP3    H226420   4.277   7.201   0.681
 8827TIP3   OH226421   6.534   6.429   6.263
 8827TIP3    H126422   6.525   6.465   6.352
 8827TIP3    H226423   6.592   6.490   6.218
 8828TIP3   OH226424   7.190   7.031   1.456
 8828TIP3    H126425   7.264   6.971   1.466
 8828TIP3    H226426   7.229   7.118   1.466
 8829TIP3   OH226427   7.779   1.489   3.939
 8829TIP3    H126428   7.847   1.455   3.881
 8829TIP3    H226429   7.758   1.576   3.905
 8830TIP3   OH226430   6.406   0.484   4.601
 8830TIP3    H126431   6.493   0.458   4.572
 8830TIP3    H226432   6.385   0.562   4.549
 8831TIP3   OH226433   1.545   7.478   6.635
 8831TIP3    H126434   1.491   7.454   6.711
 8831TIP3    H226435   1.629   7.434   6.651
 8832TIP3   OH226436   7.434   3.414   5.670
 8832TIP3    H126437   7.417   3.355   5.744
 8832TIP3    H226438   7.425   3.502   5.706
 8833TIP3   OH226439   8.216   6.884   3.680
 8833TIP3    H126440   8.249   6.957   3.627
 8833TIP3    H226441   8.258   6.807   3.643
 8834TIP3   OH226442   3.702   3.713   6.583
 8834TIP3    H126443   3.619   3.757   6.567
 8834TIP3    H226444   3.758   3.781   6.621
 8835TIP3   OH226445   4.881   6.678   3.549
 8835TIP3    H126446   4.843   6.593   3.528
 8835TIP3    H226447   4.948   6.659   3.614
 8836TIP3   OH226448   7.191   2.912   0.971
 8836TIP3    H126449   7.204   2.822   1.003
 8836TIP3    H226450   7.192   2.966   1.050
 8837TIP3   OH226451   5.564   6.379   3.540
 8837TIP3    H126452   5.581   6.360   3.633
 8837TIP3    H226453   5.552   6.474   3.537
 8838TIP3   OH226454   4.034   0.544   4.578
 8838TIP3    H126455   4.085   0.618   4.612
 8838TIP3    H226456   4.070   0.529   4.490
 8839TIP3   OH226457   4.992   1.997   4.362
 8839TIP3    H126458   4.919   1.979   4.420
 8839TIP3    H226459   4.964   1.965   4.276
 8840TIP3   OH226460   5.186   7.527   5.873
 8840TIP3    H126461   5.255   7.475   5.832
 8840TIP3    H226462   5.232   7.580   5.939
 8841TIP3   OH226463  -0.003   1.604   6.311
 8841TIP3    H126464   0.041   1.651   6.240
 8841TIP3    H226465   0.034   1.641   6.391
 8842TIP3   OH226466   2.248   5.311   5.823
 8842TIP3    H126467   2.161   5.289   5.790
 8842TIP3    H226468   2.305   5.244   5.784
 8843TIP3   OH226469   0.356   5.852   6.036
 8843TIP3    H126470   0.355   5.776   6.094
 8843TIP3    H226471   0.405   5.824   5.959
 8844TIP3   OH226472   1.625   0.271   5.775
 8844TIP3    H126473   1.576   0.191   5.756
 8844TIP3    H226474   1.717   0.243   5.775
 8845TIP3   OH226475   2.138   7.436   6.478
 8845TIP3    H126476   2.141   7.352   6.525
 8845TIP3    H226477   2.184   7.420   6.396
 8846TIP3   OH226478   7.818   5.109   1.282
 8846TIP3    H126479   7.861   5.157   1.353
 8846TIP3    H226480   7.821   5.170   1.208
 8847TIP3   OH226481   3.062   7.403   3.338
 8847TIP3    H126482   3.122   7.364   3.275
 8847TIP3    H226483   3.026   7.329   3.387
 8848TIP3   OH226484   6.072   7.016   2.469
 8848TIP3    H126485   6.125   7.083   2.426
 8848TIP3    H226486   5.997   7.004   2.410
 8849TIP3   OH226487   3.192   1.713   5.838
 8849TIP3    H126488   3.210   1.627   5.875
 8849TIP3    H226489   3.108   1.704   5.793
 8850TIP3   OH226490   1.360   5.124   4.797
 8850TIP3    H126491   1.319   5.041   4.775
 8850TIP3    H226492   1.318   5.188   4.739
 8851TIP3   OH226493   7.987   7.543   5.754
 8851TIP3    H126494   8.016   7.631   5.777
 8851TIP3    H226495   8.067   7.496   5.732
 8852TIP3   OH226496   8.268   7.529   0.229
 8852TIP3    H126497   8.237   7.542   0.140
 8852TIP3    H226498   8.188   7.518   0.281
 8853TIP3   OH226499   5.362   7.839   3.466
 8853TIP3    H126500   5.290   7.814   3.407
 8853TIP3    H226501   5.341   7.797   3.549
 8854TIP3   OH226502   1.733   3.212   1.856
 8854TIP3    H126503   1.817   3.254   1.874
 8854TIP3    H226504   1.755   3.134   1.806
 8855TIP3   OH226505   7.474   6.152   0.965
 8855TIP3    H126506   7.508   6.125   0.880
 8855TIP3    H226507   7.547   6.198   1.007
 8856TIP3   OH226508   1.411   6.839   1.211
 8856TIP3    H126509   1.428   6.749   1.239
 8856TIP3    H226510   1.496   6.872   1.182
 8857TIP3   OH226511   0.270   2.585   5.704
 8857TIP3    H126512   0.299   2.562   5.616
 8857TIP3    H226513   0.211   2.514   5.729
 8858TIP3   OH226514   2.641   3.522   5.999
 8858TIP3    H126515   2.663   3.565   5.916
 8858TIP3    H226516   2.724   3.518   6.046
 8859TIP3   OH226517   0.125   1.622   1.079
 8859TIP3    H126518   0.033   1.598   1.081
 8859TIP3    H226519   0.155   1.594   0.992
 8860TIP3   OH226520   4.980   3.505   0.882
 8860TIP3    H126521   4.952   3.546   0.964
 8860TIP3    H226522   5.047   3.564   0.848
 8861TIP3   OH226523   4.137   1.713   5.811
 8861TIP3    H126524   4.108   1.622   5.804
 8861TIP3    H226525   4.082   1.761   5.750
 8862TIP3   OH226526   5.445   3.068   0.709
 8862TIP3    H126527   5.365   3.088   0.757
 8862TIP3    H226528   5.497   3.015   0.770
 8863TIP3   OH226529   3.921   4.857   5.895
 8863TIP3    H126530   3.860   4.863   5.968
 8863TIP3    H226531   3.876   4.804   5.830
 8864TIP3   OH226532   4.545   2.849   4.528
 8864TIP3    H126533   4.621   2.864   4.585
 8864TIP3    H226534   4.542   2.754   4.518
 8865TIP3   OH226535   4.544   1.672   0.681
 8865TIP3    H126536   4.543   1.699   0.590
 8865TIP3    H226537   4.460   1.703   0.717
 8866TIP3   OH226538   0.989   1.944   5.645
 8866TIP3    H126539   0.952   2.026   5.677
 8866TIP3    H226540   1.081   1.963   5.630
 8867TIP3   OH226541   4.882   4.274   6.259
 8867TIP3    H126542   4.929   4.282   6.176
 8867TIP3    H226543   4.946   4.297   6.326
 8868TIP3   OH226544   7.983   1.341   5.544
 8868TIP3    H126545   7.975   1.335   5.449
 8868TIP3    H226546   7.994   1.251   5.572
 8869TIP3   OH226547   0.773   3.638   4.242
 8869TIP3    H126548   0.697   3.645   4.185
 8869TIP3    H226549   0.737   3.617   4.328
 8870TIP3   OH226550   3.513   1.561   0.633
 8870TIP3    H126551   3.499   1.485   0.576
 8870TIP3    H226552   3.425   1.594   0.651
 8871TIP3   OH226553   0.356   2.548   2.541
 8871TIP3    H126554   0.416   2.622   2.552
 8871TIP3    H226555   0.359   2.502   2.625
 8872TIP3   OH226556   2.290   5.474   3.615
 8872TIP3    H126557   2.321   5.384   3.625
 8872TIP3    H226558   2.264   5.480   3.523
 8873TIP3   OH226559   1.066   2.265   1.530
 8873TIP3    H126560   1.154   2.278   1.565
 8873TIP3    H226561   1.010   2.254   1.607
 8874TIP3   OH226562   7.847   7.880   6.237
 8874TIP3    H126563   7.787   7.884   6.312
 8874TIP3    H226564   7.832   7.793   6.200
 8875TIP3   OH226565   8.037   7.809   2.782
 8875TIP3    H126566   8.036   7.811   2.878
 8875TIP3    H226567   7.999   7.894   2.756
 8876TIP3   OH226568   5.969   0.825   2.815
 8876TIP3    H126569   5.978   0.778   2.898
 8876TIP3    H226570   5.966   0.917   2.840
 8877TIP3   OH226571   0.550   1.517   3.755
 8877TIP3    H126572   0.619   1.475   3.808
 8877TIP3    H226573   0.568   1.487   3.666
 8878TIP3   OH226574   7.952   5.508   2.533
 8878TIP3    H126575   7.979   5.565   2.605
 8878TIP3    H226576   7.924   5.568   2.464
 8879TIP3   OH226577   5.241   1.289   1.131
 8879TIP3    H126578   5.177   1.288   1.059
 8879TIP3    H226579   5.191   1.263   1.208
 8880TIP3   OH226580   7.216   2.510   5.409
 8880TIP3    H126581   7.272   2.494   5.485
 8880TIP3    H226582   7.276   2.513   5.335
 8881TIP3   OH226583   3.091   7.325   1.222
 8881TIP3    H126584   3.149   7.271   1.167
 8881TIP3    H226585   3.017   7.346   1.165
 8882TIP3   OH226586   8.123   2.426   6.369
 8882TIP3    H126587   8.217   2.441   6.376
 8882TIP3    H226588   8.083   2.492   6.425
 8883TIP3   OH226589   4.783   0.933   0.188
 8883TIP3    H126590   4.786   1.028   0.176
 8883TIP3    H226591   4.750   0.900   0.104
 8884TIP3   OH226592   2.222   4.734   4.076
 8884TIP3    H126593   2.259   4.806   4.129
 8884TIP3    H226594   2.289   4.716   4.010
 8885TIP3   OH226595   6.721   4.018   3.870
 8885TIP3    H126596   6.803   4.031   3.918
 8885TIP3    H226597   6.708   4.099   3.822
 8886TIP3   OH226598   0.550   1.819   3.112
 8886TIP3    H126599   0.487   1.891   3.115
 8886TIP3    H226600   0.550   1.783   3.201
 8887TIP3   OH226601   2.048   3.499   6.193
 8887TIP3    H126602   1.955   3.520   6.185
 8887TIP3    H226603   2.061   3.485   6.287
 8888TIP3   OH226604   6.562   0.159   0.209
 8888TIP3    H126605   6.612   0.092   0.255
 8888TIP3    H226606   6.627   0.227   0.188
 8889TIP3   OH226607   0.900   1.970   3.714
 8889TIP3    H126608   0.853   1.923   3.645
 8889TIP3    H226609   0.984   1.992   3.674
 8890TIP3   OH226610   2.145   4.431   6.686
 8890TIP3    H126611   2.106   4.458   6.603
 8890TIP3    H226612   2.107   4.491   6.751
 8891TIP3   OH226613   0.718   7.414   2.123
 8891TIP3    H126614   0.720   7.453   2.036
 8891TIP3    H226615   0.647   7.460   2.169
 8892TIP3   OH226616   5.357   0.623   6.661
 8892TIP3    H126617   5.401   0.633   6.746
 8892TIP3    H226618   5.308   0.541   6.669
 8893TIP3   OH226619   5.813   0.893   3.343
 8893TIP3    H126620   5.718   0.886   3.329
 8893TIP3    H226621   5.823   0.966   3.404
 8894TIP3   OH226622   5.594   4.209   5.269
 8894TIP3    H126623   5.616   4.287   5.319
 8894TIP3    H226624   5.672   4.192   5.216
 8895TIP3   OH226625   2.506   7.292   2.544
 8895TIP3    H126626   2.557   7.330   2.616
 8895TIP3    H226627   2.429   7.256   2.586
 8896TIP3   OH226628   5.411   6.190   3.037
 8896TIP3    H126629   5.421   6.165   3.129
 8896TIP3    H226630   5.388   6.283   3.041
 8897TIP3   OH226631   7.314   5.616   3.284
 8897TIP3    H126632   7.305   5.711   3.277
 8897TIP3    H226633   7.358   5.602   3.367
 8898TIP3   OH226634  -0.019   5.020   2.380
 8898TIP3    H126635   0.045   4.949   2.376
 8898TIP3    H226636   0.029   5.097   2.348
 8899TIP3   OH226637   7.073   3.380   4.131
 8899TIP3    H126638   7.025   3.364   4.049
 8899TIP3    H226639   7.163   3.358   4.111
 8900TIP3   OH226640   5.527   3.663   5.327
 8900TIP3    H126641   5.563   3.683   5.241
 8900TIP3    H226642   5.451   3.720   5.335
 8901TIP3   OH226643   3.220   1.559   1.740
 8901TIP3    H126644   3.228   1.480   1.793
 8901TIP3    H226645   3.248   1.533   1.653
 8902TIP3   OH226646   7.151   4.534   3.046
 8902TIP3    H126647   7.156   4.530   2.951
 8902TIP3    H226648   7.241   4.552   3.074
 8903TIP3   OH226649   4.774   7.782   5.018
 8903TIP3    H126650   4.687   7.742   5.020
 8903TIP3    H226651   4.770   7.843   4.944
 8904TIP3   OH226652   5.091   1.173   1.333
 8904TIP3    H126653   5.018   1.163   1.272
 8904TIP3    H226654   5.143   1.094   1.321
 8905TIP3   OH226655   3.471   3.540   4.964
 8905TIP3    H126656   3.522   3.621   4.968
 8905TIP3    H226657   3.505   3.494   4.888
 8906TIP3   OH226658   7.122   3.527   4.733
 8906TIP3    H126659   7.109   3.597   4.670
 8906TIP3    H226660   7.150   3.452   4.680
 8907TIP3   OH226661   3.069   2.042   4.412
 8907TIP3    H126662   3.108   1.961   4.381
 8907TIP3    H226663   3.018   2.075   4.338
 8908TIP3   OH226664   4.347   6.818   3.884
 8908TIP3    H126665   4.308   6.847   3.801
 8908TIP3    H226666   4.299   6.738   3.906
 8909TIP3   OH226667   4.021   4.819   3.452
 8909TIP3    H126668   4.012   4.730   3.484
 8909TIP3    H226669   4.059   4.868   3.526
 8910TIP3   OH226670   3.147   2.028   6.244
 8910TIP3    H126671   3.128   2.001   6.155
 8910TIP3    H226672   3.144   1.947   6.296
 8911TIP3   OH226673   1.022   1.139   1.133
 8911TIP3    H126674   1.033   1.057   1.181
 8911TIP3    H226675   1.063   1.205   1.188
 8912TIP3   OH226676   6.799   7.442   6.605
 8912TIP3    H126677   6.759   7.356   6.619
 8912TIP3    H226678   6.731   7.504   6.629
 8913TIP3   OH226679   1.612   6.864   5.875
 8913TIP3    H126680   1.592   6.833   5.964
 8913TIP3    H226681   1.527   6.864   5.831
 8914TIP3   OH226682   1.098   2.121   6.237
 8914TIP3    H126683   1.003   2.122   6.243
 8914TIP3    H226684   1.122   2.213   6.221
 8915TIP3   OH226685   4.196   4.165   0.242
 8915TIP3    H126686   4.244   4.232   0.291
 8915TIP3    H226687   4.136   4.215   0.186
 8916TIP3   OH226688   2.022   2.455   2.809
 8916TIP3    H126689   1.956   2.420   2.750
 8916TIP3    H226690   2.062   2.378   2.850
 8917TIP3   OH226691   3.231   3.016   4.867
 8917TIP3    H126692   3.213   3.071   4.944
 8917TIP3    H226693   3.150   3.020   4.816
 8918TIP3   OH226694   6.967   3.923   2.245
 8918TIP3    H126695   7.043   3.869   2.225
 8918TIP3    H226696   6.906   3.906   2.173
 8919TIP3   OH226697   2.845   3.777   0.926
 8919TIP3    H126698   2.936   3.746   0.925
 8919TIP3    H226699   2.828   3.806   0.836
 8920TIP3   OH226700   6.659   1.768   4.065
 8920TIP3    H126701   6.603   1.807   3.998
 8920TIP3    H226702   6.598   1.722   4.123
 8921TIP3   OH226703   5.374   2.451   0.990
 8921TIP3    H126704   5.291   2.408   0.967
 8921TIP3    H226705   5.378   2.528   0.934
 8922TIP3   OH226706   6.246   7.078   5.561
 8922TIP3    H126707   6.233   7.016   5.633
 8922TIP3    H226708   6.179   7.055   5.497
 8923TIP3   OH226709   7.575   4.603   4.206
 8923TIP3    H126710   7.505   4.656   4.166
 8923TIP3    H226711   7.553   4.513   4.183
 8924TIP3   OH226712   4.015   1.720   2.857
 8924TIP3    H126713   4.010   1.753   2.767
 8924TIP3    H226714   4.007   1.798   2.911
 8925TIP3   OH226715   5.417   7.643   2.433
 8925TIP3    H126716   5.478   7.578   2.466
 8925TIP3    H226717   5.374   7.678   2.511
 8926TIP3   OH226718   8.128   3.667   2.668
 8926TIP3    H126719   8.078   3.716   2.733
 8926TIP3    H226720   8.207   3.720   2.653
 8927TIP3   OH226721   0.929   2.117   4.916
 8927TIP3    H126722   1.018   2.134   4.887
 8927TIP3    H226723   0.902   2.197   4.961
 8928TIP3   OH226724   5.273   3.509   4.914
 8928TIP3    H126725   5.293   3.482   4.824
 8928TIP3    H226726   5.196   3.456   4.938
 8929TIP3   OH226727   7.503   0.448   1.335
 8929TIP3    H126728   7.420   0.495   1.329
 8929TIP3    H226729   7.554   0.480   1.261
 8930TIP3   OH226730   2.957   2.915   4.095
 8930TIP3    H126731   2.862   2.909   4.092
 8930TIP3    H226732   2.987   2.826   4.074
 8931TIP3   OH226733   2.755   6.064   1.943
 8931TIP3    H126734   2.797   6.143   1.909
 8931TIP3    H226735   2.788   5.994   1.887
 8932TIP3   OH226736   6.764   6.234   5.420
 8932TIP3    H126737   6.857   6.209   5.418
 8932TIP3    H226738   6.757   6.305   5.356
 8933TIP3   OH226739   5.207   0.356   6.685
 8933TIP3    H126740   5.120   0.360   6.725
 8933TIP3    H226741   5.267   0.354   6.759
 8934TIP3   OH226742   2.263   3.491   2.921
 8934TIP3    H126743   2.268   3.472   2.827
 8934TIP3    H226744   2.177   3.457   2.947
 8935TIP3   OH226745   1.394   1.603   2.417
 8935TIP3    H126746   1.435   1.572   2.497
 8935TIP3    H226747   1.318   1.654   2.446
 8936TIP3   OH226748   0.833   5.116   1.666
 8936TIP3    H126749   0.894   5.127   1.593
 8936TIP3    H226750   0.754   5.082   1.626
 8937TIP3   OH226751   7.987   1.827   3.378
 8937TIP3    H126752   7.950   1.770   3.445
 8937TIP3    H226753   8.051   1.881   3.424
 8938TIP3   OH226754   7.458   6.896   4.191
 8938TIP3    H126755   7.435   6.968   4.132
 8938TIP3    H226756   7.527   6.931   4.247
 8939TIP3   OH226757   1.336   2.954   4.184
 8939TIP3    H126758   1.314   2.954   4.277
 8939TIP3    H226759   1.431   2.960   4.181
 8940TIP3   OH226760   4.605   7.408   3.942
 8940TIP3    H126761   4.629   7.489   3.988
 8940TIP3    H226762   4.581   7.347   4.012
 8941TIP3   OH226763   7.944   5.144   6.348
 8941TIP3    H126764   8.034   5.146   6.381
 8941TIP3    H226765   7.895   5.097   6.415
 8942TIP3   OH226766   6.309   3.983   3.777
 8942TIP3    H126767   6.332   3.958   3.687
 8942TIP3    H226768   6.242   3.920   3.802
 8943TIP3   OH226769   2.606   6.269   1.628
 8943TIP3    H126770   2.649   6.354   1.641
 8943TIP3    H226771   2.664   6.222   1.568
 8944TIP3   OH226772   3.748   0.907   1.455
 8944TIP3    H126773   3.821   0.920   1.515
 8944TIP3    H226774   3.721   0.996   1.431
 8945TIP3   OH226775   6.187   2.507   1.935
 8945TIP3    H126776   6.158   2.578   1.992
 8945TIP3    H226777   6.223   2.441   1.995
 8946TIP3   OH226778   0.982   6.078   2.507
 8946TIP3    H126779   1.008   5.988   2.486
 8946TIP3    H226780   0.892   6.084   2.475
 8947TIP3   OH226781   7.923   1.477   1.505
 8947TIP3    H126782   7.958   1.555   1.462
 8947TIP3    H226783   7.960   1.404   1.456
 8948TIP3   OH226784   6.321   4.792   5.097
 8948TIP3    H126785   6.411   4.801   5.127
 8948TIP3    H226786   6.322   4.716   5.039
 8949TIP3   OH226787   2.370   3.155   1.281
 8949TIP3    H126788   2.396   3.066   1.259
 8949TIP3    H226789   2.352   3.196   1.197
 8950TIP3   OH226790   7.196   3.083   5.662
 8950TIP3    H126791   7.174   3.068   5.570
 8950TIP3    H226792   7.289   3.063   5.669
 8951TIP3   OH226793   5.154   0.081   1.978
 8951TIP3    H126794   5.173   0.054   1.888
 8951TIP3    H226795   5.197   0.166   1.987
 8952TIP3   OH226796   2.204   1.933   2.239
 8952TIP3    H126797   2.113   1.923   2.266
 8952TIP3    H226798   2.200   1.985   2.158
 8953TIP3   OH226799   7.235   6.701   1.988
 8953TIP3    H126800   7.205   6.611   2.004
 8953TIP3    H226801   7.163   6.756   2.016
 8954TIP3   OH226802   4.491   6.197   2.058
 8954TIP3    H126803   4.455   6.193   2.146
 8954TIP3    H226804   4.447   6.126   2.011
 8955TIP3   OH226805   2.205   0.553   5.067
 8955TIP3    H126806   2.240   0.549   5.156
 8955TIP3    H226807   2.208   0.462   5.036
 8956TIP3   OH226808   3.944   0.713   1.658
 8956TIP3    H126809   4.031   0.703   1.619
 8956TIP3    H226810   3.937   0.641   1.720
 8957TIP3   OH226811   3.300   5.574   5.195
 8957TIP3    H126812   3.361   5.611   5.130
 8957TIP3    H226813   3.213   5.591   5.159
 8958TIP3   OH226814   3.183   4.206   2.101
 8958TIP3    H126815   3.239   4.283   2.107
 8958TIP3    H226816   3.174   4.175   2.191
 8959TIP3   OH226817   1.031   5.381   6.796
 8959TIP3    H126818   1.009   5.472   6.812
 8959TIP3    H226819   1.038   5.342   6.883
 8960TIP3   OH226820   5.941   1.113   4.382
 8960TIP3    H126821   5.859   1.156   4.411
 8960TIP3    H226822   5.933   1.024   4.414
 8961TIP3   OH226823   7.775   5.942   3.724
 8961TIP3    H126824   7.855   5.904   3.686
 8961TIP3    H226825   7.801   5.970   3.812
 8962TIP3   OH226826   0.666   0.997   1.917
 8962TIP3    H126827   0.711   1.076   1.889
 8962TIP3    H226828   0.574   1.012   1.895
 8963TIP3   OH226829   6.749   7.517   0.784
 8963TIP3    H126830   6.845   7.525   0.781
 8963TIP3    H226831   6.732   7.423   0.788
 8964TIP3   OH226832   7.391   5.236   6.686
 8964TIP3    H126833   7.480   5.202   6.681
 8964TIP3    H226834   7.357   5.228   6.597
 8965TIP3   OH226835   8.322   5.276   0.810
 8965TIP3    H126836   8.341   5.186   0.837
 8965TIP3    H226837   8.327   5.327   0.890
 8966TIP3   OH226838   0.538   5.387   3.368
 8966TIP3    H126839   0.503   5.311   3.322
 8966TIP3    H226840   0.631   5.388   3.346
 8967TIP3   OH226841   2.719   7.504   0.506
 8967TIP3    H126842   2.737   7.427   0.559
 8967TIP3    H226843   2.633   7.534   0.535
 8968TIP3   OH226844   8.319   4.392   3.550
 8968TIP3    H126845   8.224   4.388   3.535
 8968TIP3    H226846   8.335   4.482   3.576
 8969TIP3   OH226847   1.086   0.719   2.395
 8969TIP3    H126848   1.141   0.749   2.322
 8969TIP3    H226849   1.064   0.798   2.444
 8970TIP3   OH226850   4.049   1.225   6.642
 8970TIP3    H126851   3.984   1.154   6.640
 8970TIP3    H226852   4.013   1.291   6.583
 8971TIP3   OH226853   7.307   0.237   1.257
 8971TIP3    H126854   7.371   0.306   1.274
 8971TIP3    H226855   7.359   0.156   1.252
 8972TIP3   OH226856   2.555   0.109   4.402
 8972TIP3    H126857   2.539   0.160   4.482
 8972TIP3    H226858   2.554   0.018   4.432
 8973TIP3   OH226859   3.030   1.390   2.333
 8973TIP3    H126860   3.054   1.326   2.266
 8973TIP3    H226861   2.993   1.463   2.283
 8974TIP3   OH226862   3.111   1.470   0.908
 8974TIP3    H126863   3.160   1.487   0.828
 8974TIP3    H226864   3.068   1.385   0.893
 8975TIP3   OH226865   0.594   0.287   1.413
 8975TIP3    H126866   0.572   0.312   1.323
 8975TIP3    H226867   0.680   0.244   1.406
 8976TIP3   OH226868   8.393   1.456   1.332
 8976TIP3    H126869   8.338   1.497   1.265
 8976TIP3    H226870   8.456   1.403   1.283
 8977TIP3   OH226871   0.995   7.687   2.472
 8977TIP3    H126872   0.951   7.669   2.389
 8977TIP3    H226873   0.980   7.608   2.524
 8978TIP3   OH226874   2.310   3.902   1.486
 8978TIP3    H126875   2.308   3.952   1.404
 8978TIP3    H226876   2.396   3.859   1.485
 8979TIP3   OH226877   6.053   5.635   1.779
 8979TIP3    H126878   5.967   5.648   1.818
 8979TIP3    H226879   6.076   5.545   1.799
 8980TIP3   OH226880   2.129   6.264   0.199
 8980TIP3    H126881   2.082   6.342   0.230
 8980TIP3    H226882   2.212   6.266   0.247
 8981TIP3   OH226883   0.822   1.591   3.196
 8981TIP3    H126884   0.756   1.564   3.132
 8981TIP3    H226885   0.903   1.596   3.145
 8982TIP3   OH226886   3.260   6.503   5.445
 8982TIP3    H126887   3.207   6.557   5.386
 8982TIP3    H226888   3.329   6.562   5.475
 8983TIP3   OH226889   1.145   1.508   3.799
 8983TIP3    H126890   1.063   1.546   3.766
 8983TIP3    H226891   1.140   1.415   3.774
 8984TIP3   OH226892   5.929   1.174   5.563
 8984TIP3    H126893   5.847   1.130   5.539
 8984TIP3    H226894   5.905   1.227   5.640
 8985TIP3   OH226895   6.473   7.560   5.727
 8985TIP3    H126896   6.558   7.519   5.711
 8985TIP3    H226897   6.411   7.508   5.676
 8986TIP3   OH226898   1.211   7.288   0.259
 8986TIP3    H126899   1.222   7.197   0.231
 8986TIP3    H226900   1.126   7.314   0.224
 8987TIP3   OH226901   5.647   0.646   2.121
 8987TIP3    H126902   5.589   0.574   2.094
 8987TIP3    H226903   5.727   0.633   2.070
 8988TIP3   OH226904   5.471   2.827   3.406
 8988TIP3    H126905   5.547   2.782   3.370
 8988TIP3    H226906   5.451   2.896   3.343
 8989TIP3   OH226907   1.208   1.225   3.805
 8989TIP3    H126908   1.163   1.227   3.720
 8989TIP3    H226909   1.279   1.162   3.792
 8990TIP3   OH226910   5.466   5.649   6.689
 8990TIP3    H126911   5.502   5.714   6.750
 8990TIP3    H226912   5.442   5.700   6.612
 8991TIP3   OH226913   1.836   1.937   5.482
 8991TIP3    H126914   1.899   2.009   5.470
 8991TIP3    H226915   1.824   1.902   5.393
 8992TIP3   OH226916   6.561   1.181   3.355
 8992TIP3    H126917   6.506   1.110   3.320
 8992TIP3    H226918   6.502   1.232   3.410
 8993TIP3   OH226919   6.860   1.063   2.075
 8993TIP3    H126920   6.897   1.041   1.989
 8993TIP3    H226921   6.791   0.998   2.089
 8994TIP3   OH226922   5.964   3.594   4.052
 8994TIP3    H126923   5.930   3.521   4.000
 8994TIP3    H226924   5.972   3.558   4.140
 8995TIP3   OH226925   5.681   6.028   1.269
 8995TIP3    H126926   5.775   6.039   1.275
 8995TIP3    H226927   5.660   5.964   1.338
 8996TIP3   OH226928   1.488   1.463   2.649
 8996TIP3    H126929   1.433   1.492   2.722
 8996TIP3    H226930   1.546   1.397   2.687
 8997TIP3   OH226931   3.731   5.758   6.016
 8997TIP3    H126932   3.636   5.758   6.021
 8997TIP3    H226933   3.751   5.817   5.943
 8998TIP3   OH226934   1.489   7.386   5.573
 8998TIP3    H126935   1.525   7.300   5.595
 8998TIP3    H226936   1.481   7.431   5.657
 8999TIP3   OH226937   5.713   7.094   1.667
 8999TIP3    H126938   5.754   7.158   1.609
 8999TIP3    H226939   5.666   7.147   1.732
 9000TIP3   OH226940   6.773   7.245   4.436
 9000TIP3    H126941   6.720   7.321   4.411
 9000TIP3    H226942   6.808   7.213   4.353
 9001TIP3   OH226943   7.233   6.405   4.745
 9001TIP3    H126944   7.154   6.422   4.797
 9001TIP3    H226945   7.222   6.314   4.715
 9002TIP3   OH226946   3.704   6.058   1.666
 9002TIP3    H126947   3.647   6.008   1.609
 9002TIP3    H226948   3.671   6.148   1.662
 9003TIP3   OH226949   0.959   2.928   4.347
 9003TIP3    H126950   0.967   2.879   4.266
 9003TIP3    H226951   0.908   3.006   4.324
 9004TIP3   OH226952   4.207   7.387   0.501
 9004TIP3    H126953   4.128   7.387   0.555
 9004TIP3    H226954   4.278   7.408   0.561
 9005TIP3   OH226955   6.497   1.978   4.759
 9005TIP3    H126956   6.469   2.038   4.690
 9005TIP3    H226957   6.416   1.954   4.804
 9006TIP3   OH226958   6.099   7.294   1.144
 9006TIP3    H126959   6.081   7.312   1.052
 9006TIP3    H226960   6.015   7.271   1.181
 9007TIP3   OH226961   2.590   1.795   5.077
 9007TIP3    H126962   2.622   1.862   5.017
 9007TIP3    H226963   2.560   1.724   5.021
 9008TIP3   OH226964   5.172   5.296   3.917
 9008TIP3    H126965   5.178   5.304   3.822
 9008TIP3    H226966   5.127   5.375   3.945
 9009TIP3   OH226967   2.138   2.581   6.864
 9009TIP3    H126968   2.200   2.517   6.829
 9009TIP3    H226969   2.120   2.639   6.791
 9010TIP3   OH226970   3.000   2.940   5.953
 9010TIP3    H126971   3.031   2.927   6.042
 9010TIP3    H226972   2.908   2.913   5.955
 9011TIP3   OH226973   0.125   0.083   3.999
 9011TIP3    H126974   0.157   0.016   4.059
 9011TIP3    H226975   0.204   0.118   3.957
 9012TIP3   OH226976   5.265   3.292   0.447
 9012TIP3    H126977   5.359   3.282   0.456
 9012TIP3    H226978   5.242   3.363   0.507
 9013TIP3   OH226979   1.720   7.376   0.152
 9013TIP3    H126980   1.724   7.285   0.181
 9013TIP3    H226981   1.626   7.395   0.145
 9014TIP3   OH226982   0.811   5.173   2.361
 9014TIP3    H126983   0.826   5.260   2.398
 9014TIP3    H226984   0.894   5.126   2.376
 9015TIP3   OH226985   5.277   4.300   4.232
 9015TIP3    H126986   5.331   4.300   4.311
 9015TIP3    H226987   5.304   4.380   4.185
 9016TIP3   OH226988   1.611   5.831   1.133
 9016TIP3    H126989   1.561   5.775   1.073
 9016TIP3    H226990   1.576   5.919   1.119
 9017TIP3   OH226991   5.155   1.503   1.360
 9017TIP3    H126992   5.095   1.531   1.290
 9017TIP3    H226993   5.152   1.407   1.356
 9018TIP3   OH226994   6.984   7.295   5.647
 9018TIP3    H126995   6.975   7.308   5.742
 9018TIP3    H226996   7.027   7.210   5.639
 9019TIP3   OH226997   8.016   4.894   4.688
 9019TIP3    H126998   7.996   4.987   4.676
 9019TIP3    H226999   8.072   4.872   4.614
 9020TIP3   OH227000   5.443   0.727   3.939
 9020TIP3    H127001   5.411   0.747   4.027
 9020TIP3    H227002   5.415   0.636   3.924
 9021TIP3   OH227003   4.734   6.439   1.356
 9021TIP3    H127004   4.786   6.500   1.304
 9021TIP3    H227005   4.675   6.397   1.294
 9022TIP3   OH227006   3.061   6.445   5.067
 9022TIP3    H127007   3.137   6.395   5.098
 9022TIP3    H227008   2.996   6.435   5.136
 9023TIP3   OH227009   2.521   1.380   5.695
 9023TIP3    H127010   2.559   1.466   5.713
 9023TIP3    H227011   2.538   1.329   5.774
 9024TIP3   OH227012   4.209   3.697   2.200
 9024TIP3    H127013   4.116   3.684   2.181
 9024TIP3    H227014   4.215   3.786   2.234
 9025TIP3   OH227015   2.174   6.844   1.190
 9025TIP3    H127016   2.115   6.831   1.265
 9025TIP3    H227017   2.249   6.890   1.227
 9026TIP3   OH227018   7.530   6.584   5.120
 9026TIP3    H127019   7.556   6.569   5.210
 9026TIP3    H227020   7.579   6.519   5.069
 9027TIP3   OH227021   3.260   1.594   2.670
 9027TIP3    H127022   3.165   1.578   2.675
 9027TIP3    H227023   3.292   1.532   2.605
 9028TIP3   OH227024   1.026   5.041   6.228
 9028TIP3    H127025   1.020   5.069   6.319
 9028TIP3    H227026   0.936   5.047   6.195
 9029TIP3   OH227027   0.047   5.017   0.845
 9029TIP3    H127028   0.024   5.034   0.936
 9029TIP3    H227029   0.140   5.040   0.838
 9030TIP3   OH227030   6.019   4.544   4.969
 9030TIP3    H127031   5.971   4.525   4.888
 9030TIP3    H227032   6.026   4.640   4.971
 9031TIP3   OH227033   5.370   7.320   0.246
 9031TIP3    H127034   5.321   7.325   0.328
 9031TIP3    H227035   5.382   7.412   0.220
 9032TIP3   OH227036   1.331   7.389   6.819
 9032TIP3    H127037   1.350   7.372   6.911
 9032TIP3    H227038   1.264   7.457   6.821
 9033TIP3   OH227039   8.214   1.958   2.924
 9033TIP3    H127040   8.158   1.988   2.995
 9033TIP3    H227041   8.266   1.887   2.962
 9034TIP3   OH227042   2.582   2.479   2.127
 9034TIP3    H127043   2.488   2.484   2.146
 9034TIP3    H227044   2.599   2.385   2.114
 9035TIP3   OH227045   6.003   3.541   2.025
 9035TIP3    H127046   5.985   3.544   2.119
 9035TIP3    H227047   6.072   3.606   2.011
 9036TIP3   OH227048   5.055   6.292   3.249
 9036TIP3    H127049   4.987   6.277   3.184
 9036TIP3    H227050   5.008   6.299   3.332
 9037TIP3   OH227051   7.965   2.916   2.379
 9037TIP3    H127052   7.889   2.868   2.411
 9037TIP3    H227053   7.965   2.903   2.285
 9038TIP3   OH227054   2.604   2.950   2.450
 9038TIP3    H127055   2.590   3.042   2.472
 9038TIP3    H227056   2.649   2.914   2.527
 9039TIP3   OH227057   3.109   6.359   6.375
 9039TIP3    H127058   3.132   6.269   6.396
 9039TIP3    H227059   3.024   6.353   6.331
 9040TIP3   OH227060   3.057   7.628   5.885
 9040TIP3    H127061   3.039   7.554   5.942
 9040TIP3    H227062   3.071   7.590   5.798
 9041TIP3   OH227063   2.866   0.897   0.903
 9041TIP3    H127064   2.800   0.889   0.972
 9041TIP3    H227065   2.888   0.990   0.901
 9042TIP3   OH227066   2.686   1.393   3.103
 9042TIP3    H127067   2.650   1.477   3.129
 9042TIP3    H227068   2.720   1.408   3.014
 9043TIP3   OH227069   2.535   1.531   0.764
 9043TIP3    H127070   2.609   1.471   0.751
 9043TIP3    H227071   2.506   1.513   0.853
 9044TIP3   OH227072   7.819   1.068   1.305
 9044TIP3    H127073   7.738   1.080   1.255
 9044TIP3    H227074   7.865   0.997   1.260
 9045TIP3   OH227075   6.705   6.909   4.618
 9045TIP3    H127076   6.797   6.920   4.642
 9045TIP3    H227077   6.701   6.822   4.579
 9046TIP3   OH227078   6.686   5.848   0.021
 9046TIP3    H127079   6.773   5.888   0.029
 9046TIP3    H227080   6.645   5.861   0.107
 9047TIP3   OH227081   2.754   4.555   6.116
 9047TIP3    H127082   2.811   4.622   6.153
 9047TIP3    H227083   2.782   4.547   6.025
 9048TIP3   OH227084   7.363   0.212   2.351
 9048TIP3    H127085   7.331   0.302   2.361
 9048TIP3    H227086   7.388   0.186   2.440
 9049TIP3   OH227087   5.356   0.287   1.124
 9049TIP3    H127088   5.302   0.282   1.046
 9049TIP3    H227089   5.446   0.293   1.092
 9050TIP3   OH227090   6.304   6.593   2.778
 9050TIP3    H127091   6.314   6.499   2.798
 9050TIP3    H227092   6.216   6.599   2.740
 9051TIP3   OH227093   1.506   0.721   5.694
 9051TIP3    H127094   1.577   0.696   5.753
 9051TIP3    H227095   1.534   0.691   5.608
 9052TIP3   OH227096   6.803   7.896   6.589
 9052TIP3    H127097   6.790   7.849   6.507
 9052TIP3    H227098   6.764   7.983   6.573
 9053TIP3   OH227099   2.606   7.925   5.205
 9053TIP3    H127100   2.654   7.842   5.204
 9053TIP3    H227101   2.518   7.902   5.234
 9054TIP3   OH227102   6.797   0.288   0.195
 9054TIP3    H127103   6.821   0.267   0.104
 9054TIP3    H227104   6.880   0.305   0.238
 9055TIP3   OH227105   3.649   1.225   0.710
 9055TIP3    H127106   3.580   1.160   0.696
 9055TIP3    H227107   3.728   1.173   0.722
 9056TIP3   OH227108   7.267   3.894   5.049
 9056TIP3    H127109   7.244   3.844   5.127
 9056TIP3    H227110   7.323   3.965   5.081
 9057TIP3   OH227111   6.069   2.364   1.422
 9057TIP3    H127112   5.985   2.341   1.382
 9057TIP3    H227113   6.047   2.430   1.487
 9058TIP3   OH227114   4.992   6.461   1.084
 9058TIP3    H127115   4.984   6.527   1.153
 9058TIP3    H227116   4.983   6.511   1.003
 9059TIP3   OH227117   2.835   6.345   3.259
 9059TIP3    H127118   2.927   6.360   3.235
 9059TIP3    H227119   2.796   6.306   3.181
 9060TIP3   OH227120   1.851   2.892   2.896
 9060TIP3    H127121   1.913   2.822   2.916
 9060TIP3    H227122   1.822   2.873   2.807
 9061TIP3   OH227123   7.562   4.267   4.989
 9061TIP3    H127124   7.508   4.343   4.971
 9061TIP3    H227125   7.650   4.292   4.960
 9062TIP3   OH227126   6.747   4.847   2.109
 9062TIP3    H127127   6.719   4.926   2.155
 9062TIP3    H227128   6.665   4.809   2.076
 9063TIP3   OH227129   6.020   4.150   2.328
 9063TIP3    H127130   5.993   4.138   2.419
 9063TIP3    H227131   6.073   4.229   2.328
 9064TIP3   OH227132   6.309   4.521   3.678
 9064TIP3    H127133   6.378   4.574   3.719
 9064TIP3    H227134   6.231   4.537   3.731
 9065TIP3   OH227135   6.761   4.700   0.076
 9065TIP3    H127136   6.727   4.701   0.165
 9065TIP3    H227137   6.761   4.792   0.049
 9066TIP3   OH227138   2.310   4.685   5.321
 9066TIP3    H127139   2.269   4.741   5.386
 9066TIP3    H227140   2.384   4.644   5.367
 9067TIP3   OH227141   5.776   7.886   2.072
 9067TIP3    H127142   5.808   7.798   2.092
 9067TIP3    H227143   5.694   7.893   2.119
 9068TIP3   OH227144   4.305   5.362   4.252
 9068TIP3    H127145   4.271   5.294   4.310
 9068TIP3    H227146   4.381   5.321   4.210
 9069TIP3   OH227147   0.451   4.087   0.997
 9069TIP3    H127148   0.503   4.081   1.077
 9069TIP3    H227149   0.360   4.082   1.027
 9070TIP3   OH227150   0.287   3.965   0.678
 9070TIP3    H127151   0.277   3.871   0.698
 9070TIP3    H227152   0.297   3.968   0.583
 9071TIP3   OH227153   5.173   0.717   2.167
 9071TIP3    H127154   5.211   0.686   2.085
 9071TIP3    H227155   5.226   0.794   2.190
 9072TIP3   OH227156   4.621   2.138   0.983
 9072TIP3    H127157   4.536   2.116   0.944
 9072TIP3    H227158   4.604   2.215   1.037
 9073TIP3   OH227159   0.724   3.507   4.904
 9073TIP3    H127160   0.773   3.488   4.984
 9073TIP3    H227161   0.642   3.544   4.936
 9074TIP3   OH227162   4.645   4.502   5.878
 9074TIP3    H127163   4.660   4.588   5.839
 9074TIP3    H227164   4.552   4.486   5.865
 9075TIP3   OH227165   1.500   5.994   2.558
 9075TIP3    H127166   1.588   6.018   2.588
 9075TIP3    H227167   1.515   5.949   2.475
 9076TIP3   OH227168   6.877   0.891   4.833
 9076TIP3    H127169   6.795   0.914   4.876
 9076TIP3    H227170   6.923   0.835   4.897
 9077TIP3   OH227171   0.459   2.997   6.135
 9077TIP3    H127172   0.504   2.936   6.078
 9077TIP3    H227173   0.384   2.947   6.169
 9078TIP3   OH227174   0.192   1.999   6.224
 9078TIP3    H127175   0.235   1.981   6.307
 9078TIP3    H227176   0.099   1.984   6.241
 9079TIP3   OH227177   0.692   2.639   1.469
 9079TIP3    H127178   0.632   2.643   1.395
 9079TIP3    H227179   0.749   2.715   1.459
 9080TIP3   OH227180   5.010   3.162   0.529
 9080TIP3    H127181   4.987   3.246   0.569
 9080TIP3    H227182   5.025   3.183   0.437
 9081TIP3   OH227183   5.111   2.982   3.058
 9081TIP3    H127184   5.106   3.070   3.021
 9081TIP3    H227185   5.073   2.925   2.991
 9082TIP3   OH227186   2.644   7.814   0.538
 9082TIP3    H127187   2.606   7.876   0.476
 9082TIP3    H227188   2.619   7.728   0.505
 9083TIP3   OH227189   7.983   4.009   4.621
 9083TIP3    H127190   7.994   4.076   4.688
 9083TIP3    H227191   7.891   4.016   4.596
 9084TIP3   OH227192   5.727   7.864   1.003
 9084TIP3    H127193   5.669   7.897   0.934
 9084TIP3    H227194   5.723   7.930   1.072
 9085TIP3   OH227195   2.775   0.403   5.303
 9085TIP3    H127196   2.829   0.383   5.226
 9085TIP3    H227197   2.689   0.368   5.281
 9086TIP3   OH227198   7.924   7.795   5.896
 9086TIP3    H127199   7.958   7.871   5.944
 9086TIP3    H227200   7.948   7.720   5.951
 9087TIP3   OH227201   7.142   7.347   6.785
 9087TIP3    H127202   7.166   7.395   6.705
 9087TIP3    H227203   7.222   7.300   6.809
 9088TIP3   OH227204   4.837   0.108   0.698
 9088TIP3    H127205   4.743   0.114   0.719
 9088TIP3    H227206   4.880   0.120   0.783
 9089TIP3   OH227207   5.140   6.455   6.701
 9089TIP3    H127208   5.221   6.408   6.686
 9089TIP3    H227209   5.072   6.387   6.706
 9090TIP3   OH227210   5.794   2.499   6.106
 9090TIP3    H127211   5.770   2.432   6.170
 9090TIP3    H227212   5.871   2.463   6.061
 9091TIP3   OH227213   1.191   5.894   2.212
 9091TIP3    H127214   1.256   5.833   2.245
 9091TIP3    H227215   1.134   5.841   2.156
 9092TIP3   OH227216   3.735   1.375   3.680
 9092TIP3    H127217   3.751   1.365   3.586
 9092TIP3    H227218   3.649   1.335   3.694
 9093TIP3   OH227219   1.076   6.438   5.638
 9093TIP3    H127220   1.100   6.476   5.554
 9093TIP3    H227221   1.025   6.360   5.616
 9094TIP3   OH227222   7.346   5.884   3.262
 9094TIP3    H127223   7.437   5.865   3.243
 9094TIP3    H227224   7.345   5.976   3.289
 9095TIP3   OH227225   1.809   6.666   3.540
 9095TIP3    H127226   1.863   6.587   3.551
 9095TIP3    H227227   1.776   6.660   3.451
 9096TIP3   OH227228   3.211   5.061   2.349
 9096TIP3    H127229   3.276   5.104   2.295
 9096TIP3    H227230   3.211   4.970   2.320
 9097TIP3   OH227231   6.895   5.532   3.900
 9097TIP3    H127232   6.817   5.518   3.846
 9097TIP3    H227233   6.864   5.526   3.990
 9098TIP3   OH227234   2.222   1.222   6.658
 9098TIP3    H127235   2.177   1.304   6.643
 9098TIP3    H227236   2.270   1.236   6.740
 9099TIP3   OH227237   4.803   6.422   2.723
 9099TIP3    H127238   4.876   6.421   2.784
 9099TIP3    H227239   4.750   6.497   2.749
 9100TIP3   OH227240   6.452   7.028   3.467
 9100TIP3    H127241   6.393   6.958   3.497
 9100TIP3    H227242   6.396   7.085   3.414
 9101TIP3   OH227243   1.352   4.637   6.702
 9101TIP3    H127244   1.382   4.686   6.626
 9101TIP3    H227245   1.287   4.575   6.668
 9102TIP3   OH227246   1.145   3.822   0.820
 9102TIP3    H127247   1.061   3.790   0.787
 9102TIP3    H227248   1.122   3.874   0.897
 9103TIP3   OH227249   7.218   4.730   6.486
 9103TIP3    H127250   7.192   4.790   6.556
 9103TIP3    H227251   7.177   4.647   6.509
 9104TIP3   OH227252   5.120   2.114   6.322
 9104TIP3    H127253   5.103   2.096   6.230
 9104TIP3    H227254   5.105   2.208   6.332
 9105TIP3   OH227255   3.840   1.568   5.493
 9105TIP3    H127256   3.920   1.552   5.441
 9105TIP3    H227257   3.769   1.543   5.434
 9106TIP3   OH227258   3.571   3.045   3.941
 9106TIP3    H127259   3.595   3.022   3.851
 9106TIP3    H227260   3.483   3.083   3.933
 9107TIP3   OH227261   0.584   4.053   4.173
 9107TIP3    H127262   0.550   4.106   4.245
 9107TIP3    H227263   0.679   4.050   4.188
 9108TIP3   OH227264   3.545   0.806   1.204
 9108TIP3    H127265   3.509   0.750   1.273
 9108TIP3    H227266   3.484   0.879   1.199
 9109TIP3   OH227267   2.048   1.675   3.555
 9109TIP3    H127268   1.982   1.734   3.590
 9109TIP3    H227269   2.112   1.665   3.627
 9110TIP3   OH227270   0.518   7.607   1.505
 9110TIP3    H127271   0.522   7.515   1.533
 9110TIP3    H227272   0.432   7.637   1.533
 9111TIP3   OH227273   0.270   2.605   0.233
 9111TIP3    H127274   0.357   2.624   0.197
 9111TIP3    H227275   0.213   2.603   0.156
 9112TIP3   OH227276   8.317   5.116   6.685
 9112TIP3    H127277   8.228   5.143   6.710
 9112TIP3    H227278   8.374   5.155   6.750
 9113TIP3   OH227279   1.963   6.486   0.231
 9113TIP3    H127280   1.961   6.581   0.240
 9113TIP3    H227281   1.893   6.466   0.169
 9114TIP3   OH227282   3.665   4.540   5.105
 9114TIP3    H127283   3.605   4.614   5.102
 9114TIP3    H227284   3.690   4.533   5.197
 9115TIP3   OH227285   1.636   6.354   6.751
 9115TIP3    H127286   1.660   6.267   6.781
 9115TIP3    H227287   1.552   6.341   6.705
 9116TIP3   OH227288   4.018   1.351   1.542
 9116TIP3    H127289   4.104   1.360   1.501
 9116TIP3    H227290   3.969   1.428   1.513
 9117TIP3   OH227291   2.218   0.065   2.161
 9117TIP3    H127292   2.287   0.106   2.108
 9117TIP3    H227293   2.250  -0.023   2.178
 9118TIP3   OH227294   2.001   0.077   0.125
 9118TIP3    H127295   1.973   0.139   0.057
 9118TIP3    H227296   2.035   0.131   0.196
 9119TIP3   OH227297   8.061   3.713   5.435
 9119TIP3    H127298   8.000   3.745   5.501
 9119TIP3    H227299   8.105   3.638   5.477
 9120TIP3   OH227300   3.901   3.652   4.550
 9120TIP3    H127301   3.855   3.730   4.519
 9120TIP3    H227302   3.947   3.619   4.472
 9121TIP3   OH227303   7.301   1.994   4.694
 9121TIP3    H127304   7.280   1.938   4.620
 9121TIP3    H227305   7.298   1.936   4.770
 9122TIP3   OH227306   6.818   7.795   6.102
 9122TIP3    H127307   6.775   7.751   6.029
 9122TIP3    H227308   6.905   7.817   6.069
 9123TIP3   OH227309   3.125   5.430   5.569
 9123TIP3    H127310   3.196   5.370   5.543
 9123TIP3    H227311   3.097   5.470   5.487
 9124TIP3   OH227312   6.021   0.481   0.411
 9124TIP3    H127313   6.043   0.562   0.364
 9124TIP3    H227314   6.105   0.438   0.426
 9125TIP3   OH227315   5.315   6.275   2.221
 9125TIP3    H127316   5.300   6.265   2.127
 9125TIP3    H227317   5.279   6.195   2.259
 9126TIP3   OH227318   8.103   5.117   5.695
 9126TIP3    H127319   8.171   5.171   5.735
 9126TIP3    H227320   8.081   5.052   5.763
 9127TIP3   OH227321   5.645   1.271   2.889
 9127TIP3    H127322   5.557   1.234   2.881
 9127TIP3    H227323   5.700   1.196   2.912
 9128TIP3   OH227324   3.046   0.764   0.739
 9128TIP3    H127325   2.996   0.798   0.812
 9128TIP3    H227326   3.047   0.836   0.675
 9129TIP3   OH227327   4.120   6.566   5.049
 9129TIP3    H127328   4.046   6.506   5.062
 9129TIP3    H227329   4.197   6.508   5.048
 9130TIP3   OH227330   5.128   2.106   3.590
 9130TIP3    H127331   5.087   2.131   3.672
 9130TIP3    H227332   5.065   2.048   3.547
 9131TIP3   OH227333   1.752   6.780   4.394
 9131TIP3    H127334   1.696   6.836   4.340
 9131TIP3    H227335   1.727   6.799   4.484
 9132TIP3   OH227336   0.713   4.058   1.858
 9132TIP3    H127337   0.662   4.135   1.832
 9132TIP3    H227338   0.795   4.065   1.809
 9133TIP3   OH227339   7.072   0.873   5.829
 9133TIP3    H127340   7.015   0.823   5.770
 9133TIP3    H227341   7.070   0.962   5.793
 9134TIP3   OH227342   7.580   6.103   5.290
 9134TIP3    H127343   7.628   6.030   5.330
 9134TIP3    H227344   7.645   6.174   5.284
 9135TIP3   OH227345   3.437   4.868   2.499
 9135TIP3    H127346   3.433   4.875   2.594
 9135TIP3    H227347   3.418   4.956   2.468
 9136TIP3   OH227348   7.605   1.607   0.762
 9136TIP3    H127349   7.582   1.618   0.670
 9136TIP3    H227350   7.550   1.536   0.793
 9137TIP3   OH227351   0.047   7.547   4.606
 9137TIP3    H127352  -0.041   7.536   4.570
 9137TIP3    H227353   0.096   7.589   4.535
 9138TIP3   OH227354   2.721   0.260   3.929
 9138TIP3    H127355   2.722   0.226   4.018
 9138TIP3    H227356   2.783   0.333   3.930
 9139TIP3   OH227357   2.582   2.597   5.778
 9139TIP3    H127358   2.559   2.634   5.863
 9139TIP3    H227359   2.526   2.642   5.716
 9140TIP3   OH227360   3.825   3.091   6.317
 9140TIP3    H127361   3.858   3.005   6.343
 9140TIP3    H227362   3.902   3.148   6.323
 9141TIP3   OH227363   7.617   6.876   4.585
 9141TIP3    H127364   7.650   6.966   4.585
 9141TIP3    H227365   7.524   6.885   4.610
 9142TIP3   OH227366   2.625   4.251   6.538
 9142TIP3    H127367   2.656   4.172   6.494
 9142TIP3    H227368   2.535   4.231   6.564
 9143TIP3   OH227369   5.352   6.178   2.714
 9143TIP3    H127370   5.344   6.162   2.620
 9143TIP3    H227371   5.402   6.103   2.746
 9144TIP3   OH227372   2.973   1.226   5.968
 9144TIP3    H127373   2.936   1.257   6.051
 9144TIP3    H227374   3.000   1.136   5.986
 9145TIP3   OH227375   3.055   6.004   0.658
 9145TIP3    H127376   3.131   5.996   0.600
 9145TIP3    H227377   2.981   6.022   0.600
 9146TIP3   OH227378   5.021   6.214   2.622
 9146TIP3    H127379   5.022   6.133   2.572
 9146TIP3    H227380   5.083   6.271   2.577
 9147TIP3   OH227381   8.367   5.279   0.521
 9147TIP3    H127382   8.361   5.375   0.519
 9147TIP3    H227383   8.337   5.255   0.608
 9148TIP3   OH227384   0.340   5.994   1.961
 9148TIP3    H127385   0.269   5.958   2.015
 9148TIP3    H227386   0.348   6.085   1.991
 9149TIP3   OH227387   1.924   6.007   4.117
 9149TIP3    H127388   1.990   6.048   4.060
 9149TIP3    H227389   1.952   5.916   4.124
 9150TIP3   OH227390   0.225   0.822   4.077
 9150TIP3    H127391   0.135   0.804   4.104
 9150TIP3    H227392   0.278   0.762   4.129
 9151TIP3   OH227393   2.492   3.690   1.286
 9151TIP3    H127394   2.577   3.666   1.249
 9151TIP3    H227395   2.432   3.686   1.211
 9152TIP3   OH227396   0.532   2.679   0.133
 9152TIP3    H127397   0.588   2.602   0.127
 9152TIP3    H227398   0.590   2.753   0.116
 9153TIP3   OH227399   6.792   4.026   2.895
 9153TIP3    H127400   6.777   4.060   2.983
 9153TIP3    H227401   6.705   4.030   2.853
 9154TIP3   OH227402   3.595   0.354   3.568
 9154TIP3    H127403   3.583   0.413   3.493
 9154TIP3    H227404   3.649   0.404   3.629
 9155TIP3   OH227405   3.877  -0.011   4.402
 9155TIP3    H127406   3.868  -0.060   4.320
 9155TIP3    H227407   3.859   0.080   4.377
 9156TIP3   OH227408   6.425   1.066   1.731
 9156TIP3    H127409   6.451   1.020   1.811
 9156TIP3    H227410   6.336   1.097   1.750
 9157TIP3   OH227411   7.839   3.970   1.537
 9157TIP3    H127412   7.881   3.921   1.608
 9157TIP3    H227413   7.810   3.904   1.475
 9158TIP3   OH227414   6.752   2.711   4.331
 9158TIP3    H127415   6.763   2.759   4.248
 9158TIP3    H227416   6.721   2.777   4.393
 9159TIP3   OH227417   3.460   4.886   4.770
 9159TIP3    H127418   3.437   4.801   4.808
 9159TIP3    H227419   3.425   4.950   4.831
 9160TIP3   OH227420   1.354   6.057   5.872
 9160TIP3    H127421   1.424   6.075   5.809
 9160TIP3    H227422   1.298   6.135   5.868
 9161TIP3   OH227423   1.076   0.966   3.914
 9161TIP3    H127424   1.072   0.904   3.987
 9161TIP3    H227425   1.127   1.039   3.947
 9162TIP3   OH227426   7.181   0.716   0.729
 9162TIP3    H127427   7.089   0.736   0.746
 9162TIP3    H227428   7.208   0.779   0.663
 9163TIP3   OH227429   4.351   2.779   5.433
 9163TIP3    H127430   4.286   2.721   5.393
 9163TIP3    H227431   4.309   2.864   5.436
 9164TIP3   OH227432   6.451   3.074   0.417
 9164TIP3    H127433   6.532   3.117   0.445
 9164TIP3    H227434   6.467   3.051   0.325
 9165TIP3   OH227435   0.988   6.528   5.150
 9165TIP3    H127436   0.997   6.504   5.242
 9165TIP3    H227437   1.007   6.447   5.102
 9166TIP3   OH227438   1.598   1.614   6.362
 9166TIP3    H127439   1.598   1.557   6.286
 9166TIP3    H227440   1.552   1.564   6.430
 9167TIP3   OH227441   7.908   6.040   4.775
 9167TIP3    H127442   7.939   6.067   4.689
 9167TIP3    H227443   7.976   6.070   4.836
 9168TIP3   OH227444   6.829   4.464   1.824
 9168TIP3    H127445   6.811   4.386   1.876
 9168TIP3    H227446   6.759   4.525   1.848
 9169TIP3   OH227447   3.876   2.105   6.676
 9169TIP3    H127448   3.961   2.130   6.714
 9169TIP3    H227449   3.851   2.026   6.725
 9170TIP3   OH227450   2.327   0.947   4.168
 9170TIP3    H127451   2.272   1.025   4.175
 9170TIP3    H227452   2.392   0.968   4.102
 9171TIP3   OH227453   2.107   5.203   3.633
 9171TIP3    H127454   2.043   5.178   3.699
 9171TIP3    H227455   2.156   5.123   3.615
 9172TIP3   OH227456   3.901   1.267   5.988
 9172TIP3    H127457   3.898   1.269   6.084
 9172TIP3    H227458   3.992   1.245   5.968
 9173TIP3   OH227459   0.862   7.102   0.712
 9173TIP3    H127460   0.771   7.081   0.732
 9173TIP3    H227461   0.913   7.051   0.774
 9174TIP3   OH227462   5.135   3.752   5.852
 9174TIP3    H127463   5.173   3.706   5.926
 9174TIP3    H227464   5.050   3.782   5.883
 9175TIP3   OH227465   1.917   4.576   1.459
 9175TIP3    H127466   1.984   4.625   1.506
 9175TIP3    H227467   1.960   4.494   1.433
 9176TIP3   OH227468   0.810   5.037   4.108
 9176TIP3    H127469   0.837   4.997   4.191
 9176TIP3    H227470   0.765   5.117   4.133
 9177TIP3   OH227471   1.198   2.780   5.510
 9177TIP3    H127472   1.264   2.831   5.462
 9177TIP3    H227473   1.216   2.689   5.488
 9178TIP3   OH227474   7.282   3.952   4.772
 9178TIP3    H127475   7.275   3.948   4.867
 9178TIP3    H227476   7.345   4.022   4.755
 9179TIP3   OH227477   5.316   0.768   5.865
 9179TIP3    H127478   5.326   0.797   5.775
 9179TIP3    H227479   5.226   0.736   5.870
 9180TIP3   OH227480   5.047   0.889   3.627
 9180TIP3    H127481   5.003   0.953   3.684
 9180TIP3    H227482   5.087   0.826   3.687
 9181TIP3   OH227483   7.178   4.267   3.338
 9181TIP3    H127484   7.222   4.350   3.356
 9181TIP3    H227485   7.249   4.205   3.322
 9182TIP3   OH227486   7.585   2.600   5.400
 9182TIP3    H127487   7.541   2.552   5.470
 9182TIP3    H227488   7.668   2.556   5.387
 9183TIP3   OH227489   7.178   1.892   5.814
 9183TIP3    H127490   7.125   1.896   5.734
 9183TIP3    H227491   7.154   1.970   5.863
 9184TIP3   OH227492   0.259   3.466   3.353
 9184TIP3    H127493   0.347   3.503   3.363
 9184TIP3    H227494   0.247   3.410   3.429
 9185TIP3   OH227495   7.850   6.250   2.633
 9185TIP3    H127496   7.881   6.335   2.664
 9185TIP3    H227497   7.918   6.189   2.661
 9186TIP3   OH227498   6.666   0.269   3.257
 9186TIP3    H127499   6.658   0.341   3.196
 9186TIP3    H227500   6.582   0.268   3.304
 9187TIP3   OH227501   0.245   0.802   1.278
 9187TIP3    H127502   0.302   0.826   1.351
 9187TIP3    H227503   0.274   0.859   1.206
 9188TIP3   OH227504   7.389   1.087   1.666
 9188TIP3    H127505   7.483   1.072   1.656
 9188TIP3    H227506   7.375   1.174   1.627
 9189TIP3   OH227507   3.971   6.862   2.701
 9189TIP3    H127508   3.955   6.864   2.796
 9189TIP3    H227509   3.890   6.896   2.663
 9190TIP3   OH227510   2.483   2.839   3.042
 9190TIP3    H127511   2.565   2.879   3.011
 9190TIP3    H227512   2.481   2.754   2.998
 9191TIP3   OH227513   6.527   0.870   6.623
 9191TIP3    H127514   6.565   0.915   6.548
 9191TIP3    H227515   6.585   0.890   6.696
 9192TIP3   OH227516   6.581   0.700   5.147
 9192TIP3    H127517   6.569   0.789   5.179
 9192TIP3    H227518   6.506   0.652   5.183
 9193TIP3   OH227519   5.973   1.723   2.453
 9193TIP3    H127520   5.924   1.666   2.512
 9193TIP3    H227521   5.972   1.809   2.497
 9194TIP3   OH227522   6.019   2.511   3.592
 9194TIP3    H127523   6.067   2.521   3.674
 9194TIP3    H227524   5.967   2.431   3.604
 9195TIP3   OH227525   3.431   7.195   0.039
 9195TIP3    H127526   3.372   7.217   0.111
 9195TIP3    H227527   3.504   7.150   0.081
 9196TIP3   OH227528   5.801   6.776   2.340
 9196TIP3    H127529   5.873   6.816   2.292
 9196TIP3    H227530   5.775   6.701   2.286
 9197TIP3   OH227531   7.732   0.058   1.470
 9197TIP3    H127532   7.787  -0.019   1.487
 9197TIP3    H227533   7.667   0.056   1.540
 9198TIP3   OH227534   6.082   3.869   4.528
 9198TIP3    H127535   6.147   3.930   4.564
 9198TIP3    H227536   6.134   3.796   4.495
 9199TIP3   OH227537   3.478   0.290   1.694
 9199TIP3    H127538   3.488   0.222   1.761
 9199TIP3    H227539   3.533   0.362   1.724
 9200TIP3   OH227540   2.271   3.060   5.174
 9200TIP3    H127541   2.309   2.984   5.131
 9200TIP3    H227542   2.282   3.131   5.110
 9201TIP3   OH227543   7.396   7.543   1.363
 9201TIP3    H127544   7.322   7.503   1.318
 9201TIP3    H227545   7.435   7.602   1.299
 9202TIP3   OH227546   5.387   3.053   2.427
 9202TIP3    H127547   5.454   2.989   2.453
 9202TIP3    H227548   5.304   3.009   2.441
 9203TIP3   OH227549   6.719   2.927   0.468
 9203TIP3    H127550   6.661   2.881   0.407
 9203TIP3    H227551   6.721   3.017   0.435
 9204TIP3   OH227552   7.348   7.763   2.646
 9204TIP3    H127553   7.278   7.810   2.691
 9204TIP3    H227554   7.426   7.816   2.661
 9205TIP3   OH227555   7.585   4.755   1.094
 9205TIP3    H127556   7.618   4.768   1.183
 9205TIP3    H227557   7.646   4.803   1.038
 9206TIP3   OH227558   7.778   4.100   5.196
 9206TIP3    H127559   7.739   4.071   5.113
 9206TIP3    H227560   7.817   4.020   5.232
 9207TIP3   OH227561   3.380   6.965   5.749
 9207TIP3    H127562   3.321   6.952   5.675
 9207TIP3    H227563   3.350   6.902   5.815
 9208TIP3   OH227564   4.035   1.878   5.628
 9208TIP3    H127565   4.000   1.873   5.539
 9208TIP3    H227566   4.090   1.956   5.628
 9209TIP3   OH227567   0.766   4.774   3.478
 9209TIP3    H127568   0.754   4.797   3.386
 9209TIP3    H227569   0.819   4.695   3.477
 9210TIP3   OH227570   6.748   1.152   5.166
 9210TIP3    H127571   6.779   1.199   5.243
 9210TIP3    H227572   6.740   1.219   5.098
 9211TIP3   OH227573   8.014   6.186   3.029
 9211TIP3    H127574   7.990   6.232   2.948
 9211TIP3    H227575   7.933   6.147   3.060
 9212TIP3   OH227576   0.329   7.128   3.254
 9212TIP3    H127577   0.255   7.075   3.285
 9212TIP3    H227578   0.328   7.118   3.159
 9213TIP3   OH227579   3.119   6.867   4.658
 9213TIP3    H127580   3.075   6.915   4.588
 9213TIP3    H227581   3.048   6.828   4.709
 9214TIP3   OH227582   6.781   2.870   1.821
 9214TIP3    H127583   6.732   2.788   1.832
 9214TIP3    H227584   6.826   2.882   1.904
 9215TIP3   OH227585   7.095   7.541   4.916
 9215TIP3    H127586   7.094   7.498   4.831
 9215TIP3    H227587   7.073   7.472   4.978
 9216TIP3   OH227588   0.360   0.108   6.691
 9216TIP3    H127589   0.374   0.133   6.782
 9216TIP3    H227590   0.398   0.180   6.640
 9217TIP3   OH227591   8.200   3.044   2.544
 9217TIP3    H127592   8.143   3.019   2.471
 9217TIP3    H227593   8.144   3.036   2.621
 9218TIP3   OH227594   7.785   3.179   3.714
 9218TIP3    H127595   7.792   3.245   3.644
 9218TIP3    H227596   7.717   3.120   3.683
 9219TIP3   OH227597   4.819   2.738   3.948
 9219TIP3    H127598   4.885   2.803   3.925
 9219TIP3    H227599   4.807   2.687   3.868
 9220TIP3   OH227600   4.056   0.091   1.892
 9220TIP3    H127601   4.045   0.147   1.969
 9220TIP3    H227602   4.091   0.150   1.825
 9221TIP3   OH227603   5.471   5.344   0.101
 9221TIP3    H127604   5.521   5.393   0.166
 9221TIP3    H227605   5.382   5.341   0.137
 9222TIP3   OH227606   7.296   4.137   3.885
 9222TIP3    H127607   7.292   4.094   3.799
 9222TIP3    H227608   7.263   4.226   3.869
 9223TIP3   OH227609   1.494   2.896   0.112
 9223TIP3    H127610   1.510   2.952   0.036
 9223TIP3    H227611   1.532   2.942   0.186
 9224TIP3   OH227612   4.605   1.471   6.620
 9224TIP3    H127613   4.698   1.483   6.604
 9224TIP3    H227614   4.584   1.386   6.583
 9225TIP3   OH227615   3.413   3.938   2.554
 9225TIP3    H127616   3.391   3.847   2.574
 9225TIP3    H227617   3.351   3.964   2.487
 9226TIP3   OH227618   6.877   1.407   2.439
 9226TIP3    H127619   6.915   1.364   2.516
 9226TIP3    H227620   6.864   1.336   2.376
 9227TIP3   OH227621   1.113   6.140   2.096
 9227TIP3    H127622   1.142   6.059   2.138
 9227TIP3    H227623   1.024   6.120   2.066
 9228TIP3   OH227624   2.521   4.903   0.555
 9228TIP3    H127625   2.533   4.994   0.580
 9228TIP3    H227626   2.475   4.864   0.629
 9229TIP3   OH227627   1.938   5.866   5.216
 9229TIP3    H127628   1.936   5.883   5.121
 9229TIP3    H227629   1.910   5.949   5.255
 9230TIP3   OH227630   4.035   7.035   3.528
 9230TIP3    H127631   3.968   6.992   3.581
 9230TIP3    H227632   4.009   7.127   3.526
 9231TIP3   OH227633   7.638   4.027   3.100
 9231TIP3    H127634   7.589   4.109   3.105
 9231TIP3    H227635   7.720   4.051   3.056
 9232TIP3   OH227636   7.363   2.135   5.444
 9232TIP3    H127637   7.269   2.145   5.460
 9232TIP3    H227638   7.404   2.198   5.504
 9233TIP3   OH227639   2.282   4.293   2.728
 9233TIP3    H127640   2.370   4.333   2.732
 9233TIP3    H227641   2.230   4.344   2.790
 9234TIP3   OH227642   7.169   5.205   3.706
 9234TIP3    H127643   7.223   5.251   3.770
 9234TIP3    H227644   7.143   5.273   3.643
 9235TIP3   OH227645   0.784   5.301   2.770
 9235TIP3    H127646   0.853   5.341   2.716
 9235TIP3    H227647   0.724   5.374   2.790
 9236TIP3   OH227648   2.490   0.729   5.402
 9236TIP3    H127649   2.540   0.750   5.481
 9236TIP3    H227650   2.542   0.766   5.331
 9237TIP3   OH227651   7.936   3.848   1.753
 9237TIP3    H127652   7.877   3.789   1.799
 9237TIP3    H227653   8.022   3.805   1.758
 9238TIP3   OH227654   7.276   6.136   5.294
 9238TIP3    H127655   7.357   6.086   5.299
 9238TIP3    H227656   7.207   6.071   5.310
 9239TIP3   OH227657   8.279   5.638   1.384
 9239TIP3    H127658   8.242   5.707   1.440
 9239TIP3    H227659   8.269   5.671   1.295
 9240TIP3   OH227660   5.934   4.139   5.346
 9240TIP3    H127661   5.907   4.171   5.260
 9240TIP3    H227662   5.971   4.216   5.390
 9241TIP3   OH227663   1.281   0.289   6.833
 9241TIP3    H127664   1.231   0.361   6.872
 9241TIP3    H227665   1.329   0.329   6.761
 9242TIP3   OH227666   2.225   5.731   0.259
 9242TIP3    H127667   2.195   5.776   0.338
 9242TIP3    H227668   2.153   5.741   0.196
 9243TIP3   OH227669   0.173   6.076   4.505
 9243TIP3    H127670   0.248   6.045   4.455
 9243TIP3    H227671   0.201   6.161   4.539
 9244TIP3   OH227672   3.594   0.987   2.914
 9244TIP3    H127673   3.619   1.068   2.957
 9244TIP3    H227674   3.582   1.012   2.822
 9245TIP3   OH227675   1.555   0.233   4.722
 9245TIP3    H127676   1.489   0.171   4.689
 9245TIP3    H227677   1.631   0.178   4.743
 9246TIP3   OH227678   0.231   7.186   5.929
 9246TIP3    H127679   0.220   7.264   5.874
 9246TIP3    H227680   0.311   7.204   5.980
 9247TIP3   OH227681   1.838   0.476   4.978
 9247TIP3    H127682   1.787   0.432   5.046
 9247TIP3    H227683   1.892   0.407   4.940
 9248TIP3   OH227684   3.326   7.440   0.906
 9248TIP3    H127685   3.291   7.467   0.990
 9248TIP3    H227686   3.421   7.451   0.914
 9249TIP3   OH227687   0.389   6.127   0.485
 9249TIP3    H127688   0.412   6.206   0.534
 9249TIP3    H227689   0.311   6.094   0.529
 9250TIP3   OH227690   4.012   2.606   6.369
 9250TIP3    H127691   4.048   2.599   6.458
 9250TIP3    H227692   3.965   2.524   6.356
 9251TIP3   OH227693   0.979   2.520   0.524
 9251TIP3    H127694   0.968   2.552   0.614
 9251TIP3    H227695   0.908   2.562   0.476
 9252TIP3   OH227696   5.486   5.433   4.427
 9252TIP3    H127697   5.567   5.387   4.450
 9252TIP3    H227698   5.440   5.373   4.368
 9253TIP3   OH227699   0.605   5.710   3.586
 9253TIP3    H127700   0.549   5.637   3.615
 9253TIP3    H227701   0.560   5.788   3.619
 9254TIP3   OH227702   7.131   1.114   2.875
 9254TIP3    H127703   7.125   1.021   2.852
 9254TIP3    H227704   7.186   1.116   2.953
 9255TIP3   OH227705   1.907   1.636   3.910
 9255TIP3    H127706   1.972   1.705   3.895
 9255TIP3    H227707   1.826   1.682   3.929
 9256TIP3   OH227708   1.729   1.929   5.194
 9256TIP3    H127709   1.660   1.927   5.128
 9256TIP3    H227710   1.788   1.998   5.165
 9257TIP3   OH227711   4.131   6.714   2.040
 9257TIP3    H127712   4.172   6.716   1.953
 9257TIP3    H227713   4.039   6.693   2.022
 9258TIP3   OH227714   0.411   2.857   5.703
 9258TIP3    H127715   0.458   2.877   5.784
 9258TIP3    H227716   0.328   2.820   5.732
 9259TIP3   OH227717   6.078   7.308   4.884
 9259TIP3    H127718   6.120   7.395   4.883
 9259TIP3    H227719   6.095   7.275   4.972
 9260TIP3   OH227720   0.795   7.181   6.372
 9260TIP3    H127721   0.866   7.126   6.338
 9260TIP3    H227722   0.823   7.270   6.352
 9261TIP3   OH227723   2.500   1.336   2.494
 9261TIP3    H127724   2.503   1.330   2.399
 9261TIP3    H227725   2.550   1.260   2.525
 9262TIP3   OH227726   4.566   1.418   2.117
 9262TIP3    H127727   4.503   1.488   2.101
 9262TIP3    H227728   4.596   1.391   2.030
 9263TIP3   OH227729   2.133   5.160   0.619
 9263TIP3    H127730   2.097   5.077   0.587
 9263TIP3    H227731   2.106   5.225   0.555
 9264TIP3   OH227732   4.475   5.263   6.300
 9264TIP3    H127733   4.531   5.296   6.371
 9264TIP3    H227734   4.521   5.185   6.268
 9265TIP3   OH227735   1.808   5.561   3.838
 9265TIP3    H127736   1.745   5.489   3.828
 9265TIP3    H227737   1.870   5.549   3.766
 9266TIP3   OH227738   6.866   3.121   2.116
 9266TIP3    H127739   6.831   3.154   2.033
 9266TIP3    H227740   6.956   3.152   2.118
 9267TIP3   OH227741   6.475   2.322   4.055
 9267TIP3    H127742   6.491   2.261   3.982
 9267TIP3    H227743   6.490   2.408   4.017
 9268TIP3   OH227744   7.486   5.563   0.749
 9268TIP3    H127745   7.500   5.521   0.833
 9268TIP3    H227746   7.480   5.657   0.769
 9269TIP3   OH227747   5.216   0.283   3.612
 9269TIP3    H127748   5.243   0.224   3.682
 9269TIP3    H227749   5.131   0.317   3.640
 9270TIP3   OH227750   8.343   4.007   5.882
 9270TIP3    H127751   8.359   4.090   5.928
 9270TIP3    H227752   8.250   4.009   5.862
 9271TIP3   OH227753   6.010   5.712   0.365
 9271TIP3    H127754   6.042   5.708   0.455
 9271TIP3    H227755   6.084   5.745   0.314
 9272TIP3   OH227756   4.834   0.179   3.536
 9272TIP3    H127757   4.919   0.206   3.572
 9272TIP3    H227758   4.819   0.238   3.462
 9273TIP3   OH227759   3.272   1.309   5.576
 9273TIP3    H127760   3.283   1.251   5.652
 9273TIP3    H227761   3.359   1.313   5.536
 9274TIP3   OH227762   7.994   4.782   0.178
 9274TIP3    H127763   8.077   4.813   0.213
 9274TIP3    H227764   7.969   4.849   0.114
 9275TIP3   OH227765   2.321   6.915   6.486
 9275TIP3    H127766   2.292   6.905   6.577
 9275TIP3    H227767   2.385   6.987   6.489
 9276TIP3   OH227768   2.487   4.308   1.112
 9276TIP3    H127769   2.555   4.325   1.177
 9276TIP3    H227770   2.509   4.365   1.039
 9277TIP3   OH227771   0.554   4.362   2.872
 9277TIP3    H127772   0.476   4.404   2.907
 9277TIP3    H227773   0.628   4.407   2.913
 9278TIP3   OH227774   0.135   7.153   1.846
 9278TIP3    H127775   0.051   7.108   1.843
 9278TIP3    H227776   0.174   7.127   1.930
 9279TIP3   OH227777   3.317   5.219   3.819
 9279TIP3    H127778   3.358   5.271   3.750
 9279TIP3    H227779   3.387   5.206   3.883
 9280TIP3   OH227780   2.813   7.614   4.191
 9280TIP3    H127781   2.730   7.571   4.168
 9280TIP3    H227782   2.879   7.561   4.147
 9281TIP3   OH227783   5.267   6.917   0.702
 9281TIP3    H127784   5.328   6.930   0.629
 9281TIP3    H227785   5.265   7.001   0.747
 9282TIP3   OH227786   6.350   3.818   5.966
 9282TIP3    H127787   6.316   3.901   5.933
 9282TIP3    H227788   6.292   3.752   5.927
 9283TIP3   OH227789   7.434   4.576   5.575
 9283TIP3    H127790   7.449   4.668   5.552
 9283TIP3    H227791   7.477   4.566   5.660
 9284TIP3   OH227792   7.284   0.144   1.619
 9284TIP3    H127793   7.215   0.083   1.594
 9284TIP3    H227794   7.302   0.122   1.710
 9285TIP3   OH227795   3.333   4.482   5.323
 9285TIP3    H127796   3.299   4.553   5.269
 9285TIP3    H227797   3.302   4.402   5.280
 9286TIP3   OH227798   6.425   0.702   1.679
 9286TIP3    H127799   6.354   0.688   1.741
 9286TIP3    H227800   6.492   0.750   1.729
 9287TIP3   OH227801   2.340   6.563   2.381
 9287TIP3    H127802   2.286   6.532   2.454
 9287TIP3    H227803   2.346   6.487   2.322
 9288TIP3   OH227804   6.675   0.974   2.452
 9288TIP3    H127805   6.596   0.968   2.507
 9288TIP3    H227806   6.747   0.961   2.513
 9289TIP3   OH227807   8.317   3.682   2.154
 9289TIP3    H127808   8.357   3.768   2.164
 9289TIP3    H227809   8.296   3.655   2.243
 9290TIP3   OH227810   6.460   1.864   5.567
 9290TIP3    H127811   6.492   1.774   5.559
 9290TIP3    H227812   6.386   1.857   5.627
 9291TIP3   OH227813   0.464   1.043   4.798
 9291TIP3    H127814   0.394   1.009   4.743
 9291TIP3    H227815   0.420   1.098   4.863
 9292TIP3   OH227816   4.593   0.648   0.724
 9292TIP3    H127817   4.621   0.740   0.727
 9292TIP3    H227818   4.513   0.646   0.776
 9293TIP3   OH227819   8.275   6.830   3.953
 9293TIP3    H127820   8.242   6.742   3.939
 9293TIP3    H227821   8.260   6.876   3.870
 9294TIP3   OH227822   7.211   7.090   2.780
 9294TIP3    H127823   7.169   7.140   2.710
 9294TIP3    H227824   7.218   7.002   2.745
 9295TIP3   OH227825   4.638   2.101   2.845
 9295TIP3    H127826   4.683   2.176   2.806
 9295TIP3    H227827   4.564   2.084   2.787
 9296TIP3   OH227828   5.839   7.282   1.226
 9296TIP3    H127829   5.768   7.285   1.290
 9296TIP3    H227830   5.805   7.227   1.155
 9297TIP3   OH227831   3.154   7.804   4.064
 9297TIP3    H127832   3.102   7.790   3.985
 9297TIP3    H227833   3.121   7.740   4.127
 9298TIP3   OH227834   7.069   6.763   3.194
 9298TIP3    H127835   7.163   6.752   3.205
 9298TIP3    H227836   7.039   6.682   3.153
 9299TIP3   OH227837   2.087   2.784   6.669
 9299TIP3    H127838   1.999   2.767   6.635
 9299TIP3    H227839   2.122   2.853   6.614
 9300TIP3   OH227840   4.580   1.797   1.525
 9300TIP3    H127841   4.595   1.715   1.573
 9300TIP3    H227842   4.497   1.830   1.560
 9301TIP3   OH227843   4.553   7.468   2.219
 9301TIP3    H127844   4.633   7.481   2.169
 9301TIP3    H227845   4.580   7.475   2.311
 9302TIP3   OH227846   5.055   4.199   3.033
 9302TIP3    H127847   5.047   4.292   3.053
 9302TIP3    H227848   5.099   4.196   2.948
 9303TIP3   OH227849   0.947   3.686   6.713
 9303TIP3    H127850   0.908   3.602   6.740
 9303TIP3    H227851   0.871   3.745   6.703
 9304TIP3   OH227852   0.983   6.712   5.644
 9304TIP3    H127853   1.020   6.637   5.691
 9304TIP3    H227854   0.990   6.785   5.705
 9305TIP3   OH227855   5.400   1.811   0.790
 9305TIP3    H127856   5.393   1.903   0.766
 9305TIP3    H227857   5.416   1.812   0.885
 9306TIP3   OH227858   8.056   7.276   5.952
 9306TIP3    H127859   7.995   7.280   5.878
 9306TIP3    H227860   8.140   7.252   5.912
 9307TIP3   OH227861   7.112   1.306   0.871
 9307TIP3    H127862   7.057   1.237   0.908
 9307TIP3    H227863   7.097   1.382   0.927
 9308TIP3   OH227864   0.509   3.848   6.438
 9308TIP3    H127865   0.451   3.924   6.432
 9308TIP3    H227866   0.485   3.794   6.363
 9309TIP3   OH227867   5.451   3.809   3.058
 9309TIP3    H127868   5.372   3.756   3.049
 9309TIP3    H227869   5.478   3.826   2.967
 9310TIP3   OH227870   3.271   4.761   4.517
 9310TIP3    H127871   3.268   4.846   4.472
 9310TIP3    H227872   3.276   4.784   4.610
 9311TIP3   OH227873   6.313   0.673   5.555
 9311TIP3    H127874   6.296   0.681   5.461
 9311TIP3    H227875   6.228   0.654   5.594
 9312TIP3   OH227876   8.270   2.315   0.733
 9312TIP3    H127877   8.326   2.335   0.809
 9312TIP3    H227878   8.323   2.341   0.657
 9313TIP3   OH227879   2.382   7.594   5.681
 9313TIP3    H127880   2.302   7.583   5.629
 9313TIP3    H227881   2.451   7.557   5.625
 9314TIP3   OH227882   3.496   0.206   5.749
 9314TIP3    H127883   3.589   0.191   5.764
 9314TIP3    H227884   3.465   0.125   5.708
 9315TIP3   OH227885   5.056   6.279   6.451
 9315TIP3    H127886   4.999   6.241   6.384
 9315TIP3    H227887   4.999   6.333   6.504
 9316TIP3   OH227888   2.084   6.104   3.903
 9316TIP3    H127889   2.126   6.022   3.879
 9316TIP3    H227890   2.016   6.117   3.837
 9317TIP3   OH227891   4.678   0.944   1.941
 9317TIP3    H127892   4.714   1.015   1.889
 9317TIP3    H227893   4.755   0.892   1.967
 9318TIP3   OH227894   7.213   3.003   6.147
 9318TIP3    H127895   7.178   3.024   6.060
 9318TIP3    H227896   7.236   3.088   6.185
 9319TIP3   OH227897   3.161   0.040   1.234
 9319TIP3    H127898   3.094   0.092   1.278
 9319TIP3    H227899   3.114  -0.032   1.192
 9320TIP3   OH227900   7.406   1.478   4.528
 9320TIP3    H127901   7.489   1.475   4.575
 9320TIP3    H227902   7.413   1.411   4.461
 9321TIP3   OH227903   7.100   4.283   6.779
 9321TIP3    H127904   7.064   4.244   6.700
 9321TIP3    H227905   7.195   4.280   6.767
 9322TIP3   OH227906   0.847   2.390   4.980
 9322TIP3    H127907   0.899   2.466   5.005
 9322TIP3    H227908   0.758   2.411   5.010
 9323TIP3   OH227909   3.324   7.319   6.616
 9323TIP3    H127910   3.302   7.396   6.563
 9323TIP3    H227911   3.409   7.291   6.582
 9324TIP3   OH227912   6.517   2.630   5.779
 9324TIP3    H127913   6.590   2.576   5.747
 9324TIP3    H227914   6.440   2.575   5.769
 9325TIP3   OH227915   4.236   4.382   0.613
 9325TIP3    H127916   4.292   4.337   0.677
 9325TIP3    H227917   4.225   4.470   0.650
 9326TIP3   OH227918   5.557   5.871   6.850
 9326TIP3    H127919   5.591   5.895   6.764
 9326TIP3    H227920   5.626   5.898   6.911
 9327TIP3   OH227921   7.170   1.140   4.582
 9327TIP3    H127922   7.260   1.125   4.554
 9327TIP3    H227923   7.147   1.225   4.544
 9328TIP3   OH227924   7.857   4.503   0.921
 9328TIP3    H127925   7.838   4.596   0.910
 9328TIP3    H227926   7.882   4.494   1.012
 9329TIP3   OH227927   7.555   5.532   3.699
 9329TIP3    H127928   7.522   5.600   3.640
 9329TIP3    H227929   7.528   5.450   3.658
 9330TIP3   OH227930   6.990   7.408   5.324
 9330TIP3    H127931   7.020   7.317   5.326
 9330TIP3    H227932   6.998   7.438   5.415
 9331TIP3   OH227933   8.378   5.052   0.113
 9331TIP3    H127934   8.333   5.040   0.029
 9331TIP3    H227935   8.471   5.046   0.092
 9332TIP3   OH227936   5.418   3.808   0.853
 9332TIP3    H127937   5.413   3.822   0.759
 9332TIP3    H227938   5.412   3.896   0.891
 9333TIP3   OH227939   0.471   6.393   4.574
 9333TIP3    H127940   0.503   6.323   4.517
 9333TIP3    H227941   0.440   6.460   4.514
 9334TIP3   OH227942   7.489   7.020   2.302
 9334TIP3    H127943   7.475   7.071   2.381
 9334TIP3    H227944   7.428   6.947   2.308
 9335TIP3   OH227945   8.157   5.448   3.182
 9335TIP3    H127946   8.189   5.410   3.263
 9335TIP3    H227947   8.234   5.452   3.125
 9336TIP3   OH227948   4.247   6.759   1.778
 9336TIP3    H127949   4.234   6.678   1.729
 9336TIP3    H227950   4.174   6.815   1.752
 9337TIP3   OH227951   4.691   4.845   6.682
 9337TIP3    H127952   4.775   4.870   6.722
 9337TIP3    H227953   4.659   4.925   6.642
 9338TIP3   OH227954   3.119   0.902   1.621
 9338TIP3    H127955   3.056   0.908   1.548
 9338TIP3    H227956   3.202   0.880   1.579
 9339TIP3   OH227957   1.206   3.348   5.703
 9339TIP3    H127958   1.239   3.429   5.742
 9339TIP3    H227959   1.263   3.333   5.628
 9340TIP3   OH227960   1.144   4.967   4.878
 9340TIP3    H127961   1.052   4.992   4.890
 9340TIP3    H227962   1.140   4.893   4.817
 9341TIP3   OH227963   1.649   6.661   0.857
 9341TIP3    H127964   1.605   6.576   0.866
 9341TIP3    H227965   1.596   6.708   0.793
 9342TIP3   OH227966   1.170   6.151   6.405
 9342TIP3    H127967   1.145   6.063   6.376
 9342TIP3    H227968   1.241   6.176   6.345
 9343TIP3   OH227969   3.740   7.804   3.359
 9343TIP3    H127970   3.711   7.843   3.277
 9343TIP3    H227971   3.792   7.873   3.402
 9344TIP3   OH227972   4.760   3.202   6.528
 9344TIP3    H127973   4.776   3.272   6.465
 9344TIP3    H227974   4.667   3.210   6.550
 9345TIP3   OH227975   5.363   6.521   4.840
 9345TIP3    H127976   5.362   6.599   4.894
 9345TIP3    H227977   5.407   6.549   4.759
 9346TIP3   OH227978   2.800   2.378   0.501
 9346TIP3    H127979   2.718   2.368   0.453
 9346TIP3    H227980   2.812   2.473   0.508
 9347TIP3   OH227981   0.444   0.057   3.495
 9347TIP3    H127982   0.518   0.099   3.452
 9347TIP3    H227983   0.396   0.129   3.536
 9348TIP3   OH227984   5.016   6.051   5.147
 9348TIP3    H127985   5.008   6.007   5.062
 9348TIP3    H227986   5.013   6.145   5.126
 9349TIP3   OH227987   2.328   3.440   2.645
 9349TIP3    H127988   2.272   3.366   2.669
 9349TIP3    H227989   2.280   3.485   2.576
 9350TIP3   OH227990   7.629   3.462   1.328
 9350TIP3    H127991   7.718   3.497   1.334
 9350TIP3    H227992   7.590   3.505   1.252
 9351TIP3   OH227993   5.781   1.972   5.350
 9351TIP3    H127994   5.836   1.894   5.360
 9351TIP3    H227995   5.705   1.941   5.301
 9352TIP3   OH227996   1.410   1.706   4.022
 9352TIP3    H127997   1.333   1.754   3.991
 9352TIP3    H227998   1.475   1.716   3.953
 9353TIP3   OH227999   8.234   6.377   3.026
 9353TIP3    H128000   8.167   6.445   3.021
 9353TIP3    H228001   8.185   6.295   3.031
 9354TIP3   OH228002   7.576   0.090   4.272
 9354TIP3    H128003   7.666   0.058   4.281
 9354TIP3    H228004   7.578   0.179   4.307
 9355TIP3   OH228005   0.833   1.699   1.166
 9355TIP3    H128006   0.890   1.733   1.097
 9355TIP3    H228007   0.892   1.677   1.238
 9356TIP3   OH228008   0.263   5.378   5.791
 9356TIP3    H128009   0.297   5.289   5.795
 9356TIP3    H228010   0.229   5.387   5.702
 9357TIP3   OH228011   0.664   5.350   3.795
 9357TIP3    H128012   0.617   5.350   3.878
 9357TIP3    H228013   0.608   5.400   3.735
 9358TIP3   OH228014   7.403   1.026   5.536
 9358TIP3    H128015   7.402   0.938   5.497
 9358TIP3    H228016   7.481   1.027   5.591
 9359TIP3   OH228017   6.916   0.048   4.953
 9359TIP3    H128018   6.925   0.039   4.858
 9359TIP3    H228019   6.910   0.142   4.968
 9360TIP3   OH228020   4.280   6.210   3.903
 9360TIP3    H128021   4.314   6.286   3.856
 9360TIP3    H228022   4.208   6.245   3.956
 9361TIP3   OH228023   1.867   6.714   1.200
 9361TIP3    H128024   1.796   6.674   1.250
 9361TIP3    H228025   1.908   6.775   1.262
 9362TIP3   OH228026   3.465   2.203   2.529
 9362TIP3    H128027   3.535   2.219   2.592
 9362TIP3    H228028   3.391   2.254   2.561
 9363TIP3   OH228029   3.438   3.636   0.399
 9363TIP3    H128030   3.465   3.669   0.484
 9363TIP3    H228031   3.441   3.540   0.408
 9364TIP3   OH228032   4.998   3.411   0.612
 9364TIP3    H128033   4.997   3.443   0.702
 9364TIP3    H228034   4.998   3.490   0.558
 9365TIP3   OH228035   2.270   7.413   2.286
 9365TIP3    H128036   2.303   7.482   2.344
 9365TIP3    H228037   2.329   7.339   2.300
 9366TIP3   OH228038   1.374   0.444   1.943
 9366TIP3    H128039   1.421   0.476   2.020
 9366TIP3    H228040   1.336   0.361   1.972
 9367TIP3   OH228041   5.363   5.306   2.517
 9367TIP3    H128042   5.305   5.249   2.568
 9367TIP3    H228043   5.307   5.345   2.451
 9368TIP3   OH228044   0.873   4.980   4.973
 9368TIP3    H128045   0.834   5.066   4.993
 9368TIP3    H228046   0.824   4.918   5.027
 9369TIP3   OH228047   8.158   3.102   6.343
 9369TIP3    H128048   8.237   3.080   6.392
 9369TIP3    H228049   8.174   3.190   6.309
 9370TIP3   OH228050   2.976   2.313   5.050
 9370TIP3    H128051   3.032   2.274   5.117
 9370TIP3    H228052   2.913   2.366   5.099
 9371TIP3   OH228053   5.866   6.683   6.466
 9371TIP3    H128054   5.959   6.677   6.488
 9371TIP3    H228055   5.823   6.624   6.528
 9372TIP3   OH228056   2.886   1.035   4.164
 9372TIP3    H128057   2.910   0.995   4.248
 9372TIP3    H228058   2.923   1.123   4.169
 9373TIP3   OH228059   0.250   5.459   3.170
 9373TIP3    H128060   0.189   5.512   3.119
 9373TIP3    H228061   0.328   5.451   3.114
 9374TIP3   OH228062   4.438   2.981   0.365
 9374TIP3    H128063   4.421   2.934   0.283
 9374TIP3    H228064   4.400   2.924   0.432
 9375TIP3   OH228065   6.395   6.825   0.925
 9375TIP3    H128066   6.414   6.737   0.958
 9375TIP3    H228067   6.304   6.841   0.951
 9376TIP3   OH228068   7.976   0.685   4.378
 9376TIP3    H128069   7.927   0.759   4.342
 9376TIP3    H228070   8.002   0.634   4.301
 9377TIP3   OH228071   3.948   4.217   6.309
 9377TIP3    H128072   3.967   4.263   6.391
 9377TIP3    H228073   3.874   4.160   6.330
 9378TIP3   OH228074   2.800   7.736   5.146
 9378TIP3    H128075   2.865   7.683   5.191
 9378TIP3    H228076   2.847   7.813   5.116
 9379TIP3   OH228077   5.814   7.593   2.258
 9379TIP3    H128078   5.759   7.574   2.334
 9379TIP3    H228079   5.763   7.560   2.184
 9380TIP3   OH228080   4.211   6.594   3.946
 9380TIP3    H128081   4.288   6.540   3.927
 9380TIP3    H228082   4.146   6.567   3.881
 9381TIP3   OH228083   2.707   3.614   5.739
 9381TIP3    H128084   2.708   3.625   5.644
 9381TIP3    H228085   2.789   3.570   5.759
 9382TIP3   OH228086   0.891   6.179   4.932
 9382TIP3    H128087   0.966   6.227   4.896
 9382TIP3    H228088   0.814   6.225   4.898
 9383TIP3   OH228089   0.675   1.434   4.609
 9383TIP3    H128090   0.662   1.427   4.514
 9383TIP3    H228091   0.765   1.467   4.618
 9384TIP3   OH228092   0.630   6.375   6.616
 9384TIP3    H128093   0.666   6.348   6.532
 9384TIP3    H228094   0.647   6.300   6.674
 9385TIP3   OH228095   7.416   4.506   4.938
 9385TIP3    H128096   7.440   4.597   4.926
 9385TIP3    H228097   7.361   4.486   4.861
 9386TIP3   OH228098   5.138   4.921   1.979
 9386TIP3    H128099   5.155   4.856   2.048
 9386TIP3    H228100   5.110   4.999   2.027
 9387TIP3   OH228101   2.989   0.441   5.904
 9387TIP3    H128102   3.032   0.522   5.929
 9387TIP3    H228103   2.952   0.407   5.986
 9388TIP3   OH228104   0.493   7.391   2.312
 9388TIP3    H128105   0.440   7.418   2.237
 9388TIP3    H228106   0.443   7.420   2.388
 9389TIP3   OH228107   1.698   1.328   2.764
 9389TIP3    H128108   1.717   1.399   2.826
 9389TIP3    H228109   1.757   1.257   2.790
 9390TIP3   OH228110   8.313   7.710   1.131
 9390TIP3    H128111   8.277   7.687   1.045
 9390TIP3    H228112   8.253   7.671   1.194
 9391TIP3   OH228113   5.266   3.751   1.531
 9391TIP3    H128114   5.332   3.719   1.592
 9391TIP3    H228115   5.183   3.726   1.571
 9392TIP3   OH228116   3.760   3.679   3.369
 9392TIP3    H128117   3.820   3.716   3.433
 9392TIP3    H228118   3.723   3.755   3.324
 9393TIP3   OH228119   2.610   7.273   5.726
 9393TIP3    H128120   2.600   7.363   5.695
 9393TIP3    H228121   2.521   7.244   5.746
 9394TIP3   OH228122   4.475   0.072   0.304
 9394TIP3    H128123   4.458   0.041   0.393
 9394TIP3    H228124   4.440   0.003   0.248
 9395TIP3   OH228125   0.988   0.142   6.596
 9395TIP3    H128126   0.943   0.196   6.661
 9395TIP3    H228127   0.941   0.058   6.598
 9396TIP3   OH228128   0.740   5.953   2.821
 9396TIP3    H128129   0.735   6.040   2.782
 9396TIP3    H228130   0.653   5.939   2.860
 9397TIP3   OH228131   6.324   4.556   4.926
 9397TIP3    H128132   6.260   4.488   4.904
 9397TIP3    H228133   6.402   4.507   4.951
 9398TIP3   OH228134   1.573   7.256   5.179
 9398TIP3    H128135   1.661   7.287   5.197
 9398TIP3    H228136   1.550   7.297   5.096
 9399TIP3   OH228137   6.814   1.754   6.439
 9399TIP3    H128138   6.899   1.719   6.465
 9399TIP3    H228139   6.792   1.706   6.359
 9400TIP3   OH228140   4.825   1.520   1.294
 9400TIP3    H128141   4.890   1.547   1.229
 9400TIP3    H228142   4.742   1.552   1.259
 9401TIP3   OH228143   3.490   4.623   6.343
 9401TIP3    H128144   3.488   4.678   6.264
 9401TIP3    H228145   3.406   4.640   6.386
 9402TIP3   OH228146   4.619   6.178   4.440
 9402TIP3    H128147   4.548   6.131   4.398
 9402TIP3    H228148   4.622   6.263   4.397
 9403TIP3   OH228149   2.529   1.090   0.708
 9403TIP3    H128150   2.512   1.112   0.799
 9403TIP3    H228151   2.458   1.134   0.659
 9404TIP3   OH228152   1.310   3.879   0.288
 9404TIP3    H128153   1.404   3.892   0.276
 9404TIP3    H228154   1.272   3.897   0.202
 9405TIP3   OH228155   0.947   5.467   5.463
 9405TIP3    H128156   1.031   5.431   5.492
 9405TIP3    H228157   0.899   5.391   5.428
 9406TIP3   OH228158   6.919   1.392   6.417
 9406TIP3    H128159   6.988   1.331   6.389
 9406TIP3    H228160   6.966   1.468   6.451
 9407TIP3   OH228161   0.235   0.769   5.775
 9407TIP3    H128162   0.324   0.805   5.778
 9407TIP3    H228163   0.244   0.682   5.813
 9408TIP3   OH228164   6.549   7.234   4.185
 9408TIP3    H128165   6.637   7.211   4.155
 9408TIP3    H228166   6.541   7.192   4.270
 9409TIP3   OH228167   4.154   1.837   1.259
 9409TIP3    H128168   4.247   1.857   1.251
 9409TIP3    H228169   4.151   1.742   1.273
 9410TIP3   OH228170   5.343   7.066   2.059
 9410TIP3    H128171   5.350   7.160   2.069
 9410TIP3    H228172   5.432   7.033   2.072
 9411TIP3   OH228173   4.389   6.062   6.361
 9411TIP3    H128174   4.398   6.073   6.455
 9411TIP3    H228175   4.467   6.104   6.324
 9412TIP3   OH228176   4.820   2.614   3.713
 9412TIP3    H128177   4.908   2.644   3.694
 9412TIP3    H228178   4.787   2.582   3.629
 9413TIP3   OH228179   5.358   7.331   4.544
 9413TIP3    H128180   5.316   7.358   4.463
 9413TIP3    H228181   5.392   7.243   4.526
 9414TIP3   OH228182   6.926   5.681   5.390
 9414TIP3    H128183   7.017   5.694   5.414
 9414TIP3    H228184   6.891   5.769   5.377
 9415TIP3   OH228185   8.231   4.276   6.340
 9415TIP3    H128186   8.289   4.245   6.409
 9415TIP3    H228187   8.151   4.226   6.351
 9416TIP3   OH228188   3.873   1.192   4.945
 9416TIP3    H128189   3.924   1.115   4.921
 9416TIP3    H228190   3.782   1.163   4.940
 9417TIP3   OH228191   2.080   3.498   3.494
 9417TIP3    H128192   2.158   3.449   3.520
 9417TIP3    H228193   2.099   3.528   3.405
 9418TIP3   OH228194   1.617   1.654   1.102
 9418TIP3    H128195   1.639   1.747   1.103
 9418TIP3    H228196   1.608   1.632   1.009
 9419TIP3   OH228197   5.041   2.791   2.760
 9419TIP3    H128198   5.050   2.742   2.678
 9419TIP3    H228199   4.963   2.755   2.802
 9420TIP3   OH228200   3.083   7.907   5.540
 9420TIP3    H128201   3.142   7.832   5.534
 9420TIP3    H228202   3.051   7.906   5.630
 9421TIP3   OH228203   2.349   0.928   2.196
 9421TIP3    H128204   2.261   0.938   2.160
 9421TIP3    H228205   2.406   0.963   2.128
 9422TIP3   OH228206   2.939   0.723   5.936
 9422TIP3    H128207   2.857   0.703   5.980
 9422TIP3    H228208   2.912   0.759   5.851
 9423TIP3   OH228209   6.809   4.731   6.104
 9423TIP3    H128210   6.836   4.750   6.193
 9423TIP3    H228211   6.798   4.817   6.063
 9424TIP3   OH228212   6.393   5.486   2.019
 9424TIP3    H128213   6.398   5.551   2.090
 9424TIP3    H228214   6.360   5.536   1.945
 9425TIP3   OH228215   3.376   6.258   0.771
 9425TIP3    H128216   3.377   6.347   0.807
 9425TIP3    H228217   3.407   6.268   0.681
 9426TIP3   OH228218   1.736   1.741   6.816
 9426TIP3    H128219   1.783   1.663   6.846
 9426TIP3    H228220   1.767   1.811   6.874
 9427TIP3   OH228221   7.289   5.125   2.527
 9427TIP3    H128222   7.385   5.130   2.533
 9427TIP3    H228223   7.272   5.038   2.492
 9428TIP3   OH228224   7.281   5.200   3.078
 9428TIP3    H128225   7.291   5.192   2.983
 9428TIP3    H228226   7.351   5.259   3.105
 9429TIP3   OH228227   7.534   0.846   0.715
 9429TIP3    H128228   7.521   0.906   0.789
 9429TIP3    H228229   7.553   0.762   0.756
 9430TIP3   OH228230   5.766   0.878   0.231
 9430TIP3    H128231   5.677   0.846   0.216
 9430TIP3    H228232   5.763   0.917   0.319
 9431TIP3   OH228233   7.225   6.764   4.125
 9431TIP3    H128234   7.304   6.809   4.153
 9431TIP3    H228235   7.155   6.828   4.138
 9432TIP3   OH228236   0.603   2.254   4.114
 9432TIP3    H128237   0.658   2.213   4.046
 9432TIP3    H228238   0.665   2.300   4.170
 9433TIP3   OH228239   1.435   6.325   6.542
 9433TIP3    H128240   1.340   6.317   6.533
 9433TIP3    H228241   1.451   6.419   6.533
 9434TIP3   OH228242   6.566   5.821   3.725
 9434TIP3    H128243   6.652   5.862   3.722
 9434TIP3    H228244   6.558   5.789   3.815
 9435TIP3   OH228245   7.817   1.992   5.707
 9435TIP3    H128246   7.751   1.933   5.744
 9435TIP3    H228247   7.896   1.940   5.701
 9436TIP3   OH228248   5.044   1.841   2.723
 9436TIP3    H128249   4.997   1.901   2.781
 9436TIP3    H228250   5.113   1.803   2.777
 9437TIP3   OH228251   7.244   7.836   5.648
 9437TIP3    H128252   7.172   7.893   5.676
 9437TIP3    H228253   7.252   7.853   5.554
 9438TIP3   OH228254   5.828   4.421   6.666
 9438TIP3    H128255   5.828   4.478   6.744
 9438TIP3    H228256   5.911   4.373   6.671
 9439TIP3   OH228257   7.311   0.043   1.877
 9439TIP3    H128258   7.217   0.048   1.858
 9439TIP3    H228259   7.324   0.101   1.951
 9440TIP3   OH228260   1.312   5.087   5.765
 9440TIP3    H128261   1.374   5.089   5.838
 9440TIP3    H228262   1.293   5.179   5.747
 9441TIP3   OH228263   7.916   4.709   2.995
 9441TIP3    H128264   7.979   4.742   2.931
 9441TIP3    H228265   7.954   4.734   3.080
 9442TIP3   OH228266   7.338   4.495   0.666
 9442TIP3    H128267   7.393   4.439   0.720
 9442TIP3    H228268   7.295   4.553   0.728
 9443TIP3   OH228269   4.103   2.363   5.246
 9443TIP3    H128270   4.131   2.272   5.236
 9443TIP3    H228271   4.011   2.357   5.272
 9444TIP3   OH228272   6.615   0.464   1.615
 9444TIP3    H128273   6.669   0.521   1.561
 9444TIP3    H228274   6.545   0.520   1.649
 9445TIP3   OH228275   3.254   6.977   3.764
 9445TIP3    H128276   3.250   7.072   3.773
 9445TIP3    H228277   3.279   6.962   3.673
 9446TIP3   OH228278   1.522   1.541   1.708
 9446TIP3    H128279   1.514   1.635   1.693
 9446TIP3    H228280   1.461   1.501   1.647
 9447TIP3   OH228281   4.637   6.075   3.805
 9447TIP3    H128282   4.711   6.064   3.746
 9447TIP3    H228283   4.562   6.092   3.748
 9448TIP3   OH228284   3.224   6.551   1.964
 9448TIP3    H128285   3.257   6.599   1.887
 9448TIP3    H228286   3.288   6.571   2.033
 9449TIP3   OH228287   3.539   5.622   3.790
 9449TIP3    H128288   3.461   5.566   3.794
 9449TIP3    H228289   3.591   5.585   3.718
 9450TIP3   OH228290  -0.002   4.898   3.426
 9450TIP3    H128291   0.056   4.948   3.484
 9450TIP3    H228292  -0.029   4.961   3.359
 9451TIP3   OH228293   0.379   3.412   0.638
 9451TIP3    H128294   0.390   3.330   0.686
 9451TIP3    H228295   0.458   3.463   0.660
 9452TIP3   OH228296   0.756   0.317   2.171
 9452TIP3    H128297   0.813   0.251   2.131
 9452TIP3    H228298   0.759   0.391   2.111
 9453TIP3   OH228299   5.027   6.159   2.909
 9453TIP3    H128300   5.015   6.170   2.815
 9453TIP3    H228301   5.116   6.126   2.919
 9454TIP3   OH228302   4.212   0.929   5.821
 9454TIP3    H128303   4.303   0.913   5.845
 9454TIP3    H228304   4.163   0.859   5.865
 9455TIP3   OH228305   0.473   4.450   4.218
 9455TIP3    H128306   0.438   4.363   4.196
 9455TIP3    H228307   0.553   4.458   4.166
 9456TIP3   OH228308   4.056   1.990   3.441
 9456TIP3    H128309   4.128   1.944   3.398
 9456TIP3    H228310   4.077   1.983   3.535
 9457TIP3   OH228311   0.731   6.303   0.534
 9457TIP3    H128312   0.728   6.244   0.610
 9457TIP3    H228313   0.738   6.245   0.459
 9458TIP3   OH228314   8.157   1.095   0.730
 9458TIP3    H128315   8.136   1.006   0.756
 9458TIP3    H228316   8.072   1.136   0.712
 9459TIP3   OH228317   7.333   1.542   5.586
 9459TIP3    H128318   7.424   1.555   5.559
 9459TIP3    H228319   7.318   1.449   5.576
 9460TIP3   OH228320   1.206   4.175   1.142
 9460TIP3    H128321   1.242   4.242   1.084
 9460TIP3    H228322   1.111   4.184   1.132
 9461TIP3   OH228323   5.380   1.455   0.359
 9461TIP3    H128324   5.368   1.547   0.385
 9461TIP3    H228325   5.292   1.417   0.366
 9462TIP3   OH228326   7.174   0.021   4.519
 9462TIP3    H128327   7.255   0.023   4.571
 9462TIP3    H228328   7.187  -0.050   4.456
 9463TIP3   OH228329   6.866   7.623   3.741
 9463TIP3    H128330   6.951   7.600   3.779
 9463TIP3    H228331   6.864   7.577   3.657
 9464TIP3   OH228332   3.103   0.484   2.821
 9464TIP3    H128333   3.075   0.405   2.775
 9464TIP3    H228334   3.061   0.478   2.907
 9465TIP3   OH228335   5.694   6.298   2.684
 9465TIP3    H128336   5.643   6.224   2.718
 9465TIP3    H228337   5.659   6.313   2.596
 9466TIP3   OH228338   8.276   2.906   2.069
 9466TIP3    H128339   8.354   2.895   2.125
 9466TIP3    H228340   8.288   2.842   1.999
 9467TIP3   OH228341   4.404   3.787   2.636
 9467TIP3    H128342   4.334   3.850   2.624
 9467TIP3    H228343   4.476   3.838   2.675
 9468TIP3   OH228344   4.386   6.548   1.240
 9468TIP3    H128345   4.441   6.615   1.282
 9468TIP3    H228346   4.394   6.472   1.298
 9469TIP3   OH228347   6.887   0.334   3.442
 9469TIP3    H128348   6.829   0.309   3.370
 9469TIP3    H228349   6.885   0.430   3.442
 9470TIP3   OH228350   3.443   4.584   1.463
 9470TIP3    H128351   3.410   4.673   1.446
 9470TIP3    H228352   3.365   4.533   1.486
 9471TIP3   OH228353   1.742   2.523   0.481
 9471TIP3    H128354   1.664   2.576   0.465
 9471TIP3    H228355   1.785   2.563   0.556
 9472TIP3   OH228356   5.374   4.170   6.269
 9472TIP3    H128357   5.342   4.080   6.262
 9472TIP3    H228358   5.306   4.216   6.318
 9473TIP3   OH228359   4.201   2.740   0.159
 9473TIP3    H128360   4.113   2.742   0.198
 9473TIP3    H228361   4.215   2.829   0.127
 9474TIP3   OH228362   4.446   3.544   3.710
 9474TIP3    H128363   4.433   3.629   3.751
 9474TIP3    H228364   4.398   3.551   3.627
 9475TIP3   OH228365   2.598   2.890   0.690
 9475TIP3    H128366   2.506   2.903   0.716
 9475TIP3    H228367   2.603   2.926   0.602
 9476TIP3   OH228368   1.657   5.911   6.072
 9476TIP3    H128369   1.617   5.827   6.092
 9476TIP3    H228370   1.703   5.897   5.990
 9477TIP3   OH228371   3.423   7.276   4.024
 9477TIP3    H128372   3.375   7.298   3.944
 9477TIP3    H228373   3.362   7.220   4.073
 9478TIP3   OH228374   1.996   3.680   0.298
 9478TIP3    H128375   1.918   3.652   0.250
 9478TIP3    H228376   1.962   3.719   0.379
 9479TIP3   OH228377   7.538   5.131   0.755
 9479TIP3    H128378   7.625   5.139   0.715
 9479TIP3    H228379   7.478   5.127   0.681
 9480TIP3   OH228380   0.362   4.973   6.112
 9480TIP3    H128381   0.387   4.886   6.079
 9480TIP3    H228382   0.295   5.003   6.050
 9481TIP3   OH228383   1.776   4.114   1.225
 9481TIP3    H128384   1.838   4.150   1.288
 9481TIP3    H228385   1.706   4.076   1.279
 9482TIP3   OH228386   1.919   4.425   4.310
 9482TIP3    H128387   1.826   4.401   4.303
 9482TIP3    H228388   1.948   4.435   4.219
 9483TIP3   OH228389   1.455   5.007   2.585
 9483TIP3    H128390   1.515   4.936   2.609
 9483TIP3    H228391   1.472   5.075   2.649
 9484TIP3   OH228392   3.967   6.387   0.457
 9484TIP3    H128393   3.931   6.301   0.481
 9484TIP3    H228394   3.955   6.392   0.362
 9485TIP3   OH228395   5.548   0.659   4.211
 9485TIP3    H128396   5.598   0.594   4.261
 9485TIP3    H228397   5.461   0.620   4.201
 9486TIP3   OH228398   4.229   2.211   3.351
 9486TIP3    H128399   4.194   2.158   3.423
 9486TIP3    H228400   4.190   2.297   3.363
 9487TIP3   OH228401   3.201   1.757   1.938
 9487TIP3    H128402   3.123   1.806   1.913
 9487TIP3    H228403   3.210   1.690   1.869
 9488TIP3   OH228404   2.762   0.809   5.728
 9488TIP3    H128405   2.808   0.767   5.655
 9488TIP3    H228406   2.685   0.755   5.742
 9489TIP3   OH228407   2.838   6.501   3.722
 9489TIP3    H128408   2.826   6.585   3.765
 9489TIP3    H228409   2.803   6.436   3.783
 9490TIP3   OH228410   7.871   5.560   5.362
 9490TIP3    H128411   7.787   5.516   5.352
 9490TIP3    H228412   7.851   5.653   5.358
 9491TIP3   OH228413   3.854   5.599   1.371
 9491TIP3    H128414   3.866   5.506   1.393
 9491TIP3    H228415   3.942   5.631   1.355
 9492TIP3   OH228416   5.910   7.850   0.477
 9492TIP3    H128417   5.932   7.783   0.413
 9492TIP3    H228418   5.927   7.933   0.432
 9493TIP3   OH228419   5.750   5.750   3.626
 9493TIP3    H128420   5.814   5.815   3.597
 9493TIP3    H228421   5.696   5.796   3.689
 9494TIP3   OH228422   4.423   4.173   5.080
 9494TIP3    H128423   4.373   4.202   5.004
 9494TIP3    H228424   4.469   4.251   5.110
 9495TIP3   OH228425   0.542   2.995   2.048
 9495TIP3    H128426   0.565   2.903   2.064
 9495TIP3    H228427   0.465   2.991   1.991
 9496TIP3   OH228428   4.526   4.203   5.425
 9496TIP3    H128429   4.543   4.248   5.342
 9496TIP3    H228430   4.463   4.135   5.402
 9497TIP3   OH228431   7.115   6.859   6.226
 9497TIP3    H128432   7.069   6.938   6.198
 9497TIP3    H228433   7.144   6.817   6.145
 9498TIP3   OH228434   2.466   2.913   1.251
 9498TIP3    H128435   2.560   2.930   1.242
 9498TIP3    H228436   2.460   2.842   1.315
 9499TIP3   OH228437   1.522   3.115   2.775
 9499TIP3    H128438   1.444   3.133   2.828
 9499TIP3    H228439   1.593   3.108   2.838
 9500TIP3   OH228440   4.888   2.679   6.816
 9500TIP3    H128441   4.954   2.614   6.791
 9500TIP3    H228442   4.821   2.674   6.748
 9501TIP3   OH228443   2.971   4.387   1.618
 9501TIP3    H128444   2.934   4.382   1.706
 9501TIP3    H228445   2.955   4.477   1.590
 9502TIP3   OH228446   2.548   4.746   6.170
 9502TIP3    H128447   2.602   4.666   6.165
 9502TIP3    H228448   2.481   4.725   6.235
 9503TIP3   OH228449   0.824   1.226   1.986
 9503TIP3    H128450   0.891   1.234   2.054
 9503TIP3    H228451   0.772   1.306   1.995
 9504TIP3   OH228452   2.101   4.846   5.832
 9504TIP3    H128453   2.024   4.875   5.783
 9504TIP3    H228454   2.068   4.820   5.918
 9505TIP3   OH228455   1.151   1.892   3.241
 9505TIP3    H128456   1.096   1.857   3.170
 9505TIP3    H228457   1.089   1.932   3.302
 9506TIP3   OH228458   3.550   4.243   1.370
 9506TIP3    H128459   3.595   4.255   1.454
 9506TIP3    H228460   3.487   4.173   1.386
 9507TIP3   OH228461   1.036   6.446   4.791
 9507TIP3    H128462   1.100   6.517   4.794
 9507TIP3    H228463   0.951   6.488   4.802
 9508TIP3   OH228464   6.390   0.291   1.364
 9508TIP3    H128465   6.370   0.308   1.272
 9508TIP3    H228466   6.483   0.268   1.364
 9509TIP3   OH228467   7.828   2.262   4.227
 9509TIP3    H128468   7.810   2.349   4.262
 9509TIP3    H228469   7.911   2.271   4.180
 9510TIP3   OH228470   3.602   0.532   3.341
 9510TIP3    H128471   3.511   0.561   3.331
 9510TIP3    H228472   3.641   0.595   3.401
 9511TIP3   OH228473   0.224   5.156   1.538
 9511TIP3    H128474   0.240   5.124   1.627
 9511TIP3    H228475   0.191   5.245   1.550
 9512TIP3   OH228476   4.913   3.988   3.511
 9512TIP3    H128477   5.006   4.010   3.510
 9512TIP3    H228478   4.902   3.934   3.589
 9513TIP3   OH228479   7.479   2.844   5.448
 9513TIP3    H128480   7.480   2.900   5.371
 9513TIP3    H228481   7.505   2.758   5.415
 9514TIP3   OH228482   5.946   5.686   0.920
 9514TIP3    H128483   5.963   5.599   0.885
 9514TIP3    H228484   6.003   5.744   0.870
 9515TIP3   OH228485   4.547   3.239   0.004
 9515TIP3    H128486   4.621   3.296   0.028
 9515TIP3    H228487   4.558   3.161   0.058
 9516TIP3   OH228488   5.582   3.568   3.191
 9516TIP3    H128489   5.652   3.570   3.126
 9516TIP3    H228490   5.517   3.629   3.157
 9517TIP3   OH228491   4.614   5.666   3.494
 9517TIP3    H128492   4.525   5.652   3.462
 9517TIP3    H228493   4.643   5.579   3.523
 9518TIP3   OH228494   3.017   7.377   5.985
 9518TIP3    H128495   2.957   7.317   5.941
 9518TIP3    H228496   3.095   7.323   6.003
 9519TIP3   OH228497   6.349   7.864  -0.004
 9519TIP3    H128498   6.287   7.805  -0.047
 9519TIP3    H228499   6.380   7.816   0.072
 9520TIP3   OH228500   2.691   3.310   4.285
 9520TIP3    H128501   2.739   3.275   4.361
 9520TIP3    H228502   2.602   3.322   4.318
 9521TIP3   OH228503   3.276   2.396   0.120
 9521TIP3    H128504   3.351   2.339   0.107
 9521TIP3    H228505   3.309   2.468   0.175
 9522TIP3   OH228506   4.468   2.558   4.470
 9522TIP3    H128507   4.500   2.537   4.382
 9522TIP3    H228508   4.483   2.478   4.521
 9523TIP3   OH228509   1.941   1.974   1.391
 9523TIP3    H128510   1.980   2.021   1.465
 9523TIP3    H228511   1.898   2.043   1.339
 9524TIP3   OH228512   7.978   0.825   2.019
 9524TIP3    H128513   7.935   0.874   1.948
 9524TIP3    H228514   7.922   0.841   2.096
 9525TIP3   OH228515   1.214   6.319   5.863
 9525TIP3    H128516   1.146   6.348   5.924
 9525TIP3    H228517   1.183   6.349   5.778
 9526TIP3   OH228518   0.952   6.462   2.760
 9526TIP3    H128519   0.869   6.448   2.715
 9526TIP3    H228520   1.013   6.403   2.716
 9527TIP3   OH228521   1.139   1.569   0.627
 9527TIP3    H128522   1.081   1.568   0.550
 9527TIP3    H228523   1.083   1.601   0.697
 9528TIP3   OH228524   4.143   1.814   4.336
 9528TIP3    H128525   4.226   1.844   4.373
 9528TIP3    H228526   4.123   1.876   4.266
 9529TIP3   OH228527   6.980   3.876   3.224
 9529TIP3    H128528   6.964   3.960   3.268
 9529TIP3    H228529   6.999   3.900   3.133
 9530TIP3   OH228530   6.807   4.199   1.770
 9530TIP3    H128531   6.761   4.145   1.705
 9530TIP3    H228532   6.810   4.144   1.848
 9531TIP3   OH228533   3.248   7.439   1.670
 9531TIP3    H128534   3.330   7.459   1.715
 9531TIP3    H228535   3.216   7.523   1.639
 9532TIP3   OH228536   6.688   7.545   5.026
 9532TIP3    H128537   6.723   7.458   5.047
 9532TIP3    H228538   6.756   7.585   4.972
 9533TIP3   OH228539   2.204   3.762   4.831
 9533TIP3    H128540   2.152   3.762   4.751
 9533TIP3    H228541   2.258   3.683   4.825
 9534TIP3   OH228542   4.472   0.250   4.801
 9534TIP3    H128543   4.480   0.160   4.769
 9534TIP3    H228544   4.462   0.303   4.722
 9535TIP3   OH228545   8.332   0.492   1.473
 9535TIP3    H128546   8.387   0.507   1.550
 9535TIP3    H228547   8.385   0.522   1.399
 9536TIP3   OH228548   8.107   5.564   3.832
 9536TIP3    H128549   8.068   5.595   3.750
 9536TIP3    H228550   8.160   5.489   3.807
 9537TIP3   OH228551   1.876   5.970   6.622
 9537TIP3    H128552   1.840   5.903   6.680
 9537TIP3    H228553   1.903   5.922   6.544
 9538TIP3   OH228554   3.341   4.978   0.557
 9538TIP3    H128555   3.377   4.974   0.646
 9538TIP3    H228556   3.418   4.986   0.500
 9539TIP3   OH228557   3.738   5.667   3.084
 9539TIP3    H128558   3.828   5.682   3.054
 9539TIP3    H228559   3.705   5.599   3.024
 9540TIP3   OH228560   0.840   6.551   2.047
 9540TIP3    H128561   0.910   6.492   2.072
 9540TIP3    H228562   0.761   6.497   2.049
 9541TIP3   OH228563   1.153   1.366   3.286
 9541TIP3    H128564   1.181   1.455   3.263
 9541TIP3    H228565   1.160   1.317   3.205
 9542TIP3   OH228566   7.627   3.651   4.542
 9542TIP3    H128567   7.628   3.723   4.479
 9542TIP3    H228568   7.640   3.572   4.489
 9543TIP3   OH228569   5.735   2.356   0.043
 9543TIP3    H128570   5.826   2.352   0.071
 9543TIP3    H228571   5.738   2.398  -0.043
 9544TIP3   OH228572   1.225   7.279   4.036
 9544TIP3    H128573   1.297   7.304   4.094
 9544TIP3    H228574   1.227   7.343   3.965
 9545TIP3   OH228575   5.810   7.660   1.261
 9545TIP3    H128576   5.840   7.638   1.172
 9545TIP3    H228577   5.717   7.638   1.260
 9546TIP3   OH228578   2.974   1.628   2.194
 9546TIP3    H128579   2.936   1.709   2.230
 9546TIP3    H228580   2.907   1.595   2.134
 9547TIP3   OH228581   8.295   7.613   4.103
 9547TIP3    H128582   8.300   7.708   4.089
 9547TIP3    H228583   8.210   7.587   4.066
 9548TIP3   OH228584   2.647   5.621   5.668
 9548TIP3    H128585   2.703   5.649   5.596
 9548TIP3    H228586   2.683   5.666   5.745
 9549TIP3   OH228587   6.658   7.350   3.308
 9549TIP3    H128588   6.578   7.327   3.261
 9549TIP3    H228589   6.667   7.444   3.295
 9550TIP3   OH228590   7.276   2.404   0.570
 9550TIP3    H128591   7.329   2.466   0.520
 9550TIP3    H228592   7.318   2.319   0.554
 9551TIP3   OH228593   1.081   1.303   1.849
 9551TIP3    H128594   1.163   1.344   1.875
 9551TIP3    H228595   1.016   1.336   1.912
 9552TIP3   OH228596   6.818   6.459   1.729
 9552TIP3    H128597   6.759   6.522   1.688
 9552TIP3    H228598   6.771   6.375   1.723
 9553TIP3   OH228599   6.230   1.366   2.689
 9553TIP3    H128600   6.226   1.385   2.595
 9553TIP3    H228601   6.142   1.338   2.712
 9554TIP3   OH228602   4.916   4.186   0.448
 9554TIP3    H128603   4.864   4.106   0.438
 9554TIP3    H228604   4.873   4.234   0.518
 9555TIP3   OH228605   2.690   7.290   4.834
 9555TIP3    H128606   2.680   7.343   4.913
 9555TIP3    H228607   2.697   7.354   4.763
 9556TIP3   OH228608   6.763   5.868   1.232
 9556TIP3    H128609   6.741   5.901   1.319
 9556TIP3    H228610   6.752   5.773   1.238
 9557TIP3   OH228611   4.850   2.285   0.853
 9557TIP3    H128612   4.781   2.227   0.887
 9557TIP3    H228613   4.803   2.361   0.818
 9558TIP3   OH228614   3.199   5.865   3.981
 9558TIP3    H128615   3.218   5.952   4.016
 9558TIP3    H228616   3.109   5.870   3.951
 9559TIP3   OH228617   6.936   7.789   0.019
 9559TIP3    H128618   7.008   7.840   0.058
 9559TIP3    H228619   6.950   7.700   0.051
 9560TIP3   OH228620   7.467   5.407   2.802
 9560TIP3    H128621   7.537   5.410   2.737
 9560TIP3    H228622   7.427   5.494   2.797
 9561TIP3   OH228623   0.446   5.711   5.480
 9561TIP3    H128624   0.355   5.738   5.498
 9561TIP3    H228625   0.491   5.793   5.461
 9562TIP3   OH228626   2.408   0.755   4.728
 9562TIP3    H128627   2.384   0.756   4.635
 9562TIP3    H228628   2.405   0.662   4.752
 9563TIP3   OH228629   0.958   3.253   3.508
 9563TIP3    H128630   0.863   3.248   3.496
 9563TIP3    H228631   0.994   3.238   3.420
 9564TIP3   OH228632   8.245   2.337   3.732
 9564TIP3    H128633   8.332   2.335   3.773
 9564TIP3    H228634   8.200   2.260   3.768
 9565TIP3   OH228635   1.422   2.859   2.305
 9565TIP3    H128636   1.413   2.786   2.367
 9565TIP3    H228637   1.509   2.896   2.325
 9566TIP3   OH228638   3.817   5.378   2.763
 9566TIP3    H128639   3.903   5.417   2.746
 9566TIP3    H228640   3.797   5.327   2.685
 9567TIP3   OH228641   0.998   4.499   2.379
 9567TIP3    H128642   0.937   4.508   2.306
 9567TIP3    H228643   1.049   4.420   2.358
 9568TIP3   OH228644   5.957   6.073   0.558
 9568TIP3    H128645   5.995   6.045   0.474
 9568TIP3    H228646   6.026   6.124   0.600
 9569TIP3   OH228647   1.565   1.698   2.233
 9569TIP3    H128648   1.508   1.664   2.302
 9569TIP3    H228649   1.515   1.685   2.153
 9570TIP3   OH228650   8.028   4.381   2.556
 9570TIP3    H128651   8.072   4.374   2.641
 9570TIP3    H228652   8.067   4.459   2.516
 9571TIP3   OH228653   3.136   5.914   4.695
 9571TIP3    H128654   3.198   5.904   4.623
 9571TIP3    H228655   3.121   6.008   4.702
 9572TIP3   OH228656   4.480   3.730   4.350
 9572TIP3    H128657   4.533   3.662   4.392
 9572TIP3    H228658   4.541   3.801   4.332
 9573TIP3   OH228659   1.724   5.358   6.805
 9573TIP3    H128660   1.797   5.335   6.748
 9573TIP3    H228661   1.705   5.450   6.784
 9574TIP3   OH228662   1.483   1.259   3.951
 9574TIP3    H128663   1.467   1.278   3.859
 9574TIP3    H228664   1.577   1.243   3.957
 9575TIP3   OH228665   5.296   5.475   2.728
 9575TIP3    H128666   5.309   5.434   2.643
 9575TIP3    H228667   5.208   5.450   2.754
 9576TIP3   OH228668   6.202   5.749   2.706
 9576TIP3    H128669   6.154   5.672   2.738
 9576TIP3    H228670   6.178   5.755   2.614
 9577TIP3   OH228671   3.950   3.325   5.727
 9577TIP3    H128672   3.958   3.243   5.775
 9577TIP3    H228673   3.892   3.305   5.653
 9578TIP3   OH228674   7.004   2.315   0.600
 9578TIP3    H128675   7.068   2.385   0.607
 9578TIP3    H228676   6.932   2.353   0.549
 9579TIP3   OH228677   0.455   3.865   1.653
 9579TIP3    H128678   0.472   3.879   1.746
 9579TIP3    H228679   0.421   3.776   1.648
 9580TIP3   OH228680   0.820   4.881   3.241
 9580TIP3    H128681   0.893   4.943   3.239
 9580TIP3    H228682   0.831   4.829   3.161
 9581TIP3   OH228683   5.363   3.340   0.936
 9581TIP3    H128684   5.310   3.414   0.907
 9581TIP3    H228685   5.311   3.262   0.914
 9582TIP3   OH228686   2.717   5.506   6.291
 9582TIP3    H128687   2.678   5.479   6.374
 9582TIP3    H228688   2.797   5.454   6.283
 9583TIP3   OH228689   4.754   4.035   5.222
 9583TIP3    H128690   4.839   4.064   5.188
 9583TIP3    H228691   4.744   4.083   5.304
 9584TIP3   OH228692   0.448   7.027   4.308
 9584TIP3    H128693   0.455   7.122   4.314
 9584TIP3    H228694   0.372   7.012   4.252
 9585TIP3   OH228695   2.308   7.568   0.846
 9585TIP3    H128696   2.227   7.568   0.897
 9585TIP3    H228697   2.293   7.633   0.778
 9586TIP3   OH228698   6.119   7.446   0.397
 9586TIP3    H128699   6.188   7.431   0.332
 9586TIP3    H228700   6.157   7.509   0.458
 9587TIP3   OH228701   3.936   5.049   4.885
 9587TIP3    H128702   3.841   5.061   4.890
 9587TIP3    H228703   3.965   5.051   4.976
 9588TIP3   OH228704   6.407   3.139   4.482
 9588TIP3    H128705   6.416   3.233   4.462
 9588TIP3    H228706   6.439   3.132   4.572
 9589TIP3   OH228707   3.065   0.114   0.613
 9589TIP3    H128708   3.160   0.115   0.611
 9589TIP3    H228709   3.041   0.195   0.658
 9590TIP3   OH228710   3.527   1.506   1.871
 9590TIP3    H128711   3.484   1.462   1.797
 9590TIP3    H228712   3.496   1.596   1.867
 9591TIP3   OH228713   4.443   1.826   2.923
 9591TIP3    H128714   4.393   1.884   2.865
 9591TIP3    H228715   4.384   1.753   2.941
 9592TIP3   OH228716   3.382   6.174   5.884
 9592TIP3    H128717   3.339   6.233   5.823
 9592TIP3    H228718   3.410   6.100   5.831
 9593TIP3   OH228719   0.207   3.420   5.316
 9593TIP3    H128720   0.286   3.446   5.268
 9593TIP3    H228721   0.166   3.354   5.260
 9594TIP3   OH228722   4.391   2.461   3.261
 9594TIP3    H128723   4.439   2.446   3.342
 9594TIP3    H228724   4.344   2.543   3.275
 9595TIP3   OH228725   6.823   4.358   0.135
 9595TIP3    H128726   6.824   4.278   0.083
 9595TIP3    H228727   6.868   4.423   0.080
 9596TIP3   OH228728   7.633   3.997   0.098
 9596TIP3    H128729   7.606   3.911   0.131
 9596TIP3    H228730   7.553   4.050   0.101
 9597TIP3   OH228731   6.985   4.589   6.762
 9597TIP3    H128732   6.901   4.613   6.722
 9597TIP3    H228733   7.009   4.664   6.815
 9598TIP3   OH228734   1.505   2.514   1.631
 9598TIP3    H128735   1.540   2.482   1.548
 9598TIP3    H228736   1.410   2.506   1.621
 9599TIP3   OH228737   7.298   1.877   4.932
 9599TIP3    H128738   7.379   1.827   4.935
 9599TIP3    H228739   7.300   1.930   5.012
 9600TIP3   OH228740   7.453   1.146   2.883
 9600TIP3    H128741   7.480   1.163   2.973
 9600TIP3    H228742   7.492   1.218   2.833
 9601TIP3   OH228743   5.246   1.753   3.228
 9601TIP3    H128744   5.246   1.832   3.282
 9601TIP3    H228745   5.167   1.762   3.174
 9602TIP3   OH228746   3.119   3.955   4.919
 9602TIP3    H128747   3.068   3.876   4.940
 9602TIP3    H228748   3.208   3.934   4.948
 9603TIP3   OH228749   3.366   4.896   0.171
 9603TIP3    H128750   3.352   4.824   0.233
 9603TIP3    H228751   3.449   4.935   0.199
 9604TIP3   OH228752   0.297   4.949   4.027
 9604TIP3    H128753   0.204   4.942   4.047
 9604TIP3    H228754   0.327   4.859   4.022
 9605TIP3   OH228755   7.797   7.218   2.856
 9605TIP3    H128756   7.723   7.224   2.795
 9605TIP3    H228757   7.814   7.308   2.883
 9606TIP3   OH228758   6.498   0.692   2.829
 9606TIP3    H128759   6.408   0.662   2.828
 9606TIP3    H228760   6.493   0.786   2.845
 9607TIP3   OH228761   2.730   5.043   4.444
 9607TIP3    H128762   2.665   4.993   4.493
 9607TIP3    H228763   2.756   5.114   4.502
 9608TIP3   OH228764   5.306   6.401   5.546
 9608TIP3    H128765   5.313   6.390   5.641
 9608TIP3    H228766   5.212   6.395   5.528
 9609TIP3   OH228767   6.083   2.057   1.487
 9609TIP3    H128768   6.069   2.000   1.562
 9609TIP3    H228769   6.057   2.144   1.518
 9610TIP3   OH228770   1.495   5.008   5.523
 9610TIP3    H128771   1.434   4.935   5.536
 9610TIP3    H228772   1.490   5.059   5.604
 9611TIP3   OH228773   5.675   7.525   2.993
 9611TIP3    H128774   5.764   7.497   3.013
 9611TIP3    H228775   5.671   7.527   2.898
 9612TIP3   OH228776   0.184   6.158   4.932
 9612TIP3    H128777   0.186   6.204   4.848
 9612TIP3    H228778   0.200   6.226   4.997
 9613TIP3   OH228779   3.808   1.549   1.895
 9613TIP3    H128780   3.712   1.547   1.897
 9613TIP3    H228781   3.833   1.466   1.855
 9614TIP3   OH228782   4.393   1.451   3.953
 9614TIP3    H128783   4.451   1.497   4.013
 9614TIP3    H228784   4.404   1.358   3.975
 9615TIP3   OH228785   5.563   2.681   2.059
 9615TIP3    H128786   5.501   2.730   2.114
 9615TIP3    H228787   5.529   2.690   1.970
 9616TIP3   OH228788   0.441   4.652   0.638
 9616TIP3    H128789   0.385   4.730   0.644
 9616TIP3    H228790   0.386   4.580   0.666
 9617TIP3   OH228791   5.246   6.013   5.836
 9617TIP3    H128792   5.269   5.924   5.809
 9617TIP3    H228793   5.328   6.050   5.869
 9618TIP3   OH228794   6.616   4.603   1.110
 9618TIP3    H128795   6.558   4.650   1.170
 9618TIP3    H228796   6.695   4.656   1.105
 9619TIP3   OH228797   1.131   7.252   0.692
 9619TIP3    H128798   1.042   7.219   0.679
 9619TIP3    H228799   1.130   7.339   0.653
 9620TIP3   OH228800   0.440   1.914   4.016
 9620TIP3    H128801   0.370   1.940   3.955
 9620TIP3    H228802   0.430   1.820   4.025
 9621TIP3   OH228803   5.120  -0.010   1.081
 9621TIP3    H128804   5.045   0.007   1.024
 9621TIP3    H228805   5.082  -0.036   1.165
 9622TIP3   OH228806   4.795   5.790   4.650
 9622TIP3    H128807   4.889   5.797   4.639
 9622TIP3    H228808   4.779   5.697   4.665
 9623TIP3   OH228809   3.191   3.429   1.052
 9623TIP3    H128810   3.106   3.463   1.079
 9623TIP3    H228811   3.231   3.399   1.133
 9624TIP3   OH228812   2.950   3.552   1.114
 9624TIP3    H128813   2.869   3.502   1.123
 9624TIP3    H228814   2.941   3.624   1.177
 9625TIP3   OH228815   2.559   5.386   5.219
 9625TIP3    H128816   2.579   5.309   5.272
 9625TIP3    H228817   2.518   5.447   5.281
 9626TIP3   OH228818   0.576   3.087   1.610
 9626TIP3    H128819   0.595   3.172   1.650
 9626TIP3    H228820   0.580   3.103   1.516
 9627TIP3   OH228821   3.434   0.816   6.310
 9627TIP3    H128822   3.381   0.823   6.231
 9627TIP3    H228823   3.373   0.787   6.377
 9628TIP3   OH228824   4.678   0.904   6.784
 9628TIP3    H128825   4.632   0.820   6.786
 9628TIP3    H228826   4.730   0.901   6.704
 9629TIP3   OH228827   6.316   6.532   6.494
 9629TIP3    H128828   6.249   6.500   6.434
 9629TIP3    H228829   6.292   6.623   6.511
 9630TIP3   OH228830   0.278   4.323   1.888
 9630TIP3    H128831   0.255   4.325   1.981
 9630TIP3    H228832   0.233   4.399   1.851
 9631TIP3   OH228833   2.030   6.083   2.981
 9631TIP3    H128834   1.958   6.131   2.941
 9631TIP3    H228835   2.002   6.068   3.072
 9632TIP3   OH228836   1.583   1.495   1.325
 9632TIP3    H128837   1.663   1.519   1.373
 9632TIP3    H228838   1.598   1.529   1.236
 9633TIP3   OH228839   4.446   7.782   4.853
 9633TIP3    H128840   4.403   7.715   4.801
 9633TIP3    H228841   4.522   7.809   4.801
 9634TIP3   OH228842   5.058   5.460   2.858
 9634TIP3    H128843   5.027   5.453   2.948
 9634TIP3    H228844   5.002   5.399   2.809
 9635TIP3   OH228845   4.044   3.885   1.273
 9635TIP3    H128846   4.090   3.805   1.295
 9635TIP3    H228847   4.108   3.955   1.286
 9636TIP3   OH228848   4.324   5.229   5.645
 9636TIP3    H128849   4.349   5.213   5.736
 9636TIP3    H228850   4.363   5.156   5.597
 9637TIP3   OH228851   7.080   6.400   6.790
 9637TIP3    H128852   7.091   6.311   6.825
 9637TIP3    H228853   7.106   6.394   6.698
 9638TIP3   OH228854   3.973   5.804   5.410
 9638TIP3    H128855   3.886   5.764   5.411
 9638TIP3    H228856   3.989   5.829   5.501
 9639TIP3   OH228857   3.678   1.698   3.356
 9639TIP3    H128858   3.614   1.690   3.426
 9639TIP3    H228859   3.630   1.739   3.284
 9640TIP3   OH228860   0.883   3.307   4.334
 9640TIP3    H128861   0.839   3.381   4.375
 9640TIP3    H228862   0.847   3.230   4.377
 9641TIP3   OH228863   1.736   1.729   4.825
 9641TIP3    H128864   1.671   1.787   4.865
 9641TIP3    H228865   1.791   1.701   4.898
 9642TIP3   OH228866   5.561   5.245   6.337
 9642TIP3    H128867   5.655   5.242   6.321
 9642TIP3    H228868   5.545   5.333   6.371
 9643TIP3   OH228869   4.417   0.717   2.928
 9643TIP3    H128870   4.331   0.734   2.889
 9643TIP3    H228871   4.417   0.767   3.009
 9644TIP3   OH228872   4.860   0.346   0.528
 9644TIP3    H128873   4.858   0.283   0.600
 9644TIP3    H228874   4.768   0.369   0.514
 9645TIP3   OH228875   4.961   6.233   3.752
 9645TIP3    H128876   4.982   6.140   3.758
 9645TIP3    H228877   5.045   6.277   3.769
 9646TIP3   OH228878   3.017   5.621   5.808
 9646TIP3    H128879   2.933   5.641   5.851
 9646TIP3    H228880   3.082   5.632   5.876
 9647TIP3   OH228881   6.716   0.843   1.564
 9647TIP3    H128882   6.708   0.795   1.647
 9647TIP3    H228883   6.710   0.935   1.590
 9648TIP3   OH228884   8.196   7.101   1.190
 9648TIP3    H128885   8.277   7.149   1.180
 9648TIP3    H228886   8.140   7.158   1.241
 9649TIP3   OH228887   5.113   0.031   2.346
 9649TIP3    H128888   5.067  -0.052   2.357
 9649TIP3    H228889   5.127   0.038   2.251
 9650TIP3   OH228890   2.617   1.532   4.184
 9650TIP3    H128891   2.543   1.550   4.241
 9650TIP3    H228892   2.646   1.444   4.209
 9651TIP3   OH228893   1.973   6.907   5.373
 9651TIP3    H128894   1.914   6.832   5.367
 9651TIP3    H228895   1.922   6.980   5.337
 9652TIP3   OH228896   7.494   4.308   5.568
 9652TIP3    H128897   7.545   4.286   5.490
 9652TIP3    H228898   7.494   4.404   5.569
 9653TIP3   OH228899   4.393   1.096   6.338
 9653TIP3    H128900   4.361   1.175   6.295
 9653TIP3    H228901   4.332   1.027   6.311
 9654TIP3   OH228902   0.219   5.826   5.626
 9654TIP3    H128903   0.155   5.755   5.631
 9654TIP3    H228904   0.200   5.881   5.702
 9655TIP3   OH228905   3.756   6.313   4.037
 9655TIP3    H128906   3.695   6.250   4.075
 9655TIP3    H228907   3.701   6.388   4.013
 9656TIP3   OH228908   4.704   7.306   5.049
 9656TIP3    H128909   4.747   7.305   4.963
 9656TIP3    H228910   4.633   7.369   5.040
 9657TIP3   OH228911   7.620   6.329   3.587
 9657TIP3    H128912   7.627   6.255   3.527
 9657TIP3    H228913   7.686   6.391   3.555
 9658TIP3   OH228914   2.717   4.335   1.349
 9658TIP3    H128915   2.807   4.302   1.348
 9658TIP3    H228916   2.681   4.306   1.432
 9659TIP3   OH228917   0.548   7.804   3.152
 9659TIP3    H128918   0.488   7.749   3.203
 9659TIP3    H228919   0.606   7.843   3.218
 9660TIP3   OH228920   3.659   5.308   0.843
 9660TIP3    H128921   3.603   5.238   0.875
 9660TIP3    H228922   3.618   5.389   0.874
 9661TIP3   OH228923   4.853   3.548   6.669
 9661TIP3    H128924   4.893   3.524   6.586
 9661TIP3    H228925   4.926   3.572   6.725
 9662TIP3   OH228926   8.345   1.344   2.481
 9662TIP3    H128927   8.350   1.310   2.571
 9662TIP3    H228928   8.399   1.422   2.481
 9663TIP3   OH228929   5.168   2.265   3.225
 9663TIP3    H128930   5.232   2.241   3.158
 9663TIP3    H228931   5.219   2.307   3.294
 9664TIP3   OH228932   2.695   0.862   4.649
 9664TIP3    H128933   2.693   0.905   4.563
 9664TIP3    H228934   2.743   0.781   4.634
 9665TIP3   OH228935   4.978   0.415   5.914
 9665TIP3    H128936   4.901   0.373   5.954
 9665TIP3    H228937   5.018   0.347   5.861
 9666TIP3   OH228938   7.320   6.133   3.776
 9666TIP3    H128939   7.241   6.183   3.798
 9666TIP3    H228940   7.391   6.178   3.822
 9667TIP3   OH228941   6.539   3.323   1.975
 9667TIP3    H128942   6.600   3.269   1.925
 9667TIP3    H228943   6.578   3.329   2.062
 9668TIP3   OH228944   1.774   4.558   0.696
 9668TIP3    H128945   1.722   4.579   0.774
 9668TIP3    H228946   1.738   4.613   0.627
 9669TIP3   OH228947   7.401   2.534   4.935
 9669TIP3    H128948   7.474   2.475   4.918
 9669TIP3    H228949   7.323   2.480   4.929
 9670TIP3   OH228950   6.373   3.915   3.017
 9670TIP3    H128951   6.394   3.828   2.982
 9670TIP3    H228952   6.290   3.902   3.064
 9671TIP3   OH228953   0.707   5.143   1.208
 9671TIP3    H128954   0.679   5.090   1.282
 9671TIP3    H228955   0.801   5.157   1.223
 9672TIP3   OH228956   0.980   0.533   6.357
 9672TIP3    H128957   0.899   0.488   6.379
 9672TIP3    H228958   1.050   0.472   6.380
 9673TIP3   OH228959   6.042   0.908   0.616
 9673TIP3    H128960   6.027   0.995   0.580
 9673TIP3    H228961   5.955   0.877   0.644
 9674TIP3   OH228962   2.791   0.612   4.546
 9674TIP3    H128963   2.790   0.578   4.635
 9674TIP3    H228964   2.708   0.583   4.508
 9675TIP3   OH228965   5.057   0.533   6.436
 9675TIP3    H128966   5.024   0.449   6.469
 9675TIP3    H228967   4.980   0.589   6.432
 9676TIP3   OH228968   4.540   3.800   3.802
 9676TIP3    H128969   4.502   3.827   3.719
 9676TIP3    H228970   4.543   3.880   3.855
 9677TIP3   OH228971   8.095   6.676   2.036
 9677TIP3    H128972   8.075   6.665   2.128
 9677TIP3    H228973   8.179   6.632   2.024
 9678TIP3   OH228974   6.876   2.849   1.515
 9678TIP3    H128975   6.804   2.898   1.476
 9678TIP3    H228976   6.870   2.762   1.477
 9679TIP3   OH228977   1.258   2.705   3.108
 9679TIP3    H128978   1.319   2.778   3.107
 9679TIP3    H228979   1.178   2.739   3.070
 9680TIP3   OH228980   1.233   3.183   6.251
 9680TIP3    H128981   1.250   3.272   6.219
 9680TIP3    H228982   1.138   3.173   6.245
 9681TIP3   OH228983   1.630   3.785   3.487
 9681TIP3    H128984   1.700   3.751   3.543
 9681TIP3    H228985   1.567   3.713   3.480
 9682TIP3   OH228986   1.176   4.434   5.096
 9682TIP3    H128987   1.198   4.524   5.071
 9682TIP3    H228988   1.089   4.442   5.137
 9683TIP3   OH228989   8.160   7.790   4.573
 9683TIP3    H128990   8.181   7.711   4.522
 9683TIP3    H228991   8.245   7.823   4.603
 9684TIP3   OH228992   0.401   4.887   6.654
 9684TIP3    H128993   0.428   4.827   6.585
 9684TIP3    H228994   0.449   4.858   6.732
 9685TIP3   OH228995   2.448   3.866   4.624
 9685TIP3    H128996   2.413   3.823   4.703
 9685TIP3    H228997   2.533   3.824   4.611
 9686TIP3   OH228998   6.914   4.545   5.554
 9686TIP3    H128999   6.946   4.577   5.638
 9686TIP3    H229000   6.991   4.547   5.496
 9687TIP3   OH229001   1.780   4.273   6.642
 9687TIP3    H129002   1.760   4.365   6.654
 9687TIP3    H229003   1.827   4.269   6.559
 9688TIP3   OH229004   4.169   7.079   0.542
 9688TIP3    H129005   4.254   7.053   0.505
 9688TIP3    H229006   4.162   7.172   0.522
 9689TIP3   OH229007   4.913   0.054   2.718
 9689TIP3    H129008   4.925  -0.024   2.771
 9689TIP3    H229009   5.001   0.075   2.687
 9690TIP3   OH229010   6.800  -0.022   0.960
 9690TIP3    H129011   6.739  -0.056   0.895
 9690TIP3    H229012   6.771   0.068   0.975
 9691TIP3   OH229013   3.294   5.553   1.083
 9691TIP3    H129014   3.254   5.554   1.170
 9691TIP3    H229015   3.257   5.629   1.039
 9692TIP3   OH229016   0.860   0.108   2.378
 9692TIP3    H129017   0.793   0.152   2.327
 9692TIP3    H229018   0.943   0.137   2.339
 9693TIP3   OH229019   5.221   4.158   0.713
 9693TIP3    H129020   5.315   4.140   0.707
 9693TIP3    H229021   5.179   4.081   0.676
 9694TIP3   OH229022   6.789   4.797   0.981
 9694TIP3    H129023   6.832   4.858   1.041
 9694TIP3    H229024   6.704   4.837   0.963
 9695TIP3   OH229025   7.970   0.308   3.299
 9695TIP3    H129026   8.035   0.270   3.240
 9695TIP3    H229027   7.927   0.232   3.339
 9696TIP3   OH229028   4.121   1.976   1.019
 9696TIP3    H129029   4.070   2.024   1.084
 9696TIP3    H229030   4.120   1.885   1.049
 9697TIP3   OH229031   0.179   2.924   2.149
 9697TIP3    H129032   0.246   2.862   2.122
 9697TIP3    H229033   0.167   2.981   2.072
 9698TIP3   OH229034   4.234   0.110   2.268
 9698TIP3    H129035   4.226   0.165   2.346
 9698TIP3    H229036   4.290   0.161   2.209
 9699TIP3   OH229037   4.280   5.328   6.098
 9699TIP3    H129038   4.212   5.375   6.147
 9699TIP3    H229039   4.347   5.309   6.164
 9700TIP3   OH229040   2.143   1.065   2.632
 9700TIP3    H129041   2.104   1.060   2.545
 9700TIP3    H229042   2.088   1.009   2.687
 9701TIP3   OH229043   1.305   2.529   6.672
 9701TIP3    H129044   1.329   2.454   6.726
 9701TIP3    H229045   1.297   2.601   6.735
 9702TIP3   OH229046   2.963   3.527   4.469
 9702TIP3    H129047   2.968   3.623   4.469
 9702TIP3    H229048   3.054   3.499   4.483
 9703TIP3   OH229049   6.737   6.129   4.890
 9703TIP3    H129050   6.813   6.112   4.835
 9703TIP3    H229051   6.770   6.122   4.980
 9704TIP3   OH229052   2.904   3.695   0.092
 9704TIP3    H129053   2.882   3.602   0.100
 9704TIP3    H229054   2.873   3.719   0.005
 9705TIP3   OH229055   2.318   4.925   0.354
 9705TIP3    H129056   2.375   4.911   0.429
 9705TIP3    H229057   2.279   4.839   0.337
 9706TIP3   OH229058   1.425   6.379   3.248
 9706TIP3    H129059   1.482   6.303   3.240
 9706TIP3    H229060   1.447   6.434   3.173
 9707TIP3   OH229061   0.143   6.085   3.598
 9707TIP3    H129062   0.182   6.172   3.594
 9707TIP3    H229063   0.083   6.089   3.672
 9708TIP3   OH229064   4.852   2.431   3.984
 9708TIP3    H129065   4.865   2.523   3.962
 9708TIP3    H229066   4.849   2.386   3.899
 9709TIP3   OH229067   3.495   2.274   2.247
 9709TIP3    H129068   3.411   2.277   2.202
 9709TIP3    H229069   3.478   2.223   2.326
 9710TIP3   OH229070   5.773   4.518   3.443
 9710TIP3    H129071   5.769   4.441   3.386
 9710TIP3    H229072   5.715   4.498   3.516
 9711TIP3   OH229073   4.534   0.974   4.548
 9711TIP3    H129074   4.530   1.070   4.550
 9711TIP3    H229075   4.578   0.950   4.630
 9712TIP3   OH229076   8.136   1.120   6.447
 9712TIP3    H129077   8.187   1.191   6.409
 9712TIP3    H229078   8.195   1.078   6.509
 9713TIP3   OH229079   5.567   1.165   6.329
 9713TIP3    H129080   5.528   1.097   6.384
 9713TIP3    H229081   5.628   1.210   6.387
 9714TIP3   OH229082   0.175   7.759   0.320
 9714TIP3    H129083   0.214   7.697   0.259
 9714TIP3    H229084   0.227   7.838   0.310
 9715TIP3   OH229085   0.890   4.361   5.350
 9715TIP3    H129086   0.954   4.375   5.420
 9715TIP3    H229087   0.909   4.430   5.286
 9716TIP3   OH229088   2.775   4.390   1.838
 9716TIP3    H129089   2.803   4.480   1.819
 9716TIP3    H229090   2.688   4.399   1.877
 9717TIP3   OH229091   2.140   5.236   2.952
 9717TIP3    H129092   2.141   5.261   2.859
 9717TIP3    H229093   2.060   5.275   2.986
 9718TIP3   OH229094   2.442   2.625   2.877
 9718TIP3    H129095   2.522   2.573   2.875
 9718TIP3    H229096   2.380   2.575   2.823
 9719TIP3   OH229097   2.287   2.970   2.898
 9719TIP3    H129098   2.222   2.900   2.906
 9719TIP3    H229099   2.359   2.942   2.954
 9720TIP3   OH229100   4.590   1.097   1.000
 9720TIP3    H129101   4.654   1.054   0.943
 9720TIP3    H229102   4.637   1.171   1.038
 9721TIP3   OH229103   6.903   3.173   5.685
 9721TIP3    H129104   6.911   3.082   5.713
 9721TIP3    H229105   6.808   3.190   5.685
 9722TIP3   OH229106   3.397   3.802   4.792
 9722TIP3    H129107   3.428   3.769   4.707
 9722TIP3    H229108   3.417   3.896   4.789
 9723TIP3   OH229109   6.992   1.989   3.118
 9723TIP3    H129110   7.003   1.944   3.034
 9723TIP3    H229111   6.899   1.981   3.138
 9724TIP3   OH229112   7.395   3.349   2.323
 9724TIP3    H129113   7.469   3.404   2.298
 9724TIP3    H229114   7.413   3.264   2.283
 9725TIP3   OH229115   7.504   3.013   5.239
 9725TIP3    H129116   7.467   3.094   5.275
 9725TIP3    H229117   7.520   3.032   5.147
 9726TIP3   OH229118   1.862   6.391   1.334
 9726TIP3    H129119   1.825   6.424   1.417
 9726TIP3    H229120   1.786   6.379   1.277
 9727TIP3   OH229121   2.876   7.651   1.989
 9727TIP3    H129122   2.918   7.732   2.019
 9727TIP3    H229123   2.839   7.613   2.069
 9728TIP3   OH229124   7.053   6.204   5.667
 9728TIP3    H129125   7.091   6.193   5.755
 9728TIP3    H229126   7.032   6.297   5.662
 9729TIP3   OH229127   7.559   2.345   4.557
 9729TIP3    H129128   7.521   2.310   4.476
 9729TIP3    H229129   7.644   2.302   4.565
 9730TIP3   OH229130   6.997   4.540   5.845
 9730TIP3    H129131   6.955   4.579   5.922
 9730TIP3    H229132   6.957   4.453   5.837
 9731TIP3   OH229133   7.692   5.642   3.365
 9731TIP3    H129134   7.613   5.688   3.394
 9731TIP3    H229135   7.666   5.550   3.359
 9732TIP3   OH229136   1.330   4.954   5.200
 9732TIP3    H129137   1.404   4.993   5.246
 9732TIP3    H229138   1.334   4.990   5.112
 9733TIP3   OH229139   5.114   5.843   3.945
 9733TIP3    H129140   5.061   5.873   4.018
 9733TIP3    H229141   5.082   5.893   3.870
 9734TIP3   OH229142   7.792   5.250   2.426
 9734TIP3    H129143   7.839   5.166   2.424
 9734TIP3    H229144   7.858   5.314   2.452
 9735TIP3   OH229145   4.141   5.578   2.308
 9735TIP3    H129146   4.212   5.559   2.370
 9735TIP3    H229147   4.184   5.580   2.223
 9736TIP3   OH229148   4.736   7.376   1.102
 9736TIP3    H129149   4.767   7.286   1.112
 9736TIP3    H229150   4.808   7.420   1.056
 9737TIP3   OH229151   1.720   3.816   6.132
 9737TIP3    H129152   1.735   3.722   6.122
 9737TIP3    H229153   1.639   3.833   6.082
 9738TIP3   OH229154   5.224   7.515   3.078
 9738TIP3    H129155   5.231   7.505   2.983
 9738TIP3    H229156   5.133   7.540   3.093
 9739TIP3   OH229157   4.004   5.340   4.045
 9739TIP3    H129158   4.072   5.327   4.111
 9739TIP3    H229159   3.924   5.353   4.095
 9740TIP3   OH229160   1.879   1.210   4.610
 9740TIP3    H129161   1.862   1.217   4.704
 9740TIP3    H229162   1.813   1.267   4.570
 9741TIP3   OH229163   1.014   6.530   0.790
 9741TIP3    H129164   1.048   6.440   0.789
 9741TIP3    H229165   1.050   6.568   0.870
 9742TIP3   OH229166   1.135   0.498   1.746
 9742TIP3    H129167   1.130   0.470   1.838
 9742TIP3    H229168   1.063   0.560   1.736
 9743TIP3   OH229169   8.259   6.273   0.807
 9743TIP3    H129170   8.305   6.331   0.747
 9743TIP3    H229171   8.212   6.331   0.866
 9744TIP3   OH229172   2.770   6.805   5.455
 9744TIP3    H129173   2.814   6.842   5.532
 9744TIP3    H229174   2.822   6.729   5.432
 9745TIP3   OH229175   6.195   2.137   3.622
 9745TIP3    H129176   6.122   2.193   3.598
 9745TIP3    H229177   6.182   2.120   3.716
 9746TIP3   OH229178   2.259   0.362   3.293
 9746TIP3    H129179   2.270   0.335   3.384
 9746TIP3    H229180   2.179   0.414   3.293
 9747TIP3   OH229181   0.089   7.803   1.836
 9747TIP3    H129182   0.131   7.743   1.898
 9747TIP3    H229183   0.089   7.755   1.753
 9748TIP3   OH229184   2.879   7.469   0.303
 9748TIP3    H129185   2.971   7.457   0.328
 9748TIP3    H229186   2.833   7.478   0.386
 9749TIP3   OH229187   5.410   2.794   2.242
 9749TIP3    H129188   5.357   2.865   2.207
 9749TIP3    H229189   5.386   2.789   2.335
 9750TIP3   OH229190   4.773   0.279   4.544
 9750TIP3    H129191   4.824   0.199   4.530
 9750TIP3    H229192   4.696   0.269   4.488
 9751TIP3   OH229193   2.111   5.249   4.472
 9751TIP3    H129194   2.199   5.250   4.509
 9751TIP3    H229195   2.056   5.214   4.542
 9752TIP3   OH229196   1.339   3.908   2.764
 9752TIP3    H129197   1.311   3.987   2.719
 9752TIP3    H229198   1.263   3.851   2.763
 9753TIP3   OH229199   0.479   2.063   4.275
 9753TIP3    H129200   0.469   2.011   4.195
 9753TIP3    H229201   0.512   2.148   4.245
 9754TIP3   OH229202   2.698   5.782   3.920
 9754TIP3    H129203   2.692   5.709   3.859
 9754TIP3    H229204   2.621   5.836   3.901
 9755TIP3   OH229205   1.951   7.231   0.575
 9755TIP3    H129206   1.867   7.210   0.533
 9755TIP3    H229207   1.969   7.156   0.632
 9756TIP3   OH229208   1.369   5.483   4.418
 9756TIP3    H129209   1.370   5.416   4.486
 9756TIP3    H229210   1.363   5.566   4.467
 9757TIP3   OH229211   4.642   6.354   1.898
 9757TIP3    H129212   4.581   6.293   1.939
 9757TIP3    H229213   4.728   6.330   1.932
 9758TIP3   OH229214   0.336   1.569   2.675
 9758TIP3    H129215   0.318   1.624   2.751
 9758TIP3    H229216   0.424   1.535   2.691
 9759TIP3   OH229217   7.908   4.355   6.796
 9759TIP3    H129218   7.908   4.429   6.735
 9759TIP3    H229219   7.922   4.278   6.742
 9760TIP3   OH229220   0.932   2.782   5.304
 9760TIP3    H129221   0.953   2.846   5.372
 9760TIP3    H229222   0.921   2.699   5.351
 9761TIP3   OH229223   7.241   2.736   2.842
 9761TIP3    H129224   7.171   2.703   2.787
 9761TIP3    H229225   7.273   2.815   2.797
 9762TIP3   OH229226   3.478   0.616   6.604
 9762TIP3    H129227   3.486   0.548   6.538
 9762TIP3    H229228   3.397   0.661   6.583
 9763TIP3   OH229229   2.296   6.488   6.204
 9763TIP3    H129230   2.315   6.408   6.155
 9763TIP3    H229231   2.296   6.558   6.139
 9764TIP3   OH229232   8.134   4.598   2.467
 9764TIP3    H129233   8.121   4.672   2.527
 9764TIP3    H229234   8.102   4.630   2.383
 9765TIP3   OH229235   0.007   0.495   6.758
 9765TIP3    H129236  -0.006   0.406   6.791
 9765TIP3    H229237   0.053   0.483   6.674
 9766TIP3   OH229238   7.935   3.001   5.178
 9766TIP3    H129239   7.894   2.928   5.224
 9766TIP3    H229240   7.927   3.075   5.239
 9767TIP3   OH229241   1.928   5.507   4.973
 9767TIP3    H129242   1.993   5.570   4.941
 9767TIP3    H229243   1.944   5.502   5.067
 9768TIP3   OH229244   6.406   1.058   5.432
 9768TIP3    H129245   6.310   1.057   5.431
 9768TIP3    H229246   6.430   0.992   5.496
 9769TIP3   OH229247   2.667   5.135   6.364
 9769TIP3    H129248   2.577   5.125   6.395
 9769TIP3    H229249   2.697   5.046   6.349
 9770TIP3   OH229250   5.795   4.633   4.750
 9770TIP3    H129251   5.775   4.726   4.751
 9770TIP3    H229252   5.788   4.608   4.658
 9771TIP3   OH229253   4.869   5.926   2.323
 9771TIP3    H129254   4.897   6.017   2.318
 9771TIP3    H229255   4.782   5.925   2.283
 9772TIP3   OH229256   2.397   7.126   4.606
 9772TIP3    H129257   2.447   7.046   4.590
 9772TIP3    H229258   2.313   7.111   4.564
 9773TIP3   OH229259   2.393   5.989   0.287
 9773TIP3    H129260   2.454   5.937   0.339
 9773TIP3    H229261   2.307   5.948   0.302
 9774TIP3   OH229262   6.767   7.120   6.019
 9774TIP3    H129263   6.708   7.060   6.065
 9774TIP3    H229264   6.709   7.185   5.980
 9775TIP3   OH229265   7.042   6.572   2.953
 9775TIP3    H129266   6.949   6.572   2.929
 9775TIP3    H229267   7.052   6.494   3.007
 9776TIP3   OH229268   1.710   0.085   6.645
 9776TIP3    H129269   1.634   0.088   6.588
 9776TIP3    H229270   1.675   0.058   6.730
 9777TIP3   OH229271   6.548   7.917   5.602
 9777TIP3    H129272   6.551   7.945   5.510
 9777TIP3    H229273   6.616   7.849   5.608
 9778TIP3   OH229274   5.272   1.516   2.607
 9778TIP3    H129275   5.350   1.565   2.582
 9778TIP3    H229276   5.290   1.426   2.581
 9779TIP3   OH229277   1.729   4.450   2.856
 9779TIP3    H129278   1.634   4.460   2.848
 9779TIP3    H229279   1.763   4.481   2.772
 9780TIP3   OH229280   1.476   1.448   6.672
 9780TIP3    H129281   1.504   1.538   6.654
 9780TIP3    H229282   1.452   1.448   6.765
 9781TIP3   OH229283   8.383   1.066   3.211
 9781TIP3    H129284   8.297   1.056   3.252
 9781TIP3    H229285   8.388   0.995   3.147
 9782TIP3   OH229286   0.400   1.228   4.442
 9782TIP3    H129287   0.359   1.300   4.394
 9782TIP3    H229288   0.480   1.266   4.478
 9783TIP3   OH229289   3.202   7.726   5.142
 9783TIP3    H129290   3.148   7.678   5.079
 9783TIP3    H229291   3.232   7.803   5.095
 9784TIP3   OH229292   0.215   6.809   3.020
 9784TIP3    H129293   0.211   6.815   2.925
 9784TIP3    H229294   0.144   6.749   3.043
 9785TIP3   OH229295   7.629   6.555   1.738
 9785TIP3    H129296   7.667   6.614   1.804
 9785TIP3    H229297   7.537   6.549   1.761
 9786TIP3   OH229298   5.276   3.373   2.277
 9786TIP3    H129299   5.239   3.375   2.189
 9786TIP3    H229300   5.370   3.359   2.263
 9787TIP3   OH229301   0.408   0.189   3.019
 9787TIP3    H129302   0.364   0.106   3.000
 9787TIP3    H229303   0.356   0.255   2.972
 9788TIP3   OH229304   1.116   5.576   2.366
 9788TIP3    H129305   1.163   5.628   2.300
 9788TIP3    H229306   1.185   5.531   2.414
 9789TIP3   OH229307   2.722   1.136   5.170
 9789TIP3    H129308   2.715   1.063   5.231
 9789TIP3    H229309   2.766   1.099   5.093
 9790TIP3   OH229310   5.709   1.183   5.776
 9790TIP3    H129311   5.644   1.215   5.712
 9790TIP3    H229312   5.714   1.252   5.841
 9791TIP3   OH229313   7.209   7.101   6.569
 9791TIP3    H129314   7.293   7.078   6.528
 9791TIP3    H229315   7.234   7.148   6.649
 9792TIP3   OH229316   3.698   3.198   2.105
 9792TIP3    H129317   3.695   3.197   2.200
 9792TIP3    H229318   3.790   3.180   2.083
 9793TIP3   OH229319   8.234   4.372   1.342
 9793TIP3    H129320   8.312   4.423   1.323
 9793TIP3    H229321   8.171   4.397   1.275
 9794TIP3   OH229322   7.168   6.726   1.255
 9794TIP3    H129323   7.217   6.739   1.336
 9794TIP3    H229324   7.222   6.769   1.188
 9795TIP3   OH229325   8.024   2.163   2.502
 9795TIP3    H129326   8.053   2.077   2.471
 9795TIP3    H229327   8.102   2.202   2.541
 9796TIP3   OH229328   5.844   0.743   4.027
 9796TIP3    H129329   5.800   0.728   4.111
 9796TIP3    H229330   5.925   0.692   4.034
 9797TIP3   OH229331   7.272   6.113   4.344
 9797TIP3    H129332   7.295   6.045   4.281
 9797TIP3    H229333   7.320   6.191   4.313
 9798TIP3   OH229334   4.556   3.605   1.045
 9798TIP3    H129335   4.503   3.525   1.035
 9798TIP3    H229336   4.604   3.612   0.963
 9799TIP3   OH229337   7.915   1.981   4.193
 9799TIP3    H129338   7.937   2.073   4.209
 9799TIP3    H229339   7.832   1.968   4.240
 9800TIP3   OH229340   2.705   5.505   0.347
 9800TIP3    H129341   2.762   5.431   0.324
 9800TIP3    H229342   2.765   5.573   0.378
 9801TIP3   OH229343   2.052   7.557   2.757
 9801TIP3    H129344   2.143   7.573   2.730
 9801TIP3    H229345   2.014   7.644   2.764
 9802TIP3   OH229346   7.186   1.745   6.235
 9802TIP3    H129347   7.217   1.818   6.181
 9802TIP3    H229348   7.255   1.679   6.228
 9803TIP3   OH229349   3.813   3.411   4.110
 9803TIP3    H129350   3.724   3.376   4.098
 9803TIP3    H229351   3.841   3.437   4.023
 9804TIP3   OH229352   7.194   1.842   5.369
 9804TIP3    H129353   7.213   1.912   5.307
 9804TIP3    H229354   7.279   1.821   5.409
 9805TIP3   OH229355   3.534   7.674   0.726
 9805TIP3    H129356   3.439   7.676   0.735
 9805TIP3    H229357   3.560   7.765   0.716
 9806TIP3   OH229358   2.441   7.182   2.060
 9806TIP3    H129359   2.362   7.168   2.009
 9806TIP3    H229360   2.412   7.176   2.151
 9807TIP3   OH229361   7.844   2.715   2.172
 9807TIP3    H129362   7.834   2.770   2.094
 9807TIP3    H229363   7.891   2.637   2.141
 9808TIP3   OH229364   3.089   7.023   5.220
 9808TIP3    H129365   3.063   6.958   5.155
 9808TIP3    H229366   3.130   7.092   5.169
 9809TIP3   OH229367   0.938   2.361   2.980
 9809TIP3    H129368   0.995   2.402   3.045
 9809TIP3    H229369   0.957   2.267   2.987
 9810TIP3   OH229370   4.935   2.145   0.193
 9810TIP3    H129371   4.952   2.051   0.193
 9810TIP3    H229372   4.928   2.169   0.101
 9811TIP3   OH229373   3.577   4.509   4.804
 9811TIP3    H129374   3.619   4.508   4.890
 9811TIP3    H229375   3.599   4.424   4.766
 9812TIP3   OH229376   3.219   2.277   6.829
 9812TIP3    H129377   3.198   2.322   6.748
 9812TIP3    H229378   3.264   2.343   6.882
 9813TIP3   OH229379   2.478   2.218   1.178
 9813TIP3    H129380   2.517   2.188   1.096
 9813TIP3    H229381   2.391   2.180   1.179
 9814TIP3   OH229382   2.949   0.283   4.785
 9814TIP3    H129383   2.963   0.378   4.786
 9814TIP3    H229384   2.928   0.263   4.694
 9815TIP3   OH229385   1.817   4.715   6.828
 9815TIP3    H129386   1.760   4.654   6.782
 9815TIP3    H229387   1.832   4.786   6.766
 9816TIP3   OH229388   3.305   0.620   4.308
 9816TIP3    H129389   3.321   0.683   4.379
 9816TIP3    H229390   3.284   0.674   4.232
 9817TIP3   OH229391   2.544   6.687   1.237
 9817TIP3    H129392   2.610   6.619   1.221
 9817TIP3    H229393   2.585   6.768   1.205
 9818TIP3   OH229394   6.756   2.093   2.407
 9818TIP3    H129395   6.672   2.083   2.450
 9818TIP3    H229396   6.787   2.179   2.435
 9819TIP3   OH229397   5.061   6.273   4.961
 9819TIP3    H129398   5.147   6.299   4.992
 9819TIP3    H229399   5.070   6.268   4.866
 9820TIP3   OH229400   7.846   0.165   6.299
 9820TIP3    H129401   7.871   0.255   6.322
 9820TIP3    H229402   7.891   0.110   6.364
 9821TIP3   OH229403   6.021   5.966   2.745
 9821TIP3    H129404   5.937   5.960   2.699
 9821TIP3    H229405   6.070   5.889   2.716
 9822TIP3   OH229406   4.106   0.416   2.348
 9822TIP3    H129407   4.140   0.500   2.316
 9822TIP3    H229408   4.183   0.366   2.373
 9823TIP3   OH229409   6.592   1.086   3.032
 9823TIP3    H129410   6.586   1.178   3.059
 9823TIP3    H229411   6.648   1.045   3.098
 9824TIP3   OH229412   8.333   1.631   6.797
 9824TIP3    H129413   8.269   1.656   6.730
 9824TIP3    H229414   8.291   1.560   6.845
 9825TIP3   OH229415   1.240   7.412   6.382
 9825TIP3    H129416   1.321   7.463   6.380
 9825TIP3    H229417   1.270   7.321   6.378
 9826TIP3   OH229418   2.681   0.192   3.650
 9826TIP3    H129419   2.732   0.118   3.615
 9826TIP3    H229420   2.698   0.189   3.745
 9827TIP3   OH229421   4.105   0.646   0.663
 9827TIP3    H129422   4.066   0.724   0.625
 9827TIP3    H229423   4.104   0.581   0.592
 9828TIP3   OH229424   3.329   3.818   6.234
 9828TIP3    H129425   3.312   3.848   6.145
 9828TIP3    H229426   3.269   3.744   6.246
 9829TIP3   OH229427   3.822   2.039   6.423
 9829TIP3    H129428   3.901   2.000   6.385
 9829TIP3    H229429   3.851   2.071   6.509
 9830TIP3   OH229430   3.233   3.838   1.565
 9830TIP3    H129431   3.169   3.782   1.609
 9830TIP3    H229432   3.318   3.799   1.587
 9831TIP3   OH229433   7.127   1.298   0.602
 9831TIP3    H129434   7.211   1.256   0.584
 9831TIP3    H229435   7.121   1.300   0.697
 9832TIP3   OH229436   6.159   3.007   6.669
 9832TIP3    H129437   6.223   2.968   6.609
 9832TIP3    H229438   6.127   2.933   6.720
 9833TIP3   OH229439   1.561   2.198   1.543
 9833TIP3    H129440   1.561   2.128   1.478
 9833TIP3    H229441   1.469   2.213   1.564
 9834TIP3   OH229442   1.334   6.614   5.648
 9834TIP3    H129443   1.317   6.699   5.688
 9834TIP3    H229444   1.248   6.572   5.642
 9835TIP3   OH229445   1.869   7.408   0.848
 9835TIP3    H129446   1.785   7.439   0.814
 9835TIP3    H229447   1.850   7.321   0.882
 9836TIP3   OH229448   3.232   5.759   0.935
 9836TIP3    H129449   3.247   5.853   0.937
 9836TIP3    H229450   3.229   5.737   0.842
 9837TIP3   OH229451   6.669   4.769   0.334
 9837TIP3    H129452   6.692   4.861   0.323
 9837TIP3    H229453   6.605   4.768   0.404
 9838TIP3   OH229454   2.217   6.077   6.686
 9838TIP3    H129455   2.197   6.028   6.766
 9838TIP3    H229456   2.132   6.104   6.652
 9839TIP3   OH229457   7.860   2.353   2.680
 9839TIP3    H129458   7.852   2.428   2.621
 9839TIP3    H229459   7.928   2.298   2.640
 9840TIP3   OH229460   8.177   1.171   0.335
 9840TIP3    H129461   8.227   1.195   0.257
 9840TIP3    H229462   8.089   1.206   0.320
 9841TIP3   OH229463   4.250   3.354   2.144
 9841TIP3    H129464   4.170   3.396   2.176
 9841TIP3    H229465   4.287   3.312   2.221
 9842TIP3   OH229466   2.699   4.807   4.314
 9842TIP3    H129467   2.699   4.882   4.374
 9842TIP3    H229468   2.613   4.768   4.325
 9843TIP3   OH229469   0.673   2.990   6.746
 9843TIP3    H129470   0.673   3.070   6.799
 9843TIP3    H229471   0.728   2.929   6.794
 9844TIP3   OH229472   8.329   4.728   3.119
 9844TIP3    H129473   8.396   4.796   3.110
 9844TIP3    H229474   8.366   4.666   3.182
 9845TIP3   OH229475   5.846   1.720   6.837
 9845TIP3    H129476   5.938   1.696   6.830
 9845TIP3    H229477   5.846   1.816   6.837
 9846TIP3   OH229478   0.209   5.967   6.730
 9846TIP3    H129479   0.260   5.894   6.765
 9846TIP3    H229480   0.252   6.045   6.762
 9847TIP3   OH229481   3.598   3.896   3.228
 9847TIP3    H129482   3.543   3.973   3.218
 9847TIP3    H229483   3.540   3.829   3.264
 9848TIP3   OH229484   0.044   5.636   5.557
 9848TIP3    H129485   0.047   5.657   5.463
 9848TIP3    H229486  -0.049   5.636   5.578
 9849TIP3   OH229487   2.384   2.784   5.678
 9849TIP3    H129488   2.418   2.848   5.615
 9849TIP3    H229489   2.293   2.809   5.691
 9850TIP3   OH229490   1.830   4.769   3.800
 9850TIP3    H129491   1.877   4.701   3.848
 9850TIP3    H229492   1.792   4.724   3.725
 9851TIP3   OH229493   7.990   3.511   5.912
 9851TIP3    H129494   7.905   3.481   5.946
 9851TIP3    H229495   8.012   3.586   5.968
 9852TIP3   OH229496   5.568   1.470   2.014
 9852TIP3    H129497   5.476   1.472   2.040
 9852TIP3    H229498   5.616   1.486   2.095
 9853TIP3   OH229499   7.584   4.156   2.632
 9853TIP3    H129500   7.602   4.075   2.680
 9853TIP3    H229501   7.489   4.167   2.640
 9854TIP3   OH229502   3.345   2.915   4.429
 9854TIP3    H129503   3.301   2.861   4.496
 9854TIP3    H229504   3.274   2.945   4.372
 9855TIP3   OH229505   3.082   3.847   1.947
 9855TIP3    H129506   3.013   3.801   1.899
 9855TIP3    H229507   3.041   3.871   2.030
 9856TIP3   OH229508   6.175   3.419   6.330
 9856TIP3    H129509   6.129   3.342   6.364
 9856TIP3    H229510   6.266   3.407   6.359
 9857TIP3   OH229511   2.664   5.277   1.491
 9857TIP3    H129512   2.733   5.339   1.515
 9857TIP3    H229513   2.586   5.308   1.535
 9858TIP3   OH229514   0.057   6.411   4.976
 9858TIP3    H129515  -0.030   6.378   4.998
 9858TIP3    H229516   0.040   6.489   4.923
 9859TIP3   OH229517   7.536   0.795   2.126
 9859TIP3    H129518   7.541   0.703   2.099
 9859TIP3    H229519   7.573   0.844   2.052
 9860TIP3   OH229520   3.222   6.918   0.665
 9860TIP3    H129521   3.303   6.870   0.679
 9860TIP3    H229522   3.237   6.966   0.584
 9861TIP3   OH229523   2.885   0.539   0.605
 9861TIP3    H129524   2.974   0.564   0.627
 9861TIP3    H229525   2.830   0.604   0.650
 9862TIP3   OH229526   3.773   1.893   1.864
 9862TIP3    H129527   3.686   1.856   1.850
 9862TIP3    H229528   3.811   1.897   1.777
 9863TIP3   OH229529   1.143   3.547   0.513
 9863TIP3    H129530   1.107   3.636   0.514
 9863TIP3    H229531   1.233   3.558   0.480
 9864TIP3   OH229532   1.842   6.894   4.664
 9864TIP3    H129533   1.932   6.862   4.655
 9864TIP3    H229534   1.850   6.969   4.724
 9865TIP3   OH229535   8.045   6.972   2.756
 9865TIP3    H129536   8.011   7.036   2.693
 9865TIP3    H229537   8.140   6.977   2.746
 9866TIP3   OH229538   3.103   1.207   2.119
 9866TIP3    H129539   3.149   1.251   2.048
 9866TIP3    H229540   3.149   1.124   2.130
 9867TIP3   OH229541   6.518   0.761   3.749
 9867TIP3    H129542   6.463   0.684   3.761
 9867TIP3    H229543   6.492   0.796   3.664
 9868TIP3   OH229544   1.529   7.136   5.658
 9868TIP3    H129545   1.586   7.137   5.735
 9868TIP3    H229546   1.475   7.058   5.669
 9869TIP3   OH229547   5.232   0.666   3.505
 9869TIP3    H129548   5.215   0.662   3.599
 9869TIP3    H229549   5.324   0.642   3.496
 9870TIP3   OH229550   6.688   4.242   4.081
 9870TIP3    H129551   6.606   4.251   4.129
 9870TIP3    H229552   6.668   4.180   4.011
 9871TIP3   OH229553   5.285   3.741   5.472
 9871TIP3    H129554   5.292   3.793   5.392
 9871TIP3    H229555   5.213   3.782   5.521
 9872TIP3   OH229556   2.181   6.328   2.868
 9872TIP3    H129557   2.111   6.277   2.909
 9872TIP3    H229558   2.262   6.289   2.900
 9873TIP3   OH229559   6.813   1.027   0.198
 9873TIP3    H129560   6.863   1.020   0.117
 9873TIP3    H229561   6.876   1.056   0.263
 9874TIP3   OH229562   6.769   2.568   6.795
 9874TIP3    H129563   6.769   2.602   6.885
 9874TIP3    H229564   6.694   2.507   6.793
 9875TIP3   OH229565   4.347   4.284   3.216
 9875TIP3    H129566   4.275   4.296   3.278
 9875TIP3    H229567   4.306   4.287   3.130
 9876TIP3   OH229568   4.283   6.999   4.115
 9876TIP3    H129569   4.351   6.956   4.064
 9876TIP3    H229570   4.205   6.945   4.101
 9877TIP3   OH229571   2.771   1.305   2.659
 9877TIP3    H129572   2.750   1.285   2.750
 9877TIP3    H229573   2.732   1.233   2.609
 9878TIP3   OH229574   2.439   6.097   3.386
 9878TIP3    H129575   2.479   6.014   3.362
 9878TIP3    H229576   2.479   6.161   3.328
 9879TIP3   OH229577   2.821   3.515   2.166
 9879TIP3    H129578   2.793   3.504   2.076
 9879TIP3    H229579   2.817   3.428   2.204
 9880TIP3   OH229580   5.309   1.120   3.736
 9880TIP3    H129581   5.374   1.065   3.778
 9880TIP3    H229582   5.359   1.183   3.684
 9881TIP3   OH229583   7.222   3.648   6.312
 9881TIP3    H129584   7.151   3.702   6.278
 9881TIP3    H229585   7.180   3.565   6.336
 9882TIP3   OH229586   7.915   0.012   2.739
 9882TIP3    H129587   7.845   0.078   2.735
 9882TIP3    H229588   7.994   0.063   2.755
 9883TIP3   OH229589   1.710   7.551   4.143
 9883TIP3    H129590   1.765   7.473   4.154
 9883TIP3    H229591   1.638   7.522   4.088
 9884TIP3   OH229592   6.678   5.222   5.389
 9884TIP3    H129593   6.652   5.135   5.419
 9884TIP3    H229594   6.600   5.276   5.399
 9885TIP3   OH229595   7.724   2.644   4.818
 9885TIP3    H129596   7.701   2.552   4.826
 9885TIP3    H229597   7.819   2.646   4.831
 9886TIP3   OH229598   6.597   7.276   6.673
 9886TIP3    H129599   6.642   7.199   6.709
 9886TIP3    H229600   6.506   7.265   6.700
 9887TIP3   OH229601   6.035   1.373   3.959
 9887TIP3    H129602   6.117   1.363   4.008
 9887TIP3    H229603   5.969   1.331   4.015
 9888TIP3   OH229604   4.778   7.306   3.746
 9888TIP3    H129605   4.769   7.369   3.675
 9888TIP3    H229606   4.722   7.339   3.816
 9889TIP3   OH229607   2.386   1.723   0.248
 9889TIP3    H129608   2.359   1.762   0.332
 9889TIP3    H229609   2.326   1.650   0.236
 9890TIP3   OH229610   1.152   4.142   5.162
 9890TIP3    H129611   1.190   4.227   5.141
 9890TIP3    H229612   1.112   4.113   5.080
 9891TIP3   OH229613   7.099   0.870   0.230
 9891TIP3    H129614   7.022   0.851   0.282
 9891TIP3    H229615   7.118   0.788   0.184
 9892TIP3   OH229616   5.046   4.356   4.390
 9892TIP3    H129617   5.104   4.315   4.326
 9892TIP3    H229618   5.006   4.282   4.437
 9893TIP3   OH229619   3.455   3.999   1.024
 9893TIP3    H129620   3.436   4.022   0.933
 9893TIP3    H229621   3.401   3.921   1.040
 9894TIP3   OH229622   2.847   6.414   2.195
 9894TIP3    H129623   2.849   6.486   2.132
 9894TIP3    H229624   2.846   6.335   2.141
 9895TIP3   OH229625   6.295   4.927   5.483
 9895TIP3    H129626   6.300   4.928   5.387
 9895TIP3    H229627   6.301   5.019   5.508
 9896TIP3   OH229628   0.712   6.751   2.334
 9896TIP3    H129629   0.670   6.704   2.406
 9896TIP3    H229630   0.681   6.706   2.255
 9897TIP3   OH229631   4.160   5.155   4.369
 9897TIP3    H129632   4.173   5.089   4.437
 9897TIP3    H229633   4.109   5.110   4.301
 9898TIP3   OH229634   8.190   6.545   3.839
 9898TIP3    H129635   8.116   6.519   3.784
 9898TIP3    H229636   8.267   6.511   3.794
 9899TIP3   OH229637   4.661   3.356   1.072
 9899TIP3    H129638   4.737   3.315   1.115
 9899TIP3    H229639   4.677   3.450   1.081
 9900TIP3   OH229640   2.509   5.832   4.255
 9900TIP3    H129641   2.518   5.737   4.247
 9900TIP3    H229642   2.598   5.863   4.270
 9901TIP3   OH229643   1.902   6.403   0.497
 9901TIP3    H129644   1.964   6.435   0.563
 9901TIP3    H229645   1.928   6.448   0.417
 9902TIP3   OH229646   0.035   5.652   5.256
 9902TIP3    H129647   0.038   5.664   5.161
 9902TIP3    H229648   0.032   5.557   5.267
 9903TIP3   OH229649   0.238   3.824   5.353
 9903TIP3    H129650   0.244   3.794   5.443
 9903TIP3    H229651   0.148   3.805   5.327
 9904TIP3   OH229652   3.206   1.065   0.224
 9904TIP3    H129653   3.250   0.981   0.237
 9904TIP3    H229654   3.113   1.043   0.221
 9905TIP3   OH229655   1.972   0.169   6.567
 9905TIP3    H129656   2.026   0.164   6.646
 9905TIP3    H229657   1.883   0.184   6.599
 9906TIP3   OH229658   3.328   4.630   5.751
 9906TIP3    H129659   3.319   4.535   5.760
 9906TIP3    H229660   3.316   4.664   5.839
 9907TIP3   OH229661   3.084   1.568   4.659
 9907TIP3    H129662   2.992   1.562   4.685
 9907TIP3    H229663   3.126   1.494   4.702
 9908TIP3   OH229664   0.229   1.724   1.899
 9908TIP3    H129665   0.138   1.718   1.869
 9908TIP3    H229666   0.274   1.657   1.848
 9909TIP3   OH229667   1.040   3.016   2.192
 9909TIP3    H129668   1.118   2.962   2.185
 9909TIP3    H229669   0.988   2.974   2.260
 9910TIP3   OH229670   4.348   6.152   2.288
 9910TIP3    H129671   4.341   6.085   2.356
 9910TIP3    H229672   4.289   6.222   2.317
 9911TIP3   OH229673   0.963   6.939   5.809
 9911TIP3    H129674   0.975   7.015   5.752
 9911TIP3    H229675   1.013   6.959   5.888
 9912TIP3   OH229676   4.128   7.663   4.107
 9912TIP3    H129677   4.060   7.730   4.102
 9912TIP3    H229678   4.146   7.640   4.016
 9913TIP3   OH229679   5.010   0.344   4.995
 9913TIP3    H129680   4.941   0.305   4.942
 9913TIP3    H229681   5.087   0.290   4.978
 9914TIP3   OH229682   1.076   6.274   0.098
 9914TIP3    H129683   1.097   6.206   0.034
 9914TIP3    H229684   1.130   6.253   0.174
 9915TIP3   OH229685   3.792   1.109   1.869
 9915TIP3    H129686   3.784   1.196   1.831
 9915TIP3    H229687   3.829   1.055   1.799
 9916TIP3   OH229688   1.266   6.739   3.509
 9916TIP3    H129689   1.338   6.679   3.490
 9916TIP3    H229690   1.209   6.732   3.432
 9917TIP3   OH229691   4.952   2.281   1.671
 9917TIP3    H129692   4.901   2.206   1.641
 9917TIP3    H229693   4.951   2.342   1.597
 9918TIP3   OH229694   3.516   7.832   3.647
 9918TIP3    H129695   3.499   7.739   3.663
 9918TIP3    H229696   3.501   7.843   3.553
 9919TIP3   OH229697   2.401   3.745   2.983
 9919TIP3    H129698   2.406   3.760   3.077
 9919TIP3    H229699   2.320   3.695   2.971
 9920TIP3   OH229700   2.759   1.606   5.187
 9920TIP3    H129701   2.763   1.531   5.127
 9920TIP3    H229702   2.850   1.623   5.210
 9921TIP3   OH229703   1.728   1.806   4.275
 9921TIP3    H129704   1.817   1.813   4.239
 9921TIP3    H229705   1.724   1.875   4.342
 9922TIP3   OH229706   6.213   3.343   3.930
 9922TIP3    H129707   6.208   3.369   4.022
 9922TIP3    H229708   6.147   3.274   3.921
 9923TIP3   OH229709   5.475   2.279   1.352
 9923TIP3    H129710   5.486   2.311   1.262
 9923TIP3    H229711   5.443   2.354   1.401
 9924TIP3   OH229712   5.813   5.230   6.241
 9924TIP3    H129713   5.853   5.178   6.171
 9924TIP3    H229714   5.888   5.271   6.286
 9925TIP3   OH229715   6.432   6.307   6.574
 9925TIP3    H129716   6.406   6.389   6.530
 9925TIP3    H229717   6.350   6.269   6.605
 9926TIP3   OH229718   5.239   0.323   4.320
 9926TIP3    H129719   5.319   0.272   4.307
 9926TIP3    H229720   5.268   0.407   4.355
 9927TIP3   OH229721   2.096   6.977   5.150
 9927TIP3    H129722   2.006   6.974   5.116
 9927TIP3    H229723   2.091   6.931   5.234
 9928TIP3   OH229724   0.906   4.048   4.213
 9928TIP3    H129725   0.993   4.086   4.229
 9928TIP3    H229726   0.923   3.966   4.167
 9929TIP3   OH229727   4.598   0.503   2.924
 9929TIP3    H129728   4.546   0.583   2.934
 9929TIP3    H229729   4.635   0.510   2.836
 9930TIP3   OH229730   5.835   2.512   3.882
 9930TIP3    H129731   5.805   2.466   3.960
 9930TIP3    H229732   5.817   2.452   3.810
 9931TIP3   OH229733   6.595   1.902   0.619
 9931TIP3    H129734   6.595   1.871   0.710
 9931TIP3    H229735   6.634   1.989   0.624
 9932TIP3   OH229736   7.834   0.386   5.057
 9932TIP3    H129737   7.815   0.336   5.137
 9932TIP3    H229738   7.808   0.327   4.986
 9933TIP3   OH229739   4.252   0.470   5.212
 9933TIP3    H129740   4.318   0.404   5.237
 9933TIP3    H229741   4.303   0.549   5.194
 9934TIP3   OH229742   5.955   2.255   5.627
 9934TIP3    H129743   5.996   2.338   5.651
 9934TIP3    H229744   5.907   2.228   5.706
 9935TIP3   OH229745   1.770   5.426   0.975
 9935TIP3    H129746   1.805   5.383   0.897
 9935TIP3    H229747   1.819   5.507   0.983
 9936TIP3   OH229748   0.336   4.029   3.503
 9936TIP3    H129749   0.271   4.091   3.469
 9936TIP3    H229750   0.284   3.952   3.529
 9937TIP3   OH229751   5.353   6.789   4.905
 9937TIP3    H129752   5.433   6.819   4.862
 9937TIP3    H229753   5.332   6.858   4.968
 9938TIP3   OH229754   2.701   5.961   6.415
 9938TIP3    H129755   2.637   5.890   6.431
 9938TIP3    H229756   2.653   6.025   6.363
 9939TIP3   OH229757   1.605   0.136   3.868
 9939TIP3    H129758   1.559   0.193   3.930
 9939TIP3    H229759   1.620   0.192   3.791
 9940TIP3   OH229760   0.460   1.693   0.281
 9940TIP3    H129761   0.380   1.699   0.333
 9940TIP3    H229762   0.531   1.707   0.344
 9941TIP3   OH229763   1.524   0.211   4.423
 9941TIP3    H129764   1.601   0.235   4.475
 9941TIP3    H229765   1.499   0.293   4.380
 9942TIP3   OH229766   3.223   0.518   2.152
 9942TIP3    H129767   3.306   0.564   2.141
 9942TIP3    H229768   3.202   0.528   2.245
 9943TIP3   OH229769   3.667   6.316   0.612
 9943TIP3    H129770   3.645   6.242   0.554
 9943TIP3    H229771   3.733   6.281   0.671
 9944TIP3   OH229772   7.283   0.686   5.275
 9944TIP3    H129773   7.309   0.697   5.366
 9944TIP3    H229774   7.258   0.774   5.247
 9945TIP3   OH229775   8.273   2.738   6.449
 9945TIP3    H129776   8.327   2.814   6.427
 9945TIP3    H229777   8.189   2.775   6.478
 9946TIP3   OH229778   4.149   2.545   3.685
 9946TIP3    H129779   4.237   2.579   3.664
 9946TIP3    H229780   4.123   2.498   3.606
 9947TIP3   OH229781   1.768   5.275   1.541
 9947TIP3    H129782   1.783   5.274   1.635
 9947TIP3    H229783   1.794   5.363   1.513
 9948TIP3   OH229784   6.150   0.366   2.398
 9948TIP3    H129785   6.085   0.436   2.387
 9948TIP3    H229786   6.197   0.389   2.478
 9949TIP3   OH229787   4.306   5.965   5.960
 9949TIP3    H129788   4.349   5.928   6.037
 9949TIP3    H229789   4.241   6.026   5.995
 9950TIP3   OH229790   3.093   5.336   2.254
 9950TIP3    H129791   3.132   5.260   2.297
 9950TIP3    H229792   3.108   5.322   2.161
 9951TIP3   OH229793   5.881   1.938   1.291
 9951TIP3    H129794   5.871   1.984   1.208
 9951TIP3    H229795   5.961   1.975   1.329
 9952TIP3   OH229796   4.866   7.779   2.771
 9952TIP3    H129797   4.845   7.825   2.852
 9952TIP3    H229798   4.907   7.846   2.715
 9953TIP3   OH229799   1.047   2.963   4.979
 9953TIP3    H129800   1.018   3.005   4.898
 9953TIP3    H229801   1.064   2.872   4.954
 9954TIP3   OH229802   6.813   3.769   4.607
 9954TIP3    H129803   6.905   3.786   4.583
 9954TIP3    H229804   6.794   3.684   4.566
 9955TIP3   OH229805   0.545   5.276   4.400
 9955TIP3    H129806   0.593   5.262   4.481
 9955TIP3    H229807   0.488   5.199   4.392
 9956TIP3   OH229808   3.264   1.608   2.169
 9956TIP3    H129809   3.179   1.622   2.210
 9956TIP3    H229810   3.253   1.638   2.079
 9957TIP3   OH229811   7.831   2.837   4.385
 9957TIP3    H129812   7.859   2.853   4.295
 9957TIP3    H229813   7.890   2.769   4.417
 9958TIP3   OH229814   6.587   3.467   0.423
 9958TIP3    H129815   6.519   3.468   0.355
 9958TIP3    H229816   6.648   3.537   0.398
 9959TIP3   OH229817   4.709   4.328   3.773
 9959TIP3    H129818   4.732   4.404   3.720
 9959TIP3    H229819   4.788   4.275   3.774
 9960TIP3   OH229820   0.706   3.082   4.918
 9960TIP3    H129821   0.760   3.091   4.997
 9960TIP3    H229822   0.724   2.993   4.887
 9961TIP3   OH229823   7.355   1.530   0.473
 9961TIP3    H129824   7.319   1.448   0.439
 9961TIP3    H229825   7.283   1.594   0.463
 9962TIP3   OH229826   7.042   4.705   0.031
 9962TIP3    H129827   7.072   4.747  -0.050
 9962TIP3    H229828   6.947   4.715   0.030
 9963TIP3   OH229829   3.085   1.994   5.723
 9963TIP3    H129830   2.990   1.993   5.710
 9963TIP3    H229831   3.097   1.976   5.816
 9964TIP3   OH229832   4.111   1.033   3.125
 9964TIP3    H129833   4.187   1.033   3.184
 9964TIP3    H229834   4.122   0.954   3.072
 9965TIP3   OH229835   5.840   6.022   3.548
 9965TIP3    H129836   5.908   5.985   3.492
 9965TIP3    H229837   5.829   6.111   3.516
 9966TIP3   OH229838   7.841   5.499   5.058
 9966TIP3    H129839   7.828   5.419   5.108
 9966TIP3    H229840   7.769   5.556   5.085
 9967TIP3   OH229841   4.596   5.879   0.161
 9967TIP3    H129842   4.656   5.862   0.234
 9967TIP3    H229843   4.559   5.965   0.179
 9968TIP3   OH229844   1.879   4.549   4.560
 9968TIP3    H129845   1.898   4.486   4.491
 9968TIP3    H229846   1.797   4.591   4.532
 9969TIP3   OH229847   0.036   1.608   0.372
 9969TIP3    H129848  -0.040   1.654   0.337
 9969TIP3    H229849   0.091   1.677   0.407
 9970TIP3   OH229850   8.201   0.297   5.254
 9970TIP3    H129851   8.157   0.299   5.339
 9970TIP3    H229852   8.276   0.355   5.263
 9971TIP3   OH229853   7.160   2.213   2.035
 9971TIP3    H129854   7.163   2.304   2.064
 9971TIP3    H229855   7.153   2.218   1.940
 9972TIP3   OH229856   4.078   0.794   2.971
 9972TIP3    H129857   4.044   0.785   2.882
 9972TIP3    H229858   4.089   0.704   3.002
 9973TIP3   OH229859   8.175   0.596   0.843
 9973TIP3    H129860   8.259   0.620   0.882
 9973TIP3    H229861   8.155   0.510   0.880
 9974TIP3   OH229862   8.175   4.511   5.849
 9974TIP3    H129863   8.162   4.551   5.936
 9974TIP3    H229864   8.159   4.418   5.863
 9975TIP3   OH229865   0.095   2.688   5.366
 9975TIP3    H129866   0.055   2.640   5.294
 9975TIP3    H229867   0.175   2.638   5.386
 9976TIP3   OH229868   3.694   1.482   5.270
 9976TIP3    H129869   3.609   1.524   5.284
 9976TIP3    H229870   3.689   1.445   5.182
 9977TIP3   OH229871   5.433   5.415   6.550
 9977TIP3    H129872   5.395   5.494   6.589
 9977TIP3    H229873   5.513   5.400   6.600
 9978TIP3   OH229874   7.080   5.917   4.015
 9978TIP3    H129875   7.039   5.885   3.934
 9978TIP3    H229876   7.007   5.930   4.075
 9979TIP3   OH229877   8.004   2.975   2.113
 9979TIP3    H129878   8.098   2.960   2.106
 9979TIP3    H229879   7.965   2.924   2.042
 9980TIP3   OH229880   0.869   6.448   1.092
 9980TIP3    H129881   0.810   6.477   1.022
 9980TIP3    H229882   0.947   6.501   1.081
 9981TIP3   OH229883   7.744   5.006   6.204
 9981TIP3    H129884   7.798   5.059   6.262
 9981TIP3    H229885   7.699   5.069   6.148
 9982TIP3   OH229886   5.069   5.852   2.835
 9982TIP3    H129887   5.093   5.867   2.927
 9982TIP3    H229888   5.147   5.877   2.785
 9983TIP3   OH229889   0.289   7.413   0.803
 9983TIP3    H129890   0.219   7.445   0.860
 9983TIP3    H229891   0.308   7.486   0.744
 9984TIP3   OH229892   3.538   6.812   2.392
 9984TIP3    H129893   3.633   6.813   2.391
 9984TIP3    H229894   3.514   6.720   2.403
 9985TIP3   OH229895   6.178   3.545   0.128
 9985TIP3    H129896   6.112   3.482   0.099
 9985TIP3    H229897   6.242   3.547   0.057
 9986TIP3   OH229898   6.206   0.232   1.081
 9986TIP3    H129899   6.297   0.256   1.062
 9986TIP3    H229900   6.212   0.157   1.140
 9987TIP3   OH229901   6.041   5.082   0.575
 9987TIP3    H129902   5.967   5.055   0.631
 9987TIP3    H229903   6.054   5.008   0.516
 9988TIP3   OH229904   3.386   3.455   5.851
 9988TIP3    H129905   3.368   3.510   5.775
 9988TIP3    H229906   3.416   3.372   5.814
 9989TIP3   OH229907   2.522   6.786   6.249
 9989TIP3    H129908   2.500   6.728   6.176
 9989TIP3    H229909   2.444   6.840   6.260
 9990TIP3   OH229910   6.789   0.242   1.056
 9990TIP3    H129911   6.774   0.323   1.008
 9990TIP3    H229912   6.866   0.261   1.110
 9991TIP3   OH229913   5.954   1.772   5.431
 9991TIP3    H129914   6.037   1.743   5.468
 9991TIP3    H229915   5.918   1.693   5.389
 9992TIP3   OH229916   1.686   0.631   4.284
 9992TIP3    H129917   1.671   0.697   4.217
 9992TIP3    H229918   1.762   0.662   4.332
 9993TIP3   OH229919   6.432   5.106   0.308
 9993TIP3    H129920   6.363   5.160   0.347
 9993TIP3    H229921   6.492   5.168   0.269
 9994TIP3   OH229922   1.178   2.180   0.875
 9994TIP3    H129923   1.087   2.191   0.903
 9994TIP3    H229924   1.218   2.126   0.943
 9995TIP3   OH229925   8.002   3.749   6.814
 9995TIP3    H129926   7.969   3.835   6.839
 9995TIP3    H229927   7.996   3.747   6.718
 9996TIP3   OH229928   7.379   0.839   3.698
 9996TIP3    H129929   7.343   0.928   3.690
 9996TIP3    H229930   7.302   0.783   3.708
 9997TIP3   OH229931   5.807   0.831   6.149
 9997TIP3    H129932   5.801   0.924   6.127
 9997TIP3    H229933   5.751   0.787   6.085
 9998TIP3   OH229934   3.299   4.945   1.989
 9998TIP3    H129935   3.272   4.862   1.949
 9998TIP3    H229936   3.379   4.924   2.036
 9999TIP3   OH229937   1.311   5.536   1.832
 9999TIP3    H129938   1.333   5.503   1.746
 9999TIP3    H229939   1.394   5.568   1.868
10000TIP3   OH229940   6.251   5.293   4.435
10000TIP3    H129941   6.258   5.346   4.356
10000TIP3    H229942   6.328   5.317   4.487
10001TIP3   OH229943   4.517   4.698   2.237
10001TIP3    H129944   4.577   4.716   2.165
10001TIP3    H229945   4.436   4.670   2.195
10002TIP3   OH229946   6.194   7.293   5.328
10002TIP3    H129947   6.268   7.329   5.280
10002TIP3    H229948   6.136   7.258   5.261
10003TIP3   OH229949   4.744   0.288   2.483
10003TIP3    H129950   4.694   0.215   2.448
10003TIP3    H229951   4.716   0.296   2.574
10004TIP3   OH229952   1.458   2.883   5.373
10004TIP3    H129953   1.488   2.878   5.464
10004TIP3    H229954   1.489   2.968   5.342
10005TIP3   OH229955   3.655   0.781   3.099
10005TIP3    H129956   3.665   0.830   3.181
10005TIP3    H229957   3.632   0.848   3.034
10006TIP3   OH229958   2.812   1.415   5.009
10006TIP3    H129959   2.856   1.464   4.939
10006TIP3    H229960   2.760   1.349   4.963
10007TIP3   OH229961   2.926   3.572   6.046
10007TIP3    H129962   2.895   3.547   5.958
10007TIP3    H229963   3.019   3.546   6.046
10008TIP3   OH229964   0.277   5.273   0.702
10008TIP3    H129965   0.328   5.204   0.745
10008TIP3    H229966   0.227   5.227   0.635
10009TIP3   OH229967   2.330   2.171   3.261
10009TIP3    H129968   2.342   2.125   3.178
10009TIP3    H229969   2.401   2.235   3.264
10010TIP3   OH229970   2.516   2.040   0.054
10010TIP3    H129971   2.498   2.115  -0.004
10010TIP3    H229972   2.604   2.012   0.029
10011TIP3   OH229973   3.610   6.302   1.607
10011TIP3    H129974   3.540   6.341   1.557
10011TIP3    H229975   3.599   6.336   1.696
10012TIP3   OH229976   5.779   2.820   3.332
10012TIP3    H129977   5.807   2.796   3.244
10012TIP3    H229978   5.817   2.752   3.388
10013TIP3   OH229979   1.059   5.451   0.126
10013TIP3    H129980   0.983   5.432   0.071
10013TIP3    H229981   1.110   5.515   0.077
10014TIP3   OH229982   3.315   6.740   1.072
10014TIP3    H129983   3.234   6.789   1.089
10014TIP3    H229984   3.306   6.661   1.124
10015TIP3   OH229985   8.322   6.942   5.397
10015TIP3    H129986   8.373   6.888   5.458
10015TIP3    H229987   8.388   6.989   5.346
10016TIP3   OH229988   3.574   1.480   0.105
10016TIP3    H129989   3.479   1.471   0.100
10016TIP3    H229990   3.607   1.426   0.034
10017TIP3   OH229991   2.807   6.392   6.510
10017TIP3    H129992   2.816   6.367   6.418
10017TIP3    H229993   2.804   6.309   6.557
10018TIP3   OH229994   7.407   4.022   2.059
10018TIP3    H129995   7.450   4.074   1.992
10018TIP3    H229996   7.314   4.027   2.038
10019TIP3   OH229997   6.703   3.872   4.837
10019TIP3    H129998   6.731   3.838   4.752
10019TIP3    H229999   6.784   3.880   4.887
10020TIP3   OH230000   2.915   5.772   0.755
10020TIP3    H130001   2.995   5.822   0.738
10020TIP3    H230002   2.910   5.709   0.683
10021TIP3   OH230003   3.263   6.366   1.708
10021TIP3    H130004   3.195   6.424   1.743
10021TIP3    H230005   3.218   6.284   1.691
10022TIP3   OH230006   6.128   0.045   2.106
10022TIP3    H130007   6.047   0.036   2.156
10022TIP3    H230008   6.104   0.021   2.017
10023TIP3   OH230009   3.433   7.775   3.368
10023TIP3    H130010   3.511   7.728   3.338
10023TIP3    H230011   3.372   7.705   3.392
10024TIP3   OH230012   5.927   4.910   4.647
10024TIP3    H130013   6.004   4.856   4.667
10024TIP3    H230014   5.920   4.907   4.552
10025TIP3   OH230015   3.753   3.159   5.597
10025TIP3    H130016   3.755   3.142   5.503
10025TIP3    H230017   3.817   3.098   5.634
10026TIP3   OH230018   4.449   0.604   2.467
10026TIP3    H130019   4.537   0.636   2.485
10026TIP3    H230020   4.431   0.631   2.377
10027TIP3   OH230021   1.744   5.632   5.935
10027TIP3    H130022   1.794   5.579   5.874
10027TIP3    H230023   1.750   5.722   5.901
10028TIP3   OH230024   4.020   4.631   2.305
10028TIP3    H130025   4.109   4.599   2.317
10028TIP3    H230026   4.006   4.691   2.377
10029TIP3   OH230027   4.243   3.683   0.131
10029TIP3    H130028   4.195   3.737   0.068
10029TIP3    H230029   4.219   3.593   0.108
10030TIP3   OH230030   4.091   6.910   5.365
10030TIP3    H130031   4.182   6.884   5.354
10030TIP3    H230032   4.047   6.831   5.397
10031TIP3   OH230033   6.211   7.709   0.821
10031TIP3    H130034   6.204   7.619   0.853
10031TIP3    H230035   6.121   7.735   0.804
10032TIP3   OH230036   6.269   3.213   2.070
10032TIP3    H130037   6.247   3.141   2.130
10032TIP3    H230038   6.271   3.291   2.125
10033TIP3   OH230039   7.236   3.555   0.879
10033TIP3    H130040   7.205   3.644   0.898
10033TIP3    H230041   7.295   3.565   0.805
10034TIP3   OH230042   0.563   3.304   2.902
10034TIP3    H130043   0.508   3.338   2.833
10034TIP3    H230044   0.502   3.271   2.968
10035TIP3   OH230045   4.044   2.207   2.913
10035TIP3    H130046   4.066   2.268   2.843
10035TIP3    H230047   4.018   2.262   2.986
10036TIP3   OH230048   2.482   4.725   6.431
10036TIP3    H130049   2.450   4.657   6.490
10036TIP3    H230050   2.408   4.786   6.423
10037TIP3   OH230051   7.930   2.591   3.332
10037TIP3    H130052   7.869   2.630   3.396
10037TIP3    H230053   7.961   2.511   3.375
10038TIP3   OH230054   2.855   2.800   1.873
10038TIP3    H130055   2.817   2.781   1.788
10038TIP3    H230056   2.949   2.782   1.862
10039TIP3   OH230057   1.628   7.217   0.619
10039TIP3    H130058   1.564   7.156   0.579
10039TIP3    H230059   1.595   7.304   0.596
10040TIP3   OH230060   6.916   0.741   3.162
10040TIP3    H130061   6.905   0.718   3.070
10040TIP3    H230062   6.960   0.826   3.160
10041TIP3   OH230063   7.806   7.134   6.842
10041TIP3    H130064   7.862   7.061   6.816
10041TIP3    H230065   7.717   7.100   6.835
10042TIP3   OH230066   5.236   5.649   3.710
10042TIP3    H130067   5.277   5.576   3.664
10042TIP3    H230068   5.262   5.637   3.801
10043TIP3   OH230069   3.859   0.116   3.923
10043TIP3    H130070   3.927   0.115   3.990
10043TIP3    H230071   3.784   0.072   3.963
10044TIP3   OH230072   2.556   2.364   6.287
10044TIP3    H130073   2.619   2.332   6.223
10044TIP3    H230074   2.594   2.447   6.319
10045TIP3   OH230075   4.839   2.626   0.298
10045TIP3    H130076   4.873   2.612   0.209
10045TIP3    H230077   4.763   2.683   0.286
10046TIP3   OH230078   0.539   4.350   5.087
10046TIP3    H130079   0.497   4.293   5.024
10046TIP3    H230080   0.572   4.291   5.155
10047TIP3   OH230081   7.398   4.469   0.131
10047TIP3    H130082   7.432   4.511   0.210
10047TIP3    H230083   7.304   4.460   0.147
10048TIP3   OH230084   1.586   3.735   6.705
10048TIP3    H130085   1.675   3.701   6.694
10048TIP3    H230086   1.531   3.676   6.655
10049TIP3   OH230087   3.823   3.836   0.714
10049TIP3    H130088   3.814   3.890   0.793
10049TIP3    H230089   3.907   3.863   0.676
10050TIP3   OH230090   2.565   6.288   5.045
10050TIP3    H130091   2.616   6.254   5.119
10050TIP3    H230092   2.499   6.344   5.086
10051TIP3   OH230093   3.744   5.440   4.162
10051TIP3    H130094   3.715   5.505   4.226
10051TIP3    H230095   3.669   5.428   4.104
10052TIP3   OH230096   0.441   6.249   2.906
10052TIP3    H130097   0.373   6.302   2.948
10052TIP3    H230098   0.410   6.237   2.816
10053TIP3   OH230099   2.759   3.052   2.743
10053TIP3    H130100   2.848   3.017   2.742
10053TIP3    H230101   2.702   2.976   2.737
10054TIP3   OH230102   2.234   4.207   1.619
10054TIP3    H130103   2.314   4.166   1.653
10054TIP3    H230104   2.261   4.243   1.534
10055TIP3   OH230105   5.566   6.352   0.131
10055TIP3    H130106   5.478   6.336   0.097
10055TIP3    H230107   5.616   6.274   0.107
10056TIP3   OH230108   4.802   1.362   5.651
10056TIP3    H130109   4.737   1.294   5.670
10056TIP3    H230110   4.841   1.382   5.736
10057TIP3   OH230111   7.213   4.067   2.753
10057TIP3    H130112   7.231   4.113   2.670
10057TIP3    H230113   7.256   3.982   2.744
10058TIP3   OH230114   2.564   6.045   0.902
10058TIP3    H130115   2.483   6.072   0.858
10058TIP3    H230116   2.564   5.949   0.894
10059TIP3   OH230117   6.645   7.566   0.082
10059TIP3    H130118   6.705   7.556   0.008
10059TIP3    H230119   6.675   7.644   0.127
10060TIP3   OH230120   5.245   3.396   2.011
10060TIP3    H130121   5.324   3.433   1.971
10060TIP3    H230122   5.213   3.333   1.948
10061TIP3   OH230123   2.937   4.991   4.294
10061TIP3    H130124   2.895   5.052   4.355
10061TIP3    H230125   2.865   4.938   4.259
10062TIP3   OH230126   2.120   1.474   1.195
10062TIP3    H130127   2.039   1.458   1.243
10062TIP3    H230128   2.112   1.563   1.160
10063TIP3   OH230129   1.277   4.710   5.832
10063TIP3    H130130   1.254   4.782   5.773
10063TIP3    H230131   1.325   4.752   5.903
10064TIP3   OH230132   0.768   7.145   4.700
10064TIP3    H130133   0.744   7.219   4.643
10064TIP3    H230134   0.803   7.079   4.640
10065TIP3   OH230135   3.199   4.053   0.169
10065TIP3    H130136   3.234   4.118   0.229
10065TIP3    H230137   3.110   4.037   0.200
10066TIP3   OH230138   5.737   5.295   4.447
10066TIP3    H130139   5.742   5.309   4.542
10066TIP3    H230140   5.806   5.351   4.411
10067TIP3   OH230141   7.442   3.208   3.040
10067TIP3    H130142   7.482   3.267   3.104
10067TIP3    H230143   7.443   3.258   2.958
10068TIP3   OH230144   1.467   4.198   4.883
10068TIP3    H130145   1.455   4.110   4.918
10068TIP3    H230146   1.555   4.223   4.909
10069TIP3   OH230147   2.890   0.176   4.507
10069TIP3    H130148   2.917   0.263   4.479
10069TIP3    H230149   2.955   0.117   4.467
10070TIP3   OH230150   8.362  -0.057   1.875
10070TIP3    H130151   8.453  -0.059   1.907
10070TIP3    H230152   8.353   0.030   1.835
10071TIP3   OH230153   3.203   2.425   5.692
10071TIP3    H130154   3.247   2.354   5.738
10071TIP3    H230155   3.241   2.505   5.729
10072TIP3   OH230156   7.560   6.092   0.393
10072TIP3    H130157   7.487   6.084   0.454
10072TIP3    H230158   7.525   6.144   0.320
10073TIP3   OH230159   4.003   2.925   0.418
10073TIP3    H130160   3.916   2.960   0.399
10073TIP3    H230161   4.032   2.973   0.495
10074TIP3   OH230162   7.309   6.786   1.536
10074TIP3    H130163   7.268   6.699   1.540
10074TIP3    H230164   7.398   6.768   1.506
10075TIP3   OH230165   3.762   7.918   2.699
10075TIP3    H130166   3.692   7.899   2.637
10075TIP3    H230167   3.840   7.878   2.660
10076TIP3   OH230168   0.272   5.359   1.254
10076TIP3    H130169   0.336   5.330   1.319
10076TIP3    H230170   0.226   5.431   1.296
10077TIP3   OH230171   3.748   2.425   3.541
10077TIP3    H130172   3.683   2.453   3.477
10077TIP3    H230173   3.698   2.410   3.621
10078TIP3   OH230174   0.280   7.831   4.005
10078TIP3    H130175   0.193   7.855   4.035
10078TIP3    H230176   0.299   7.891   3.933
10079TIP3   OH230177   7.918   2.596   1.780
10079TIP3    H130178   7.849   2.531   1.785
10079TIP3    H230179   7.965   2.575   1.700
10080TIP3   OH230180   0.941   0.293   2.833
10080TIP3    H130181   0.928   0.345   2.913
10080TIP3    H230182   0.923   0.203   2.860
10081TIP3   OH230183   1.215   7.652   6.783
10081TIP3    H130184   1.152   7.661   6.854
10081TIP3    H230185   1.171   7.689   6.706
10082TIP3   OH230186   6.206   4.129   2.898
10082TIP3    H130187   6.184   4.136   2.805
10082TIP3    H230188   6.287   4.078   2.900
10083TIP3   OH230189   7.876   3.209   1.170
10083TIP3    H130190   7.958   3.194   1.216
10083TIP3    H230191   7.822   3.133   1.191
10084TIP3   OH230192   1.295   3.944   1.249
10084TIP3    H130193   1.239   3.876   1.213
10084TIP3    H230194   1.271   4.023   1.201
10085TIP3   OH230195   6.397   6.590   1.131
10085TIP3    H130196   6.430   6.547   1.210
10085TIP3    H230197   6.303   6.598   1.146
10086TIP3   OH230198   7.131   2.202   3.255
10086TIP3    H130199   7.076   2.139   3.208
10086TIP3    H230200   7.137   2.167   3.344
10087TIP3   OH230201   8.257   2.556   2.275
10087TIP3    H130202   8.235   2.547   2.368
10087TIP3    H230203   8.317   2.630   2.272
10088TIP3   OH230204   0.843   4.648   6.383
10088TIP3    H130205   0.775   4.581   6.374
10088TIP3    H230206   0.796   4.731   6.374
10089TIP3   OH230207   5.546   6.246   4.757
10089TIP3    H130208   5.570   6.222   4.846
10089TIP3    H230209   5.529   6.163   4.713
10090TIP3   OH230210   2.067   6.148   5.560
10090TIP3    H130211   1.998   6.135   5.495
10090TIP3    H230212   2.038   6.225   5.609
10091TIP3   OH230213   4.135   2.127   5.607
10091TIP3    H130214   4.128   2.171   5.692
10091TIP3    H230215   4.228   2.132   5.585
10092TIP3   OH230216   8.160   0.745   1.328
10092TIP3    H130217   8.161   0.671   1.268
10092TIP3    H230218   8.221   0.721   1.397
10093TIP3   OH230219   2.133   1.014   6.446
10093TIP3    H130220   2.166   1.087   6.498
10093TIP3    H230221   2.140   1.043   6.356
10094TIP3   OH230222   0.554   7.425   5.337
10094TIP3    H130223   0.600   7.417   5.253
10094TIP3    H230224   0.622   7.447   5.400
10095TIP3   OH230225   3.764   0.281   6.318
10095TIP3    H130226   3.745   0.357   6.373
10095TIP3    H230227   3.747   0.205   6.374
10096TIP3   OH230228   1.618   6.267   4.370
10096TIP3    H130229   1.653   6.248   4.283
10096TIP3    H230230   1.645   6.357   4.388
10097TIP3   OH230231   7.868   6.921   5.839
10097TIP3    H130232   7.941   6.867   5.869
10097TIP3    H230233   7.812   6.861   5.790
10098TIP3   OH230234   1.946   3.462   5.290
10098TIP3    H130235   1.878   3.401   5.319
10098TIP3    H230236   1.935   3.539   5.346
10099TIP3   OH230237   0.449   5.380   2.958
10099TIP3    H130238   0.445   5.285   2.947
10099TIP3    H230239   0.536   5.395   2.996
10100TIP3   OH230240   3.868   3.546   0.664
10100TIP3    H130241   3.836   3.480   0.602
10100TIP3    H230242   3.896   3.619   0.610
10101TIP3   OH230243   0.523   5.599   0.017
10101TIP3    H130244   0.533   5.524   0.075
10101TIP3    H230245   0.559   5.673   0.067
10102TIP3   OH230246   3.669   2.836   1.058
10102TIP3    H130247   3.634   2.873   0.977
10102TIP3    H230248   3.627   2.886   1.128
10103TIP3   OH230249   7.738   7.832   5.102
10103TIP3    H130250   7.666   7.791   5.149
10103TIP3    H230251   7.706   7.840   5.012
10104TIP3   OH230252   7.770   4.592   0.223
10104TIP3    H130253   7.847   4.649   0.221
10104TIP3    H230254   7.699   4.647   0.191
10105TIP3   OH230255   4.355   7.308   2.117
10105TIP3    H130256   4.326   7.278   2.202
10105TIP3    H230257   4.431   7.364   2.135
10106TIP3   OH230258   4.867   0.126   4.123
10106TIP3    H130259   4.816   0.161   4.051
10106TIP3    H230260   4.905   0.204   4.165
10107TIP3   OH230261   2.151   3.823   6.496
10107TIP3    H130262   2.158   3.765   6.571
10107TIP3    H230263   2.205   3.782   6.428
10108TIP3   OH230264   7.963   0.504   0.453
10108TIP3    H130265   7.899   0.554   0.403
10108TIP3    H230266   7.937   0.517   0.544
10109TIP3   OH230267   6.646   0.236   3.726
10109TIP3    H130268   6.617   0.226   3.817
10109TIP3    H230269   6.635   0.330   3.708
10110TIP3   OH230270   1.156   1.216   3.071
10110TIP3    H130271   1.098   1.140   3.077
10110TIP3    H230272   1.170   1.229   2.978
10111TIP3   OH230273   6.198   6.521   5.036
10111TIP3    H130274   6.271   6.561   5.083
10111TIP3    H230275   6.204   6.427   5.058
10112TIP3   OH230276   3.248   1.201   3.952
10112TIP3    H130277   3.291   1.285   3.965
10112TIP3    H230278   3.238   1.165   4.040
10113TIP3   OH230279   0.311   6.354   4.136
10113TIP3    H130280   0.271   6.277   4.093
10113TIP3    H230281   0.245   6.422   4.128
10114TIP3   OH230282   8.348   4.345   3.011
10114TIP3    H130283   8.388   4.383   3.089
10114TIP3    H230284   8.344   4.251   3.030
10115TIP3   OH230285   4.761   5.135   4.550
10115TIP3    H130286   4.822   5.165   4.618
10115TIP3    H230287   4.676   5.171   4.577
10116TIP3   OH230288   0.244   0.890   0.930
10116TIP3    H130289   0.195   0.963   0.892
10116TIP3    H230290   0.312   0.870   0.866
10117TIP3   OH230291   1.163   4.709   1.304
10117TIP3    H130292   1.251   4.676   1.285
10117TIP3    H230293   1.115   4.696   1.222
10118TIP3   OH230294   2.896   7.216   2.351
10118TIP3    H130295   2.822   7.156   2.364
10118TIP3    H230296   2.878   7.289   2.410
10119TIP3   OH230297   6.180   2.363   0.286
10119TIP3    H130298   6.267   2.402   0.282
10119TIP3    H230299   6.150   2.380   0.375
10120TIP3   OH230300   0.859   3.945   1.304
10120TIP3    H130301   0.898   3.910   1.384
10120TIP3    H230302   0.778   3.988   1.332
10121TIP3   OH230303   6.263   4.713   3.908
10121TIP3    H130304   6.234   4.803   3.890
10121TIP3    H230305   6.288   4.714   4.001
10122TIP3   OH230306   3.574   6.545   2.398
10122TIP3    H130307   3.668   6.543   2.414
10122TIP3    H230308   3.538   6.474   2.452
10123TIP3   OH230309   0.475   3.516   3.679
10123TIP3    H130310   0.518   3.529   3.763
10123TIP3    H230311   0.438   3.428   3.684
10124TIP3   OH230312   3.540   2.764   4.024
10124TIP3    H130313   3.448   2.755   4.000
10124TIP3    H230314   3.552   2.858   4.037
10125TIP3   OH230315   5.195   4.455   5.922
10125TIP3    H130316   5.172   4.488   6.008
10125TIP3    H230317   5.283   4.419   5.932
10126TIP3   OH230318   5.867   7.112   5.294
10126TIP3    H130319   5.787   7.066   5.318
10126TIP3    H230320   5.935   7.072   5.349
10127TIP3   OH230321   0.510   4.101   4.882
10127TIP3    H130322   0.493   4.077   4.973
10127TIP3    H230323   0.600   4.074   4.866
10128TIP3   OH230324   7.196   3.431   0.091
10128TIP3    H130325   7.197   3.372   0.167
10128TIP3    H230326   7.217   3.517   0.128
10129TIP3   OH230327   4.690   0.272   1.590
10129TIP3    H130328   4.631   0.202   1.560
10129TIP3    H230329   4.695   0.260   1.685
10130TIP3   OH230330   3.058   6.787   6.003
10130TIP3    H130331   3.063   6.876   6.038
10130TIP3    H230332   3.056   6.731   6.081
10131TIP3   OH230333   2.185   3.590   5.981
10131TIP3    H130334   2.237   3.517   5.948
10131TIP3    H230335   2.141   3.554   6.058
10132TIP3   OH230336   6.255   3.101   2.683
10132TIP3    H130337   6.305   3.182   2.686
10132TIP3    H230338   6.294   3.052   2.610
10133TIP3   OH230339   0.804   3.815   2.848
10133TIP3    H130340   0.789   3.888   2.787
10133TIP3    H230341   0.755   3.839   2.927
10134TIP3   OH230342   6.638   7.245   0.620
10134TIP3    H130343   6.604   7.212   0.703
10134TIP3    H230344   6.560   7.270   0.570
10135TIP3   OH230345   4.785   3.867   6.201
10135TIP3    H130346   4.788   3.939   6.265
10135TIP3    H230347   4.693   3.862   6.176
10136TIP3   OH230348   6.954   0.437   4.356
10136TIP3    H130349   7.034   0.384   4.358
10136TIP3    H230350   6.985   0.527   4.371
10137TIP3   OH230351   2.472   5.362   4.940
10137TIP3    H130352   2.487   5.386   5.031
10137TIP3    H230353   2.531   5.289   4.923
10138TIP3   OH230354   2.059   3.856   2.955
10138TIP3    H130355   2.090   3.832   3.042
10138TIP3    H230356   2.037   3.949   2.963
10139TIP3   OH230357   1.230   3.966   6.149
10139TIP3    H130358   1.256   4.030   6.083
10139TIP3    H230359   1.301   3.967   6.213
10140TIP3   OH230360   7.670   4.318   1.091
10140TIP3    H130361   7.685   4.379   1.018
10140TIP3    H230362   7.688   4.369   1.169
10141TIP3   OH230363   7.360   5.492   1.972
10141TIP3    H130364   7.425   5.434   2.013
10141TIP3    H230365   7.276   5.454   1.996
10142TIP3   OH230366   7.423   7.129   5.517
10142TIP3    H130367   7.504   7.154   5.474
10142TIP3    H230368   7.422   7.180   5.599
10143TIP3   OH230369   6.247   3.838   6.224
10143TIP3    H130370   6.310   3.806   6.159
10143TIP3    H230371   6.288   3.917   6.259
10144TIP3   OH230372   2.075   3.663   4.627
10144TIP3    H130373   1.992   3.685   4.583
10144TIP3    H230374   2.125   3.617   4.560
10145TIP3   OH230375   2.471   0.395   6.430
10145TIP3    H130376   2.426   0.466   6.476
10145TIP3    H230377   2.400   0.342   6.393
10146TIP3   OH230378   6.206   0.168   2.692
10146TIP3    H130379   6.112   0.162   2.706
10146TIP3    H230380   6.216   0.241   2.632
10147TIP3   OH230381   3.595   7.889   5.478
10147TIP3    H130382   3.626   7.979   5.489
10147TIP3    H230383   3.511   7.897   5.433
10148TIP3   OH230384   5.640  -0.009   5.425
10148TIP3    H130385   5.709   0.009   5.489
10148TIP3    H230386   5.558   0.005   5.473
10149TIP3   OH230387   0.052   4.439   1.152
10149TIP3    H130388   0.073   4.347   1.137
10149TIP3    H230389   0.063   4.480   1.066
10150TIP3   OH230390   2.144   0.713   3.792
10150TIP3    H130391   2.162   0.801   3.825
10150TIP3    H230392   2.075   0.680   3.848
10151TIP3   OH230393   4.222   5.418   0.091
10151TIP3    H130394   4.136   5.444   0.125
10151TIP3    H230395   4.284   5.460   0.150
10152TIP3   OH230396   1.468   6.551   3.444
10152TIP3    H130397   1.434   6.508   3.366
10152TIP3    H230398   1.552   6.588   3.417
10153TIP3   OH230399   0.895   7.523   4.885
10153TIP3    H130400   0.908   7.443   4.833
10153TIP3    H230401   0.926   7.594   4.828
10154TIP3   OH230402   7.871   5.005   2.403
10154TIP3    H130403   7.808   4.961   2.346
10154TIP3    H230404   7.896   4.939   2.467
10155TIP3   OH230405   8.051   2.739   5.744
10155TIP3    H130406   8.141   2.724   5.775
10155TIP3    H230407   7.996   2.703   5.813
10156TIP3   OH230408   5.504   4.855   2.114
10156TIP3    H130409   5.425   4.882   2.067
10156TIP3    H230410   5.532   4.774   2.071
10157TIP3   OH230411   4.844   2.886   0.339
10157TIP3    H130412   4.882   2.800   0.322
10157TIP3    H230413   4.878   2.911   0.425
10158TIP3   OH230414   0.981   2.528   4.195
10158TIP3    H130415   1.044   2.595   4.167
10158TIP3    H230416   0.987   2.460   4.128
10159TIP3   OH230417   1.008   5.855   2.013
10159TIP3    H130418   0.944   5.833   2.081
10159TIP3    H230419   1.022   5.772   1.967
10160TIP3   OH230420   3.735   2.033   3.012
10160TIP3    H130421   3.666   2.062   2.952
10160TIP3    H230422   3.762   2.113   3.057
10161TIP3   OH230423   7.852   1.611   5.490
10161TIP3    H130424   7.914   1.654   5.549
10161TIP3    H230425   7.894   1.529   5.466
10162TIP3   OH230426   4.194   7.316   4.978
10162TIP3    H130427   4.178   7.226   5.008
10162TIP3    H230428   4.109   7.345   4.945
10163TIP3   OH230429   0.063   4.086   0.898
10163TIP3    H130430   0.054   4.117   0.988
10163TIP3    H230431  -0.004   4.019   0.889
10164TIP3   OH230432   2.926   6.697   3.492
10164TIP3    H130433   2.928   6.785   3.530
10164TIP3    H230434   2.902   6.640   3.564
10165TIP3   OH230435   4.864   2.016   3.188
10165TIP3    H130436   4.779   2.012   3.145
10165TIP3    H230437   4.893   2.107   3.175
10166TIP3   OH230438   7.836   1.980   3.611
10166TIP3    H130439   7.840   2.053   3.672
10166TIP3    H230440   7.744   1.954   3.610
10167TIP3   OH230441   1.762   4.258   3.078
10167TIP3    H130442   1.677   4.268   3.121
10167TIP3    H230443   1.769   4.334   3.020
10168TIP3   OH230444   5.157   2.894   2.456
10168TIP3    H130445   5.112   2.813   2.479
10168TIP3    H230446   5.102   2.934   2.389
10169TIP3   OH230447   6.483   7.668   4.346
10169TIP3    H130448   6.529   7.749   4.328
10169TIP3    H230449   6.440   7.682   4.431
10170TIP3   OH230450   1.956   7.088   1.035
10170TIP3    H130451   1.952   6.995   1.056
10170TIP3    H230452   1.875   7.105   0.986
10171TIP3   OH230453   0.386   1.728   2.911
10171TIP3    H130454   0.347   1.807   2.948
10171TIP3    H230455   0.461   1.710   2.968
10172TIP3   OH230456   3.544   5.426   3.252
10172TIP3    H130457   3.585   5.403   3.168
10172TIP3    H230458   3.612   5.411   3.317
10173TIP3   OH230459   7.002   4.008   6.307
10173TIP3    H130460   7.004   3.918   6.338
10173TIP3    H230461   7.091   4.024   6.275
10174TIP3   OH230462   6.831   6.681   4.485
10174TIP3    H130463   6.773   6.644   4.552
10174TIP3    H230464   6.895   6.612   4.469
10175TIP3   OH230465   2.886   5.459   6.530
10175TIP3    H130466   2.927   5.378   6.501
10175TIP3    H230467   2.937   5.486   6.606
10176TIP3   OH230468   0.155   5.713   4.545
10176TIP3    H130469   0.240   5.669   4.555
10176TIP3    H230470   0.093   5.642   4.526
10177TIP3   OH230471   4.766   4.374   6.638
10177TIP3    H130472   4.715   4.451   6.613
10177TIP3    H230473   4.743   4.308   6.573
10178TIP3   OH230474   3.154   1.064   6.666
10178TIP3    H130475   3.144   0.981   6.713
10178TIP3    H230476   3.199   1.121   6.729
10179TIP3   OH230477   2.554   7.132   2.855
10179TIP3    H130478   2.492   7.204   2.870
10179TIP3    H230479   2.521   7.061   2.909
10180TIP3   OH230480   0.773   4.483   3.711
10180TIP3    H130481   0.857   4.517   3.681
10180TIP3    H230482   0.731   4.450   3.631
10181TIP3   OH230483   7.198   3.270   6.648
10181TIP3    H130484   7.191   3.216   6.727
10181TIP3    H230485   7.200   3.208   6.576
10182TIP3   OH230486   5.213   5.733   0.677
10182TIP3    H130487   5.295   5.694   0.648
10182TIP3    H230488   5.228   5.755   0.769
10183TIP3   OH230489   6.790   1.102   3.478
10183TIP3    H130490   6.789   1.171   3.544
10183TIP3    H230491   6.715   1.122   3.421
10184TIP3   OH230492   7.554   6.905   0.498
10184TIP3    H130493   7.476   6.959   0.505
10184TIP3    H230494   7.572   6.875   0.587
10185TIP3   OH230495   2.384   7.004   1.265
10185TIP3    H130496   2.465   7.008   1.315
10185TIP3    H230497   2.346   7.091   1.275
10186TIP3   OH230498   2.124   0.020   4.218
10186TIP3    H130499   2.034   0.014   4.184
10186TIP3    H230500   2.143  -0.069   4.248
10187TIP3   OH230501   7.066   3.643   2.252
10187TIP3    H130502   7.052   3.657   2.345
10187TIP3    H230503   6.979   3.655   2.213
10188TIP3   OH230504   5.525   2.575   3.017
10188TIP3    H130505   5.494   2.659   2.983
10188TIP3    H230506   5.615   2.593   3.045
10189TIP3   OH230507   2.240   7.194   2.611
10189TIP3    H130508   2.199   7.112   2.582
10189TIP3    H230509   2.180   7.262   2.580
10190TIP3   OH230510   3.350   5.776   5.382
10190TIP3    H130511   3.372   5.689   5.347
10190TIP3    H230512   3.295   5.759   5.458
10191TIP3   OH230513   5.869   6.473   1.566
10191TIP3    H130514   5.817   6.494   1.644
10191TIP3    H230515   5.844   6.383   1.545
10192TIP3   OH230516   4.599   3.062   3.561
10192TIP3    H130517   4.660   3.076   3.633
10192TIP3    H230518   4.565   3.150   3.541
10193TIP3   OH230519   4.906   7.439   4.401
10193TIP3    H130520   4.869   7.527   4.408
10193TIP3    H230521   4.970   7.446   4.330
10194TIP3   OH230522   4.331   5.623   5.604
10194TIP3    H130523   4.362   5.713   5.608
10194TIP3    H230524   4.284   5.609   5.686
10195TIP3   OH230525   8.415   4.725   1.071
10195TIP3    H130526   8.321   4.710   1.062
10195TIP3    H230527   8.421   4.817   1.097
10196TIP3   OH230528   3.668   1.790   0.526
10196TIP3    H130529   3.661   1.745   0.442
10196TIP3    H230530   3.608   1.742   0.584
10197TIP3   OH230531   6.942   3.308   3.888
10197TIP3    H130532   6.893   3.345   3.815
10197TIP3    H230533   6.980   3.227   3.854
10198TIP3   OH230534   1.559   2.394   1.869
10198TIP3    H130535   1.464   2.395   1.885
10198TIP3    H230536   1.567   2.405   1.775
10199TIP3   OH230537   2.172   7.894   1.316
10199TIP3    H130538   2.173   7.971   1.373
10199TIP3    H230539   2.080   7.866   1.315
10200TIP3   OH230540   4.813   1.360   5.060
10200TIP3    H130541   4.745   1.415   5.021
10200TIP3    H230542   4.800   1.368   5.154
10201TIP3   OH230543   3.358   1.989   0.572
10201TIP3    H130544   3.292   2.012   0.508
10201TIP3    H230545   3.376   1.897   0.556
10202TIP3   OH230546   4.203   3.950   2.318
10202TIP3    H130547   4.152   4.027   2.293
10202TIP3    H230548   4.244   3.974   2.401
10203TIP3   OH230549   1.556   6.986   4.466
10203TIP3    H130550   1.531   7.066   4.513
10203TIP3    H230551   1.529   7.003   4.375
10204TIP3   OH230552   4.819   2.144   0.612
10204TIP3    H130553   4.789   2.066   0.658
10204TIP3    H230554   4.818   2.212   0.679
10205TIP3   OH230555   4.154   3.619   6.315
10205TIP3    H130556   4.163   3.568   6.234
10205TIP3    H230557   4.073   3.587   6.354
10206TIP3   OH230558   4.522   5.564   5.849
10206TIP3    H130559   4.427   5.573   5.851
10206TIP3    H230560   4.539   5.515   5.768
10207TIP3   OH230561   6.375   4.721   1.540
10207TIP3    H130562   6.388   4.813   1.518
10207TIP3    H230563   6.281   4.714   1.560
10208TIP3   OH230564   3.680   7.429   5.368
10208TIP3    H130565   3.705   7.518   5.392
10208TIP3    H230566   3.656   7.435   5.275
10209TIP3   OH230567   0.419   2.788   2.915
10209TIP3    H130568   0.425   2.711   2.859
10209TIP3    H230569   0.482   2.773   2.984
10210TIP3   OH230570   0.928   1.799   6.381
10210TIP3    H130571   0.865   1.783   6.452
10210TIP3    H230572   0.909   1.887   6.351
10211TIP3   OH230573   7.145   6.447   3.815
10211TIP3    H130574   7.085   6.408   3.751
10211TIP3    H230575   7.111   6.418   3.900
10212TIP3   OH230576   2.514   5.727   2.352
10212TIP3    H130577   2.593   5.729   2.407
10212TIP3    H230578   2.453   5.670   2.400
10213TIP3   OH230579   2.756   4.046   3.023
10213TIP3    H130580   2.823   4.021   2.960
10213TIP3    H230581   2.674   4.039   2.975
10214TIP3   OH230582   4.835   3.209   3.203
10214TIP3    H130583   4.885   3.131   3.225
10214TIP3    H230584   4.854   3.270   3.274
10215TIP3   OH230585   5.044   3.183   2.072
10215TIP3    H130586   5.015   3.161   2.161
10215TIP3    H230587   5.137   3.162   2.072
10216TIP3   OH230588   3.435   5.106   4.446
10216TIP3    H130589   3.455   5.134   4.357
10216TIP3    H230590   3.342   5.081   4.443
10217TIP3   OH230591   1.882   0.777   5.872
10217TIP3    H130592   1.952   0.821   5.824
10217TIP3    H230593   1.851   0.842   5.935
10218TIP3   OH230594   6.930   5.727   3.078
10218TIP3    H130595   6.939   5.798   3.141
10218TIP3    H230596   6.839   5.734   3.047
10219TIP3   OH230597   6.714   0.787   5.807
10219TIP3    H130598   6.764   0.717   5.849
10219TIP3    H230599   6.729   0.864   5.862
10220TIP3   OH230600   7.331   2.766   5.115
10220TIP3    H130601   7.238   2.758   5.096
10220TIP3    H230602   7.346   2.860   5.125
10221TIP3   OH230603   5.500   0.627   2.859
10221TIP3    H130604   5.458   0.547   2.891
10221TIP3    H230605   5.545   0.663   2.935
10222TIP3   OH230606  -0.011   2.349   0.482
10222TIP3    H130607  -0.035   2.271   0.432
10222TIP3    H230608   0.084   2.341   0.493
10223TIP3   OH230609   5.536   2.014   1.224
10223TIP3    H130610   5.472   2.034   1.292
10223TIP3    H230611   5.562   2.100   1.190
10224TIP3   OH230612   4.985   7.776   4.176
10224TIP3    H130613   5.001   7.842   4.109
10224TIP3    H230614   5.065   7.723   4.177
10225TIP3   OH230615   3.054   2.945   3.010
10225TIP3    H130616   3.139   2.909   2.989
10225TIP3    H230617   3.051   2.947   3.106
10226TIP3   OH230618   5.770   4.123   0.639
10226TIP3    H130619   5.675   4.112   0.638
10226TIP3    H230620   5.789   4.160   0.725
10227TIP3   OH230621   0.405   1.565   5.149
10227TIP3    H130622   0.452   1.595   5.227
10227TIP3    H230623   0.372   1.646   5.109
10228TIP3   OH230624   4.501   7.288   2.890
10228TIP3    H130625   4.549   7.359   2.847
10228TIP3    H230626   4.458   7.329   2.964
10229TIP3   OH230627   0.355   0.076   6.403
10229TIP3    H130628   0.352   0.070   6.498
10229TIP3    H230629   0.368  -0.014   6.373
10230TIP3   OH230630   7.546   5.165   4.153
10230TIP3    H130631   7.602   5.109   4.206
10230TIP3    H230632   7.457   5.134   4.170
10231TIP3   OH230633   5.391   7.792   0.965
10231TIP3    H130634   5.437   7.865   0.923
10231TIP3    H230635   5.369   7.733   0.894
10232TIP3   OH230636   0.181   7.466   2.461
10232TIP3    H130637   0.113   7.441   2.399
10232TIP3    H230638   0.179   7.398   2.528
10233TIP3   OH230639   0.295   1.757   5.791
10233TIP3    H130640   0.201   1.776   5.793
10233TIP3    H230641   0.306   1.695   5.718
10234TIP3   OH230642   5.584   6.997   3.465
10234TIP3    H130643   5.658   7.013   3.405
10234TIP3    H230644   5.531   6.931   3.420
10235TIP3   OH230645   7.917   4.419   5.986
10235TIP3    H130646   7.979   4.346   5.986
10235TIP3    H230647   7.939   4.469   6.065
10236TIP3   OH230648   6.144   5.744   0.604
10236TIP3    H130649   6.111   5.810   0.666
10236TIP3    H230650   6.205   5.692   0.655
10237TIP3   OH230651   1.750   1.883  -0.032
10237TIP3    H130652   1.798   1.920   0.042
10237TIP3    H230653   1.808   1.816  -0.067
10238TIP3   OH230654   5.875   7.570   3.907
10238TIP3    H130655   5.875   7.603   3.817
10238TIP3    H230656   5.941   7.500   3.907
10239TIP3   OH230657   5.258   0.270   3.347
10239TIP3    H130658   5.260   0.258   3.442
10239TIP3    H230659   5.223   0.187   3.314
10240TIP3   OH230660   6.817   2.291   6.370
10240TIP3    H130661   6.850   2.206   6.343
10240TIP3    H230662   6.749   2.271   6.435
10241TIP3   OH230663   5.137   7.226   6.176
10241TIP3    H130664   5.094   7.217   6.261
10241TIP3    H230665   5.194   7.149   6.170
10242TIP3   OH230666   1.132   4.915   1.517
10242TIP3    H130667   1.070   4.893   1.587
10242TIP3    H230668   1.131   4.839   1.459
10243TIP3   OH230669   6.122   5.160   4.620
10243TIP3    H130670   6.177   5.228   4.580
10243TIP3    H230671   6.097   5.104   4.547
10244TIP3   OH230672   0.200   6.985   2.702
10244TIP3    H130673   0.252   6.997   2.781
10244TIP3    H230674   0.243   6.914   2.655
10245TIP3   OH230675   5.784   7.422   5.249
10245TIP3    H130676   5.803   7.503   5.297
10245TIP3    H230677   5.810   7.441   5.159
10246TIP3   OH230678   2.257   2.463   5.155
10246TIP3    H130679   2.225   2.436   5.241
10246TIP3    H230680   2.336   2.412   5.141
10247TIP3   OH230681   6.442   1.193   2.690
10247TIP3    H130682   6.515   1.253   2.673
10247TIP3    H230683   6.374   1.248   2.729
10248TIP3   OH230684   4.969   7.562   3.143
10248TIP3    H130685   4.923   7.479   3.156
10248TIP3    H230686   4.903   7.620   3.106
10249TIP3   OH230687   7.969   5.693   1.942
10249TIP3    H130688   7.967   5.784   1.910
10249TIP3    H230689   7.905   5.647   1.887
10250TIP3   OH230690   4.065   5.913   6.817
10250TIP3    H130691   4.058   5.967   6.739
10250TIP3    H230692   4.129   5.845   6.794
10251TIP3   OH230693   5.055   3.911   1.026
10251TIP3    H130694   5.055   4.006   1.018
10251TIP3    H230695   5.109   3.894   1.104
10252TIP3   OH230696   5.532   1.603   1.770
10252TIP3    H130697   5.537   1.521   1.818
10252TIP3    H230698   5.438   1.617   1.756
10253TIP3   OH230699   6.301   0.126   0.169
10253TIP3    H130700   6.393   0.149   0.178
10253TIP3    H230701   6.272   0.106   0.258
10254TIP3   OH230702   3.521   7.852   2.572
10254TIP3    H130703   3.459   7.881   2.638
10254TIP3    H230704   3.533   7.928   2.515
10255TIP3   OH230705   5.560   6.847   5.226
10255TIP3    H130706   5.528   6.883   5.143
10255TIP3    H230707   5.527   6.757   5.227
10256TIP3   OH230708   2.075   7.887   1.804
10256TIP3    H130709   1.997   7.836   1.780
10256TIP3    H230710   2.104   7.849   1.887
10257TIP3   OH230711   2.256   6.543   2.716
10257TIP3    H130712   2.234   6.469   2.772
10257TIP3    H230713   2.344   6.525   2.684
10258TIP3   OH230714   4.863   1.696   1.918
10258TIP3    H130715   4.903   1.781   1.939
10258TIP3    H230716   4.910   1.633   1.972
10259TIP3   OH230717   1.105   7.788   4.153
10259TIP3    H130718   1.161   7.864   4.139
10259TIP3    H230719   1.166   7.716   4.170
10260TIP3   OH230720   2.515   6.314   4.022
10260TIP3    H130721   2.424   6.286   4.032
10260TIP3    H230722   2.524   6.339   3.931
10261TIP3   OH230723   0.271   5.079   1.222
10261TIP3    H130724   0.198   5.121   1.268
10261TIP3    H230725   0.318   5.152   1.181
10262TIP3   OH230726   8.024  -0.007   0.531
10262TIP3    H130727   8.043   0.080   0.497
10262TIP3    H230728   7.962  -0.044   0.468
10263TIP3   OH230729   1.159   4.134   3.410
10263TIP3    H130730   1.142   4.162   3.500
10263TIP3    H230731   1.253   4.116   3.408
10264TIP3   OH230732   6.230   3.387   4.190
10264TIP3    H130733   6.229   3.296   4.219
10264TIP3    H230734   6.159   3.428   4.239
10265TIP3   OH230735   5.661   6.931   5.677
10265TIP3    H130736   5.701   6.885   5.604
10265TIP3    H230737   5.646   7.020   5.645
10266TIP3   OH230738   8.172   2.658   5.300
10266TIP3    H130739   8.167   2.629   5.391
10266TIP3    H230740   8.247   2.611   5.264
10267TIP3   OH230741   7.426   0.033   6.463
10267TIP3    H130742   7.343  -0.013   6.460
10267TIP3    H230743   7.427   0.075   6.549
10268TIP3   OH230744   5.259   1.962   1.891
10268TIP3    H130745   5.265   2.044   1.941
10268TIP3    H230746   5.173   1.927   1.913
10269TIP3   OH230747   0.928   6.693   4.223
10269TIP3    H130748   0.849   6.651   4.258
10269TIP3    H230749   0.951   6.640   4.147
10270TIP3   OH230750   2.606   1.972   4.019
10270TIP3    H130751   2.617   2.049   4.075
10270TIP3    H230752   2.512   1.966   4.003
10271TIP3   OH230753   1.299   4.796   5.560
10271TIP3    H130754   1.372   4.735   5.574
10271TIP3    H230755   1.224   4.739   5.544
10272TIP3   OH230756   7.615   1.781   6.597
10272TIP3    H130757   7.578   1.821   6.518
10272TIP3    H230758   7.674   1.713   6.564
10273TIP3   OH230759   2.491   5.691   3.708
10273TIP3    H130760   2.423   5.730   3.654
10273TIP3    H230761   2.531   5.625   3.652
10274TIP3   OH230762   5.472   1.455   6.480
10274TIP3    H130763   5.515   1.540   6.482
10274TIP3    H230764   5.386   1.471   6.519
10275TIP3   OH230765   2.142   1.575   0.838
10275TIP3    H130766   2.170   1.534   0.757
10275TIP3    H230767   2.049   1.556   0.843
10276TIP3   OH230768   6.571   4.471   2.197
10276TIP3    H130769   6.603   4.477   2.287
10276TIP3    H230770   6.476   4.473   2.205
10277TIP3   OH230771   2.702   3.784   2.147
10277TIP3    H130772   2.768   3.717   2.161
10277TIP3    H230773   2.713   3.809   2.055
10278TIP3   OH230774   0.386   5.114   0.883
10278TIP3    H130775   0.443   5.053   0.929
10278TIP3    H230776   0.400   5.198   0.927
10279TIP3   OH230777   0.559   0.916   2.662
10279TIP3    H130778   0.636   0.871   2.626
10279TIP3    H230779   0.571   0.911   2.757
10280TIP3   OH230780   4.925   5.286   2.037
10280TIP3    H130781   4.842   5.293   2.085
10280TIP3    H230782   4.901   5.307   1.946
10281TIP3   OH230783   0.452   1.373   6.583
10281TIP3    H130784   0.380   1.421   6.625
10281TIP3    H230785   0.507   1.441   6.544
10282TIP3   OH230786   0.789   0.469   0.335
10282TIP3    H130787   0.744   0.523   0.401
10282TIP3    H230788   0.719   0.418   0.295
10283TIP3   OH230789   2.475   2.730   1.471
10283TIP3    H130790   2.444   2.654   1.421
10283TIP3    H230791   2.457   2.706   1.562
10284TIP3   OH230792   8.324   7.387   1.107
10284TIP3    H130793   8.315   7.338   1.026
10284TIP3    H230794   8.234   7.406   1.134
10285TIP3   OH230795   0.136   7.028   3.873
10285TIP3    H130796   0.121   7.022   3.967
10285TIP3    H230797   0.070   7.090   3.842
10286TIP3   OH230798   2.608   7.520   0.208
10286TIP3    H130799   2.649   7.513   0.294
10286TIP3    H230800   2.638   7.604   0.173
10287TIP3   OH230801   8.341   5.350   5.777
10287TIP3    H130802   8.314   5.411   5.846
10287TIP3    H230803   8.436   5.353   5.778
10288TIP3   OH230804   3.972   3.818   5.702
10288TIP3    H130805   3.966   3.723   5.716
10288TIP3    H230806   4.060   3.832   5.669
10289TIP3   OH230807   8.189   2.871   3.294
10289TIP3    H130808   8.174   2.947   3.350
10289TIP3    H230809   8.102   2.833   3.281
10290TIP3   OH230810   3.563   4.876   2.736
10290TIP3    H130811   3.641   4.831   2.767
10290TIP3    H230812   3.542   4.938   2.806
10291TIP3   OH230813   3.364   4.372   5.767
10291TIP3    H130814   3.447   4.345   5.808
10291TIP3    H230815   3.389   4.396   5.677
10292TIP3   OH230816   7.999   0.935   3.686
10292TIP3    H130817   8.015   0.870   3.618
10292TIP3    H230818   7.958   0.885   3.757
10293TIP3   OH230819   4.714   2.601   3.463
10293TIP3    H130820   4.784   2.637   3.409
10293TIP3    H230821   4.652   2.564   3.401
10294TIP3   OH230822   2.126   3.637   2.492
10294TIP3    H130823   2.179   3.658   2.415
10294TIP3    H230824   2.140   3.710   2.552
10295TIP3   OH230825   5.572   3.941   1.247
10295TIP3    H130826   5.562   3.846   1.249
10295TIP3    H230827   5.646   3.957   1.189
10296TIP3   OH230828   3.029   1.814   6.400
10296TIP3    H130829   3.037   1.720   6.388
10296TIP3    H230830   2.950   1.826   6.453
10297TIP3   OH230831   4.609   2.014   3.102
10297TIP3    H130832   4.514   2.030   3.103
10297TIP3    H230833   4.636   2.038   3.014
10298TIP3   OH230834   7.316   0.555   0.915
10298TIP3    H130835   7.263   0.488   0.873
10298TIP3    H230836   7.294   0.636   0.869
10299TIP3   OH230837   5.213   0.936   3.434
10299TIP3    H130838   5.154   0.931   3.509
10299TIP3    H230839   5.229   0.845   3.410
10300TIP3   OH230840   1.846   6.649   1.694
10300TIP3    H130841   1.778   6.598   1.738
10300TIP3    H230842   1.917   6.586   1.680
10301TIP3   OH230843   5.441   7.113   2.563
10301TIP3    H130844   5.379   7.125   2.491
10301TIP3    H230845   5.506   7.051   2.528
10302TIP3   OH230846   6.890   1.538   1.650
10302TIP3    H130847   6.855   1.468   1.705
10302TIP3    H230848   6.814   1.577   1.608
10303TIP3   OH230849   5.454   7.742   3.105
10303TIP3    H130850   5.379   7.682   3.101
10303TIP3    H230851   5.525   7.694   3.062
10304TIP3   OH230852   3.003   2.637   4.036
10304TIP3    H130853   2.975   2.641   3.944
10304TIP3    H230854   3.079   2.580   4.035
10305TIP3   OH230855   8.231   5.778   2.051
10305TIP3    H130856   8.148   5.744   2.017
10305TIP3    H230857   8.217   5.872   2.056
10306TIP3   OH230858   2.109   5.067   1.497
10306TIP3    H130859   2.057   5.047   1.419
10306TIP3    H230860   2.130   5.160   1.489
10307TIP3   OH230861   8.381   7.657   3.822
10307TIP3    H130862   8.390   7.676   3.915
10307TIP3    H230863   8.306   7.710   3.794
10308TIP3   OH230864   1.794   3.355   4.285
10308TIP3    H130865   1.771   3.299   4.359
10308TIP3    H230866   1.889   3.359   4.286
10309TIP3   OH230867   4.912   1.205   6.698
10309TIP3    H130868   4.862   1.185   6.618
10309TIP3    H230869   4.912   1.300   6.703
10310TIP3   OH230870   8.039   2.532   2.105
10310TIP3    H130871   8.070   2.505   2.018
10310TIP3    H230872   8.112   2.513   2.163
10311TIP3   OH230873   4.068   2.484   0.236
10311TIP3    H130874   4.113   2.541   0.174
10311TIP3    H230875   4.137   2.436   0.280
10312TIP3   OH230876   3.517   5.348   1.553
10312TIP3    H130877   3.551   5.433   1.525
10312TIP3    H230878   3.532   5.291   1.478
10313TIP3   OH230879   6.936   0.011   4.670
10313TIP3    H130880   7.017   0.037   4.626
10313TIP3    H230881   6.868   0.022   4.603
10314TIP3   OH230882   6.479   0.780   4.242
10314TIP3    H130883   6.439   0.707   4.196
10314TIP3    H230884   6.521   0.832   4.173
10315TIP3   OH230885   0.408   0.340   3.361
10315TIP3    H130886   0.346   0.301   3.299
10315TIP3    H230887   0.362   0.339   3.445
10316TIP3   OH230888   1.095   2.494   6.509
10316TIP3    H130889   1.178   2.527   6.544
10316TIP3    H230890   1.063   2.433   6.576
10317TIP3   OH230891   4.131   5.342   5.888
10317TIP3    H130892   4.185   5.316   5.962
10317TIP3    H230893   4.098   5.259   5.852
10318TIP3   OH230894   7.475   3.055   3.418
10318TIP3    H130895   7.455   3.149   3.416
10318TIP3    H230896   7.432   3.020   3.340
10319TIP3   OH230897   6.534   7.061   4.416
10319TIP3    H130898   6.464   7.002   4.446
10319TIP3    H230899   6.612   7.032   4.463
10320TIP3   OH230900   3.297   1.056   4.200
10320TIP3    H130901   3.316   1.076   4.291
10320TIP3    H230902   3.375   1.011   4.168
10321TIP3   OH230903   1.504   0.278   0.269
10321TIP3    H130904   1.595   0.303   0.286
10321TIP3    H230905   1.470   0.347   0.213
10322TIP3   OH230906   6.730   6.393   5.890
10322TIP3    H130907   6.679   6.326   5.937
10322TIP3    H230908   6.717   6.372   5.798
10323TIP3   OH230909   6.838   0.675   4.237
10323TIP3    H130910   6.918   0.680   4.186
10323TIP3    H230911   6.791   0.756   4.218
10324TIP3   OH230912   3.267   5.669   5.632
10324TIP3    H130913   3.293   5.577   5.639
10324TIP3    H230914   3.173   5.669   5.650
10325TIP3   OH230915   0.925   2.262   5.257
10325TIP3    H130916   0.879   2.275   5.340
10325TIP3    H230917   0.859   2.282   5.190
10326TIP3   OH230918   5.474   7.779   4.749
10326TIP3    H130919   5.460   7.685   4.736
10326TIP3    H230920   5.395   7.808   4.796
10327TIP3   OH230921   0.140   5.909   2.154
10327TIP3    H130922   0.068   5.875   2.100
10327TIP3    H230923   0.098   5.973   2.211
10328TIP3   OH230924   1.472   5.678   0.951
10328TIP3    H130925   1.510   5.614   0.891
10328TIP3    H230926   1.382   5.648   0.964
10329TIP3   OH230927   5.649   3.119   1.016
10329TIP3    H130928   5.666   3.202   0.971
10329TIP3    H230929   5.628   3.144   1.106
10330TIP3   OH230930   7.353   0.400   2.915
10330TIP3    H130931   7.355   0.461   2.841
10330TIP3    H230932   7.276   0.346   2.898
10331TIP3   OH230933   1.292   7.848   0.599
10331TIP3    H130934   1.354   7.863   0.670
10331TIP3    H230935   1.206   7.867   0.637
10332TIP3   OH230936   3.970   7.358   0.673
10332TIP3    H130937   3.974   7.304   0.751
10332TIP3    H230938   3.961   7.447   0.706
10333TIP3   OH230939   0.892   3.499   1.925
10333TIP3    H130940   0.976   3.528   1.959
10333TIP3    H230941   0.911   3.416   1.881
10334TIP3   OH230942   7.252   3.928   1.634
10334TIP3    H130943   7.251   4.017   1.668
10334TIP3    H230944   7.319   3.883   1.686
10335TIP3   OH230945   6.434   3.763   5.142
10335TIP3    H130946   6.421   3.848   5.100
10335TIP3    H230947   6.355   3.750   5.195
10336TIP3   OH230948   5.596   7.330   4.816
10336TIP3    H130949   5.662   7.302   4.753
10336TIP3    H230950   5.606   7.270   4.890
10337TIP3   OH230951   4.148   5.337   4.598
10337TIP3    H130952   4.213   5.401   4.571
10337TIP3    H230953   4.151   5.270   4.529
10338TIP3   OH230954   1.346   5.658   2.203
10338TIP3    H130955   1.425   5.646   2.256
10338TIP3    H230956   1.371   5.627   2.116
10339TIP3   OH230957   7.015   3.802   5.321
10339TIP3    H130958   7.092   3.795   5.378
10339TIP3    H230959   7.019   3.724   5.266
10340TIP3   OH230960   1.323   5.050   2.333
10340TIP3    H130961   1.373   5.041   2.414
10340TIP3    H230962   1.359   5.129   2.292
10341TIP3   OH230963   5.654   7.215   5.070
10341TIP3    H130964   5.713   7.221   5.146
10341TIP3    H230965   5.571   7.253   5.102
10342TIP3   OH230966   4.979   4.401   4.867
10342TIP3    H130967   5.019   4.447   4.793
10342TIP3    H230968   5.052   4.354   4.908
10343TIP3   OH230969   5.966   5.569   3.069
10343TIP3    H130970   6.056   5.585   3.043
10343TIP3    H230971   5.916   5.641   3.029
10344TIP3   OH230972   1.159   5.331   1.638
10344TIP3    H130973   1.139   5.402   1.576
10344TIP3    H230974   1.080   5.322   1.691
10345TIP3   OH230975   5.617   2.396   4.273
10345TIP3    H130976   5.529   2.373   4.303
10345TIP3    H230977   5.665   2.417   4.353
10346TIP3   OH230978  -0.017   0.212   3.455
10346TIP3    H130979   0.004   0.273   3.527
10346TIP3    H230980   0.015   0.257   3.377
10347TIP3   OH230981   7.231   4.087   3.610
10347TIP3    H130982   7.209   3.996   3.633
10347TIP3    H230983   7.249   4.084   3.516
10348TIP3   OH230984   0.370   2.161   1.499
10348TIP3    H130985   0.419   2.234   1.536
10348TIP3    H230986   0.400   2.155   1.409
10349TIP3   OH230987   7.262   2.955   2.634
10349TIP3    H130988   7.187   3.012   2.613
10349TIP3    H230989   7.250   2.878   2.579
10350TIP3   OH230990   1.637   5.597   4.281
10350TIP3    H130991   1.643   5.569   4.373
10350TIP3    H230992   1.631   5.692   4.285
10351TIP3   OH230993   1.753   5.237   2.288
10351TIP3    H130994   1.802   5.155   2.277
10351TIP3    H230995   1.756   5.255   2.382
10352TIP3   OH230996   8.197   7.542   4.448
10352TIP3    H130997   8.221   7.504   4.363
10352TIP3    H230998   8.102   7.537   4.451
10353TIP3   OH230999   6.824   0.602   5.974
10353TIP3    H131000   6.736   0.597   6.013
10353TIP3    H231001   6.879   0.550   6.031
10354TIP3   OH231002   1.014   3.552   5.195
10354TIP3    H131003   0.947   3.491   5.164
10354TIP3    H231004   1.046   3.514   5.276
10355TIP3   OH231005   5.244   0.953   0.763
10355TIP3    H131006   5.291   0.992   0.837
10355TIP3    H231007   5.156   0.937   0.798
10356TIP3   OH231008   3.981   7.095   5.920
10356TIP3    H131009   3.915   7.138   5.866
10356TIP3    H231010   3.934   7.023   5.962
10357TIP3   OH231011   1.413   4.904   0.765
10357TIP3    H131012   1.389   4.811   0.763
10357TIP3    H231013   1.379   4.939   0.683
10358TIP3   OH231014   2.890   0.933   6.841
10358TIP3    H131015   2.908   1.015   6.887
10358TIP3    H231016   2.857   0.961   6.755
10359TIP3   OH231017   0.366   0.150   0.304
10359TIP3    H131018   0.333   0.238   0.322
10359TIP3    H231019   0.461   0.161   0.294
10360TIP3   OH231020   0.939   7.482   6.863
10360TIP3    H131021   0.941   7.567   6.819
10360TIP3    H231022   0.907   7.421   6.797
10361TIP3   OH231023   4.869   6.240   0.988
10361TIP3    H131024   4.897   6.331   1.001
10361TIP3    H231025   4.893   6.196   1.070
10362TIP3   OH231026   4.624   5.832   5.431
10362TIP3    H131027   4.670   5.827   5.347
10362TIP3    H231028   4.558   5.900   5.418
10363TIP3   OH231029   1.768   7.491   4.767
10363TIP3    H131030   1.733   7.578   4.786
10363TIP3    H231031   1.813   7.501   4.683
10364TIP3   OH231032   3.408   3.678   2.079
10364TIP3    H131033   3.316   3.669   2.104
10364TIP3    H231034   3.423   3.773   2.076
10365TIP3   OH231035   7.986   1.264   2.156
10365TIP3    H131036   8.060   1.319   2.180
10365TIP3    H231037   8.013   1.220   2.076
10366TIP3   OH231038   7.523   2.860   2.708
10366TIP3    H131039   7.532   2.871   2.803
10366TIP3    H231040   7.456   2.923   2.683
10367TIP3   OH231041   5.443   6.804   6.406
10367TIP3    H131042   5.384   6.835   6.476
10367TIP3    H231043   5.523   6.857   6.418
10368TIP3   OH231044   7.663   1.583   0.042
10368TIP3    H131045   7.742   1.634   0.061
10368TIP3    H231046   7.598   1.649   0.018
10369TIP3   OH231047   0.075   5.776   0.211
10369TIP3    H131048   0.143   5.750   0.149
10369TIP3    H231049   0.035   5.693   0.239
10370TIP3   OH231050   1.170   6.001   4.426
10370TIP3    H131051   1.265   6.012   4.420
10370TIP3    H231052   1.139   6.017   4.337
10371TIP3   OH231053   6.717   6.348   2.200
10371TIP3    H131054   6.631   6.309   2.185
10371TIP3    H231055   6.754   6.297   2.272
10372TIP3   OH231056   3.637   1.393   2.119
10372TIP3    H131057   3.570   1.394   2.188
10372TIP3    H231058   3.590   1.420   2.040
10373TIP3   OH231059   1.097   3.350   6.602
10373TIP3    H131060   1.158   3.277   6.613
10373TIP3    H231061   1.033   3.339   6.672
10374TIP3   OH231062   0.790   3.992   4.862
10374TIP3    H131063   0.832   4.078   4.855
10374TIP3    H231064   0.836   3.948   4.933
10375TIP3   OH231065   1.388   1.469   4.565
10375TIP3    H131066   1.349   1.457   4.478
10375TIP3    H231067   1.330   1.420   4.624
10376TIP3   OH231068   4.501   0.049   3.736
10376TIP3    H131069   4.443   0.115   3.774
10376TIP3    H231070   4.467  -0.034   3.767
10377TIP3   OH231071   5.815   4.093   6.119
10377TIP3    H131072   5.808   4.061   6.029
10377TIP3    H231073   5.744   4.156   6.128
10378TIP3   OH231074   4.956   1.972   6.616
10378TIP3    H131075   5.032   1.948   6.669
10378TIP3    H231076   4.981   2.053   6.573
10379TIP3   OH231077   2.365   5.561   3.081
10379TIP3    H131078   2.389   5.622   3.012
10379TIP3    H231079   2.270   5.570   3.089
10380TIP3   OH231080   6.595   6.457   5.234
10380TIP3    H131081   6.560   6.469   5.146
10380TIP3    H231082   6.530   6.403   5.279
10381TIP3   OH231083   4.604   1.178   5.687
10381TIP3    H131084   4.545   1.219   5.750
10381TIP3    H231085   4.584   1.085   5.692
10382TIP3   OH231086   3.908   6.447   0.151
10382TIP3    H131087   3.897   6.381   0.082
10382TIP3    H231088   3.829   6.501   0.146
10383TIP3   OH231089   6.414   6.046   0.724
10383TIP3    H131090   6.438   6.138   0.722
10383TIP3    H231091   6.441   6.016   0.811
10384TIP3   OH231092   3.568   3.059   1.502
10384TIP3    H131093   3.579   3.031   1.411
10384TIP3    H231094   3.640   3.019   1.550
10385TIP3   OH231095   4.067   1.147   0.914
10385TIP3    H131096   3.990   1.110   0.871
10385TIP3    H231097   4.059   1.121   1.006
10386TIP3   OH231098   1.667   0.689   1.538
10386TIP3    H131099   1.626   0.745   1.472
10386TIP3    H231100   1.690   0.749   1.609
10387TIP3   OH231101   0.159   1.121   0.788
10387TIP3    H131102   0.076   1.167   0.803
10387TIP3    H231103   0.225   1.190   0.784
10388TIP3   OH231104   6.213   3.748   2.087
10388TIP3    H131105   6.158   3.826   2.082
10388TIP3    H231106   6.291   3.776   2.136
10389TIP3   OH231107   8.269   6.865   3.000
10389TIP3    H131108   8.184   6.908   3.006
10389TIP3    H231109   8.332   6.937   2.994
10390TIP3   OH231110   5.957   2.072   0.771
10390TIP3    H131111   6.050   2.097   0.777
10390TIP3    H231112   5.938   2.032   0.855
10391TIP3   OH231113   3.579   4.105   6.056
10391TIP3    H131114   3.661   4.152   6.074
10391TIP3    H231115   3.604   4.013   6.055
10392TIP3   OH231116   5.779   2.825   5.706
10392TIP3    H131117   5.844   2.814   5.637
10392TIP3    H231118   5.772   2.739   5.746
10393TIP3   OH231119   0.809   2.083   2.699
10393TIP3    H131120   0.756   2.160   2.722
10393TIP3    H231121   0.766   2.010   2.742
10394TIP3   OH231122   0.160   0.825   1.941
10394TIP3    H131123   0.133   0.916   1.925
10394TIP3    H231124   0.254   0.824   1.920
10395TIP3   OH231125   8.118   5.392   1.593
10395TIP3    H131126   8.096   5.485   1.580
10395TIP3    H231127   8.207   5.394   1.629
10396TIP3   OH231128   1.254   1.047   3.418
10396TIP3    H131129   1.230   1.026   3.508
10396TIP3    H231130   1.250   1.143   3.414
10397TIP3   OH231131   2.637   0.504   3.344
10397TIP3    H131132   2.552   0.546   3.355
10397TIP3    H231133   2.643   0.442   3.416
10398TIP3   OH231134   8.109   4.856   3.861
10398TIP3    H131135   8.070   4.805   3.790
10398TIP3    H231136   8.035   4.880   3.916
10399TIP3   OH231137   7.179   0.021   5.063
10399TIP3    H131138   7.190  -0.024   4.979
10399TIP3    H231139   7.085   0.023   5.077
10400TIP3   OH231140   5.968   4.210   3.041
10400TIP3    H131141   5.968   4.263   3.121
10400TIP3    H231142   6.049   4.159   3.046
10401TIP3   OH231143   5.756   3.418   1.894
10401TIP3    H131144   5.831   3.452   1.943
10401TIP3    H231145   5.746   3.327   1.925
10402TIP3   OH231146   4.743   7.887   1.637
10402TIP3    H131147   4.648   7.897   1.634
10402TIP3    H231148   4.763   7.871   1.729
10403TIP3   OH231149   0.923   1.531   4.585
10403TIP3    H131150   0.907   1.597   4.518
10403TIP3    H231151   1.007   1.492   4.562
10404TIP3   OH231152   7.537   0.438   0.165
10404TIP3    H131153   7.609   0.493   0.136
10404TIP3    H231154   7.547   0.434   0.260
10405TIP3   OH231155   1.718   4.919   1.174
10405TIP3    H131156   1.756   4.931   1.088
10405TIP3    H231157   1.712   4.824   1.185
10406TIP3   OH231158   0.251   6.692   2.735
10406TIP3    H131159   0.192   6.616   2.739
10406TIP3    H231160   0.326   6.662   2.683
10407TIP3   OH231161   2.225   1.856   2.545
10407TIP3    H131162   2.142   1.816   2.518
10407TIP3    H231163   2.267   1.879   2.462
10408TIP3   OH231164   5.541   4.063   4.039
10408TIP3    H131165   5.575   4.138   4.089
10408TIP3    H231166   5.610   3.998   4.045
10409TIP3   OH231167   2.281   1.466   6.339
10409TIP3    H131168   2.330   1.545   6.362
10409TIP3    H231169   2.210   1.462   6.403
10410TIP3   OH231170   6.615   4.650   1.948
10410TIP3    H131171   6.531   4.660   1.902
10410TIP3    H231172   6.592   4.608   2.031
10411TIP3   OH231173   7.583   1.293   5.585
10411TIP3    H131174   7.630   1.259   5.661
10411TIP3    H231175   7.612   1.239   5.512
10412TIP3   OH231176   5.771   6.522   5.410
10412TIP3    H131177   5.799   6.470   5.485
10412TIP3    H231178   5.841   6.512   5.346
10413TIP3   OH231179   0.219   2.495   1.809
10413TIP3    H131180   0.314   2.500   1.818
10413TIP3    H231181   0.187   2.485   1.899
10414TIP3   OH231182   2.958   1.274   2.952
10414TIP3    H131183   3.051   1.260   2.972
10414TIP3    H231184   2.958   1.329   2.873
10415TIP3   OH231185   6.733   1.539   6.247
10415TIP3    H131186   6.680   1.485   6.188
10415TIP3    H231187   6.782   1.475   6.299
10416TIP3   OH231188   7.213   1.414   6.061
10416TIP3    H131189   7.271   1.351   6.019
10416TIP3    H231190   7.267   1.492   6.074
10417TIP3   OH231191   7.420   7.508   0.605
10417TIP3    H131192   7.392   7.516   0.514
10417TIP3    H231193   7.483   7.579   0.617
10418TIP3   OH231194   0.309   6.011   6.347
10418TIP3    H131195   0.238   6.037   6.406
10418TIP3    H231196   0.265   5.995   6.263
10419TIP3   OH231197   8.150   4.887   1.283
10419TIP3    H131198   8.226   4.831   1.299
10419TIP3    H231199   8.130   4.926   1.368
10420TIP3   OH231200   1.863   0.890   4.643
10420TIP3    H131201   1.909   0.807   4.653
10420TIP3    H231202   1.906   0.950   4.703
10421TIP3   OH231203   0.933   4.121   0.807
10421TIP3    H131204   0.926   4.027   0.790
10421TIP3    H231205   1.005   4.150   0.751
10422TIP3   OH231206   3.736   7.784   2.930
10422TIP3    H131207   3.719   7.840   2.853
10422TIP3    H231208   3.692   7.829   3.002
10423TIP3   OH231209   7.539   0.462   5.404
10423TIP3    H131210   7.456   0.418   5.424
10423TIP3    H231211   7.536   0.543   5.456
10424TIP3   OH231212   0.113   6.274   0.616
10424TIP3    H131213   0.112   6.248   0.523
10424TIP3    H231214   0.129   6.192   0.663
10425TIP3   OH231215   4.183   2.112   4.632
10425TIP3    H131216   4.207   2.056   4.558
10425TIP3    H231217   4.118   2.173   4.596
10426TIP3   OH231218   5.282   5.770   4.768
10426TIP3    H131219   5.375   5.747   4.774
10426TIP3    H231220   5.281   5.866   4.774
10427TIP3   OH231221   3.155   0.327   0.427
10427TIP3    H131222   3.226   0.325   0.491
10427TIP3    H231223   3.083   0.371   0.473
10428TIP3   OH231224   8.049   2.387   1.613
10428TIP3    H131225   8.089   2.300   1.624
10428TIP3    H231226   8.113   2.436   1.561
10429TIP3   OH231227   5.058   0.599   5.156
10429TIP3    H131228   5.066   0.531   5.089
10429TIP3    H231229   5.111   0.567   5.229
10430TIP3   OH231230   0.434   3.092   5.099
10430TIP3    H131231   0.477   3.053   5.023
10430TIP3    H231232   0.382   3.164   5.064
10431TIP3   OH231233   5.418   0.728   5.394
10431TIP3    H131234   5.494   0.702   5.446
10431TIP3    H231235   5.381   0.645   5.364
10432TIP3   OH231236   6.571   2.522   0.692
10432TIP3    H131237   6.632   2.584   0.732
10432TIP3    H231238   6.537   2.471   0.766
10433TIP3   OH231239   5.729   6.254   0.488
10433TIP3    H131240   5.763   6.255   0.399
10433TIP3    H231241   5.791   6.199   0.537
10434TIP3   OH231242   4.533   0.913   2.496
10434TIP3    H131243   4.576   0.998   2.484
10434TIP3    H231244   4.487   0.921   2.579
10435TIP3   OH231245   3.768   2.628   4.571
10435TIP3    H131246   3.851   2.617   4.618
10435TIP3    H231247   3.721   2.696   4.620
10436TIP3   OH231248   1.263   6.307   0.299
10436TIP3    H131249   1.304   6.233   0.254
10436TIP3    H231250   1.331   6.374   0.303
10437TIP3   OH231251   8.053   5.288   2.022
10437TIP3    H131252   8.075   5.365   2.075
10437TIP3    H231253   7.982   5.318   1.966
10438TIP3   OH231254   2.171   3.932   5.743
10438TIP3    H131255   2.184   4.026   5.742
10438TIP3    H231256   2.239   3.897   5.685
10439TIP3   OH231257   7.382   5.179   0.522
10439TIP3    H131258   7.301   5.129   0.520
10439TIP3    H231259   7.354   5.269   0.541
10440TIP3   OH231260   4.539   1.903   5.157
10440TIP3    H131261   4.529   1.979   5.099
10440TIP3    H231262   4.529   1.938   5.245
10441TIP3   OH231263   3.594   7.425   3.602
10441TIP3    H131264   3.584   7.418   3.697
10441TIP3    H231265   3.546   7.350   3.567
10442TIP3   OH231266   8.167   1.160   2.849
10442TIP3    H131267   8.165   1.081   2.903
10442TIP3    H231268   8.138   1.130   2.763
10443TIP3   OH231269   2.285   3.674   6.320
10443TIP3    H131270   2.320   3.587   6.300
10443TIP3    H231271   2.230   3.695   6.245
10444TIP3   OH231272   0.006   2.471   6.328
10444TIP3    H131273   0.065   2.540   6.359
10444TIP3    H231274   0.043   2.390   6.363
10445TIP3   OH231275   5.474   4.380   6.480
10445TIP3    H131276   5.468   4.403   6.573
10445TIP3    H231277   5.420   4.445   6.436
10446TIP3   OH231278   3.305   0.797   4.075
10446TIP3    H131279   3.390   0.834   4.049
10446TIP3    H231280   3.246   0.872   4.077
10447TIP3   OH231281   0.566   2.325   6.490
10447TIP3    H131282   0.507   2.310   6.416
10447TIP3    H231283   0.605   2.411   6.473
10448TIP3   OH231284   1.436   5.436   4.946
10448TIP3    H131285   1.517   5.486   4.940
10448TIP3    H231286   1.444   5.387   5.028
10449TIP3   OH231287   1.679   1.811   3.986
10449TIP3    H131288   1.717   1.822   4.073
10449TIP3    H231289   1.665   1.716   3.978
10450TIP3   OH231290   3.371   4.885   0.866
10450TIP3    H131291   3.364   4.905   0.959
10450TIP3    H231292   3.444   4.823   0.860
10451TIP3   OH231293   3.957   2.523   3.244
10451TIP3    H131294   3.988   2.601   3.289
10451TIP3    H231295   3.947   2.457   3.313
10452TIP3   OH231296   0.932   6.437   3.627
10452TIP3    H131297   0.992   6.379   3.580
10452TIP3    H231298   0.877   6.379   3.678
10453TIP3   OH231299   1.015   1.104   4.598
10453TIP3    H131300   0.993   1.058   4.679
10453TIP3    H231301   0.934   1.104   4.547
10454TIP3   OH231302   7.872   4.138   3.046
10454TIP3    H131303   7.961   4.103   3.046
10454TIP3    H231304   7.878   4.218   2.994
10455TIP3   OH231305   5.889   3.738   1.371
10455TIP3    H131306   5.856   3.732   1.281
10455TIP3    H231307   5.967   3.683   1.372
10456TIP3   OH231308   1.162   6.404   4.225
10456TIP3    H131309   1.192   6.317   4.200
10456TIP3    H231310   1.101   6.388   4.297
10457TIP3   OH231311   3.009   6.222   3.784
10457TIP3    H131312   2.917   6.244   3.798
10457TIP3    H231313   3.026   6.148   3.843
10458TIP3   OH231314   2.732   0.513   4.786
10458TIP3    H131315   2.821   0.501   4.818
10458TIP3    H231316   2.688   0.565   4.853
10459TIP3   OH231317   5.319   4.010   3.723
10459TIP3    H131318   5.286   3.961   3.798
10459TIP3    H231319   5.411   3.984   3.715
10460TIP3   OH231320   5.917   2.584   5.825
10460TIP3    H131321   5.886   2.598   5.915
10460TIP3    H231322   5.934   2.490   5.820
10461TIP3   OH231323   8.068   3.558   2.138
10461TIP3    H131324   8.126   3.633   2.145
10461TIP3    H231325   8.017   3.573   2.058
10462TIP3   OH231326   0.651   7.116   3.857
10462TIP3    H131327   0.617   7.165   3.783
10462TIP3    H231328   0.577   7.108   3.918
10463TIP3   OH231329   6.042   0.829   2.540
10463TIP3    H131330   6.000   0.795   2.620
10463TIP3    H231331   6.135   0.814   2.553
10464TIP3   OH231332   6.109   4.711   1.574
10464TIP3    H131333   6.085   4.744   1.488
10464TIP3    H231334   6.056   4.762   1.635
10465TIP3   OH231335   7.475   7.002   6.427
10465TIP3    H131336   7.548   6.999   6.366
10465TIP3    H231337   7.441   6.912   6.429
10466TIP3   OH231338   0.068   0.598   1.260
10466TIP3    H131339   0.123   0.676   1.253
10466TIP3    H231340   0.104   0.537   1.196
10467TIP3   OH231341   5.771   7.254   4.257
10467TIP3    H131342   5.851   7.301   4.280
10467TIP3    H231343   5.709   7.275   4.328
10468TIP3   OH231344   1.530   0.067   0.935
10468TIP3    H131345   1.603   0.033   0.882
10468TIP3    H231346   1.546   0.032   1.022
10469TIP3   OH231347   5.199   1.449   6.843
10469TIP3    H131348   5.189   1.442   6.748
10469TIP3    H231349   5.269   1.387   6.864
10470TIP3   OH231350   3.244   3.008   0.120
10470TIP3    H131351   3.256   2.914   0.127
10470TIP3    H231352   3.331   3.045   0.132
10471TIP3   OH231353   6.080   0.043   5.019
10471TIP3    H131354   6.142   0.109   5.049
10471TIP3    H231355   6.111   0.019   4.931
10472TIP3   OH231356   6.569   5.049   2.710
10472TIP3    H131357   6.597   5.139   2.724
10472TIP3    H231358   6.629   5.015   2.643
10473TIP3   OH231359   6.652   4.335   5.274
10473TIP3    H131360   6.735   4.287   5.269
10473TIP3    H231361   6.637   4.348   5.367
10474TIP3   OH231362   5.144   5.614   0.142
10474TIP3    H131363   5.215   5.677   0.128
10474TIP3    H231364   5.064   5.666   0.132
10475TIP3   OH231365   1.272   4.645   1.703
10475TIP3    H131366   1.298   4.653   1.612
10475TIP3    H231367   1.287   4.732   1.740
10476TIP3   OH231368   0.291   1.014   6.610
10476TIP3    H131369   0.241   0.942   6.572
10476TIP3    H231370   0.226   1.079   6.634
10477TIP3   OH231371   8.393   3.344   1.964
10477TIP3    H131372   8.386   3.336   2.059
10477TIP3    H231373   8.380   3.254   1.932
10478TIP3   OH231374   6.183   2.037   2.504
10478TIP3    H131375   6.094   2.023   2.472
10478TIP3    H231376   6.232   1.960   2.474
10479TIP3   OH231377   2.057   5.990   0.145
10479TIP3    H131378   2.092   6.079   0.156
10479TIP3    H231379   2.039   5.961   0.235
10480TIP3   OH231380   0.905   1.083   0.165
10480TIP3    H131381   0.896   1.024   0.089
10480TIP3    H231382   0.924   1.168   0.127
10481TIP3   OH231383   3.201   6.266   1.176
10481TIP3    H131384   3.211   6.179   1.137
10481TIP3    H231385   3.107   6.273   1.194
10482TIP3   OH231386   7.112   7.579   0.448
10482TIP3    H131387   7.120   7.650   0.512
10482TIP3    H231388   7.201   7.564   0.416
10483TIP3   OH231389   2.758   1.524   5.999
10483TIP3    H131390   2.681   1.468   6.006
10483TIP3    H231391   2.752   1.563   5.913
10484TIP3   OH231392   7.618   4.888   3.245
10484TIP3    H131393   7.572   4.889   3.161
10484TIP3    H231394   7.633   4.795   3.263
10485TIP3   OH231395   3.527   2.130   0.331
10485TIP3    H131396   3.595   2.063   0.342
10485TIP3    H231397   3.521   2.172   0.417
10486TIP3   OH231398   6.609   7.742   1.862
10486TIP3    H131399   6.657   7.660   1.872
10486TIP3    H231400   6.574   7.738   1.774
10487TIP3   OH231401   2.578   1.043   6.717
10487TIP3    H131402   2.610   0.960   6.682
10487TIP3    H231403   2.657   1.096   6.731
10488TIP3   OH231404   2.746   4.565   2.632
10488TIP3    H131405   2.706   4.650   2.617
10488TIP3    H231406   2.673   4.503   2.630
10489TIP3   OH231407   3.851   6.743   5.858
10489TIP3    H131408   3.934   6.752   5.810
10489TIP3    H231409   3.791   6.802   5.812
10490TIP3   OH231410   3.195   1.378   5.993
10490TIP3    H131411   3.120   1.335   5.951
10490TIP3    H231412   3.179   1.367   6.087
10491TIP3   OH231413   0.327   1.499   1.747
10491TIP3    H131414   0.260   1.438   1.779
10491TIP3    H231415   0.339   1.475   1.655
10492TIP3   OH231416   7.538   0.902   4.637
10492TIP3    H131417   7.578   0.823   4.600
10492TIP3    H231418   7.519   0.878   4.728
10493TIP3   OH231419   6.666   2.896   5.398
10493TIP3    H131420   6.748   2.944   5.403
10493TIP3    H231421   6.680   2.818   5.451
10494TIP3   OH231422   6.466   0.584   0.096
10494TIP3    H131423   6.495   0.675   0.087
10494TIP3    H231424   6.435   0.560   0.009
10495TIP3   OH231425   2.127   3.454   5.042
10495TIP3    H131426   2.061   3.421   4.981
10495TIP3    H231427   2.078   3.479   5.120
10496TIP3   OH231428   4.733   4.909   3.912
10496TIP3    H131429   4.678   4.845   3.866
10496TIP3    H231430   4.685   4.991   3.907
10497TIP3   OH231431   3.936   4.391   0.237
10497TIP3    H131432   3.984   4.472   0.254
10497TIP3    H231433   3.885   4.409   0.158
10498TIP3   OH231434   3.937   4.121   5.067
10498TIP3    H131435   3.904   4.182   5.133
10498TIP3    H231436   3.978   4.051   5.117
10499TIP3   OH231437   6.168   4.290   1.234
10499TIP3    H131438   6.177   4.336   1.151
10499TIP3    H231439   6.153   4.359   1.298
10500TIP3   OH231440   3.472   1.070   1.123
10500TIP3    H131441   3.457   1.121   1.043
10500TIP3    H231442   3.425   1.118   1.191
10501TIP3   OH231443   3.868   6.679   6.425
10501TIP3    H131444   3.847   6.772   6.418
10501TIP3    H231445   3.873   6.662   6.519
10502TIP3   OH231446   2.517   5.679   2.877
10502TIP3    H131447   2.512   5.584   2.867
10502TIP3    H231448   2.550   5.711   2.793
10503TIP3   OH231449   2.483   4.551   0.883
10503TIP3    H131450   2.474   4.586   0.972
10503TIP3    H231451   2.576   4.557   0.865
10504TIP3   OH231452   4.957   3.455   5.605
10504TIP3    H131453   5.031   3.512   5.585
10504TIP3    H231454   4.971   3.377   5.553
10505TIP3   OH231455   0.742   6.413   2.608
10505TIP3    H131456   0.672   6.476   2.626
10505TIP3    H231457   0.778   6.440   2.524
10506TIP3   OH231458   7.075   3.206   5.117
10506TIP3    H131459   7.117   3.254   5.188
10506TIP3    H231460   6.981   3.218   5.131
10507TIP3   OH231461   5.689   1.185   3.530
10507TIP3    H131462   5.644   1.244   3.469
10507TIP3    H231463   5.688   1.231   3.614
10508TIP3   OH231464   0.058   4.848   4.525
10508TIP3    H131465   0.116   4.859   4.600
10508TIP3    H231466   0.110   4.801   4.460
10509TIP3   OH231467   0.483   5.020   4.967
10509TIP3    H131468   0.489   5.086   4.898
10509TIP3    H231469   0.452   5.069   5.044
10510TIP3   OH231470   5.377   4.555   3.345
10510TIP3    H131471   5.461   4.570   3.301
10510TIP3    H231472   5.339   4.479   3.300
10511TIP3   OH231473   8.325   0.165   1.234
10511TIP3    H131474   8.416   0.187   1.253
10511TIP3    H231475   8.293   0.123   1.314
10512TIP3   OH231476   6.195   5.082   0.811
10512TIP3    H131477   6.213   4.990   0.791
10512TIP3    H231478   6.171   5.121   0.727
10513TIP3   OH231479   1.481   4.822   4.306
10513TIP3    H131480   1.403   4.789   4.263
10513TIP3    H231481   1.551   4.763   4.278
10514TIP3   OH231482   1.677   0.377   6.022
10514TIP3    H131483   1.730   0.311   6.067
10514TIP3    H231484   1.643   0.331   5.945
10515TIP3   OH231485   8.329   6.048   3.253
10515TIP3    H131486   8.291   6.039   3.165
10515TIP3    H231487   8.423   6.053   3.238
10516TIP3   OH231488   1.334   5.914   6.843
10516TIP3    H131489   1.403   5.943   6.784
10516TIP3    H231490   1.253   5.937   6.798
10517TIP3   OH231491   3.349   6.494   2.683
10517TIP3    H131492   3.425   6.552   2.684
10517TIP3    H231493   3.385   6.407   2.701
10518TIP3   OH231494   4.928   0.853   5.486
10518TIP3    H131495   4.860   0.920   5.495
10518TIP3    H231496   5.005   0.893   5.526
10519TIP3   OH231497   6.977   6.779   0.706
10519TIP3    H131498   6.991   6.855   0.650
10519TIP3    H231499   7.020   6.707   0.660
10520TIP3   OH231500   2.792   1.995   5.761
10520TIP3    H131501   2.731   2.053   5.715
10520TIP3    H231502   2.745   1.911   5.768
10521TIP3   OH231503   0.767   5.015   6.114
10521TIP3    H131504   0.727   4.984   6.195
10521TIP3    H231505   0.760   4.941   6.054
10522TIP3   OH231506   4.116   5.650   1.354
10522TIP3    H131507   4.154   5.629   1.439
10522TIP3    H231508   4.141   5.576   1.298
10523TIP3   OH231509   7.745   3.358   5.965
10523TIP3    H131510   7.710   3.288   5.909
10523TIP3    H231511   7.768   3.314   6.046
10524TIP3   OH231512   6.518   0.124   4.749
10524TIP3    H131513   6.574   0.194   4.782
10524TIP3    H231514   6.486   0.080   4.828
10525TIP3   OH231515   4.401   6.077   0.620
10525TIP3    H131516   4.345   6.008   0.585
10525TIP3    H231517   4.347   6.156   0.617
10526TIP3   OH231518   0.717   4.052   6.551
10526TIP3    H131519   0.723   3.988   6.622
10526TIP3    H231520   0.710   3.999   6.472
10527TIP3   OH231521   5.379   0.461   3.222
10527TIP3    H131522   5.405   0.422   3.138
10527TIP3    H231523   5.341   0.388   3.271
10528TIP3   OH231524   5.328   4.177   5.215
10528TIP3    H131525   5.417   4.211   5.226
10528TIP3    H231526   5.302   4.151   5.304
10529TIP3   OH231527   5.427   2.365   2.089
10529TIP3    H131528   5.387   2.347   2.004
10529TIP3    H231529   5.461   2.454   2.081
10530TIP3   OH231530   6.431   5.070   6.589
10530TIP3    H131531   6.378   5.145   6.561
10530TIP3    H231532   6.400   4.997   6.535
10531TIP3   OH231533   7.314   6.631   6.738
10531TIP3    H131534   7.366   6.551   6.744
10531TIP3    H231535   7.306   6.648   6.644
10532TIP3   OH231536   5.706   3.231   4.120
10532TIP3    H131537   5.741   3.244   4.208
10532TIP3    H231538   5.688   3.319   4.088
10533TIP3   OH231539   0.600   4.015   2.757
10533TIP3    H131540   0.563   3.960   2.827
10533TIP3    H231541   0.593   4.104   2.790
10534TIP3   OH231542   6.201   3.096   4.282
10534TIP3    H131543   6.279   3.101   4.337
10534TIP3    H231544   6.128   3.101   4.343
10535TIP3   OH231545   3.286   1.959   2.703
10535TIP3    H131546   3.358   1.981   2.762
10535TIP3    H231547   3.215   2.017   2.728
10536TIP3   OH231548   8.323   3.995   0.046
10536TIP3    H131549   8.356   4.084   0.053
10536TIP3    H231550   8.240   3.995   0.094
10537TIP3   OH231551   1.716   3.736   4.939
10537TIP3    H131552   1.732   3.705   4.849
10537TIP3    H231553   1.635   3.692   4.965
10538TIP3   OH231554   7.350   3.766   6.760
10538TIP3    H131555   7.284   3.701   6.737
10538TIP3    H231556   7.377   3.741   6.849
10539TIP3   OH231557   5.928   6.468   4.598
10539TIP3    H131558   5.901   6.380   4.624
10539TIP3    H231559   5.982   6.455   4.520
10540TIP3   OH231560   4.011   3.848   6.205
10540TIP3    H131561   3.995   3.775   6.145
10540TIP3    H231562   3.990   3.926   6.153
10541TIP3   OH231563   2.334   2.798   5.059
10541TIP3    H131564   2.337   2.702   5.060
10541TIP3    H231565   2.297   2.819   4.973
10542TIP3   OH231566   8.107   1.447   3.610
10542TIP3    H131567   8.129   1.399   3.530
10542TIP3    H231568   8.066   1.527   3.579
10543TIP3   OH231569   3.418   7.555   5.562
10543TIP3    H131570   3.492   7.616   5.556
10543TIP3    H231571   3.350   7.594   5.507
10544TIP3   OH231572   3.714   6.930   2.623
10544TIP3    H131573   3.636   6.979   2.596
10544TIP3    H231574   3.760   6.911   2.541
10545TIP3   OH231575   6.650   2.259   3.578
10545TIP3    H131576   6.560   2.284   3.560
10545TIP3    H231577   6.703   2.327   3.536
10546TIP3   OH231578   3.018   5.862   3.658
10546TIP3    H131579   3.005   5.897   3.746
10546TIP3    H231580   2.930   5.846   3.625
10547TIP3   OH231581   3.715   3.451   0.914
10547TIP3    H131582   3.788   3.405   0.873
10547TIP3    H231583   3.754   3.532   0.949
10548TIP3   OH231584   0.391   1.615   4.514
10548TIP3    H131585   0.295   1.615   4.505
10548TIP3    H231586   0.423   1.608   4.424
10549TIP3   OH231587   4.739   3.273   2.295
10549TIP3    H131588   4.730   3.194   2.241
10549TIP3    H231589   4.655   3.283   2.338
10550TIP3   OH231590   5.155   7.894   1.060
10550TIP3    H131591   5.247   7.869   1.054
10550TIP3    H231592   5.139   7.947   0.982
10551TIP3   OH231593   4.598   5.748   2.521
10551TIP3    H131594   4.601   5.818   2.457
10551TIP3    H231595   4.650   5.677   2.482
10552TIP3   OH231596   7.099   1.710   4.024
10552TIP3    H131597   7.161   1.705   3.952
10552TIP3    H231598   7.043   1.634   4.014
10553TIP3   OH231599   4.772   0.623   0.201
10553TIP3    H131600   4.817   0.700   0.235
10553TIP3    H231601   4.831   0.588   0.134
10554TIP3   OH231602   2.730   6.482   4.586
10554TIP3    H131603   2.646   6.526   4.596
10554TIP3    H231604   2.750   6.446   4.673
10555TIP3   OH231605   7.684   0.605   5.714
10555TIP3    H131606   7.700   0.655   5.794
10555TIP3    H231607   7.607   0.646   5.674
10556TIP3   OH231608   0.288   7.466   5.740
10556TIP3    H131609   0.347   7.530   5.699
10556TIP3    H231610   0.303   7.477   5.834
10557TIP3   OH231611   4.962   6.443   3.962
10557TIP3    H131612   4.901   6.399   3.903
10557TIP3    H231613   5.048   6.431   3.922
10558TIP3   OH231614   1.064   5.819   1.576
10558TIP3    H131615   1.052   5.896   1.632
10558TIP3    H231616   0.975   5.787   1.560
10559TIP3   OH231617   4.270   2.766   2.422
10559TIP3    H131618   4.207   2.703   2.459
10559TIP3    H231619   4.267   2.840   2.483
10560TIP3   OH231620   3.303   3.952   3.245
10560TIP3    H131621   3.310   3.863   3.209
10560TIP3    H231622   3.348   4.007   3.182
10561TIP3   OH231623   1.559   1.433   3.049
10561TIP3    H131624   1.629   1.479   3.003
10561TIP3    H231625   1.600   1.402   3.130
10562TIP3   OH231626   5.461   6.270   0.693
10562TIP3    H131627   5.526   6.340   0.689
10562TIP3    H231628   5.492   6.205   0.629
10563TIP3   OH231629   6.469   2.359   2.860
10563TIP3    H131630   6.557   2.348   2.824
10563TIP3    H231631   6.479   2.429   2.924
10564TIP3   OH231632   4.214   6.912   4.505
10564TIP3    H131633   4.219   6.926   4.600
10564TIP3    H231634   4.144   6.847   4.495
10565TIP3   OH231635   5.324   0.646   4.825
10565TIP3    H131636   5.231   0.622   4.815
10565TIP3    H231637   5.338   0.647   4.920
10566TIP3   OH231638   2.946   2.566   1.565
10566TIP3    H131639   2.861   2.525   1.583
10566TIP3    H231640   2.933   2.658   1.586
10567TIP3   OH231641   7.596   1.852   0.402
10567TIP3    H131642   7.603   1.936   0.357
10567TIP3    H231643   7.512   1.856   0.448
10568TIP3   OH231644   3.804   0.813   0.646
10568TIP3    H131645   3.820   0.750   0.576
10568TIP3    H231646   3.719   0.851   0.625
10569TIP3   OH231647   7.713   7.650   5.675
10569TIP3    H131648   7.649   7.606   5.619
10569TIP3    H231649   7.683   7.632   5.764
10570TIP3   OH231650   0.924   3.804   2.499
10570TIP3    H131651   0.910   3.766   2.586
10570TIP3    H231652   0.876   3.887   2.500
10571TIP3   OH231653   7.671   6.281   5.979
10571TIP3    H131654   7.751   6.318   6.018
10571TIP3    H231655   7.694   6.191   5.958
10572TIP3   OH231656   8.042   3.927   4.354
10572TIP3    H131657   8.060   3.840   4.388
10572TIP3    H231658   7.997   3.972   4.426
10573TIP3   OH231659   2.275   1.581   3.670
10573TIP3    H131660   2.264   1.498   3.623
10573TIP3    H231661   2.338   1.561   3.739
10574TIP3   OH231662   5.050   2.513   6.674
10574TIP3    H131663   5.135   2.476   6.698
10574TIP3    H231664   5.072   2.592   6.625
10575TIP3   OH231665   1.955   0.711   5.115
10575TIP3    H131666   2.033   0.664   5.085
10575TIP3    H231667   1.882   0.666   5.073
10576TIP3   OH231668   2.640   1.542   6.575
10576TIP3    H131669   2.552   1.568   6.601
10576TIP3    H231670   2.698   1.595   6.631
10577TIP3   OH231671   6.573   2.772   0.275
10577TIP3    H131672   6.580   2.692   0.224
10577TIP3    H231673   6.548   2.839   0.212
10578TIP3   OH231674   5.292   4.753   6.220
10578TIP3    H131675   5.269   4.747   6.127
10578TIP3    H231676   5.385   4.778   6.220
10579TIP3   OH231677   7.249   6.531   5.825
10579TIP3    H131678   7.172   6.488   5.862
10579TIP3    H231679   7.310   6.459   5.809
10580TIP3   OH231680   7.395   4.327   6.720
10580TIP3    H131681   7.419   4.237   6.700
10580TIP3    H231682   7.461   4.357   6.782
10581TIP3   OH231683   5.780   3.120   1.909
10581TIP3    H131684   5.822   3.068   1.840
10581TIP3    H231685   5.806   3.076   1.991
10582TIP3   OH231686   1.676   3.259   4.518
10582TIP3    H131687   1.602   3.319   4.509
10582TIP3    H231688   1.635   3.172   4.524
10583TIP3   OH231689   5.059   2.257   5.645
10583TIP3    H131690   5.021   2.170   5.654
10583TIP3    H231691   5.140   2.243   5.597
10584TIP3   OH231692   8.280   4.807   0.776
10584TIP3    H131693   8.343   4.878   0.781
10584TIP3    H231694   8.333   4.727   0.785
10585TIP3   OH231695   5.777   6.182   4.098
10585TIP3    H131696   5.765   6.271   4.130
10585TIP3    H231697   5.870   6.165   4.111
10586TIP3   OH231698   4.979   4.695   6.393
10586TIP3    H131699   5.018   4.700   6.480
10586TIP3    H231700   4.995   4.781   6.354
10587TIP3   OH231701   4.238   3.289   5.949
10587TIP3    H131702   4.251   3.310   6.041
10587TIP3    H231703   4.278   3.203   5.937
10588TIP3   OH231704   3.851   7.269   2.404
10588TIP3    H131705   3.908   7.345   2.388
10588TIP3    H231706   3.906   7.209   2.454
10589TIP3   OH231707   0.200   6.530   5.221
10589TIP3    H131708   0.175   6.491   5.137
10589TIP3    H231709   0.237   6.615   5.197
10590TIP3   OH231710   3.942   4.889   1.398
10590TIP3    H131711   3.939   4.983   1.416
10590TIP3    H231712   3.855   4.858   1.419
10591TIP3   OH231713   1.666   1.340   5.632
10591TIP3    H131714   1.761   1.338   5.622
10591TIP3    H231715   1.651   1.305   5.719
10592TIP3   OH231716   2.484   2.208   6.512
10592TIP3    H131717   2.398   2.246   6.495
10592TIP3    H231718   2.541   2.248   6.446
10593TIP3   OH231719   6.837   6.521   2.027
10593TIP3    H131720   6.799   6.445   2.071
10593TIP3    H231721   6.813   6.510   1.935
10594TIP3   OH231722   7.411   0.827   2.525
10594TIP3    H131723   7.453   0.867   2.449
10594TIP3    H231724   7.383   0.901   2.579
10595TIP3   OH231725   4.705  -0.016   3.356
10595TIP3    H131726   4.720   0.060   3.412
10595TIP3    H231727   4.611  -0.014   3.337
10596TIP3   OH231728   2.375   5.831   2.089
10596TIP3    H131729   2.460   5.787   2.086
10596TIP3    H231730   2.312   5.763   2.067
10597TIP3   OH231731   5.473   4.406   1.944
10597TIP3    H131732   5.543   4.440   1.999
10597TIP3    H231733   5.516   4.378   1.864
10598TIP3   OH231734   7.237   2.201   4.009
10598TIP3    H131735   7.214   2.221   4.099
10598TIP3    H231736   7.307   2.136   4.016
10599TIP3   OH231737   1.723   2.747   1.407
10599TIP3    H131738   1.809   2.710   1.389
10599TIP3    H231739   1.687   2.768   1.320
10600TIP3   OH231740   7.206   6.584   0.618
10600TIP3    H131741   7.165   6.512   0.570
10600TIP3    H231742   7.190   6.563   0.711
10601TIP3   OH231743   4.227   0.911   3.591
10601TIP3    H131744   4.137   0.903   3.622
10601TIP3    H231745   4.235   1.002   3.562
10602TIP3   OH231746   2.282   6.551   5.673
10602TIP3    H131747   2.325   6.635   5.654
10602TIP3    H231748   2.353   6.487   5.672
10603TIP3   OH231749   1.585   2.669   3.360
10603TIP3    H131750   1.616   2.701   3.444
10603TIP3    H231751   1.635   2.719   3.295
10604TIP3   OH231752   5.767   5.686   6.647
10604TIP3    H131753   5.686   5.665   6.601
10604TIP3    H231754   5.835   5.675   6.580
10605TIP3   OH231755   3.149   7.072   6.583
10605TIP3    H131756   3.096   7.018   6.524
10605TIP3    H231757   3.227   7.019   6.600
10606TIP3   OH231758   4.127   5.733   6.087
10606TIP3    H131759   4.089   5.816   6.114
10606TIP3    H231760   4.221   5.742   6.103
10607TIP3   OH231761   7.240   4.074   6.231
10607TIP3    H131762   7.237   4.135   6.157
10607TIP3    H231763   7.317   4.020   6.214
10608TIP3   OH231764   5.805   1.202   5.252
10608TIP3    H131765   5.827   1.224   5.162
10608TIP3    H231766   5.885   1.220   5.302
10609TIP3   OH231767   5.665   0.101   2.961
10609TIP3    H131768   5.571   0.108   2.975
10609TIP3    H231769   5.679   0.011   2.934
10610TIP3   OH231770   3.655   3.565   3.883
10610TIP3    H131771   3.626   3.475   3.900
10610TIP3    H231772   3.726   3.556   3.820
10611TIP3   OH231773   5.697   3.632   5.831
10611TIP3    H131774   5.729   3.572   5.899
10611TIP3    H231775   5.762   3.625   5.762
10612TIP3   OH231776   2.069   7.374   2.515
10612TIP3    H131777   2.025   7.428   2.580
10612TIP3    H231778   2.129   7.433   2.471
10613TIP3   OH231779   5.850   4.732   0.515
10613TIP3    H131780   5.842   4.794   0.587
10613TIP3    H231781   5.760   4.713   0.489
10614TIP3   OH231782   1.039   7.610   3.381
10614TIP3    H131783   0.997   7.667   3.446
10614TIP3    H231784   1.009   7.644   3.296
10615TIP3   OH231785   3.033   3.095   3.603
10615TIP3    H131786   3.028   3.113   3.697
10615TIP3    H231787   3.115   3.047   3.592
10616TIP3   OH231788   0.064   2.936   1.662
10616TIP3    H131789   0.046   2.857   1.714
10616TIP3    H231790   0.156   2.927   1.637
10617TIP3   OH231791   2.707   6.322   0.790
10617TIP3    H131792   2.705   6.403   0.840
10617TIP3    H231793   2.615   6.295   0.783
10618TIP3   OH231794   3.768   0.947   2.632
10618TIP3    H131795   3.688   0.960   2.583
10618TIP3    H231796   3.838   0.962   2.569
10619TIP3   OH231797   3.298   2.494   1.168
10619TIP3    H131798   3.338   2.544   1.096
10619TIP3    H231799   3.368   2.437   1.199
10620TIP3   OH231800   4.579   3.803   5.232
10620TIP3    H131801   4.622   3.754   5.302
10620TIP3    H231802   4.643   3.870   5.206
10621TIP3   OH231803   7.582   1.311   1.135
10621TIP3    H131804   7.548   1.397   1.113
10621TIP3    H231805   7.579   1.262   1.053
10622TIP3   OH231806   3.247   0.348   2.585
10622TIP3    H131807   3.235   0.291   2.509
10622TIP3    H231808   3.170   0.333   2.640
10623TIP3   OH231809   6.915   3.595   0.871
10623TIP3    H131810   6.988   3.532   0.872
10623TIP3    H231811   6.889   3.599   0.779
10624TIP3   OH231812   7.834   7.138   5.647
10624TIP3    H131813   7.780   7.190   5.707
10624TIP3    H231814   7.880   7.076   5.704
10625TIP3   OH231815   2.493   4.688   2.630
10625TIP3    H131816   2.449   4.723   2.708
10625TIP3    H231817   2.469   4.595   2.629
10626TIP3   OH231818   2.770   2.036   1.179
10626TIP3    H131819   2.793   1.945   1.159
10626TIP3    H231820   2.700   2.056   1.117
10627TIP3   OH231821   7.954   3.233   2.015
10627TIP3    H131822   7.961   3.148   2.060
10627TIP3    H231823   7.981   3.297   2.080
10628TIP3   OH231824   6.054   3.226   6.518
10628TIP3    H131825   5.996   3.192   6.449
10628TIP3    H231826   6.078   3.149   6.569
10629TIP3   OH231827   6.540   7.104   4.786
10629TIP3    H131828   6.535   7.091   4.692
10629TIP3    H231829   6.509   7.194   4.799
10630TIP3   OH231830   2.121   1.146   5.986
10630TIP3    H131831   2.081   1.231   5.967
10630TIP3    H231832   2.165   1.122   5.905
10631TIP3   OH231833   0.323   4.889   0.552
10631TIP3    H131834   0.265   4.963   0.535
10631TIP3    H231835   0.355   4.862   0.466
10632TIP3   OH231836   5.889   4.183  -0.001
10632TIP3    H131837   5.805   4.228   0.010
10632TIP3    H231838   5.893   4.122   0.072
10633TIP3   OH231839   8.258   1.278   4.798
10633TIP3    H131840   8.271   1.185   4.816
10633TIP3    H231841   8.248   1.283   4.703
10634TIP3   OH231842   1.559   2.827   5.642
10634TIP3    H131843   1.530   2.879   5.717
10634TIP3    H231844   1.579   2.741   5.678
10635TIP3   OH231845   2.632   6.305   0.262
10635TIP3    H131846   2.683   6.306   0.342
10635TIP3    H231847   2.610   6.397   0.247
10636TIP3   OH231848   4.713   7.861   2.522
10636TIP3    H131849   4.780   7.795   2.539
10636TIP3    H231850   4.755   7.925   2.465
10637TIP3   OH231851   4.052   6.555   4.554
10637TIP3    H131852   4.007   6.640   4.549
10637TIP3    H231853   4.132   6.567   4.503
10638TIP3   OH231854   1.588   5.857   4.225
10638TIP3    H131855   1.495   5.837   4.223
10638TIP3    H231856   1.608   5.888   4.137
10639TIP3   OH231857   0.538   2.700   6.127
10639TIP3    H131858   0.498   2.632   6.072
10639TIP3    H231859   0.521   2.671   6.216
10640TIP3   OH231860   4.180   5.939   4.534
10640TIP3    H131861   4.245   5.959   4.467
10640TIP3    H231862   4.128   5.867   4.497
10641TIP3   OH231863   4.537   6.608   6.469
10641TIP3    H131864   4.564   6.602   6.377
10641TIP3    H231865   4.486   6.688   6.474
10642TIP3   OH231866   2.075   7.546   0.492
10642TIP3    H131867   2.111   7.599   0.421
10642TIP3    H231868   2.055   7.609   0.562
10643TIP3   OH231869   6.798   1.593   3.711
10643TIP3    H131870   6.711   1.594   3.671
10643TIP3    H231871   6.852   1.644   3.651
10644TIP3   OH231872   3.270   4.384   1.538
10644TIP3    H131873   3.291   4.291   1.537
10644TIP3    H231874   3.180   4.388   1.571
10645TIP3   OH231875   3.643   0.496   2.601
10645TIP3    H131876   3.636   0.556   2.527
10645TIP3    H231877   3.737   0.491   2.619
10646TIP3   OH231878   1.711   3.931   1.774
10646TIP3    H131879   1.737   3.927   1.682
10646TIP3    H231880   1.784   3.977   1.817
10647TIP3   OH231881   3.717   0.201   2.810
10647TIP3    H131882   3.640   0.145   2.819
10647TIP3    H231883   3.707   0.267   2.879
10648TIP3   OH231884   7.602   7.464   3.137
10648TIP3    H131885   7.590   7.504   3.223
10648TIP3    H231886   7.549   7.518   3.078
10649TIP3   OH231887   3.236   6.233   5.365
10649TIP3    H131888   3.312   6.186   5.400
10649TIP3    H231889   3.257   6.325   5.380
10650TIP3   OH231890   6.851   7.448   3.097
10650TIP3    H131891   6.766   7.408   3.080
10650TIP3    H231892   6.878   7.412   3.182
10651TIP3   OH231893   7.916   7.215   0.905
10651TIP3    H131894   7.932   7.273   0.830
10651TIP3    H231895   7.981   7.145   0.895
10652TIP3   OH231896   1.542   0.566   0.769
10652TIP3    H131897   1.558   0.497   0.833
10652TIP3    H231898   1.456   0.602   0.793
10653TIP3   OH231899   1.809   1.587   4.597
10653TIP3    H131900   1.843   1.676   4.589
10653TIP3    H231901   1.740   1.594   4.663
10654TIP3   OH231902   2.933   0.075   3.066
10654TIP3    H131903   2.900   0.013   3.130
10654TIP3    H231904   2.878   0.153   3.077
10655TIP3   OH231905   7.046   6.925   6.849
10655TIP3    H131906   7.041   6.997   6.787
10655TIP3    H231907   7.026   6.847   6.797
10656TIP3   OH231908   1.465   7.613   4.008
10656TIP3    H131909   1.496   7.686   4.062
10656TIP3    H231910   1.375   7.598   4.037
10657TIP3   OH231911   8.014   1.703   1.379
10657TIP3    H131912   7.984   1.791   1.402
10657TIP3    H231913   8.109   1.712   1.370
10658TIP3   OH231914   4.760   2.713   5.538
10658TIP3    H131915   4.827   2.646   5.524
10658TIP3    H231916   4.804   2.795   5.519
10659TIP3   OH231917   7.203   2.591   4.371
10659TIP3    H131918   7.252   2.521   4.327
10659TIP3    H231919   7.268   2.660   4.385
10660TIP3   OH231920   0.135   6.363   0.939
10660TIP3    H131921   0.077   6.409   0.879
10660TIP3    H231922   0.101   6.382   1.026
10661TIP3   OH231923   1.403   2.314   6.811
10661TIP3    H131924   1.440   2.296   6.898
10661TIP3    H231925   1.434   2.242   6.757
10662TIP3   OH231926   5.954   3.010   5.759
10662TIP3    H131927   6.013   2.953   5.807
10662TIP3    H231928   5.873   2.959   5.751
10663TIP3   OH231929   0.489   4.861   3.486
10663TIP3    H131930   0.582   4.865   3.464
10663TIP3    H231931   0.487   4.862   3.582
10664TIP3   OH231932   1.392   3.375   4.202
10664TIP3    H131933   1.310   3.368   4.251
10664TIP3    H231934   1.401   3.291   4.158
10665TIP3   OH231935   2.772   6.059   5.546
10665TIP3    H131936   2.716   6.122   5.501
10665TIP3    H231937   2.861   6.083   5.520
10666TIP3   OH231938   6.974   3.069   3.212
10666TIP3    H131939   7.043   3.135   3.210
10666TIP3    H231940   6.941   3.066   3.123
10667TIP3   OH231941   2.984   6.699   0.363
10667TIP3    H131942   2.951   6.611   0.383
10667TIP3    H231943   3.023   6.690   0.276
10668TIP3   OH231944   1.892   5.984   6.183
10668TIP3    H131945   1.931   5.901   6.211
10668TIP3    H231946   1.805   5.959   6.150
10669TIP3   OH231947   0.054   2.674   0.068
10669TIP3    H131948   0.006   2.746   0.109
10669TIP3    H231949   0.070   2.703  -0.021
10670TIP3   OH231950   4.871   4.030   1.861
10670TIP3    H131951   4.850   4.122   1.878
10670TIP3    H231952   4.833   4.012   1.775
10671TIP3   OH231953   7.551   4.046   0.826
10671TIP3    H131954   7.639   4.069   0.854
10671TIP3    H231955   7.564   3.979   0.759
10672TIP3   OH231956   1.426   3.340   0.301
10672TIP3    H131957   1.409   3.389   0.381
10672TIP3    H231958   1.443   3.251   0.331
10673TIP3   OH231959   7.291   5.028   1.107
10673TIP3    H131960   7.277   5.077   1.026
10673TIP3    H231961   7.363   5.073   1.151
10674TIP3   OH231962   4.463   3.169   1.081
10674TIP3    H131963   4.551   3.206   1.093
10674TIP3    H231964   4.416   3.234   1.030
10675TIP3   OH231965   7.465   6.319   3.919
10675TIP3    H131966   7.442   6.398   3.969
10675TIP3    H231967   7.509   6.263   3.983
10676TIP3   OH231968   6.630   2.500   1.566
10676TIP3    H131969   6.543   2.467   1.590
10676TIP3    H231970   6.617   2.594   1.555
10677TIP3   OH231971   0.112   3.532   1.126
10677TIP3    H131972   0.130   3.523   1.219
10677TIP3    H231973   0.048   3.604   1.120
10678TIP3   OH231974   0.339   3.396   5.050
10678TIP3    H131975   0.374   3.484   5.060
10678TIP3    H231976   0.389   3.359   4.977
10679TIP3   OH231977   3.758   0.966   1.065
10679TIP3    H131978   3.783   1.056   1.087
10679TIP3    H231979   3.668   0.958   1.097
10680TIP3   OH231980   7.925   6.250   6.394
10680TIP3    H131981   7.848   6.199   6.420
10680TIP3    H231982   7.998   6.207   6.439
10681TIP3   OH231983   3.039   4.707   0.715
10681TIP3    H131984   3.087   4.779   0.675
10681TIP3    H231985   2.947   4.729   0.700
10682TIP3   OH231986   2.318   2.235   3.560
10682TIP3    H131987   2.253   2.214   3.493
10682TIP3    H231988   2.268   2.274   3.631
10683TIP3   OH231989   6.540   6.584   5.816
10683TIP3    H131990   6.524   6.543   5.730
10683TIP3    H231991   6.620   6.541   5.848
10684TIP3   OH231992   5.684   2.463   1.856
10684TIP3    H131993   5.595   2.496   1.844
10684TIP3    H231994   5.716   2.510   1.933
10685TIP3   OH231995   7.918   0.175   5.248
10685TIP3    H131996   7.863   0.221   5.311
10685TIP3    H231997   7.994   0.232   5.236
10686TIP3   OH231998   4.842   3.039   2.898
10686TIP3    H131999   4.912   3.103   2.911
10686TIP3    H232000   4.877   2.977   2.834
10687TIP3   OH232001   1.804   5.878   1.327
10687TIP3    H132002   1.722   5.884   1.278
10687TIP3    H232003   1.828   5.968   1.345
10688TIP3   OH232004   1.678   2.452   6.396
10688TIP3    H132005   1.699   2.504   6.318
10688TIP3    H232006   1.637   2.515   6.456
10689TIP3   OH232007   4.914   5.018   6.752
10689TIP3    H132008   4.975   4.961   6.797
10689TIP3    H232009   4.964   5.054   6.678
10690TIP3   OH232010   6.455   3.356   6.318
10690TIP3    H132011   6.530   3.313   6.277
10690TIP3    H232012   6.485   3.446   6.335
10691TIP3   OH232013   0.490   0.203   2.122
10691TIP3    H132014   0.548   0.177   2.194
10691TIP3    H232015   0.542   0.264   2.070
10692TIP3   OH232016   7.342   7.194   2.168
10692TIP3    H132017   7.279   7.122   2.161
10692TIP3    H232018   7.409   7.161   2.228
10693TIP3   OH232019   0.655   2.221   0.981
10693TIP3    H132020   0.611   2.143   1.015
10693TIP3    H232021   0.661   2.280   1.056
10694TIP3   OH232022   6.253   1.403   0.433
10694TIP3    H132023   6.206   1.326   0.465
10694TIP3    H232024   6.341   1.372   0.414
10695TIP3   OH232025   1.080   5.077   5.532
10695TIP3    H132026   1.145   5.012   5.559
10695TIP3    H232027   1.128   5.136   5.475
10696TIP3   OH232028   2.101   0.885   4.399
10696TIP3    H132029   2.179   0.833   4.418
10696TIP3    H232030   2.087   0.937   4.478
10697TIP3   OH232031   8.072   1.762   5.602
10697TIP3    H132032   8.074   1.797   5.514
10697TIP3    H232033   8.109   1.674   5.594
10698TIP3   OH232034   1.420   5.357   5.878
10698TIP3    H132035   1.384   5.423   5.938
10698TIP3    H232036   1.415   5.398   5.792
10699TIP3   OH232037   4.691   3.038   5.173
10699TIP3    H132038   4.654   2.951   5.190
10699TIP3    H232039   4.661   3.061   5.086
10700TIP3   OH232040   3.886   7.433   6.149
10700TIP3    H132041   3.971   7.399   6.121
10700TIP3    H232042   3.830   7.355   6.154
10701TIP3   OH232043   2.764   4.162   2.717
10701TIP3    H132044   2.815   4.085   2.740
10701TIP3    H232045   2.828   4.233   2.710
10702TIP3   OH232046   3.113   2.164   2.821
10702TIP3    H132047   3.080   2.253   2.812
10702TIP3    H232048   3.036   2.111   2.840
10703TIP3   OH232049   2.512   2.036   0.329
10703TIP3    H132050   2.526   2.130   0.344
10703TIP3    H232051   2.495   2.029   0.235
10704TIP3   OH232052   7.272   3.325   4.549
10704TIP3    H132053   7.322   3.379   4.488
10704TIP3    H232054   7.337   3.267   4.589
10705TIP3   OH232055   4.763   6.470   4.960
10705TIP3    H132056   4.743   6.378   4.942
10705TIP3    H232057   4.737   6.516   4.880
10706TIP3   OH232058   3.456   7.774   6.334
10706TIP3    H132059   3.529   7.825   6.369
10706TIP3    H232060   3.495   7.720   6.265
10707TIP3   OH232061   3.705   3.535   1.271
10707TIP3    H132062   3.757   3.616   1.273
10707TIP3    H232063   3.627   3.558   1.220
10708TIP3   OH232064   4.040   1.447   5.782
10708TIP3    H132065   3.950   1.425   5.806
10708TIP3    H232066   4.090   1.368   5.801
10709TIP3   OH232067   8.131   6.620   6.268
10709TIP3    H132068   8.198   6.616   6.200
10709TIP3    H232069   8.175   6.659   6.343
10710TIP3   OH232070   2.288   3.667   2.247
10710TIP3    H132071   2.241   3.587   2.223
10710TIP3    H232072   2.261   3.731   2.182
10711TIP3   OH232073   6.698   1.427   5.495
10711TIP3    H132074   6.734   1.470   5.573
10711TIP3    H232075   6.743   1.469   5.422
10712TIP3   OH232076   1.832   2.715   6.565
10712TIP3    H132077   1.801   2.743   6.479
10712TIP3    H232078   1.764   2.744   6.626
10713TIP3   OH232079   8.320   5.369   3.413
10713TIP3    H132080   8.299   5.456   3.449
10713TIP3    H232081   8.416   5.365   3.415
10714TIP3   OH232082   3.653   0.646   2.312
10714TIP3    H132083   3.740   0.672   2.285
10714TIP3    H232084   3.636   0.564   2.264
10715TIP3   OH232085   7.935   6.246   1.386
10715TIP3    H132086   7.934   6.162   1.433
10715TIP3    H232087   7.950   6.311   1.455
10716TIP3   OH232088   3.151   3.650   4.184
10716TIP3    H132089   3.110   3.684   4.263
10716TIP3    H232090   3.229   3.604   4.215
10717TIP3   OH232091   8.184   7.481   4.895
10717TIP3    H132092   8.115   7.546   4.883
10717TIP3    H232093   8.265   7.530   4.891
10718TIP3   OH232094   3.376   6.058   5.568
10718TIP3    H132095   3.366   5.980   5.622
10718TIP3    H232096   3.462   6.093   5.593
10719TIP3   OH232097   1.109   0.961   1.307
10719TIP3    H132098   1.161   0.883   1.325
10719TIP3    H232099   1.074   0.986   1.393
10720TIP3   OH232100   5.238   1.559   4.784
10720TIP3    H132101   5.160   1.591   4.829
10720TIP3    H232102   5.204   1.512   4.707
10721TIP3   OH232103   0.575   6.878   0.537
10721TIP3    H132104   0.539   6.914   0.618
10721TIP3    H232105   0.522   6.918   0.468
10722TIP3   OH232106   6.109   1.372   4.845
10722TIP3    H132107   6.196   1.333   4.850
10722TIP3    H232108   6.082   1.360   4.754
10723TIP3   OH232109   5.038   3.763   3.886
10723TIP3    H132110   5.081   3.720   3.812
10723TIP3    H232111   5.064   3.711   3.962
10724TIP3   OH232112   5.327   6.985   2.338
10724TIP3    H132113   5.324   7.012   2.246
10724TIP3    H232114   5.235   6.975   2.362
10725TIP3   OH232115   2.014   7.498   3.844
10725TIP3    H132116   2.060   7.572   3.884
10725TIP3    H232117   2.031   7.507   3.751
10726TIP3   OH232118   7.843   5.662   5.819
10726TIP3    H132119   7.908   5.695   5.881
10726TIP3    H232120   7.895   5.614   5.754
10727TIP3   OH232121   0.766   2.149   1.639
10727TIP3    H132122   0.689   2.117   1.686
10727TIP3    H232123   0.758   2.244   1.643
10728TIP3   OH232124   6.337   6.774   1.793
10728TIP3    H132125   6.263   6.729   1.752
10728TIP3    H232126   6.374   6.829   1.723
10729TIP3   OH232127   6.650   3.823   3.132
10729TIP3    H132128   6.614   3.911   3.136
10729TIP3    H232129   6.678   3.804   3.222
10730TIP3   OH232130   6.197   2.299   2.133
10730TIP3    H132131   6.163   2.298   2.223
10730TIP3    H232132   6.292   2.294   2.144
10731TIP3   OH232133   2.790   3.495   5.212
10731TIP3    H132134   2.771   3.404   5.235
10731TIP3    H232135   2.874   3.492   5.168
10732TIP3   OH232136   2.620   0.737   4.926
10732TIP3    H132137   2.700   0.744   4.978
10732TIP3    H232138   2.561   0.685   4.980
10733TIP3   OH232139   5.052   6.836   3.976
10733TIP3    H132140   5.114   6.778   4.021
10733TIP3    H232141   5.073   6.923   4.010
10734TIP3   OH232142   3.083   5.852   2.037
10734TIP3    H132143   3.111   5.762   2.016
10734TIP3    H232144   3.049   5.886   1.954
10735TIP3   OH232145   5.339   1.551   0.825
10735TIP3    H132146   5.279   1.528   0.754
10735TIP3    H232147   5.365   1.641   0.807
10736TIP3   OH232148   0.318   1.064   5.855
10736TIP3    H132149   0.244   1.125   5.846
10736TIP3    H232150   0.303   1.020   5.938
10737TIP3   OH232151   5.092   0.135   4.546
10737TIP3    H132152   5.013   0.082   4.535
10737TIP3    H232153   5.129   0.143   4.458
10738TIP3   OH232154   5.411   6.851   5.753
10738TIP3    H132155   5.355   6.831   5.678
10738TIP3    H232156   5.487   6.895   5.716
10739TIP3   OH232157   6.518   5.516   6.709
10739TIP3    H132158   6.599   5.481   6.746
10739TIP3    H232159   6.545   5.567   6.633
10740TIP3   OH232160   4.976   5.972   3.698
10740TIP3    H132161   4.883   5.950   3.688
10740TIP3    H232162   5.016   5.944   3.615
10741TIP3   OH232163   0.829   1.620   6.197
10741TIP3    H132164   0.840   1.684   6.267
10741TIP3    H232165   0.908   1.565   6.202
10742TIP3   OH232166   6.333   0.475   4.950
10742TIP3    H132167   6.243   0.442   4.958
10742TIP3    H232168   6.342   0.536   5.024
10743TIP3   OH232169   5.198   2.396   2.321
10743TIP3    H132170   5.293   2.403   2.318
10743TIP3    H232171   5.178   2.389   2.414
10744TIP3   OH232172   1.755   2.420   3.421
10744TIP3    H132173   1.713   2.334   3.425
10744TIP3    H232174   1.701   2.475   3.478
10745TIP3   OH232175   2.115   4.169   4.690
10745TIP3    H132176   2.086   4.246   4.739
10745TIP3    H232177   2.171   4.121   4.750
10746TIP3   OH232178   1.463   6.347   2.902
10746TIP3    H132179   1.549   6.325   2.939
10746TIP3    H232180   1.431   6.266   2.863
10747TIP3   OH232181   7.783   4.371   2.660
10747TIP3    H132182   7.743   4.291   2.627
10747TIP3    H232183   7.863   4.381   2.609
10748TIP3   OH232184   1.531   6.734   2.744
10748TIP3    H132185   1.533   6.741   2.840
10748TIP3    H232186   1.519   6.824   2.713
10749TIP3   OH232187   5.755   0.336   5.672
10749TIP3    H132188   5.687   0.330   5.605
10749TIP3    H232189   5.712   0.376   5.747
10750TIP3   OH232190   2.639   0.886   0.332
10750TIP3    H132191   2.617   0.806   0.380
10750TIP3    H232192   2.613   0.867   0.242
10751TIP3   OH232193   6.969   7.697   4.415
10751TIP3    H132194   7.029   7.756   4.463
10751TIP3    H232195   6.964   7.735   4.327
10752TIP3   OH232196   1.789   5.523   5.656
10752TIP3    H132197   1.844   5.585   5.609
10752TIP3    H232198   1.710   5.516   5.602
10753TIP3   OH232199   6.144   1.608   2.842
10753TIP3    H132200   6.096   1.528   2.859
10753TIP3    H232201   6.234   1.588   2.867
10754TIP3   OH232202   6.525   7.803   4.597
10754TIP3    H132203   6.613   7.765   4.597
10754TIP3    H232204   6.505   7.817   4.690
10755TIP3   OH232205   0.520   4.844   2.344
10755TIP3    H132206   0.568   4.792   2.409
10755TIP3    H232207   0.535   4.935   2.371
10756TIP3   OH232208   0.411   4.622   1.212
10756TIP3    H132209   0.435   4.698   1.265
10756TIP3    H232210   0.398   4.552   1.276
10757TIP3   OH232211   5.435   2.079   5.409
10757TIP3    H132212   5.429   2.101   5.316
10757TIP3    H232213   5.530   2.074   5.426
10758TIP3   OH232214   1.153   2.640   5.763
10758TIP3    H132215   1.142   2.704   5.693
10758TIP3    H232216   1.065   2.606   5.777
10759TIP3   OH232217   7.687   1.985   3.059
10759TIP3    H132218   7.732   2.023   3.134
10759TIP3    H232219   7.756   1.964   2.996
10760TIP3   OH232220   4.776   1.878   0.802
10760TIP3    H132221   4.702   1.897   0.860
10760TIP3    H232222   4.741   1.813   0.740
10761TIP3   OH232223   4.366   4.401   3.716
10761TIP3    H132224   4.329   4.356   3.792
10761TIP3    H232225   4.389   4.488   3.749
10762TIP3   OH232226   5.647   5.388   2.976
10762TIP3    H132227   5.614   5.303   2.945
10762TIP3    H232228   5.655   5.377   3.071
10763TIP3   OH232229   1.640   0.326   5.123
10763TIP3    H132230   1.570   0.325   5.189
10763TIP3    H232231   1.671   0.236   5.120
10764TIP3   OH232232   0.544   4.304   2.154
10764TIP3    H132233   0.567   4.211   2.153
10764TIP3    H232234   0.560   4.333   2.064
10765TIP3   OH232235   2.038   3.134   5.249
10765TIP3    H132236   2.047   3.220   5.289
10765TIP3    H232237   2.128   3.105   5.233
10766TIP3   OH232238   1.206   4.336   4.465
10766TIP3    H132239   1.259   4.408   4.499
10766TIP3    H232240   1.163   4.372   4.388
10767TIP3   OH232241   4.950   5.404   1.501
10767TIP3    H132242   4.959   5.329   1.559
10767TIP3    H232243   4.946   5.366   1.413
10768TIP3   OH232244   8.250   6.197   6.817
10768TIP3    H132245   8.341   6.176   6.836
10768TIP3    H232246   8.199   6.140   6.874
10769TIP3   OH232247   3.368   6.723   5.241
10769TIP3    H132248   3.437   6.661   5.264
10769TIP3    H232249   3.380   6.797   5.300
10770TIP3   OH232250   5.873   0.267   6.341
10770TIP3    H132251   5.890   0.219   6.423
10770TIP3    H232252   5.781   0.249   6.321
10771TIP3   OH232253   1.603   0.067   5.406
10771TIP3    H132254   1.623   0.041   5.316
10771TIP3    H232255   1.508   0.080   5.407
10772TIP3   OH232256   8.037   5.883   3.147
10772TIP3    H132257   8.009   5.800   3.108
10772TIP3    H232258   8.123   5.900   3.108
10773TIP3   OH232259   3.983   1.953   3.012
10773TIP3    H132260   4.041   2.018   2.973
10773TIP3    H232261   3.895   1.986   2.995
10774TIP3   OH232262   2.819   2.892   3.604
10774TIP3    H132263   2.864   2.974   3.624
10774TIP3    H232264   2.728   2.917   3.588
10775TIP3   OH232265   4.777   2.523   4.725
10775TIP3    H132266   4.830   2.465   4.779
10775TIP3    H232267   4.789   2.610   4.764
10776TIP3   OH232268   0.922   4.925   4.342
10776TIP3    H132269   0.880   4.887   4.420
10776TIP3    H232270   1.016   4.920   4.362
10777TIP3   OH232271   5.032   1.683   3.529
10777TIP3    H132272   4.957   1.686   3.588
10777TIP3    H232273   5.027   1.597   3.488
10778TIP3   OH232274   7.923   6.475   3.737
10778TIP3    H132275   7.915   6.448   3.645
10778TIP3    H232276   7.870   6.412   3.785
10779TIP3   OH232277   2.613   2.342   3.036
10779TIP3    H132278   2.635   2.398   3.111
10779TIP3    H232279   2.682   2.359   2.972
10780TIP3   OH232280   3.317   2.483   3.242
10780TIP3    H132281   3.306   2.405   3.189
10780TIP3    H232282   3.261   2.549   3.201
10781TIP3   OH232283   4.271   5.634   4.262
10781TIP3    H132284   4.182   5.650   4.292
10781TIP3    H232285   4.277   5.538   4.253
10782TIP3   OH232286   1.906   6.111   5.342
10782TIP3    H132287   1.811   6.118   5.328
10782TIP3    H232288   1.943   6.187   5.297
10783TIP3   OH232289   6.983   6.137   4.307
10783TIP3    H132290   7.078   6.142   4.306
10783TIP3    H232291   6.962   6.086   4.385
10784TIP3   OH232292   0.142   6.674   3.347
10784TIP3    H132293   0.110   6.636   3.265
10784TIP3    H232294   0.205   6.609   3.379
10785TIP3   OH232295   5.102   7.445   1.645
10785TIP3    H132296   5.161   7.475   1.713
10785TIP3    H232297   5.037   7.515   1.637
10786TIP3   OH232298   7.220   4.921   0.792
10786TIP3    H132299   7.312   4.931   0.818
10786TIP3    H232300   7.213   4.970   0.710
10787TIP3   OH232301   7.441   7.275   5.744
10787TIP3    H132302   7.464   7.215   5.814
10787TIP3    H232303   7.521   7.325   5.728
10788TIP3   OH232304   1.114   6.709   2.042
10788TIP3    H132305   1.097   6.728   1.949
10788TIP3    H232306   1.113   6.614   2.047
10789TIP3   OH232307   0.792   1.581   4.888
10789TIP3    H132308   0.704   1.568   4.923
10789TIP3    H232309   0.782   1.650   4.823
10790TIP3   OH232310   7.675   0.145   2.713
10790TIP3    H132311   7.663   0.201   2.790
10790TIP3    H232312   7.652   0.201   2.639
10791TIP3   OH232313   4.179   0.058   4.411
10791TIP3    H132314   4.125   0.060   4.332
10791TIP3    H232315   4.260   0.014   4.383
10792TIP3   OH232316   4.605   3.680   0.418
10792TIP3    H132317   4.562   3.687   0.333
10792TIP3    H232318   4.541   3.636   0.474
10793TIP3   OH232319   4.247   1.054   4.180
10793TIP3    H132320   4.328   1.037   4.229
10793TIP3    H232321   4.188   1.091   4.245
10794TIP3   OH232322   3.028   5.498   5.332
10794TIP3    H132323   2.998   5.408   5.348
10794TIP3    H232324   3.051   5.499   5.239
10795TIP3   OH232325   0.224   4.072   2.390
10795TIP3    H132326   0.212   3.986   2.431
10795TIP3    H232327   0.288   4.057   2.320
10796TIP3   OH232328   6.539   4.020   2.837
10796TIP3    H132329   6.474   4.004   2.905
10796TIP3    H232330   6.525   4.111   2.811
10797TIP3   OH232331   3.719   6.054   6.578
10797TIP3    H132332   3.745   6.120   6.643
10797TIP3    H232333   3.771   5.977   6.600
10798TIP3   OH232334   8.097   5.237   2.752
10798TIP3    H132335   8.116   5.159   2.700
10798TIP3    H232336   8.173   5.247   2.809
10799TIP3   OH232337   5.854   3.320   6.272
10799TIP3    H132338   5.783   3.318   6.337
10799TIP3    H232339   5.830   3.390   6.212
10800TIP3   OH232340   6.787   5.219   3.270
10800TIP3    H132341   6.780   5.123   3.278
10800TIP3    H232342   6.875   5.233   3.235
10801TIP3   OH232343   1.929   4.807   2.726
10801TIP3    H132344   1.990   4.793   2.654
10801TIP3    H232345   1.980   4.855   2.791
10802TIP3   OH232346   4.621   7.811   0.825
10802TIP3    H132347   4.592   7.896   0.860
10802TIP3    H232348   4.716   7.820   0.816
10803TIP3   OH232349   4.081   5.262   3.465
10803TIP3    H132350   4.142   5.330   3.493
10803TIP3    H232351   4.085   5.265   3.369
10804TIP3   OH232352   5.601   6.323   6.493
10804TIP3    H132353   5.547   6.298   6.568
10804TIP3    H232354   5.538   6.358   6.430
10805TIP3   OH232355   8.190   1.719   2.304
10805TIP3    H132356   8.151   1.779   2.367
10805TIP3    H232357   8.123   1.708   2.237
10806TIP3   OH232358   0.577   7.560   6.321
10806TIP3    H132359   0.536   7.523   6.400
10806TIP3    H232360   0.516   7.628   6.292
10807TIP3   OH232361   7.054   7.363   4.696
10807TIP3    H132362   6.972   7.316   4.679
10807TIP3    H232363   7.082   7.394   4.610
10808TIP3   OH232364   8.015   0.947   0.447
10808TIP3    H132365   8.077   0.991   0.505
10808TIP3    H232366   7.960   0.894   0.505
10809TIP3   OH232367   3.944   7.418   4.928
10809TIP3    H132368   3.918   7.329   4.907
10809TIP3    H232369   3.898   7.438   5.009
10810TIP3   OH232370   2.522   5.877   3.081
10810TIP3    H132371   2.538   5.810   3.014
10810TIP3    H232372   2.458   5.935   3.042
10811TIP3   OH232373   1.609   4.565   3.229
10811TIP3    H132374   1.600   4.473   3.252
10811TIP3    H232375   1.698   4.588   3.257
10812TIP3   OH232376   7.569   1.470   3.616
10812TIP3    H132377   7.487   1.466   3.566
10812TIP3    H232378   7.633   1.428   3.559
10813TIP3   OH232379   2.471   7.213   5.365
10813TIP3    H132380   2.542   7.172   5.315
10813TIP3    H232381   2.481   7.306   5.348
10814TIP3   OH232382   2.099   6.862   4.769
10814TIP3    H132383   2.096   6.957   4.762
10814TIP3    H232384   2.192   6.840   4.761
10815TIP3   OH232385   6.817   7.467   0.370
10815TIP3    H132386   6.891   7.494   0.316
10815TIP3    H232387   6.758   7.422   0.309
10816TIP3   OH232388   8.160   4.312   0.042
10816TIP3    H132389   8.256   4.304   0.037
10816TIP3    H232390   8.146   4.394   0.089
10817TIP3   OH232391   2.873   5.468   3.991
10817TIP3    H132392   2.798   5.485   3.935
10817TIP3    H232393   2.928   5.407   3.942
10818TIP3   OH232394   7.357   6.016   0.590
10818TIP3    H132395   7.288   6.016   0.523
10818TIP3    H232396   7.345   6.099   0.637
10819TIP3   OH232397   6.295   6.457   3.756
10819TIP3    H132398   6.352   6.518   3.803
10819TIP3    H232399   6.336   6.371   3.770
10820TIP3   OH232400   2.712   4.820   5.628
10820TIP3    H132401   2.663   4.853   5.703
10820TIP3    H232402   2.802   4.852   5.641
10821TIP3   OH232403   4.753   0.463   4.031
10821TIP3    H132404   4.768   0.488   4.122
10821TIP3    H232405   4.671   0.505   4.007
10822TIP3   OH232406   0.235   6.944   1.116
10822TIP3    H132407   0.178   7.020   1.129
10822TIP3    H232408   0.175   6.871   1.102
10823TIP3   OH232409   3.819   3.153   6.865
10823TIP3    H132410   3.742   3.101   6.887
10823TIP3    H232411   3.832   3.140   6.771
10824TIP3   OH232412   2.866   4.319   3.064
10824TIP3    H132413   2.827   4.231   3.064
10824TIP3    H232414   2.870   4.343   3.157
10825TIP3   OH232415   3.574   7.031   1.339
10825TIP3    H132416   3.507   7.092   1.309
10825TIP3    H232417   3.643   7.087   1.374
10826TIP3   OH232418   7.381   7.185   2.493
10826TIP3    H132419   7.295   7.165   2.458
10826TIP3    H232420   7.370   7.269   2.538
10827TIP3   OH232421   6.068   6.460   6.367
10827TIP3    H132422   5.986   6.427   6.404
10827TIP3    H232423   6.043   6.501   6.284
10828TIP3   OH232424   5.294   5.904   3.676
10828TIP3    H132425   5.296   5.830   3.736
10828TIP3    H232426   5.272   5.865   3.591
10829TIP3   OH232427   2.994   2.986   3.296
10829TIP3    H132428   3.002   3.066   3.348
10829TIP3    H232429   2.982   2.916   3.360
10830TIP3   OH232430   8.032   3.972   3.723
10830TIP3    H132431   8.061   3.918   3.797
10830TIP3    H232432   7.940   3.990   3.742
10831TIP3   OH232433   7.948   3.431   6.320
10831TIP3    H132434   8.027   3.402   6.274
10831TIP3    H232435   7.878   3.375   6.285
10832TIP3   OH232436   8.309   1.895   6.101
10832TIP3    H132437   8.243   1.844   6.148
10832TIP3    H232438   8.339   1.960   6.164
10833TIP3   OH232439   7.140   2.209   2.401
10833TIP3    H132440   7.090   2.145   2.452
10833TIP3    H232441   7.162   2.163   2.320
10834TIP3   OH232442   5.505   6.447   3.960
10834TIP3    H132443   5.428   6.431   3.905
10834TIP3    H232444   5.566   6.377   3.937
10835TIP3   OH232445   3.786   0.277   4.943
10835TIP3    H132446   3.821   0.215   4.879
10835TIP3    H232447   3.864   0.308   4.991
10836TIP3   OH232448   3.012   6.073   3.258
10836TIP3    H132449   2.927   6.039   3.287
10836TIP3    H232450   2.992   6.118   3.176
10837TIP3   OH232451   4.526   3.386   0.711
10837TIP3    H132452   4.551   3.299   0.683
10837TIP3    H232453   4.605   3.422   0.753
10838TIP3   OH232454   1.241   0.961   3.678
10838TIP3    H132455   1.287   0.877   3.672
10838TIP3    H232456   1.207   0.964   3.767
10839TIP3   OH232457   0.758   5.282   4.209
10839TIP3    H132458   0.788   5.372   4.194
10839TIP3    H232459   0.737   5.279   4.302
10840TIP3   OH232460   2.295   1.319   4.457
10840TIP3    H132461   2.246   1.278   4.386
10840TIP3    H232462   2.229   1.346   4.520
10841TIP3   OH232463   1.662   7.436   1.759
10841TIP3    H132464   1.581   7.411   1.713
10841TIP3    H232465   1.730   7.381   1.720
10842TIP3   OH232466   3.365   7.611   1.892
10842TIP3    H132467   3.422   7.650   1.958
10842TIP3    H232468   3.331   7.685   1.843
10843TIP3   OH232469   6.639   1.393   4.113
10843TIP3    H132470   6.574   1.463   4.119
10843TIP3    H232471   6.696   1.406   4.188
10844TIP3   OH232472   8.118   7.094   5.254
10844TIP3    H132473   8.154   7.118   5.168
10844TIP3    H232474   8.196   7.074   5.307
10845TIP3   OH232475   6.938   2.501   6.250
10845TIP3    H132476   6.903   2.443   6.318
10845TIP3    H232477   7.033   2.494   6.260
10846TIP3   OH232478   0.135   6.278   0.350
10846TIP3    H132479   0.216   6.244   0.311
10846TIP3    H232480   0.115   6.357   0.300
10847TIP3   OH232481   2.577   3.273   1.422
10847TIP3    H132482   2.576   3.358   1.467
10847TIP3    H232483   2.492   3.267   1.380
10848TIP3   OH232484   2.610   6.418   2.835
10848TIP3    H132485   2.592   6.327   2.814
10848TIP3    H232486   2.654   6.415   2.920
10849TIP3   OH232487   7.420   0.527   2.446
10849TIP3    H132488   7.450   0.563   2.362
10849TIP3    H232489   7.457   0.585   2.512
10850TIP3   OH232490   1.947   1.204   1.288
10850TIP3    H132491   2.022   1.207   1.348
10850TIP3    H232492   1.901   1.287   1.303
10851TIP3   OH232493   6.241   4.830   2.569
10851TIP3    H132494   6.219   4.830   2.662
10851TIP3    H232495   6.205   4.912   2.536
10852TIP3   OH232496   2.477   7.690   3.765
10852TIP3    H132497   2.396   7.736   3.783
10852TIP3    H232498   2.449   7.605   3.730
10853TIP3   OH232499   0.456   2.750   6.853
10853TIP3    H132500   0.534   2.764   6.907
10853TIP3    H232501   0.482   2.777   6.765
10854TIP3   OH232502   7.605   5.829   0.375
10854TIP3    H132503   7.650   5.799   0.453
10854TIP3    H232504   7.581   5.920   0.394
10855TIP3   OH232505   4.440   6.172   4.876
10855TIP3    H132506   4.421   6.186   4.784
10855TIP3    H232507   4.505   6.102   4.877
10856TIP3   OH232508   0.243   6.878   4.131
10856TIP3    H132509   0.198   6.932   4.196
10856TIP3    H232510   0.275   6.803   4.180
10857TIP3   OH232511   5.057   6.137   6.796
10857TIP3    H132512   4.976   6.087   6.783
10857TIP3    H232513   5.049   6.174   6.884
10858TIP3   OH232514   1.279   0.049   2.486
10858TIP3    H132515   1.291  -0.032   2.436
10858TIP3    H232516   1.221   0.103   2.432
10859TIP3   OH232517   0.381   0.760   0.333
10859TIP3    H132518   0.396   0.764   0.238
10859TIP3    H232519   0.289   0.735   0.341
10860TIP3   OH232520   1.972   6.689   0.681
10860TIP3    H132521   1.958   6.711   0.773
10860TIP3    H232522   2.039   6.621   0.683
10861TIP3   OH232523   4.408   0.050   5.101
10861TIP3    H132524   4.338   0.077   5.041
10861TIP3    H232525   4.473   0.009   5.043
10862TIP3   OH232526   0.243   0.067   4.898
10862TIP3    H132527   0.223   0.150   4.855
10862TIP3    H232528   0.330   0.078   4.935
10863TIP3   OH232529   3.643   3.139   3.453
10863TIP3    H132530   3.555   3.110   3.428
10863TIP3    H232531   3.648   3.230   3.423
10864TIP3   OH232532   2.523   1.762   1.220
10864TIP3    H132533   2.563   1.761   1.133
10864TIP3    H232534   2.597   1.747   1.280
10865TIP3   OH232535   0.154   2.126   5.961
10865TIP3    H132536   0.169   2.081   6.044
10865TIP3    H232537   0.184   2.064   5.894
10866TIP3   OH232538   2.059   4.743   6.597
10866TIP3    H132539   2.135   4.774   6.647
10866TIP3    H232540   2.042   4.813   6.533
10867TIP3   OH232541   6.993   6.518   2.639
10867TIP3    H132542   6.906   6.540   2.673
10867TIP3    H232543   7.020   6.441   2.689
10868TIP3   OH232544   1.733   1.475   3.648
10868TIP3    H132545   1.827   1.459   3.642
10868TIP3    H232546   1.719   1.492   3.742
10869TIP3   OH232547   0.879   6.043   3.509
10869TIP3    H132548   0.897   6.076   3.597
10869TIP3    H232549   0.882   5.948   3.518
10870TIP3   OH232550   8.318   2.674   0.680
10870TIP3    H132551   8.401   2.635   0.651
10870TIP3    H232552   8.261   2.671   0.603
10871TIP3   OH232553   8.098   2.535   2.944
10871TIP3    H132554   8.057   2.542   2.858
10871TIP3    H232555   8.179   2.586   2.936
10872TIP3   OH232556   2.696   4.222   5.229
10872TIP3    H132557   2.692   4.317   5.242
10872TIP3    H232558   2.786   4.206   5.199
10873TIP3   OH232559   6.984   4.801   0.716
10873TIP3    H132560   7.075   4.819   0.696
10873TIP3    H232561   6.969   4.840   0.802
10874TIP3   OH232562   3.949   0.059   1.021
10874TIP3    H132563   3.958   0.145   1.063
10874TIP3    H232564   3.857   0.056   0.994
10875TIP3   OH232565   5.060   2.795   5.000
10875TIP3    H132566   5.119   2.860   5.037
10875TIP3    H232567   5.119   2.731   4.958
10876TIP3   OH232568   6.740   6.369   2.828
10876TIP3    H132569   6.690   6.354   2.747
10876TIP3    H232570   6.737   6.464   2.841
10877TIP3   OH232571   1.043   1.637   2.982
10877TIP3    H132572   1.118   1.687   2.949
10877TIP3    H232573   1.062   1.547   2.957
10878TIP3   OH232574   7.988   2.841   4.121
10878TIP3    H132575   7.982   2.914   4.060
10878TIP3    H232576   7.989   2.763   4.066
10879TIP3   OH232577   1.702   4.944   5.137
10879TIP3    H132578   1.739   4.876   5.081
10879TIP3    H232579   1.674   5.013   5.076
10880TIP3   OH232580   8.151   0.491   1.238
10880TIP3    H132581   8.137   0.414   1.183
10880TIP3    H232582   8.236   0.475   1.280
10881TIP3   OH232583   4.328   5.569   3.568
10881TIP3    H132584   4.383   5.528   3.635
10881TIP3    H232585   4.311   5.657   3.601
10882TIP3   OH232586   0.186   0.707   6.824
10882TIP3    H132587   0.113   0.653   6.793
10882TIP3    H232588   0.158   0.741   6.909
10883TIP3   OH232589   5.071   3.550   6.492
10883TIP3    H132590   5.164   3.530   6.501
10883TIP3    H232591   5.069   3.635   6.448
10884TIP3   OH232592   5.106   6.238   4.407
10884TIP3    H132593   5.126   6.332   4.398
10884TIP3    H232594   5.098   6.207   4.317
10885TIP3   OH232595   0.678   5.413   1.562
10885TIP3    H132596   0.662   5.440   1.472
10885TIP3    H232597   0.590   5.400   1.599
10886TIP3   OH232598   6.066   0.509   0.759
10886TIP3    H132599   6.114   0.429   0.737
10886TIP3    H232600   6.101   0.536   0.844
10887TIP3   OH232601   6.755   7.479   5.701
10887TIP3    H132602   6.737   7.387   5.720
10887TIP3    H232603   6.840   7.478   5.656
10888TIP3   OH232604   6.890   0.715   5.310
10888TIP3    H132605   6.896   0.642   5.371
10888TIP3    H232606   6.867   0.790   5.365
10889TIP3   OH232607   7.346   4.155   5.119
10889TIP3    H132608   7.421   4.187   5.068
10889TIP3    H232609   7.275   4.215   5.096
10890TIP3   OH232610   7.162   1.662   1.652
10890TIP3    H132611   7.088   1.680   1.710
10890TIP3    H232612   7.234   1.712   1.689
10891TIP3   OH232613   1.801   0.181   4.211
10891TIP3    H132614   1.837   0.093   4.197
10891TIP3    H232615   1.735   0.169   4.280
10892TIP3   OH232616   3.907   1.840   1.595
10892TIP3    H132617   3.875   1.920   1.554
10892TIP3    H232618   3.993   1.864   1.631
10893TIP3   OH232619   2.741   6.025   5.829
10893TIP3    H132620   2.733   6.119   5.842
10893TIP3    H232621   2.728   6.013   5.735
10894TIP3   OH232622   3.434   3.924   5.770
10894TIP3    H132623   3.393   3.927   5.857
10894TIP3    H232624   3.526   3.905   5.787
10895TIP3   OH232625   7.106   6.382   1.090
10895TIP3    H132626   7.014   6.408   1.091
10895TIP3    H232627   7.141   6.419   1.009
10896TIP3   OH232628   5.810   1.771   0.908
10896TIP3    H132629   5.867   1.740   0.977
10896TIP3    H232630   5.780   1.857   0.937
10897TIP3   OH232631   6.426   5.362   2.733
10897TIP3    H132632   6.428   5.369   2.637
10897TIP3    H232633   6.501   5.413   2.763
10898TIP3   OH232634   6.517   4.764   3.754
10898TIP3    H132635   6.538   4.671   3.753
10898TIP3    H232636   6.487   4.781   3.844
10899TIP3   OH232637   1.443   7.436   3.287
10899TIP3    H132638   1.504   7.422   3.215
10899TIP3    H232639   1.389   7.357   3.288
10900TIP3   OH232640   3.213   3.887   6.529
10900TIP3    H132641   3.120   3.865   6.528
10900TIP3    H232642   3.232   3.917   6.441
10901TIP3   OH232643   2.251   6.325   2.167
10901TIP3    H132644   2.342   6.312   2.141
10901TIP3    H232645   2.225   6.242   2.207
10902TIP3   OH232646   2.044   7.867   5.838
10902TIP3    H132647   2.123   7.813   5.839
10902TIP3    H232648   2.067   7.942   5.784
10903TIP3   OH232649   4.744   0.354   1.132
10903TIP3    H132650   4.752   0.395   1.045
10903TIP3    H232651   4.781   0.418   1.192
10904TIP3   OH232652   3.825   6.009   1.894
10904TIP3    H132653   3.762   6.042   1.830
10904TIP3    H232654   3.780   5.937   1.937
10905TIP3   OH232655   1.082   1.286   6.487
10905TIP3    H132656   1.040   1.322   6.565
10905TIP3    H232657   1.038   1.328   6.413
10906TIP3   OH232658   4.441   4.198   1.065
10906TIP3    H132659   4.445   4.102   1.064
10906TIP3    H232660   4.520   4.224   1.112
10907TIP3   OH232661   7.225   4.251   5.411
10907TIP3    H132662   7.290   4.205   5.359
10907TIP3    H232663   7.272   4.277   5.490
10908TIP3   OH232664   4.463   6.693   1.904
10908TIP3    H132665   4.425   6.627   1.961
10908TIP3    H232666   4.388   6.730   1.857
10909TIP3   OH232667   4.967   6.636   6.821
10909TIP3    H132668   4.954   6.593   6.905
10909TIP3    H232669   5.020   6.573   6.771
10910TIP3   OH232670   0.736   6.481   6.045
10910TIP3    H132671   0.726   6.386   6.038
10910TIP3    H232672   0.662   6.517   5.995
10911TIP3   OH232673   0.602   1.535   2.715
10911TIP3    H132674   0.665   1.603   2.690
10911TIP3    H232675   0.643   1.454   2.686
10912TIP3   OH232676   5.782   6.874   0.610
10912TIP3    H132677   5.796   6.779   0.609
10912TIP3    H232678   5.728   6.890   0.533
10913TIP3   OH232679   4.209   0.907   6.207
10913TIP3    H132680   4.289   0.856   6.216
10913TIP3    H232681   4.158   0.884   6.285
10914TIP3   OH232682   1.745   7.298   3.542
10914TIP3    H132683   1.733   7.276   3.634
10914TIP3    H232684   1.734   7.393   3.537
10915TIP3   OH232685   7.802   5.186   0.670
10915TIP3    H132686   7.773   5.245   0.600
10915TIP3    H232687   7.875   5.138   0.632
10916TIP3   OH232688   3.013   3.045   3.869
10916TIP3    H132689   2.920   3.063   3.877
10916TIP3    H232690   3.030   2.976   3.933
10917TIP3   OH232691   7.100   2.447   0.891
10917TIP3    H132692   7.058   2.370   0.929
10917TIP3    H232693   7.180   2.415   0.851
10918TIP3   OH232694   6.796   6.279   6.352
10918TIP3    H132695   6.723   6.299   6.294
10918TIP3    H232696   6.759   6.286   6.440
10919TIP3   OH232697   2.338   1.087   0.247
10919TIP3    H132698   2.396   1.076   0.323
10919TIP3    H232699   2.389   1.138   0.184
10920TIP3   OH232700   0.424   3.627   6.763
10920TIP3    H132701   0.458   3.716   6.764
10920TIP3    H232702   0.482   3.578   6.820
10921TIP3   OH232703   4.906   6.403   2.054
10921TIP3    H132704   4.841   6.473   2.051
10921TIP3    H232705   4.985   6.442   2.016
10922TIP3   OH232706   0.738   3.075   4.442
10922TIP3    H132707   0.772   2.991   4.473
10922TIP3    H232708   0.645   3.059   4.425
10923TIP3   OH232709   4.754   0.124   5.222
10923TIP3    H132710   4.682   0.088   5.274
10923TIP3    H232711   4.807   0.048   5.198
10924TIP3   OH232712   6.761   6.862   6.614
10924TIP3    H132713   6.752   6.779   6.568
10924TIP3    H232714   6.823   6.912   6.561
10925TIP3   OH232715   1.382   3.946   6.755
10925TIP3    H132716   1.396   3.854   6.734
10925TIP3    H232717   1.471   3.982   6.762
10926TIP3   OH232718   4.023   7.699   3.568
10926TIP3    H132719   3.945   7.644   3.564
10926TIP3    H232720   3.989   7.788   3.574
10927TIP3   OH232721   3.384   5.306   1.133
10927TIP3    H132722   3.319   5.277   1.197
10927TIP3    H232723   3.360   5.397   1.114
10928TIP3   OH232724   3.652   3.126   5.237
10928TIP3    H132725   3.702   3.083   5.306
10928TIP3    H232726   3.651   3.063   5.165
10929TIP3   OH232727   2.892   5.008   0.673
10929TIP3    H132728   2.868   5.091   0.632
10929TIP3    H232729   2.971   5.029   0.723
10930TIP3   OH232730   1.539   5.474   0.041
10930TIP3    H132731   1.514   5.555   0.085
10930TIP3    H232732   1.457   5.428   0.025
10931TIP3   OH232733   7.859   7.015   1.306
10931TIP3    H132734   7.764   7.022   1.309
10931TIP3    H232735   7.890   7.104   1.325
10932TIP3   OH232736   0.127   2.993   0.412
10932TIP3    H132737   0.034   3.003   0.393
10932TIP3    H232738   0.160   3.083   0.416
10933TIP3   OH232739   5.637   3.915   0.386
10933TIP3    H132740   5.627   4.004   0.350
10933TIP3    H232741   5.726   3.890   0.361
10934TIP3   OH232742   1.699   3.361   5.421
10934TIP3    H132743   1.642   3.286   5.404
10934TIP3    H232744   1.687   3.418   5.345
10935TIP3   OH232745   4.310   3.009   5.127
10935TIP3    H132746   4.223   3.035   5.158
10935TIP3    H232747   4.300   2.915   5.107
10936TIP3   OH232748   0.816   1.949   6.038
10936TIP3    H132749   0.749   1.881   6.035
10936TIP3    H232750   0.810   1.984   6.127
10937TIP3   OH232751   6.371   6.020   4.246
10937TIP3    H132752   6.284   6.040   4.282
10937TIP3    H232753   6.426   6.006   4.322
10938TIP3   OH232754   7.793   3.307   2.904
10938TIP3    H132755   7.866   3.367   2.895
10938TIP3    H232756   7.810   3.238   2.840
10939TIP3   OH232757   7.234   6.133   1.511
10939TIP3    H132758   7.242   6.166   1.600
10939TIP3    H232759   7.218   6.210   1.457
10940TIP3   OH232760   4.278   5.085   1.523
10940TIP3    H132761   4.353   5.027   1.537
10940TIP3    H232762   4.286   5.114   1.432
10941TIP3   OH232763   0.671   1.476   2.219
10941TIP3    H132764   0.628   1.481   2.305
10941TIP3    H232765   0.614   1.419   2.167
10942TIP3   OH232766   0.371   1.078  -0.038
10942TIP3    H132767   0.389   1.052   0.052
10942TIP3    H232768   0.313   1.153  -0.031
10943TIP3   OH232769   1.796   2.373   1.576
10943TIP3    H132770   1.862   2.319   1.618
10943TIP3    H232771   1.727   2.311   1.550
10944TIP3   OH232772   0.715   6.484   1.734
10944TIP3    H132773   0.745   6.571   1.758
10944TIP3    H232774   0.672   6.450   1.813
10945TIP3   OH232775   6.129   0.541   3.620
10945TIP3    H132776   6.154   0.627   3.587
10945TIP3    H232777   6.036   0.533   3.598
10946TIP3   OH232778   4.625   1.186   6.000
10946TIP3    H132779   4.570   1.260   5.975
10946TIP3    H232780   4.568   1.109   5.986
10947TIP3   OH232781   7.000   7.573   5.557
10947TIP3    H132782   7.050   7.654   5.547
10947TIP3    H232783   7.051   7.520   5.618
10948TIP3   OH232784   0.673   7.602   2.805
10948TIP3    H132785   0.709   7.525   2.848
10948TIP3    H232786   0.655   7.573   2.715
10949TIP3   OH232787   4.958   7.131   3.585
10949TIP3    H132788   5.025   7.064   3.601
10949TIP3    H232789   4.944   7.129   3.491
10950TIP3   OH232790   7.582   4.896   3.764
10950TIP3    H132791   7.509   4.935   3.716
10950TIP3    H232792   7.633   4.850   3.698
10951TIP3   OH232793   4.634   4.871   4.284
10951TIP3    H132794   4.623   4.856   4.378
10951TIP3    H232795   4.683   4.794   4.253
10952TIP3   OH232796   5.889   6.273   3.436
10952TIP3    H132797   5.974   6.240   3.405
10952TIP3    H232798   5.866   6.342   3.374
10953TIP3   OH232799   1.589   3.415   1.179
10953TIP3    H132800   1.538   3.349   1.133
10953TIP3    H232801   1.670   3.370   1.205
10954TIP3   OH232802   5.705   3.110   2.426
10954TIP3    H132803   5.692   3.056   2.504
10954TIP3    H232804   5.781   3.165   2.448
10955TIP3   OH232805   6.262   3.476   2.215
10955TIP3    H132806   6.318   3.491   2.291
10955TIP3    H232807   6.243   3.564   2.182
10956TIP3   OH232808   3.138   4.785   2.312
10956TIP3    H132809   3.047   4.814   2.322
10956TIP3    H232810   3.145   4.760   2.220
10957TIP3   OH232811   2.434   0.082   3.375
10957TIP3    H132812   2.467   0.169   3.396
10957TIP3    H232813   2.338   0.092   3.378
10958TIP3   OH232814   1.716   3.287   0.580
10958TIP3    H132815   1.672   3.285   0.664
10958TIP3    H232816   1.684   3.210   0.533
10959TIP3   OH232817   0.041   4.687   2.707
10959TIP3    H132818   0.086   4.604   2.724
10959TIP3    H232819   0.036   4.693   2.612
10960TIP3   OH232820   0.296   4.221   1.619
10960TIP3    H132821   0.297   4.169   1.699
10960TIP3    H232822   0.370   4.281   1.628
10961TIP3   OH232823   4.196   3.037   1.349
10961TIP3    H132824   4.103   3.016   1.361
10961TIP3    H232825   4.196   3.109   1.286
10962TIP3   OH232826   8.063   6.848   1.392
10962TIP3    H132827   8.029   6.785   1.455
10962TIP3    H232828   7.986   6.893   1.358
10963TIP3   OH232829   8.040   5.702   5.073
10963TIP3    H132830   8.016   5.771   5.010
10963TIP3    H232831   7.962   5.647   5.078
10964TIP3   OH232832   4.406   2.563   3.622
10964TIP3    H132833   4.405   2.600   3.534
10964TIP3    H232834   4.452   2.629   3.675
10965TIP3   OH232835   7.941   2.683   1.427
10965TIP3    H132836   8.003   2.610   1.424
10965TIP3    H232837   7.995   2.761   1.414
10966TIP3   OH232838   2.049   4.427   2.074
10966TIP3    H132839   1.995   4.492   2.118
10966TIP3    H232840   2.056   4.355   2.136
10967TIP3   OH232841   8.304   7.028   2.667
10967TIP3    H132842   8.390   6.999   2.698
10967TIP3    H232843   8.301   7.002   2.575
10968TIP3   OH232844   5.007   5.748   6.553
10968TIP3    H132845   5.028   5.816   6.490
10968TIP3    H232846   5.091   5.705   6.571
10969TIP3   OH232847   6.375   4.825   0.393
10969TIP3    H132848   6.380   4.819   0.488
10969TIP3    H232849   6.411   4.911   0.372
10970TIP3   OH232850   3.022   2.670   0.774
10970TIP3    H132851   3.013   2.690   0.681
10970TIP3    H232852   3.017   2.755   0.817
10971TIP3   OH232853   7.789   6.185   2.186
10971TIP3    H132854   7.856   6.241   2.146
10971TIP3    H232855   7.785   6.109   2.128
10972TIP3   OH232856   7.440   6.328   5.779
10972TIP3    H132857   7.439   6.294   5.869
10972TIP3    H232858   7.505   6.275   5.734
10973TIP3   OH232859   5.050   6.607   1.963
10973TIP3    H132860   5.027   6.687   1.916
10973TIP3    H232861   5.143   6.594   1.943
10974TIP3   OH232862   6.002   7.800   5.628
10974TIP3    H132863   5.963   7.717   5.601
10974TIP3    H232864   6.085   7.775   5.668
10975TIP3   OH232865   7.142   7.669   3.371
10975TIP3    H132866   7.188   7.675   3.288
10975TIP3    H232867   7.061   7.719   3.357
10976TIP3   OH232868   2.797   4.168   2.344
10976TIP3    H132869   2.708   4.150   2.373
10976TIP3    H232870   2.823   4.246   2.393
10977TIP3   OH232871   3.458   1.404   3.523
10977TIP3    H132872   3.493   1.465   3.588
10977TIP3    H232873   3.366   1.428   3.514
10978TIP3   OH232874   5.169   2.992   1.809
10978TIP3    H132875   5.126   2.940   1.877
10978TIP3    H232876   5.114   2.982   1.732
10979TIP3   OH232877   0.210   6.336   3.533
10979TIP3    H132878   0.247   6.389   3.462
10979TIP3    H232879   0.234   6.382   3.613
10980TIP3   OH232880   6.242   2.627   1.007
10980TIP3    H132881   6.292   2.628   1.089
10980TIP3    H232882   6.248   2.717   0.974
10981TIP3   OH232883   0.486   6.170   3.689
10981TIP3    H132884   0.437   6.252   3.698
10981TIP3    H232885   0.474   6.125   3.772
10982TIP3   OH232886   6.220   6.501   4.144
10982TIP3    H132887   6.259   6.427   4.097
10982TIP3    H232888   6.258   6.578   4.103
10983TIP3   OH232889   8.119   1.747   5.891
10983TIP3    H132890   8.106   1.780   5.802
10983TIP3    H232891   8.030   1.728   5.922
10984TIP3   OH232892   2.972   0.912   6.332
10984TIP3    H132893   2.991   0.824   6.300
10984TIP3    H232894   2.889   0.904   6.380
10985TIP3   OH232895   6.681   6.900   5.186
10985TIP3    H132896   6.590   6.930   5.191
10985TIP3    H232897   6.707   6.915   5.095
10986TIP3   OH232898   0.798   6.382   4.442
10986TIP3    H132899   0.766   6.460   4.488
10986TIP3    H232900   0.892   6.379   4.462
10987TIP3   OH232901   1.656   3.672   1.269
10987TIP3    H132902   1.734   3.644   1.318
10987TIP3    H232903   1.625   3.593   1.226
10988TIP3   OH232904   1.652   5.591   4.970
10988TIP3    H132905   1.640   5.682   4.941
10988TIP3    H232906   1.739   5.567   4.939
10989TIP3   OH232907   5.201   4.730   1.246
10989TIP3    H132908   5.162   4.698   1.327
10989TIP3    H232909   5.234   4.817   1.268
10990TIP3   OH232910   7.641   4.273   5.348
10990TIP3    H132911   7.676   4.211   5.285
10990TIP3    H232912   7.623   4.352   5.296
10991TIP3   OH232913   4.033   1.663   0.541
10991TIP3    H132914   4.058   1.745   0.582
10991TIP3    H232915   4.057   1.595   0.605
10992TIP3   OH232916   7.547   2.378   6.680
10992TIP3    H132917   7.530   2.400   6.771
10992TIP3    H232918   7.639   2.354   6.678
10993TIP3   OH232919   4.120   7.476   4.518
10993TIP3    H132920   4.048   7.417   4.540
10993TIP3    H232921   4.126   7.472   4.423
10994TIP3   OH232922   2.052   2.229   0.197
10994TIP3    H132923   2.023   2.201   0.111
10994TIP3    H232924   1.993   2.301   0.220
10995TIP3   OH232925   0.250   5.980   2.499
10995TIP3    H132926   0.273   5.893   2.531
10995TIP3    H232927   0.309   5.994   2.425
10996TIP3   OH232928   1.047   4.165   3.664
10996TIP3    H132929   1.062   4.149   3.757
10996TIP3    H232930   1.090   4.249   3.646
10997TIP3   OH232931   0.791   0.546   5.142
10997TIP3    H132932   0.840   0.529   5.062
10997TIP3    H232933   0.794   0.641   5.152
10998TIP3   OH232934   6.048   7.311   0.097
10998TIP3    H132935   5.963   7.328   0.057
10998TIP3    H232936   6.076   7.227   0.062
10999TIP3   OH232937   5.044   6.033   1.505
10999TIP3    H132938   5.018   5.960   1.449
10999TIP3    H232939   5.094   5.992   1.576
11000TIP3   OH232940   3.880   3.587   3.138
11000TIP3    H132941   3.857   3.611   3.227
11000TIP3    H232942   3.844   3.499   3.126
11001TIP3   OH232943   1.495   3.972   4.097
11001TIP3    H132944   1.422   3.925   4.057
11001TIP3    H232945   1.559   3.982   4.027
11002TIP3   OH232946   0.900   7.178   0.321
11002TIP3    H132947   0.920   7.251   0.262
11002TIP3    H232948   0.842   7.121   0.270
11003TIP3   OH232949   3.844   6.555   2.447
11003TIP3    H132950   3.923   6.599   2.417
11003TIP3    H232951   3.853   6.465   2.416
11004TIP3   OH232952   6.034   3.701   6.325
11004TIP3    H132953   6.107   3.759   6.304
11004TIP3    H232954   6.075   3.620   6.354
11005TIP3   OH232955   8.356   2.806   3.732
11005TIP3    H132956   8.269   2.838   3.754
11005TIP3    H232957   8.354   2.795   3.637
11006TIP3   OH232958   1.969   2.209   4.494
11006TIP3    H132959   2.030   2.138   4.511
11006TIP3    H232960   1.964   2.257   4.577
11007TIP3   OH232961   3.535   4.885   2.121
11007TIP3    H132962   3.617   4.856   2.081
11007TIP3    H232963   3.553   4.975   2.149
11008TIP3   OH232964   0.949   3.134   4.125
11008TIP3    H132965   0.937   3.186   4.046
11008TIP3    H232966   0.933   3.194   4.197
11009TIP3   OH232967   5.492   4.491   6.725
11009TIP3    H132968   5.535   4.489   6.811
11009TIP3    H232969   5.549   4.547   6.672
11010TIP3   OH232970   5.775   2.050   0.330
11010TIP3    H132971   5.825   2.083   0.405
11010TIP3    H232972   5.712   2.119   0.310
11011TIP3   OH232973   6.431   7.887   0.813
11011TIP3    H132974   6.400   7.941   0.886
11011TIP3    H232975   6.368   7.815   0.809
11012TIP3   OH232976   0.214   3.087   4.165
11012TIP3    H132977   0.207   2.998   4.199
11012TIP3    H232978   0.141   3.134   4.206
11013TIP3   OH232979   2.406   7.663   3.451
11013TIP3    H132980   2.352   7.727   3.498
11013TIP3    H232981   2.393   7.684   3.359
11014TIP3   OH232982   2.914   4.231   2.035
11014TIP3    H132983   2.995   4.187   2.060
11014TIP3    H232984   2.923   4.247   1.941
11015TIP3   OH232985   2.578   5.682   5.067
11015TIP3    H132986   2.576   5.634   5.150
11015TIP3    H232987   2.501   5.739   5.070
11016TIP3   OH232988   5.268   1.189   0.012
11016TIP3    H132989   5.217   1.109   0.005
11016TIP3    H232990   5.323   1.176   0.089
11017TIP3   OH232991   1.853   0.663   0.252
11017TIP3    H132992   1.783   0.656   0.187
11017TIP3    H232993   1.897   0.745   0.231
11018TIP3   OH232994   5.957   3.829   5.666
11018TIP3    H132995   5.920   3.751   5.623
11018TIP3    H232996   5.883   3.888   5.676
11019TIP3   OH232997   6.712   7.047   0.415
11019TIP3    H132998   6.662   6.983   0.465
11019TIP3    H232999   6.716   7.124   0.471
11020TIP3   OH233000   6.879   5.512   5.097
11020TIP3    H133001   6.907   5.523   5.188
11020TIP3    H233002   6.804   5.453   5.102
11021TIP3   OH233003   2.456   5.222   1.042
11021TIP3    H133004   2.429   5.153   0.981
11021TIP3    H233005   2.400   5.296   1.020
11022TIP3   OH233006   7.746   0.353   1.492
11022TIP3    H133007   7.674   0.396   1.446
11022TIP3    H233008   7.736   0.380   1.584
11023TIP3   OH233009   4.926   6.820   1.807
11023TIP3    H133010   4.843   6.816   1.759
11023TIP3    H233011   4.934   6.911   1.835
11024TIP3   OH233012   6.360   6.290   4.036
11024TIP3    H133013   6.439   6.251   4.075
11024TIP3    H233014   6.364   6.264   3.944
11025TIP3   OH233015   5.199   3.262   1.773
11025TIP3    H133016   5.206   3.173   1.737
11025TIP3    H233017   5.259   3.314   1.720
11026TIP3   OH233018   1.262   1.406   4.049
11026TIP3    H133019   1.326   1.338   4.026
11026TIP3    H233020   1.218   1.425   3.966
11027TIP3   OH233021   1.538   5.225   1.388
11027TIP3    H133022   1.551   5.261   1.300
11027TIP3    H233023   1.616   5.252   1.437
11028TIP3   OH233024   1.786   6.038   4.663
11028TIP3    H133025   1.806   6.004   4.576
11028TIP3    H233026   1.860   6.095   4.684
11029TIP3   OH233027   1.654   5.263   6.101
11029TIP3    H133028   1.737   5.307   6.121
11029TIP3    H233029   1.599   5.331   6.064
11030TIP3   OH233030   6.347   5.870   4.674
11030TIP3    H133031   6.283   5.940   4.659
11030TIP3    H233032   6.406   5.906   4.741
11031TIP3   OH233033   8.202   2.504   1.884
11031TIP3    H133034   8.256   2.425   1.892
11031TIP3    H233035   8.125   2.476   1.834
11032TIP3   OH233036   3.788   7.785   6.820
11032TIP3    H133037   3.692   7.789   6.826
11032TIP3    H233038   3.806   7.786   6.726
11033TIP3   OH233039   4.031   0.148   5.935
11033TIP3    H133040   3.992   0.231   5.963
11033TIP3    H233041   4.046   0.101   6.017
11034TIP3   OH233042   2.740   0.286   1.762
11034TIP3    H133043   2.834   0.294   1.747
11034TIP3    H233044   2.725   0.327   1.847
11035TIP3   OH233045   0.667   7.677   4.282
11035TIP3    H133046   0.672   7.687   4.377
11035TIP3    H233047   0.606   7.745   4.254
11036TIP3   OH233048   2.105   6.746   0.938
11036TIP3    H133049   2.106   6.770   1.031
11036TIP3    H233050   2.197   6.748   0.911
11037TIP3   OH233051   5.569   3.975   5.420
11037TIP3    H133052   5.495   3.961   5.361
11037TIP3    H233053   5.597   4.064   5.403
11038TIP3   OH233054   1.511   6.461   6.103
11038TIP3    H133055   1.513   6.473   6.008
11038TIP3    H233056   1.583   6.400   6.121
11039TIP3   OH233057   3.667   5.024   3.207
11039TIP3    H133058   3.580   5.056   3.184
11039TIP3    H233059   3.674   5.038   3.301
11040TIP3   OH233060   1.484   2.133   5.071
11040TIP3    H133061   1.538   2.151   5.147
11040TIP3    H233062   1.394   2.134   5.104
11041TIP3   OH233063   3.737   7.177   0.550
11041TIP3    H133064   3.804   7.245   0.544
11041TIP3    H233065   3.785   7.095   0.542
11042TIP3   OH233066   1.706   4.059   3.481
11042TIP3    H133067   1.675   3.971   3.504
11042TIP3    H233068   1.780   4.044   3.422
11043TIP3   OH233069   8.080   3.321   3.584
11043TIP3    H133070   8.109   3.289   3.498
11043TIP3    H233071   8.113   3.255   3.646
11044TIP3   OH233072   1.894   5.348   3.036
11044TIP3    H133073   1.896   5.382   3.126
11044TIP3    H233074   1.857   5.419   2.985
11045TIP3   OH233075   7.367   2.520   3.979
11045TIP3    H133076   7.390   2.590   4.040
11045TIP3    H233077   7.277   2.538   3.953
11046TIP3   OH233078   3.740   2.151   0.084
11046TIP3    H133079   3.660   2.124   0.129
11046TIP3    H233080   3.810   2.126   0.144
11047TIP3   OH233081   4.215   6.734   5.902
11047TIP3    H133082   4.200   6.659   5.959
11047TIP3    H233083   4.310   6.736   5.890
11048TIP3   OH233084   4.145   0.419   4.832
11048TIP3    H133085   4.230   0.463   4.822
11048TIP3    H233086   4.089   0.461   4.767
11049TIP3   OH233087   2.061   2.478   4.929
11049TIP3    H133088   2.096   2.549   4.875
11049TIP3    H233089   2.128   2.463   4.996
11050TIP3   OH233090   8.296   6.688   6.809
11050TIP3    H133091   8.333   6.708   6.895
11050TIP3    H233092   8.288   6.773   6.766
11051TIP3   OH233093   6.902   2.128   1.426
11051TIP3    H133094   6.820   2.122   1.376
11051TIP3    H233095   6.934   2.037   1.429
11052TIP3   OH233096   3.722   0.128   6.092
11052TIP3    H133097   3.733   0.163   6.180
11052TIP3    H233098   3.662   0.188   6.049
11053TIP3   OH233099   0.145   4.220   0.580
11053TIP3    H133100   0.080   4.201   0.512
11053TIP3    H233101   0.210   4.275   0.535
11054TIP3   OH233102   7.016   7.498   0.746
11054TIP3    H133103   6.993   7.517   0.655
11054TIP3    H233104   7.085   7.560   0.767
11055TIP3   OH233105   1.025   4.464   2.992
11055TIP3    H133106   0.954   4.419   2.946
11055TIP3    H233107   0.982   4.507   3.066
11056TIP3   OH233108   5.519   6.845   6.752
11056TIP3    H133109   5.531   6.761   6.708
11056TIP3    H233110   5.587   6.847   6.820
11057TIP3   OH233111   7.309   2.600   1.675
11057TIP3    H133112   7.277   2.635   1.758
11057TIP3    H233113   7.232   2.593   1.619
11058TIP3   OH233114   2.095   0.850   1.575
11058TIP3    H133115   2.140   0.794   1.511
11058TIP3    H233116   2.022   0.888   1.527
11059TIP3   OH233117   1.342   1.296   6.426
11059TIP3    H133118   1.252   1.265   6.434
11059TIP3    H233119   1.355   1.351   6.504
11060TIP3   OH233120   6.706   0.175   2.516
11060TIP3    H133121   6.682   0.246   2.457
11060TIP3    H233122   6.726   0.102   2.458
11061TIP3   OH233123   2.299   2.938   3.711
11061TIP3    H133124   2.234   2.885   3.758
11061TIP3    H233125   2.247   3.007   3.670
11062TIP3   OH233126   4.715   2.867   3.080
11062TIP3    H133127   4.712   2.800   3.012
11062TIP3    H233128   4.738   2.948   3.034
11063TIP3   OH233129   2.389   1.156   1.451
11063TIP3    H133130   2.314   1.118   1.497
11063TIP3    H233131   2.406   1.095   1.379
11064TIP3   OH233132   1.355   5.819   1.488
11064TIP3    H133133   1.262   5.810   1.509
11064TIP3    H233134   1.371   5.749   1.424
11065TIP3   OH233135   0.527   0.925   6.522
11065TIP3    H133136   0.440   0.949   6.553
11065TIP3    H233137   0.549   0.991   6.457
11066TIP3   OH233138   4.297   3.774   2.984
11066TIP3    H133139   4.251   3.844   2.938
11066TIP3    H233140   4.382   3.812   3.007
11067TIP3   OH233141   2.299   7.547   6.737
11067TIP3    H133142   2.306   7.452   6.737
11067TIP3    H233143   2.348   7.575   6.814
11068TIP3   OH233144   4.207   0.693   4.794
11068TIP3    H133145   4.163   0.750   4.857
11068TIP3    H233146   4.274   0.648   4.845
11069TIP3   OH233147   7.353   0.223   2.066
11069TIP3    H133148   7.370   0.220   2.160
11069TIP3    H233149   7.440   0.232   2.026
11070TIP3   OH233150   6.296   7.474   1.668
11070TIP3    H133151   6.296   7.570   1.662
11070TIP3    H233152   6.209   7.452   1.702
11071TIP3   OH233153   4.623   7.804   3.370
11071TIP3    H133154   4.646   7.798   3.463
11071TIP3    H233155   4.530   7.826   3.370
11072TIP3   OH233156   2.679   7.509   5.018
11072TIP3    H133157   2.598   7.552   4.991
11072TIP3    H233158   2.729   7.577   5.062
11073TIP3   OH233159   1.807   3.036   6.686
11073TIP3    H133160   1.734   2.986   6.650
11073TIP3    H233161   1.833   2.988   6.765
11074TIP3   OH233162   2.006   7.044   6.314
11074TIP3    H133163   1.949   7.060   6.388
11074TIP3    H233164   2.033   6.953   6.322
11075TIP3   OH233165   7.088   0.658   4.136
11075TIP3    H133166   7.137   0.638   4.056
11075TIP3    H233167   7.140   0.619   4.207
11076TIP3   OH233168   7.281   4.867   2.374
11076TIP3    H133169   7.306   4.905   2.290
11076TIP3    H233170   7.346   4.798   2.388
11077TIP3   OH233171   7.607   1.787   4.726
11077TIP3    H133172   7.613   1.825   4.639
11077TIP3    H233173   7.628   1.858   4.786
11078TIP3   OH233174   2.501   3.958   4.184
11078TIP3    H133175   2.463   3.874   4.209
11078TIP3    H233176   2.441   3.992   4.117
11079TIP3   OH233177   2.872   6.410   5.271
11079TIP3    H133178   2.897   6.429   5.361
11079TIP3    H233179   2.847   6.318   5.271
11080TIP3   OH233180   0.342   6.949   3.610
11080TIP3    H133181   0.278   6.896   3.657
11080TIP3    H233182   0.292   6.989   3.539
11081TIP3   OH233183   5.013   2.757   5.283
11081TIP3    H133184   4.962   2.832   5.313
11081TIP3    H233185   4.997   2.753   5.189
11082TIP3   OH233186   2.398   5.882   4.966
11082TIP3    H133187   2.400   5.977   4.973
11082TIP3    H233188   2.409   5.864   4.873
11083TIP3   OH233189   1.279   0.093   1.527
11083TIP3    H133190   1.194   0.103   1.485
11083TIP3    H233191   1.282   0.001   1.553
11084TIP3   OH233192   5.393   1.335   6.005
11084TIP3    H133193   5.384   1.428   5.986
11084TIP3    H233194   5.358   1.325   6.094
11085TIP3   OH233195   4.203   7.509   1.327
11085TIP3    H133196   4.163   7.437   1.375
11085TIP3    H233197   4.230   7.571   1.394
11086TIP3   OH233198   1.401   3.987   1.677
11086TIP3    H133199   1.492   4.017   1.688
11086TIP3    H233200   1.410   3.896   1.648
11087TIP3   OH233201   4.422   7.489   3.438
11087TIP3    H133202   4.437   7.449   3.524
11087TIP3    H233203   4.367   7.426   3.391
11088TIP3   OH233204   4.701   4.412   0.284
11088TIP3    H133205   4.658   4.410   0.199
11088TIP3    H233206   4.719   4.320   0.303
11089TIP3   OH233207   3.270   5.705   2.894
11089TIP3    H133208   3.269   5.776   2.958
11089TIP3    H233209   3.363   5.694   2.872
11090TIP3   OH233210   0.054   0.842   0.706
11090TIP3    H133211   0.090   0.930   0.714
11090TIP3    H233212   0.030   0.834   0.614
11091TIP3   OH233213   6.576   7.871   1.087
11091TIP3    H133214   6.584   7.789   1.038
11091TIP3    H233215   6.542   7.843   1.173
11092TIP3   OH233216   6.208   7.539   4.819
11092TIP3    H133217   6.168   7.625   4.828
11092TIP3    H233218   6.295   7.549   4.857
11093TIP3   OH233219   6.650   7.228   5.758
11093TIP3    H133220   6.689   7.156   5.709
11093TIP3    H233221   6.561   7.236   5.723
11094TIP3   OH233222   1.973   6.123   3.630
11094TIP3    H133223   2.027   6.140   3.552
11094TIP3    H233224   1.890   6.091   3.594
11095TIP3   OH233225   6.289   0.818   0.736
11095TIP3    H133226   6.348   0.756   0.693
11095TIP3    H233227   6.213   0.823   0.679
11096TIP3   OH233228   6.009   3.161   5.413
11096TIP3    H133229   6.004   3.249   5.450
11096TIP3    H233230   5.932   3.116   5.449
11097TIP3   OH233231   1.143   1.251   4.970
11097TIP3    H133232   1.202   1.253   4.894
11097TIP3    H233233   1.055   1.250   4.933
11098TIP3   OH233234   1.331   5.532   3.409
11098TIP3    H133235   1.333   5.574   3.495
11098TIP3    H233236   1.282   5.592   3.354
11099TIP3   OH233237   4.594   1.748   2.651
11099TIP3    H133238   4.553   1.663   2.632
11099TIP3    H233239   4.559   1.773   2.736
11100TIP3   OH233240   3.727   2.542   1.188
11100TIP3    H133241   3.722   2.584   1.274
11100TIP3    H233242   3.748   2.613   1.127
11101TIP3   OH233243   2.233   3.454   3.230
11101TIP3    H133244   2.318   3.475   3.268
11101TIP3    H233245   2.253   3.421   3.142
11102TIP3   OH233246   2.598   4.405   6.766
11102TIP3    H133247   2.618   4.368   6.681
11102TIP3    H233248   2.575   4.330   6.820
11103TIP3   OH233249   5.889   0.731   6.831
11103TIP3    H133250   5.897   0.685   6.748
11103TIP3    H233251   5.918   0.820   6.813
11104TIP3   OH233252   0.939   3.022   1.928
11104TIP3    H133253   0.969   3.014   2.019
11104TIP3    H233254   0.987   2.954   1.881
11105TIP3   OH233255   1.102   0.842   5.469
11105TIP3    H133256   1.049   0.842   5.389
11105TIP3    H233257   1.189   0.866   5.439
11106TIP3   OH233258   7.673   2.322   3.391
11106TIP3    H133259   7.577   2.318   3.394
11106TIP3    H233260   7.695   2.305   3.299
11107TIP3   OH233261   4.799   5.382   1.802
11107TIP3    H133262   4.870   5.340   1.754
11107TIP3    H233263   4.720   5.340   1.770
11108TIP3   OH233264   3.735   1.627   5.754
11108TIP3    H133265   3.754   1.714   5.789
11108TIP3    H233266   3.772   1.627   5.666
11109TIP3   OH233267   7.040   5.144   4.705
11109TIP3    H133268   7.061   5.233   4.732
11109TIP3    H233269   7.104   5.123   4.637
11110TIP3   OH233270   5.416   4.315   4.455
11110TIP3    H133271   5.474   4.345   4.525
11110TIP3    H233272   5.359   4.252   4.498
11111TIP3   OH233273   4.597   4.824   5.321
11111TIP3    H133274   4.578   4.871   5.402
11111TIP3    H233275   4.602   4.892   5.254
11112TIP3   OH233276   3.963   5.201   3.696
11112TIP3    H133277   3.898   5.264   3.727
11112TIP3    H233278   3.993   5.238   3.612
11113TIP3   OH233279   0.985   4.784   1.703
11113TIP3    H133280   0.899   4.746   1.685
11113TIP3    H233281   1.041   4.709   1.723
11114TIP3   OH233282   2.531   6.859   3.512
11114TIP3    H133283   2.470   6.811   3.567
11114TIP3    H233284   2.559   6.933   3.566
11115TIP3   OH233285   7.938   5.949   6.515
11115TIP3    H133286   7.992   5.870   6.508
11115TIP3    H233287   8.000   6.021   6.518
11116TIP3   OH233288   0.586   0.063   2.358
11116TIP3    H133289   0.674   0.059   2.397
11116TIP3    H233290   0.539  -0.011   2.397
11117TIP3   OH233291   3.663   5.234   5.414
11117TIP3    H133292   3.584   5.237   5.359
11117TIP3    H233293   3.648   5.302   5.480
11118TIP3   OH233294   0.969   7.884   1.673
11118TIP3    H133295   0.999   7.796   1.695
11118TIP3    H233296   1.011   7.902   1.588
11119TIP3   OH233297   1.188   0.283   5.119
11119TIP3    H133298   1.267   0.278   5.065
11119TIP3    H233299   1.169   0.377   5.124
11120TIP3   OH233300   2.643   4.124   4.338
11120TIP3    H133301   2.624   4.110   4.430
11120TIP3    H233302   2.588   4.060   4.292
11121TIP3   OH233303   2.890   7.141   1.324
11121TIP3    H133304   2.941   7.077   1.374
11121TIP3    H233305   2.931   7.225   1.344
11122TIP3   OH233306   5.189   7.728   3.297
11122TIP3    H133307   5.248   7.654   3.277
11122TIP3    H233308   5.156   7.755   3.211
11123TIP3   OH233309   7.024   1.539   2.976
11123TIP3    H133310   6.968   1.479   2.927
11123TIP3    H233311   7.004   1.522   3.068
11124TIP3   OH233312   4.878   7.251   1.728
11124TIP3    H133313   4.833   7.272   1.810
11124TIP3    H233314   4.950   7.313   1.724
11125TIP3   OH233315   5.384   4.535   0.814
11125TIP3    H133316   5.319   4.467   0.830
11125TIP3    H233317   5.425   4.549   0.900
11126TIP3   OH233318   1.644   2.982   2.105
11126TIP3    H133319   1.650   2.905   2.049
11126TIP3    H233320   1.639   2.946   2.194
11127TIP3   OH233321   6.904   5.325   0.032
11127TIP3    H133322   6.995   5.352   0.020
11127TIP3    H233323   6.887   5.265  -0.041
11128TIP3   OH233324   6.164   1.347   1.550
11128TIP3    H133325   6.094   1.368   1.489
11128TIP3    H233326   6.215   1.428   1.558
11129TIP3   OH233327   7.660   6.116  -0.002
11129TIP3    H133328   7.615   6.075  -0.076
11129TIP3    H233329   7.591   6.160   0.047
11130TIP3   OH233330   2.528   0.461   1.233
11130TIP3    H133331   2.538   0.518   1.157
11130TIP3    H233332   2.436   0.435   1.231
11131TIP3   OH233333   6.367   4.575   1.785
11131TIP3    H133334   6.399   4.485   1.793
11131TIP3    H233335   6.370   4.593   1.691
11132TIP3   OH233336   5.852   1.572   2.667
11132TIP3    H133337   5.808   1.629   2.729
11132TIP3    H233338   5.903   1.512   2.721
11133TIP3   OH233339   1.020   5.005   1.863
11133TIP3    H133340   0.980   5.062   1.797
11133TIP3    H233341   1.009   4.916   1.828
11134TIP3   OH233342   1.900   7.631   2.154
11134TIP3    H133343   1.960   7.590   2.092
11134TIP3    H233344   1.848   7.558   2.189
11135TIP3   OH233345   6.791   1.611   2.278
11135TIP3    H133346   6.772   1.570   2.193
11135TIP3    H233347   6.820   1.540   2.334
11136TIP3   OH233348   2.577   6.790   0.504
11136TIP3    H133349   2.617   6.734   0.570
11136TIP3    H233350   2.613   6.877   0.520
11137TIP3   OH233351   7.686   0.525   2.778
11137TIP3    H133352   7.649   0.509   2.691
11137TIP3    H233353   7.773   0.562   2.760
11138TIP3   OH233354   7.127   6.819   2.280
11138TIP3    H133355   7.073   6.778   2.213
11138TIP3    H233356   7.140   6.908   2.249
11139TIP3   OH233357   4.775   3.576   5.311
11139TIP3    H133358   4.794   3.632   5.386
11139TIP3    H233359   4.715   3.510   5.345
11140TIP3   OH233360   3.694   0.135   2.251
11140TIP3    H133361   3.707   0.160   2.342
11140TIP3    H233362   3.667   0.043   2.255
11141TIP3   OH233363   4.969   6.483   2.952
11141TIP3    H133364   5.054   6.506   2.990
11141TIP3    H233365   4.932   6.418   3.013
11142TIP3   OH233366   6.891   2.009   6.385
11142TIP3    H133367   6.845   1.928   6.405
11142TIP3    H233368   6.964   2.011   6.447
11143TIP3   OH233369   5.568   4.882   0.805
11143TIP3    H133370   5.562   4.800   0.854
11143TIP3    H233371   5.547   4.950   0.868
11144TIP3   OH233372   4.329   0.027   1.591
11144TIP3    H133373   4.321  -0.032   1.666
11144TIP3    H233374   4.304   0.113   1.625
11145TIP3   OH233375   8.116   4.504   3.250
11145TIP3    H133376   8.066   4.494   3.330
11145TIP3    H233377   8.079   4.582   3.207
11146TIP3   OH233378   0.185   5.244   2.690
11146TIP3    H133379   0.260   5.216   2.742
11146TIP3    H233380   0.216   5.242   2.600
11147TIP3   OH233381   2.683   2.480   1.123
11147TIP3    H133382   2.689   2.553   1.061
11147TIP3    H233383   2.768   2.478   1.167
11148TIP3   OH233384   8.284   5.067   3.792
11148TIP3    H133385   8.309   5.081   3.884
11148TIP3    H233386   8.226   4.991   3.795
11149TIP3   OH233387   6.031   0.586   0.092
11149TIP3    H133388   6.049   0.492   0.088
11149TIP3    H233389   5.937   0.593   0.074
11150TIP3   OH233390   4.173   3.187   1.913
11150TIP3    H133391   4.202   3.235   1.990
11150TIP3    H233392   4.254   3.171   1.864
11151TIP3   OH233393   8.215   3.347   6.236
11151TIP3    H133394   8.302   3.372   6.266
11151TIP3    H233395   8.230   3.305   6.151
11152TIP3   OH233396   1.482   5.482   6.414
11152TIP3    H133397   1.392   5.501   6.442
11152TIP3    H233398   1.482   5.388   6.394
11153TIP3   OH233399   3.661   1.728   2.103
11153TIP3    H133400   3.638   1.704   2.013
11153TIP3    H233401   3.743   1.682   2.119
11154TIP3   OH233402   0.634   4.416   2.412
11154TIP3    H133403   0.623   4.338   2.466
11154TIP3    H233404   0.580   4.400   2.335
11155TIP3   OH233405   2.635   4.063   0.986
11155TIP3    H133406   2.674   4.070   0.899
11155TIP3    H233407   2.595   4.149   1.002
11156TIP3   OH233408   1.993   5.121   6.607
11156TIP3    H133409   2.063   5.113   6.672
11156TIP3    H233410   1.972   5.214   6.606
11157TIP3   OH233411   6.894   2.985   6.371
11157TIP3    H133412   6.860   2.952   6.287
11157TIP3    H233413   6.970   2.930   6.389
11158TIP3   OH233414   6.864   3.498   6.035
11158TIP3    H133415   6.881   3.538   5.949
11158TIP3    H233416   6.816   3.418   6.014
11159TIP3   OH233417   3.770   0.194   2.524
11159TIP3    H133418   3.738   0.166   2.610
11159TIP3    H233419   3.777   0.289   2.532
11160TIP3   OH233420   5.562   6.667   3.570
11160TIP3    H133421   5.567   6.723   3.493
11160TIP3    H233422   5.623   6.707   3.632
11161TIP3   OH233423   4.948   1.985   5.039
11161TIP3    H133424   4.992   1.902   5.019
11161TIP3    H233425   4.966   2.040   4.962
11162TIP3   OH233426   3.328   6.805   3.094
11162TIP3    H133427   3.302   6.719   3.126
11162TIP3    H233428   3.303   6.806   3.002
11163TIP3   OH233429   7.115   0.232   6.766
11163TIP3    H133430   7.046   0.234   6.833
11163TIP3    H233431   7.084   0.169   6.701
11164TIP3   OH233432   2.138   5.134   5.382
11164TIP3    H133433   2.138   5.198   5.311
11164TIP3    H233434   2.077   5.067   5.352
11165TIP3   OH233435   4.960   6.204   2.251
11165TIP3    H133436   4.931   6.243   2.169
11165TIP3    H233437   4.933   6.267   2.319
11166TIP3   OH233438   2.209   4.264   1.040
11166TIP3    H133439   2.205   4.172   1.065
11166TIP3    H233440   2.302   4.286   1.046
11167TIP3   OH233441   2.413   5.907   4.706
11167TIP3    H133442   2.476   5.846   4.668
11167TIP3    H233443   2.458   5.992   4.706
11168TIP3   OH233444   4.390   5.417   5.106
11168TIP3    H133445   4.370   5.510   5.094
11168TIP3    H233446   4.307   5.378   5.133
11169TIP3   OH233447   6.183   7.521   5.531
11169TIP3    H133448   6.236   7.441   5.529
11169TIP3    H233449   6.139   7.523   5.446
11170TIP3   OH233450   2.510   0.700   1.863
11170TIP3    H133451   2.523   0.780   1.813
11170TIP3    H233452   2.563   0.712   1.942
11171TIP3   OH233453   0.408   4.819   0.215
11171TIP3    H133454   0.399   4.724   0.224
11171TIP3    H233455   0.364   4.840   0.133
11172TIP3   OH233456   2.580   3.543   0.676
11172TIP3    H133457   2.531   3.538   0.758
11172TIP3    H233458   2.513   3.545   0.608
11173TIP3   OH233459   5.702   2.029   6.027
11173TIP3    H133460   5.612   2.023   6.058
11173TIP3    H233461   5.726   1.939   6.003
11174TIP3   OH233462   7.331   6.149   3.500
11174TIP3    H133463   7.279   6.166   3.578
11174TIP3    H233464   7.413   6.110   3.534
11175TIP3   OH233465   4.479   7.082   6.026
11175TIP3    H133466   4.391   7.082   5.987
11175TIP3    H233467   4.533   7.130   5.962
11176TIP3   OH233468   5.448   6.055   0.086
11176TIP3    H133469   5.487   6.029   0.003
11176TIP3    H233470   5.522   6.055   0.148
11177TIP3   OH233471   4.365   1.567   5.967
11177TIP3    H133472   4.396   1.656   5.948
11177TIP3    H233473   4.389   1.553   6.059
11178TIP3   OH233474   6.072   2.382   0.047
11178TIP3    H133475   6.036   2.469   0.064
11178TIP3    H233476   6.115   2.357   0.128
11179TIP3   OH233477   0.940   0.363   6.775
11179TIP3    H133478   0.854   0.389   6.808
11179TIP3    H233479   0.965   0.433   6.714
11180TIP3   OH233480   0.054   4.686   4.002
11180TIP3    H133481   0.010   4.602   3.991
11180TIP3    H233482   0.054   4.701   4.097
11181TIP3   OH233483   3.654   0.174   0.671
11181TIP3    H133484   3.692   0.255   0.635
11181TIP3    H233485   3.652   0.189   0.765
11182TIP3   OH233486   2.697   5.703   1.633
11182TIP3    H133487   2.760   5.764   1.672
11182TIP3    H233488   2.612   5.732   1.665
11183TIP3   OH233489   2.094   1.424   4.638
11183TIP3    H133490   2.085   1.492   4.705
11183TIP3    H233491   2.046   1.349   4.673
11184TIP3   OH233492   7.023   1.375   4.489
11184TIP3    H133493   7.081   1.433   4.439
11184TIP3    H233494   6.986   1.431   4.557
11185TIP3   OH233495   0.335   6.159   0.208
11185TIP3    H133496   0.414   6.148   0.155
11185TIP3    H233497   0.367   6.165   0.298
11186TIP3   OH233498   3.000   6.806   5.058
11186TIP3    H133499   3.029   6.761   4.980
11186TIP3    H233500   2.907   6.784   5.066
11187TIP3   OH233501   1.320   1.531   1.115
11187TIP3    H133502   1.307   1.624   1.134
11187TIP3    H233503   1.411   1.514   1.140
11188TIP3   OH233504   0.938   5.121   3.484
11188TIP3    H133505   1.005   5.095   3.546
11188TIP3    H233506   0.855   5.099   3.528
11189TIP3   OH233507   6.172   5.689   3.677
11189TIP3    H133508   6.197   5.728   3.594
11189TIP3    H233509   6.093   5.736   3.703
11190TIP3   OH233510   5.769   2.650   4.154
11190TIP3    H133511   5.842   2.667   4.095
11190TIP3    H233512   5.787   2.563   4.190
11191TIP3   OH233513   5.325   5.654   1.272
11191TIP3    H133514   5.342   5.616   1.186
11191TIP3    H233515   5.403   5.705   1.292
11192TIP3   OH233516   7.294   0.157   0.869
11192TIP3    H133517   7.203   0.176   0.846
11192TIP3    H233518   7.346   0.211   0.809
11193TIP3   OH233519   5.507   0.971   3.870
11193TIP3    H133520   5.465   0.895   3.911
11193TIP3    H233521   5.579   0.992   3.930
11194TIP3   OH233522   0.708   7.613   0.777
11194TIP3    H133523   0.789   7.642   0.735
11194TIP3    H233524   0.683   7.535   0.728
11195TIP3   OH233525   4.413   2.499   0.597
11195TIP3    H133526   4.481   2.498   0.530
11195TIP3    H233527   4.365   2.580   0.582
11196TIP3   OH233528   3.594   3.568   5.620
11196TIP3    H133529   3.631   3.480   5.607
11196TIP3    H233530   3.524   3.574   5.555
11197TIP3   OH233531   4.501   7.633   5.074
11197TIP3    H133532   4.445   7.696   5.030
11197TIP3    H233533   4.491   7.552   5.023
11198TIP3   OH233534   7.013   2.874   6.702
11198TIP3    H133535   7.080   2.900   6.639
11198TIP3    H233536   6.961   2.808   6.657
11199TIP3   OH233537   1.471   6.892   6.426
11199TIP3    H133538   1.552   6.843   6.410
11199TIP3    H233539   1.418   6.876   6.348
11200TIP3   OH233540   0.110   5.215   2.207
11200TIP3    H133541   0.142   5.245   2.122
11200TIP3    H233542   0.025   5.257   2.218
11201TIP3   OH233543   2.351   5.057   2.045
11201TIP3    H133544   2.344   5.112   1.967
11201TIP3    H233545   2.434   5.083   2.085
11202TIP3   OH233546   2.273   7.296   5.921
11202TIP3    H133547   2.289   7.202   5.931
11202TIP3    H233548   2.222   7.302   5.840
11203TIP3   OH233549   7.389   2.433   1.119
11203TIP3    H133550   7.395   2.347   1.077
11203TIP3    H233551   7.480   2.462   1.127
11204TIP3   OH233552   3.838   4.419   2.190
11204TIP3    H133553   3.891   4.499   2.192
11204TIP3    H233554   3.793   4.419   2.275
11205TIP3   OH233555   3.011   1.162   6.451
11205TIP3    H133556   3.061   1.142   6.530
11205TIP3    H233557   3.006   1.079   6.403
11206TIP3   OH233558   4.018   6.069   1.066
11206TIP3    H133559   3.943   6.048   1.121
11206TIP3    H233560   4.025   6.164   1.069
11207TIP3   OH233561   0.171   4.570   5.436
11207TIP3    H133562   0.188   4.634   5.367
11207TIP3    H233563   0.075   4.565   5.440
11208TIP3   OH233564   1.163   5.691   3.940
11208TIP3    H133565   1.105   5.766   3.926
11208TIP3    H233566   1.104   5.617   3.950
11209TIP3   OH233567   3.181   3.967   4.224
11209TIP3    H133568   3.122   3.940   4.294
11209TIP3    H233569   3.129   4.027   4.171
11210TIP3   OH233570   7.671   5.146   1.625
11210TIP3    H133571   7.675   5.053   1.603
11210TIP3    H233572   7.756   5.180   1.597
11211TIP3   OH233573   2.628   5.302   2.920
11211TIP3    H133574   2.709   5.339   2.955
11211TIP3    H233575   2.566   5.304   2.993
11212TIP3   OH233576   4.194   6.000   0.267
11212TIP3    H133577   4.223   6.091   0.269
11212TIP3    H233578   4.104   6.004   0.236
11213TIP3   OH233579   8.366   3.762   5.270
11213TIP3    H133580   8.341   3.797   5.356
11213TIP3    H233581   8.308   3.687   5.257
11214TIP3   OH233582   2.540   0.037   1.259
11214TIP3    H133583   2.630   0.056   1.230
11214TIP3    H233584   2.527   0.096   1.334
11215TIP3   OH233585   4.715   6.857   6.635
11215TIP3    H133586   4.777   6.928   6.652
11215TIP3    H233587   4.752   6.810   6.560
11216TIP3   OH233588   7.250   0.345   4.069
11216TIP3    H133589   7.163   0.308   4.055
11216TIP3    H233590   7.288   0.291   4.138
11217TIP3   OH233591   3.326   6.015   6.826
11217TIP3    H133592   3.350   5.983   6.739
11217TIP3    H233593   3.242   6.059   6.813
11218TIP3   OH233594   4.587   6.515   1.568
11218TIP3    H133595   4.512   6.456   1.576
11218TIP3    H233596   4.642   6.474   1.501
11219TIP3   OH233597   5.251   1.838   3.580
11219TIP3    H133598   5.161   1.809   3.564
11219TIP3    H233599   5.270   1.899   3.509
11220TIP3   OH233600   0.136   4.078   2.737
11220TIP3    H133601   0.209   4.133   2.707
11220TIP3    H233602   0.063   4.102   2.680
11221TIP3   OH233603   1.943   2.693   0.589
11221TIP3    H133604   1.903   2.766   0.542
11221TIP3    H233605   2.004   2.654   0.527
11222TIP3   OH233606   4.037   0.980   0.113
11222TIP3    H133607   4.005   0.949   0.029
11222TIP3    H233608   4.124   0.941   0.122
11223TIP3   OH233609   2.398   7.121   1.715
11223TIP3    H133610   2.456   7.163   1.651
11223TIP3    H233611   2.448   7.045   1.745
11224TIP3   OH233612   4.176   2.382   2.715
11224TIP3    H133613   4.256   2.425   2.683
11224TIP3    H233614   4.136   2.343   2.637
11225TIP3   OH233615   3.243   2.447   4.948
11225TIP3    H133616   3.287   2.365   4.969
11225TIP3    H233617   3.311   2.514   4.961
11226TIP3   OH233618   5.680   1.585   6.194
11226TIP3    H133619   5.740   1.647   6.234
11226TIP3    H233620   5.707   1.499   6.228
11227TIP3   OH233621   7.311   2.384   4.242
11227TIP3    H133622   7.330   2.417   4.154
11227TIP3    H233623   7.394   2.351   4.274
11228TIP3   OH233624   6.015   2.378   5.995
11228TIP3    H133625   5.998   2.303   6.052
11228TIP3    H233626   6.111   2.381   5.988
11229TIP3   OH233627   7.027   1.909   5.577
11229TIP3    H133628   7.049   1.871   5.492
11229TIP3    H233629   7.013   2.002   5.558
11230TIP3   OH233630   2.203   4.488   1.697
11230TIP3    H133631   2.195   4.396   1.671
11230TIP3    H233632   2.248   4.486   1.781
11231TIP3   OH233633   1.164   2.247   4.856
11231TIP3    H133634   1.207   2.331   4.875
11231TIP3    H233635   1.169   2.198   4.938
11232TIP3   OH233636   7.460   0.548   4.615
11232TIP3    H133637   7.367   0.570   4.618
11232TIP3    H233638   7.496   0.584   4.696
11233TIP3   OH233639   3.398   3.678   6.752
11233TIP3    H133640   3.487   3.652   6.728
11233TIP3    H233641   3.342   3.631   6.691
11234TIP3   OH233642   5.546   5.712   4.845
11234TIP3    H133643   5.576   5.633   4.889
11234TIP3    H233644   5.623   5.747   4.802
11235TIP3   OH233645   0.254   2.843   6.385
11235TIP3    H133646   0.180   2.889   6.423
11235TIP3    H233647   0.326   2.858   6.447
11236TIP3   OH233648   0.970   0.196   0.283
11236TIP3    H133649   0.916   0.201   0.204
11236TIP3    H233650   1.037   0.264   0.270
11237TIP3   OH233651   7.733   6.134   3.416
11237TIP3    H133652   7.728   6.152   3.322
11237TIP3    H233653   7.812   6.080   3.426
11238TIP3   OH233654   3.914   1.542   3.375
11238TIP3    H133655   3.828   1.575   3.402
11238TIP3    H233656   3.948   1.609   3.316
11239TIP3   OH233657   5.842   4.595   5.191
11239TIP3    H133658   5.762   4.610   5.142
11239TIP3    H233659   5.895   4.538   5.135
11240TIP3   OH233660   1.995   4.958   2.967
11240TIP3    H133661   1.902   4.978   2.950
11240TIP3    H233662   2.028   5.037   3.009
11241TIP3   OH233663   1.596   4.338   0.617
11241TIP3    H133664   1.621   4.431   0.609
11241TIP3    H233665   1.669   4.299   0.666
11242TIP3   OH233666   3.780   4.717   4.715
11242TIP3    H133667   3.757   4.777   4.786
11242TIP3    H233668   3.715   4.647   4.722
11243TIP3   OH233669   2.951   3.349   3.471
11243TIP3    H133670   2.895   3.403   3.528
11243TIP3    H233671   2.964   3.269   3.521
11244TIP3   OH233672   7.806   4.371   0.030
11244TIP3    H133673   7.846   4.339   0.112
11244TIP3    H233674   7.796   4.465   0.044
11245TIP3   OH233675   2.720   6.868   3.127
11245TIP3    H133676   2.684   6.791   3.083
11245TIP3    H233677   2.743   6.927   3.055
11246TIP3   OH233678   2.966   1.627   5.700
11246TIP3    H133679   2.941   1.536   5.717
11246TIP3    H233680   2.892   1.678   5.733
11247TIP3   OH233681   6.993   4.270   5.798
11247TIP3    H133682   7.060   4.263   5.867
11247TIP3    H233683   7.043   4.272   5.717
11248TIP3   OH233684   4.329   0.107   5.824
11248TIP3    H133685   4.304   0.019   5.851
11248TIP3    H233686   4.246   0.152   5.809
11249TIP3   OH233687   5.682  -0.008   0.637
11249TIP3    H133688   5.593  -0.038   0.618
11249TIP3    H233689   5.671   0.066   0.697
11250TIP3   OH233690   2.536   0.724   4.248
11250TIP3    H133691   2.558   0.654   4.309
11250TIP3    H233692   2.590   0.798   4.276
11251TIP3   OH233693   7.980   4.769   0.837
11251TIP3    H133694   7.957   4.812   0.920
11251TIP3    H233695   8.065   4.728   0.855
11252TIP3   OH233696   0.261   2.322   1.201
11252TIP3    H133697   0.276   2.229   1.222
11252TIP3    H233698   0.302   2.334   1.115
11253TIP3   OH233699   5.030   5.650   0.405
11253TIP3    H133700   5.101   5.603   0.362
11253TIP3    H233701   5.060   5.741   0.408
11254TIP3   OH233702   0.480   2.480   2.140
11254TIP3    H133703   0.541   2.424   2.188
11254TIP3    H233704   0.393   2.452   2.170
11255TIP3   OH233705   3.801   0.597   0.843
11255TIP3    H133706   3.741   0.611   0.917
11255TIP3    H233707   3.777   0.663   0.779
11256TIP3   OH233708   3.213   4.402   6.892
11256TIP3    H133709   3.214   4.380   6.799
11256TIP3    H233710   3.222   4.497   6.895
11257TIP3   OH233711   1.531   3.806   1.952
11257TIP3    H133712   1.586   3.856   1.892
11257TIP3    H233713   1.553   3.715   1.935
11258TIP3   OH233714   4.701   2.571   1.008
11258TIP3    H133715   4.717   2.578   0.914
11258TIP3    H233716   4.608   2.552   1.015
11259TIP3   OH233717   4.896   0.950   1.548
11259TIP3    H133718   4.837   0.915   1.481
11259TIP3    H233719   4.981   0.912   1.527
11260TIP3   OH233720   5.043   6.574   4.753
11260TIP3    H133721   5.055   6.492   4.705
11260TIP3    H233722   5.117   6.578   4.813
11261TIP3   OH233723   0.430   7.784   6.257
11261TIP3    H133724   0.432   7.827   6.342
11261TIP3    H233725   0.468   7.848   6.197
11262TIP3   OH233726   6.433   2.111   4.537
11262TIP3    H133727   6.353   2.113   4.484
11262TIP3    H233728   6.503   2.094   4.474
11263TIP3   OH233729   7.072   7.015   1.869
11263TIP3    H133730   7.016   6.978   1.801
11263TIP3    H233731   7.032   7.100   1.889
11264TIP3   OH233732   4.307   5.961   4.024
11264TIP3    H133733   4.278   6.030   3.965
11264TIP3    H233734   4.226   5.921   4.055
11265TIP3   OH233735   4.562   0.171   2.181
11265TIP3    H133736   4.657   0.159   2.171
11265TIP3    H233737   4.533   0.194   2.093
11266TIP3   OH233738   7.332   1.785   6.652
11266TIP3    H133739   7.427   1.774   6.646
11266TIP3    H233740   7.319   1.836   6.732
11267TIP3   OH233741   4.165   5.887   2.895
11267TIP3    H133742   4.259   5.906   2.902
11267TIP3    H233743   4.138   5.930   2.813
11268TIP3   OH233744   3.256   0.392   3.572
11268TIP3    H133745   3.315   0.438   3.512
11268TIP3    H233746   3.168   0.416   3.542
11269TIP3   OH233747   7.181   5.739   5.175
11269TIP3    H133748   7.176   5.653   5.217
11269TIP3    H233749   7.177   5.721   5.081
11270TIP3   OH233750   8.235   4.584   5.534
11270TIP3    H133751   8.169   4.652   5.521
11270TIP3    H233752   8.224   4.559   5.626
11271TIP3   OH233753   0.919   0.657   0.899
11271TIP3    H133754   0.901   0.580   0.954
11271TIP3    H233755   0.989   0.628   0.840
11272TIP3   OH233756   3.971   5.724   4.535
11272TIP3    H133757   3.996   5.670   4.610
11272TIP3    H233758   3.923   5.798   4.573
11273TIP3   OH233759   7.319   4.676   6.820
11273TIP3    H133760   7.414   4.682   6.827
11273TIP3    H233761   7.304   4.638   6.733
11274TIP3   OH233762   4.027   0.359   5.062
11274TIP3    H133763   4.075   0.374   4.980
11274TIP3    H233764   4.086   0.391   5.130
11275TIP3   OH233765   6.967   7.446   2.832
11275TIP3    H133766   6.912   7.520   2.858
11275TIP3    H233767   6.976   7.394   2.911
11276TIP3   OH233768   4.712   5.669   6.318
11276TIP3    H133769   4.705   5.757   6.356
11276TIP3    H233770   4.690   5.681   6.226
11277TIP3   OH233771   0.016   1.455   0.713
11277TIP3    H133772   0.061   1.534   0.683
11277TIP3    H233773   0.016   1.397   0.637
11278TIP3   OH233774   0.861   7.196   5.459
11278TIP3    H133775   0.809   7.276   5.461
11278TIP3    H233776   0.880   7.182   5.366
11279TIP3   OH233777   2.605   6.978   5.323
11279TIP3    H133778   2.667   6.928   5.377
11279TIP3    H233779   2.519   6.956   5.359
11280TIP3   OH233780   4.993   3.139   0.255
11280TIP3    H133781   5.043   3.175   0.182
11280TIP3    H233782   4.997   3.044   0.242
11281TIP3   OH233783   8.387   2.747   3.433
11281TIP3    H133784   8.325   2.803   3.385
11281TIP3    H233785   8.473   2.773   3.401
11282TIP3   OH233786   6.218   4.021   3.274
11282TIP3    H133787   6.198   3.940   3.321
11282TIP3    H233788   6.204   4.091   3.338
11283TIP3   OH233789   2.404   1.593   0.526
11283TIP3    H133790   2.465   1.581   0.599
11283TIP3    H233791   2.451   1.650   0.466
11284TIP3   OH233792   0.584   0.633   5.954
11284TIP3    H133793   0.657   0.591   6.000
11284TIP3    H233794   0.558   0.705   6.011
11285TIP3   OH233795   3.683   0.705   5.853
11285TIP3    H133796   3.619   0.644   5.817
11285TIP3    H233797   3.765   0.682   5.810
11286TIP3   OH233798   4.403   2.273   1.702
11286TIP3    H133799   4.453   2.315   1.632
11286TIP3    H233800   4.452   2.293   1.782
11287TIP3   OH233801   7.179   4.798   2.080
11287TIP3    H133802   7.269   4.805   2.047
11287TIP3    H233803   7.125   4.792   2.002
11288TIP3   OH233804   2.736   2.897   6.020
11288TIP3    H133805   2.705   2.979   6.058
11288TIP3    H233806   2.743   2.838   6.095
11289TIP3   OH233807   7.745   6.454   1.277
11289TIP3    H133808   7.739   6.498   1.361
11289TIP3    H233809   7.801   6.378   1.294
11290TIP3   OH233810   7.029   5.493   2.965
11290TIP3    H133811   7.007   5.425   3.028
11290TIP3    H233812   6.999   5.574   3.007
11291TIP3   OH233813   1.440   4.374   5.167
11291TIP3    H133814   1.466   4.462   5.137
11291TIP3    H233815   1.349   4.366   5.140
11292TIP3   OH233816   7.592   6.462   2.879
11292TIP3    H133817   7.579   6.393   2.944
11292TIP3    H233818   7.519   6.452   2.818
11293TIP3   OH233819   7.990   7.469   2.463
11293TIP3    H133820   7.910   7.419   2.476
11293TIP3    H233821   8.047   7.443   2.535
11294TIP3   OH233822   1.770   3.760   4.544
11294TIP3    H133823   1.733   3.747   4.457
11294TIP3    H233824   1.774   3.672   4.582
11295TIP3   OH233825   3.618   0.525   4.141
11295TIP3    H133826   3.559   0.452   4.121
11295TIP3    H233827   3.560   0.600   4.154
11296TIP3   OH233828   3.348   4.191   0.353
11296TIP3    H133829   3.370   4.281   0.331
11296TIP3    H233830   3.430   4.142   0.339
11297TIP3   OH233831   7.045   1.984   6.124
11297TIP3    H133832   7.001   2.016   6.203
11297TIP3    H233833   7.034   2.056   6.061
11298TIP3   OH233834   5.311   6.794   5.481
11298TIP3    H133835   5.240   6.740   5.446
11298TIP3    H233836   5.380   6.731   5.504
11299TIP3   OH233837   3.133   3.012   4.271
11299TIP3    H133838   3.091   3.090   4.307
11299TIP3    H233839   3.064   2.969   4.220
11300TIP3   OH233840   7.406   1.228   5.880
11300TIP3    H133841   7.392   1.133   5.882
11300TIP3    H233842   7.373   1.255   5.795
11301TIP3   OH233843   3.794   3.497   6.427
11301TIP3    H133844   3.740   3.575   6.440
11301TIP3    H233845   3.819   3.500   6.334
11302TIP3   OH233846   1.121   3.841   6.875
11302TIP3    H133847   1.054   3.781   6.841
11302TIP3    H233848   1.127   3.910   6.809
11303TIP3   OH233849   6.691   0.324   0.586
11303TIP3    H133850   6.598   0.307   0.601
11303TIP3    H233851   6.695   0.358   0.497
11304TIP3   OH233852   2.765   7.355   6.506
11304TIP3    H133853   2.855   7.350   6.540
11304TIP3    H233854   2.772   7.413   6.430
11305TIP3   OH233855   0.637   2.309   2.296
11305TIP3    H133856   0.695   2.323   2.221
11305TIP3    H233857   0.676   2.361   2.366
11306TIP3   OH233858   1.347   2.232   4.147
11306TIP3    H133859   1.413   2.167   4.173
11306TIP3    H233860   1.368   2.309   4.200
11307TIP3   OH233861   0.123   1.672   4.408
11307TIP3    H133862   0.100   1.740   4.470
11307TIP3    H233863   0.070   1.596   4.434
11308TIP3   OH233864   3.048   7.312   6.702
11308TIP3    H133865   3.137   7.323   6.669
11308TIP3    H233866   3.039   7.218   6.716
11309TIP3   OH233867   7.040   0.935   2.588
11309TIP3    H133868   7.063   0.859   2.536
11309TIP3    H233869   7.118   0.953   2.640
11310TIP3   OH233870   6.054   2.968   2.363
11310TIP3    H133871   6.128   2.994   2.308
11310TIP3    H233872   6.083   2.984   2.452
11311TIP3   OH233873   2.256   5.340   2.681
11311TIP3    H133874   2.176   5.392   2.673
11311TIP3    H233875   2.231   5.253   2.648
11312TIP3   OH233876   6.082   7.128   2.970
11312TIP3    H133877   6.103   7.035   2.980
11312TIP3    H233878   6.166   7.172   2.971
11313TIP3   OH233879   1.223   3.154   0.668
11313TIP3    H133880   1.313   3.124   0.676
11313TIP3    H233881   1.200   3.139   0.577
11314TIP3   OH233882   3.694   0.876   4.257
11314TIP3    H133883   3.699   0.797   4.310
11314TIP3    H233884   3.703   0.948   4.320
11315TIP3   OH233885   3.283   0.891   1.355
11315TIP3    H133886   3.223   0.918   1.286
11315TIP3    H233887   3.338   0.968   1.371
11316TIP3   OH233888   6.929   6.346   4.485
11316TIP3    H133889   6.926   6.297   4.403
11316TIP3    H233890   6.837   6.358   4.509
11317TIP3   OH233891   2.833   0.564   0.331
11317TIP3    H133892   2.839   0.551   0.425
11317TIP3    H233893   2.918   0.600   0.306
11318TIP3   OH233894   0.910   4.865   0.733
11318TIP3    H133895   0.851   4.807   0.685
11318TIP3    H233896   0.855   4.907   0.799
11319TIP3   OH233897   1.337   5.343   3.843
11319TIP3    H133898   1.262   5.296   3.807
11319TIP3    H233899   1.336   5.321   3.936
11320TIP3   OH233900   7.093   4.555   5.154
11320TIP3    H133901   7.187   4.538   5.162
11320TIP3    H233902   7.065   4.499   5.082
11321TIP3   OH233903   1.249   3.536   6.439
11321TIP3    H133904   1.195   3.615   6.428
11321TIP3    H233905   1.203   3.486   6.506
11322TIP3   OH233906   0.874   5.563   5.058
11322TIP3    H133907   0.951   5.508   5.068
11322TIP3    H233908   0.833   5.563   5.144
11323TIP3   OH233909   2.722   2.651   6.167
11323TIP3    H133910   2.703   2.631   6.258
11323TIP3    H233911   2.795   2.595   6.144
11324TIP3   OH233912   2.583   5.405   0.057
11324TIP3    H133913   2.551   5.480   0.107
11324TIP3    H233914   2.578   5.331   0.118
11325TIP3   OH233915   0.807   4.965   0.955
11325TIP3    H133916   0.714   4.964   0.978
11325TIP3    H233917   0.853   4.955   1.039
11326TIP3   OH233918   4.630   0.376   4.991
11326TIP3    H133919   4.718   0.359   4.957
11326TIP3    H233920   4.575   0.309   4.949
11327TIP3   OH233921   3.841   0.761   6.087
11327TIP3    H133922   3.917   0.705   6.069
11327TIP3    H233923   3.792   0.762   6.005
11328TIP3   OH233924   5.772   7.591   6.182
11328TIP3    H133925   5.798   7.667   6.233
11328TIP3    H233926   5.810   7.606   6.095
11329TIP3   OH233927   6.320   6.674   0.585
11329TIP3    H133928   6.253   6.705   0.524
11329TIP3    H233929   6.317   6.736   0.658
11330TIP3   OH233930   3.075   2.818   0.514
11330TIP3    H133931   3.148   2.859   0.560
11330TIP3    H233932   3.005   2.882   0.517
11331TIP3   OH233933   1.345   7.691   5.345
11331TIP3    H133934   1.255   7.714   5.368
11331TIP3    H233935   1.339   7.665   5.253
11332TIP3   OH233936   4.084   0.454   0.434
11332TIP3    H133937   4.013   0.398   0.402
11332TIP3    H233938   4.163   0.401   0.426
11333TIP3   OH233939   5.067   1.286   0.898
11333TIP3    H133940   5.061   1.193   0.872
11333TIP3    H233941   5.052   1.334   0.816
11334TIP3   OH233942   2.843   4.684   1.252
11334TIP3    H133943   2.843   4.766   1.201
11334TIP3    H233944   2.922   4.638   1.223
11335TIP3   OH233945   7.809   3.006   2.901
11335TIP3    H133946   7.724   3.032   2.935
11335TIP3    H233947   7.799   2.913   2.879
11336TIP3   OH233948   3.337   0.816   0.225
11336TIP3    H133949   3.427   0.826   0.258
11336TIP3    H233950   3.347   0.769   0.142
11337TIP3   OH233951   7.109   2.754   5.397
11337TIP3    H133952   7.142   2.671   5.363
11337TIP3    H233953   7.152   2.765   5.482
11338TIP3   OH233954   6.971   5.663   1.231
11338TIP3    H133955   6.998   5.582   1.274
11338TIP3    H233956   6.885   5.643   1.195
11339TIP3   OH233957   5.202   3.399   6.117
11339TIP3    H133958   5.131   3.364   6.171
11339TIP3    H233959   5.278   3.344   6.138
11340TIP3   OH233960   2.697   6.587   5.841
11340TIP3    H133961   2.744   6.660   5.801
11340TIP3    H233962   2.755   6.512   5.826
11341TIP3   OH233963   6.139   0.918   5.694
11341TIP3    H133964   6.078   0.945   5.762
11341TIP3    H233965   6.223   0.955   5.720
11342TIP3   OH233966   6.738   7.692   3.006
11342TIP3    H133967   6.791   7.620   3.041
11342TIP3    H233968   6.700   7.657   2.926
11343TIP3   OH233969   8.306   6.137   4.517
11343TIP3    H133970   8.395   6.104   4.503
11343TIP3    H233971   8.285   6.110   4.607
11344TIP3   OH233972   8.276   5.560   5.930
11344TIP3    H133973   8.339   5.601   5.990
11344TIP3    H233974   8.194   5.557   5.980
11345TIP3   OH233975   4.111   7.505   0.239
11345TIP3    H133976   4.162   7.464   0.309
11345TIP3    H233977   4.157   7.587   0.220
11346TIP3   OH233978   5.861   6.157   6.699
11346TIP3    H133979   5.892   6.218   6.766
11346TIP3    H233980   5.933   6.094   6.689
11347TIP3   OH233981   0.705   1.021   1.469
11347TIP3    H133982   0.777   1.084   1.465
11347TIP3    H233983   0.713   0.971   1.388
11348TIP3   OH233984   4.459   0.232   6.058
11348TIP3    H133985   4.435   0.205   5.969
11348TIP3    H233986   4.397   0.186   6.115
11349TIP3   OH233987   8.297   5.705   1.083
11349TIP3    H133988   8.383   5.747   1.087
11349TIP3    H233989   8.235   5.778   1.087
11350TIP3   OH233990   6.486   5.698   2.527
11350TIP3    H133991   6.572   5.663   2.552
11350TIP3    H233992   6.446   5.727   2.609
11351TIP3   OH233993   5.173   4.451   3.059
11351TIP3    H133994   5.235   4.435   3.131
11351TIP3    H233995   5.219   4.511   3.001
11352TIP3   OH233996   8.195   0.670   0.561
11352TIP3    H133997   8.112   0.666   0.514
11352TIP3    H233998   8.187   0.605   0.631
11353TIP3   OH233999   0.851   2.634   1.065
11353TIP3    H134000   0.804   2.580   1.003
11353TIP3    H234001   0.825   2.600   1.151
11354TIP3   OH234002   3.100   4.254   5.733
11354TIP3    H134003   3.123   4.170   5.692
11354TIP3    H234004   3.184   4.293   5.757
11355TIP3   OH234005   1.940   1.441   5.666
11355TIP3    H134006   1.952   1.395   5.583
11355TIP3    H234007   1.950   1.534   5.644
11356TIP3   OH234008   6.551   5.210   3.624
11356TIP3    H134009   6.604   5.285   3.651
11356TIP3    H234010   6.595   5.135   3.663
11357TIP3   OH234011   7.980   4.586   4.781
11357TIP3    H134012   8.040   4.654   4.813
11357TIP3    H234013   8.030   4.505   4.789
11358TIP3   OH234014   7.956   6.416   0.202
11358TIP3    H134015   8.051   6.419   0.198
11358TIP3    H234016   7.936   6.324   0.223
11359TIP3   OH234017   5.400   5.945   5.312
11359TIP3    H134018   5.412   5.946   5.217
11359TIP3    H234019   5.321   5.894   5.327
11360TIP3   OH234020   0.769   3.665   3.105
11360TIP3    H134021   0.840   3.726   3.084
11360TIP3    H234022   0.749   3.621   3.023
11361TIP3   OH234023   5.917   4.497   0.725
11361TIP3    H134024   5.908   4.484   0.631
11361TIP3    H234025   5.987   4.437   0.750
11362TIP3   OH234026   5.704   7.270   5.899
11362TIP3    H134027   5.651   7.264   5.819
11362TIP3    H234028   5.646   7.241   5.969
11363TIP3   OH234029   8.309   6.793   0.844
11363TIP3    H134030   8.369   6.860   0.811
11363TIP3    H234031   8.231   6.842   0.870
11364TIP3   OH234032   3.879   6.922   5.003
11364TIP3    H134033   3.796   6.874   5.008
11364TIP3    H234034   3.946   6.853   5.004
11365TIP3   OH234035   6.080   7.401   6.143
11365TIP3    H134036   6.040   7.326   6.098
11365TIP3    H234037   6.151   7.427   6.085
11366TIP3   OH234038   2.114   7.166   3.107
11366TIP3    H134039   2.175   7.102   3.144
11366TIP3    H234040   2.167   7.215   3.044
11367TIP3   OH234041   5.273   6.076   2.466
11367TIP3    H134042   5.203   6.020   2.500
11367TIP3    H234043   5.271   6.062   2.372
11368TIP3   OH234044   0.422   0.903   3.604
11368TIP3    H134045   0.369   0.891   3.526
11368TIP3    H234046   0.395   0.832   3.663
11369TIP3   OH234047   7.084   2.469   3.889
11369TIP3    H134048   7.093   2.377   3.865
11369TIP3    H234049   7.006   2.498   3.843
11370TIP3   OH234050   5.686   1.512   5.372
11370TIP3    H134051   5.700   1.493   5.465
11370TIP3    H234052   5.774   1.526   5.337
11371TIP3   OH234053   4.926   0.667   2.078
11371TIP3    H134054   4.940   0.596   2.015
11371TIP3    H234055   5.014   0.691   2.107
11372TIP3   OH234056   1.462   6.474   5.837
11372TIP3    H134057   1.447   6.387   5.801
11372TIP3    H234058   1.419   6.534   5.776
11373TIP3   OH234059   3.190   6.077   6.439
11373TIP3    H134060   3.143   5.996   6.418
11373TIP3    H234061   3.201   6.074   6.534
11374TIP3   OH234062   4.556   7.272   4.165
11374TIP3    H134063   4.557   7.196   4.223
11374TIP3    H234064   4.554   7.347   4.224
11375TIP3   OH234065   3.152   4.958   3.229
11375TIP3    H134066   3.102   4.971   3.148
11375TIP3    H234067   3.223   4.899   3.204
11376TIP3   OH234068   1.552   4.326   4.629
11376TIP3    H134069   1.537   4.269   4.553
11376TIP3    H234070   1.493   4.293   4.696
11377TIP3   OH234071   2.054   1.901   5.842
11377TIP3    H134072   2.120   1.877   5.907
11377TIP3    H234073   2.003   1.970   5.885
11378TIP3   OH234074   2.066   5.771   3.581
11378TIP3    H134075   2.055   5.678   3.602
11378TIP3    H234076   1.988   5.793   3.531
11379TIP3   OH234077   1.692   7.142   1.321
11379TIP3    H134078   1.761   7.208   1.331
11379TIP3    H234079   1.674   7.113   1.410
11380TIP3   OH234080   2.599   1.304   4.909
11380TIP3    H134081   2.561   1.274   4.992
11380TIP3    H234082   2.592   1.399   4.913
11381TIP3   OH234083   3.355   1.937   3.946
11381TIP3    H134084   3.339   1.890   4.028
11381TIP3    H234085   3.433   1.989   3.963
11382TIP3   OH234086   1.570   0.129   2.519
11382TIP3    H134087   1.508   0.059   2.498
11382TIP3    H234088   1.636   0.124   2.449
11383TIP3   OH234089   6.947   1.211   3.934
11383TIP3    H134090   6.924   1.299   3.964
11383TIP3    H234091   6.998   1.226   3.854
11384TIP3   OH234092   1.076   4.853   2.893
11384TIP3    H134093   1.052   4.802   2.815
11384TIP3    H234094   1.156   4.810   2.925
11385TIP3   OH234095   4.151   4.067   3.531
11385TIP3    H134096   4.143   3.975   3.555
11385TIP3    H234097   4.214   4.104   3.593
11386TIP3   OH234098   0.133   1.547   2.509
11386TIP3    H134099   0.209   1.552   2.567
11386TIP3    H234100   0.141   1.625   2.453
11387TIP3   OH234101   1.341   5.440   1.466
11387TIP3    H134102   1.302   5.387   1.535
11387TIP3    H234103   1.428   5.403   1.453
11388TIP3   OH234104   0.372   4.606   1.501
11388TIP3    H134105   0.277   4.614   1.509
11388TIP3    H234106   0.400   4.692   1.468
11389TIP3   OH234107   0.298   5.636   6.216
11389TIP3    H134108   0.273   5.556   6.261
11389TIP3    H234109   0.218   5.666   6.172
11390TIP3   OH234110   3.502   2.400   3.712
11390TIP3    H134111   3.536   2.432   3.795
11390TIP3    H234112   3.441   2.467   3.683
11391TIP3   OH234113   7.261   5.358   4.793
11391TIP3    H134114   7.311   5.307   4.857
11391TIP3    H234115   7.322   5.425   4.762
11392TIP3   OH234116   6.946   2.901   2.719
11392TIP3    H134117   6.978   2.964   2.655
11392TIP3    H234118   6.981   2.817   2.690
11393TIP3   OH234119   1.381   0.311   4.942
11393TIP3    H134120   1.451   0.282   4.884
11393TIP3    H234121   1.385   0.407   4.937
11394TIP3   OH234122   6.426   7.314   3.604
11394TIP3    H134123   6.473   7.246   3.555
11394TIP3    H234124   6.490   7.349   3.666
11395TIP3   OH234125   1.007   7.694   0.879
11395TIP3    H134126   0.980   7.617   0.931
11395TIP3    H234127   0.974   7.769   0.928
11396TIP3   OH234128   1.534   1.429   0.090
11396TIP3    H134129   1.539   1.443  -0.005
11396TIP3    H234130   1.441   1.423   0.109
11397TIP3   OH234131   8.033   1.233   1.399
11397TIP3    H134132   8.114   1.184   1.406
11397TIP3    H234133   7.971   1.173   1.358
11398TIP3   OH234134   0.180   5.347   1.984
11398TIP3    H134135   0.105   5.399   2.013
11398TIP3    H234136   0.243   5.411   1.952
11399TIP3   OH234137   1.655   2.435   6.037
11399TIP3    H134138   1.723   2.384   6.082
11399TIP3    H234139   1.618   2.373   5.974
11400TIP3   OH234140   1.946   2.895   2.401
11400TIP3    H134141   2.000   2.819   2.384
11400TIP3    H234142   1.965   2.919   2.492
11401TIP3   OH234143   4.806   6.569   4.613
11401TIP3    H134144   4.881   6.532   4.661
11401TIP3    H234145   4.832   6.565   4.521
11402TIP3   OH234146   4.523   0.003   1.813
11402TIP3    H134147   4.512  -0.019   1.905
11402TIP3    H234148   4.539   0.097   1.812
11403TIP3   OH234149   1.983   5.701   5.578
11403TIP3    H134150   2.053   5.737   5.524
11403TIP3    H234151   2.028   5.643   5.640
11404TIP3   OH234152   2.190   7.562   1.875
11404TIP3    H134153   2.178   7.571   1.781
11404TIP3    H234154   2.111   7.517   1.906
11405TIP3   OH234155   0.536   7.368   1.011
11405TIP3    H134156   0.551   7.334   1.099
11405TIP3    H234157   0.566   7.297   0.953
11406TIP3   OH234158   5.353   6.560   2.638
11406TIP3    H134159   5.385   6.506   2.566
11406TIP3    H234160   5.296   6.503   2.688
11407TIP3   OH234161   4.566   1.534   5.406
11407TIP3    H134162   4.502   1.491   5.463
11407TIP3    H234163   4.513   1.590   5.348
11408TIP3   OH234164   5.480   5.720   4.160
11408TIP3    H134165   5.545   5.657   4.189
11408TIP3    H234166   5.525   5.804   4.161
11409TIP3   OH234167   8.309   4.485   5.115
11409TIP3    H134168   8.399   4.495   5.084
11409TIP3    H234169   8.318   4.459   5.207
11410TIP3   OH234170   4.206   4.658   4.380
11410TIP3    H134171   4.257   4.642   4.301
11410TIP3    H234172   4.206   4.754   4.390
11411TIP3   OH234173   8.161   6.469   6.752
11411TIP3    H134174   8.208   6.542   6.792
11411TIP3    H234175   8.212   6.391   6.775
11412TIP3   OH234176   8.262   3.220   5.985
11412TIP3    H134177   8.318   3.146   6.009
11412TIP3    H234178   8.193   3.182   5.931
11413TIP3   OH234179   6.350   6.795   0.131
11413TIP3    H134180   6.274   6.738   0.138
11413TIP3    H234181   6.403   6.775   0.209
11414TIP3   OH234182   5.048   4.196   0.199
11414TIP3    H134183   5.008   4.254   0.134
11414TIP3    H234184   4.999   4.213   0.279
11415TIP3   OH234185   3.539   5.251   5.798
11415TIP3    H134186   3.532   5.320   5.864
11415TIP3    H234187   3.616   5.200   5.825
11416TIP3   OH234188   3.621   0.341   0.929
11416TIP3    H134189   3.647   0.428   0.961
11416TIP3    H234190   3.588   0.296   1.006
11417TIP3   OH234191   3.784   4.625   5.820
11417TIP3    H134192   3.711   4.626   5.759
11417TIP3    H234193   3.748   4.586   5.900
11418TIP3   OH234194   7.320   2.739   3.519
11418TIP3    H134195   7.229   2.769   3.527
11418TIP3    H234196   7.352   2.781   3.439
11419TIP3   OH234197   4.907   2.599   3.260
11419TIP3    H134198   4.930   2.617   3.169
11419TIP3    H234199   4.971   2.648   3.311
11420TIP3   OH234200   6.979   7.093   6.188
11420TIP3    H134201   6.897   7.119   6.147
11420TIP3    H234202   7.044   7.099   6.119
11421TIP3   OH234203   6.972   6.671   6.424
11421TIP3    H134204   7.008   6.747   6.378
11421TIP3    H234205   6.996   6.685   6.515
11422TIP3   OH234206   1.836   5.113   6.349
11422TIP3    H134207   1.884   5.075   6.422
11422TIP3    H234208   1.816   5.202   6.377
11423TIP3   OH234209   1.813   5.927   0.001
11423TIP3    H134210   1.879   5.955   0.065
11423TIP3    H234211   1.805   6.001  -0.059
11424TIP3   OH234212   6.167   1.325   6.667
11424TIP3    H134213   6.131   1.343   6.754
11424TIP3    H234214   6.150   1.232   6.652
11425TIP3   OH234215   1.934   6.417   3.519
11425TIP3    H134216   2.029   6.428   3.527
11425TIP3    H234217   1.904   6.407   3.610
11426TIP3   OH234218   7.585   1.940   4.212
11426TIP3    H134219   7.490   1.948   4.215
11426TIP3    H234220   7.602   1.851   4.242
11427TIP3   OH234221   1.426   6.620   1.510
11427TIP3    H134222   1.434   6.529   1.540
11427TIP3    H234223   1.406   6.670   1.589
11428TIP3   OH234224   0.111   6.493   3.962
11428TIP3    H134225   0.105   6.477   3.868
11428TIP3    H234226   0.132   6.586   3.970
11429TIP3   OH234227   1.042   1.365   1.565
11429TIP3    H134228   0.950   1.383   1.549
11429TIP3    H234229   1.050   1.356   1.660
11430TIP3   OH234230   6.689   5.269   1.702
11430TIP3    H134231   6.697   5.329   1.628
11430TIP3    H234232   6.727   5.187   1.672
11431TIP3   OH234233   3.796   0.743   0.140
11431TIP3    H134234   3.755   0.794   0.070
11431TIP3    H234235   3.744   0.761   0.218
11432TIP3   OH234236   4.625   5.465   2.010
11432TIP3    H134237   4.686   5.459   1.937
11432TIP3    H234238   4.580   5.548   1.997
11433TIP3   OH234239   3.254   1.059   5.318
11433TIP3    H134240   3.244   1.022   5.406
11433TIP3    H234241   3.165   1.084   5.293
11434TIP3   OH234242   4.996   3.070   5.677
11434TIP3    H134243   5.027   3.160   5.664
11434TIP3    H234244   4.915   3.079   5.726
11435TIP3   OH234245   0.728   4.507   1.571
11435TIP3    H134246   0.803   4.548   1.528
11435TIP3    H234247   0.687   4.578   1.622
11436TIP3   OH234248   7.580   7.462   1.994
11436TIP3    H134249   7.611   7.437   2.081
11436TIP3    H234250   7.659   7.462   1.939
11437TIP3   OH234251   6.065   3.059   4.718
11437TIP3    H134252   6.013   2.986   4.751
11437TIP3    H234253   6.151   3.022   4.699
11438TIP3   OH234254   5.577   5.753   2.766
11438TIP3    H134255   5.494   5.722   2.729
11438TIP3    H234256   5.570   5.848   2.764
11439TIP3   OH234257   0.756   4.573   1.181
11439TIP3    H134258   0.720   4.577   1.092
11439TIP3    H234259   0.746   4.482   1.207
11440TIP3   OH234260   6.851   5.141   2.354
11440TIP3    H134261   6.931   5.128   2.304
11440TIP3    H234262   6.783   5.150   2.287
11441TIP3   OH234263   2.957   2.729   4.357
11441TIP3    H134264   3.019   2.737   4.285
11441TIP3    H234265   2.930   2.637   4.355
11442TIP3   OH234266   4.028   3.077   0.628
11442TIP3    H134267   4.093   3.038   0.686
11442TIP3    H234268   4.055   3.169   0.620
11443TIP3   OH234269   4.289   3.029   1.598
11443TIP3    H134270   4.290   3.124   1.586
11443TIP3    H234271   4.254   2.995   1.516
11444TIP3   OH234272   4.348   3.976   4.722
11444TIP3    H134273   4.313   3.994   4.809
11444TIP3    H234274   4.406   3.901   4.734
11445TIP3   OH234275   5.958   6.428   5.222
11445TIP3    H134276   5.915   6.391   5.145
11445TIP3    H234277   6.026   6.363   5.244
11446TIP3   OH234278   0.023   4.539   0.281
11446TIP3    H134279   0.054   4.613   0.332
11446TIP3    H234280  -0.023   4.484   0.344
11447TIP3   OH234281   2.357   7.007   5.942
11447TIP3    H134282   2.338   6.938   6.007
11447TIP3    H234283   2.392   7.079   5.993
11448TIP3   OH234284   7.044   1.284   4.939
11448TIP3    H134285   7.110   1.317   4.878
11448TIP3    H234286   6.962   1.291   4.890
11449TIP3   OH234287   1.481   0.310   4.074
11449TIP3    H134288   1.518   0.371   4.010
11449TIP3    H234289   1.481   0.359   4.156
11450TIP3   OH234290   5.021   2.601   2.210
11450TIP3    H134291   5.043   2.614   2.118
11450TIP3    H234292   5.065   2.520   2.235
11451TIP3   OH234293   7.412   3.228   0.519
11451TIP3    H134294   7.331   3.252   0.566
11451TIP3    H234295   7.446   3.312   0.486
11452TIP3   OH234296   1.654   7.318   1.094
11452TIP3    H134297   1.697   7.402   1.108
11452TIP3    H234298   1.654   7.276   1.179
11453TIP3   OH234299   7.537   6.617   4.080
11453TIP3    H134300   7.502   6.692   4.127
11453TIP3    H234301   7.536   6.644   3.988
11454TIP3   OH234302   5.521   6.693   6.164
11454TIP3    H134303   5.445   6.702   6.106
11454TIP3    H234304   5.508   6.760   6.231
11455TIP3   OH234305   6.941   5.934   6.147
11455TIP3    H134306   6.958   5.998   6.216
11455TIP3    H234307   6.877   5.874   6.185
11456TIP3   OH234308   5.790   2.471   4.473
11456TIP3    H134309   5.774   2.517   4.556
11456TIP3    H234310   5.841   2.394   4.498
11457TIP3   OH234311   6.330   2.480   3.343
11457TIP3    H134312   6.269   2.510   3.276
11457TIP3    H234313   6.323   2.546   3.412
11458TIP3   OH234314   0.279   3.725   3.796
11458TIP3    H134315   0.342   3.794   3.776
11458TIP3    H234316   0.275   3.723   3.892
11459TIP3   OH234317   1.218   1.890   6.846
11459TIP3    H134318   1.176   1.852   6.768
11459TIP3    H234319   1.146   1.901   6.908
11460TIP3   OH234320   6.132   7.748   4.178
11460TIP3    H134321   6.133   7.652   4.177
11460TIP3    H234322   6.074   7.770   4.251
11461TIP3   OH234323   4.712   1.662   4.424
11461TIP3    H134324   4.764   1.616   4.490
11461TIP3    H234325   4.674   1.593   4.370
11462TIP3   OH234326   5.170   0.250   5.365
11462TIP3    H134327   5.183   0.217   5.454
11462TIP3    H234328   5.236   0.318   5.355
11463TIP3   OH234329   0.539   2.600   1.219
11463TIP3    H134330   0.534   2.695   1.218
11463TIP3    H234331   0.450   2.571   1.241
11464TIP3   OH234332   0.212   4.670   3.769
11464TIP3    H134333   0.174   4.655   3.856
11464TIP3    H234334   0.136   4.692   3.714
11465TIP3   OH234335   5.185   2.862   5.851
11465TIP3    H134336   5.118   2.891   5.789
11465TIP3    H234337   5.262   2.843   5.796
11466TIP3   OH234338   7.800   0.939   1.835
11466TIP3    H134339   7.726   0.988   1.872
11466TIP3    H234340   7.842   1.000   1.775
11467TIP3   OH234341   6.467   5.214   6.837
11467TIP3    H134342   6.433   5.136   6.792
11467TIP3    H234343   6.546   5.236   6.789
11468TIP3   OH234344   1.091   5.357   6.349
11468TIP3    H134345   1.018   5.343   6.410
11468TIP3    H234346   1.087   5.282   6.290
11469TIP3   OH234347   1.879   3.324   2.556
11469TIP3    H134348   1.795   3.280   2.542
11469TIP3    H234349   1.855   3.411   2.588
11470TIP3   OH234350   3.280   6.460   6.594
11470TIP3    H134351   3.211   6.511   6.636
11470TIP3    H234352   3.241   6.427   6.514
11471TIP3   OH234353   2.857   6.287   6.253
11471TIP3    H134354   2.790   6.328   6.198
11471TIP3    H234355   2.869   6.200   6.215
11472TIP3   OH234356   2.276   2.830   1.044
11472TIP3    H134357   2.325   2.748   1.047
11472TIP3    H234358   2.313   2.883   1.115
11473TIP3   OH234359   2.441   7.674   5.265
11473TIP3    H134360   2.397   7.758   5.278
11473TIP3    H234361   2.375   7.618   5.225
11474TIP3   OH234362   1.123   6.387   6.541
11474TIP3    H134363   1.107   6.450   6.470
11474TIP3    H234364   1.136   6.304   6.496
11475TIP3   OH234365   1.338   1.934   5.634
11475TIP3    H134366   1.381   1.946   5.550
11475TIP3    H234367   1.296   1.848   5.628
11476TIP3   OH234368   2.667   5.220   6.647
11476TIP3    H134369   2.727   5.203   6.574
11476TIP3    H234370   2.651   5.134   6.686
11477TIP3   OH234371   5.657   6.332   1.276
11477TIP3    H134372   5.636   6.379   1.357
11477TIP3    H234373   5.650   6.239   1.300
11478TIP3   OH234374   0.466   3.584   1.619
11478TIP3    H134375   0.534   3.616   1.677
11478TIP3    H234376   0.502   3.503   1.582
11479TIP3   OH234377   0.253   2.087   0.301
11479TIP3    H134378   0.217   2.069   0.387
11479TIP3    H234379   0.185   2.058   0.240
11480TIP3   OH234380   0.704   3.234   3.880
11480TIP3    H134381   0.640   3.294   3.842
11480TIP3    H234382   0.702   3.157   3.822
11481TIP3   OH234383   4.655   1.667   3.049
11481TIP3    H134384   4.607   1.732   2.997
11481TIP3    H234385   4.727   1.641   2.992
11482TIP3   OH234386   0.964   7.483   1.091
11482TIP3    H134387   1.031   7.415   1.089
11482TIP3    H234388   0.882   7.436   1.103
11483TIP3   OH234389   2.619   3.095   4.129
11483TIP3    H134390   2.610   3.036   4.203
11483TIP3    H234391   2.652   3.176   4.167
11484TIP3   OH234392   4.479   0.739   2.019
11484TIP3    H134393   4.572   0.760   2.032
11484TIP3    H234394   4.436   0.777   2.096
11485TIP3   OH234395   7.829   1.625   4.953
11485TIP3    H134396   7.880   1.564   4.900
11485TIP3    H234397   7.760   1.571   4.992
11486TIP3   OH234398   2.812   5.853   0.101
11486TIP3    H134399   2.807   5.780   0.039
11486TIP3    H234400   2.721   5.877   0.117
11487TIP3   OH234401   0.429   0.279   5.992
11487TIP3    H134402   0.432   0.331   6.072
11487TIP3    H234403   0.516   0.240   5.985
11488TIP3   OH234404   6.955   6.537   0.072
11488TIP3    H134405   6.986   6.592   0.144
11488TIP3    H234406   6.865   6.514   0.097
11489TIP3   OH234407   2.329   7.322   4.785
11489TIP3    H134408   2.387   7.279   4.722
11489TIP3    H234409   2.381   7.331   4.864
11490TIP3   OH234410   7.010   5.237   3.078
11490TIP3    H134411   7.007   5.186   2.997
11490TIP3    H234412   7.104   5.246   3.097
11491TIP3   OH234413   5.978   4.335   5.884
11491TIP3    H134414   6.001   4.428   5.886
11491TIP3    H234415   5.998   4.303   5.972
11492TIP3   OH234416   8.345   2.570   4.648
11492TIP3    H134417   8.288   2.640   4.681
11492TIP3    H234418   8.287   2.516   4.594
11493TIP3   OH234419   7.430   5.614   6.455
11493TIP3    H134420   7.350   5.632   6.405
11493TIP3    H234421   7.499   5.656   6.404
11494TIP3   OH234422   3.099   1.987   4.964
11494TIP3    H134423   3.063   2.019   5.046
11494TIP3    H234424   3.189   1.963   4.985
11495TIP3   OH234425   6.582   3.757   0.676
11495TIP3    H134426   6.533   3.723   0.601
11495TIP3    H234427   6.524   3.823   0.714
11496TIP3   OH234428   3.821   0.279   5.494
11496TIP3    H134429   3.732   0.242   5.495
11496TIP3    H234430   3.862   0.240   5.417
11497TIP3   OH234431   4.034   2.276   2.511
11497TIP3    H134432   4.017   2.297   2.420
11497TIP3    H234433   4.007   2.184   2.520
11498TIP3   OH234434   7.153   3.119   1.750
11498TIP3    H134435   7.068   3.109   1.708
11498TIP3    H234436   7.217   3.112   1.679
11499TIP3   OH234437   8.205   6.440   0.425
11499TIP3    H134438   8.159   6.523   0.416
11499TIP3    H234439   8.174   6.404   0.507
11500TIP3   OH234440   0.191   1.702   6.118
11500TIP3    H134441   0.220   1.631   6.061
11500TIP3    H234442   0.159   1.769   6.058
11501TIP3   OH234443   3.643   5.840   5.390
11501TIP3    H134444   3.555   5.808   5.411
11501TIP3    H234445   3.643   5.931   5.418
11502TIP3   OH234446   3.251   3.720   5.683
11502TIP3    H134447   3.203   3.771   5.617
11502TIP3    H234448   3.320   3.779   5.713
11503TIP3   OH234449   0.819   3.377   5.149
11503TIP3    H134450   0.860   3.293   5.167
11503TIP3    H234451   0.732   3.370   5.189
11504TIP3   OH234452   1.244   0.275   3.713
11504TIP3    H134453   1.167   0.277   3.656
11504TIP3    H234454   1.298   0.349   3.683
11505TIP3   OH234455   4.452   5.848   2.732
11505TIP3    H134456   4.467   5.788   2.804
11505TIP3    H234457   4.519   5.825   2.667
11506TIP3   OH234458   6.509   2.197   5.778
11506TIP3    H134459   6.525   2.123   5.836
11506TIP3    H234460   6.511   2.274   5.835
11507TIP3   OH234461   5.769   0.288   2.515
11507TIP3    H134462   5.800   0.244   2.594
11507TIP3    H234463   5.706   0.227   2.477
11508TIP3   OH234464   1.086   4.271   0.644
11508TIP3    H134465   1.177   4.243   0.651
11508TIP3    H234466   1.081   4.315   0.558
11509TIP3   OH234467   0.652   7.676   6.571
11509TIP3    H134468   0.589   7.740   6.539
11509TIP3    H234469   0.598   7.601   6.599
11510TIP3   OH234470   1.790   2.967   5.952
11510TIP3    H134471   1.811   3.023   5.877
11510TIP3    H234472   1.694   2.967   5.955
11511TIP3   OH234473   1.350   2.330   3.873
11511TIP3    H134474   1.318   2.378   3.949
11511TIP3    H234475   1.398   2.256   3.910
11512TIP3   OH234476   7.606   0.486   3.241
11512TIP3    H134477   7.652   0.449   3.166
11512TIP3    H234478   7.528   0.432   3.252
11513TIP3   OH234479   8.356   1.238   0.536
11513TIP3    H134480   8.270   1.208   0.506
11513TIP3    H234481   8.417   1.173   0.500
11514TIP3   OH234482   1.808   5.193   2.661
11514TIP3    H134483   1.803   5.108   2.618
11514TIP3    H234484   1.751   5.185   2.737
11515TIP3   OH234485   7.315   3.825   2.695
11515TIP3    H134486   7.314   3.731   2.711
11515TIP3    H234487   7.368   3.835   2.616
11516TIP3   OH234488   3.928   0.960   3.343
11516TIP3    H134489   3.961   1.017   3.274
11516TIP3    H234490   3.998   0.896   3.357
11517TIP3   OH234491   5.116   0.089   6.106
11517TIP3    H134492   5.078   0.050   6.027
11517TIP3    H234493   5.047   0.083   6.172
11518TIP3   OH234494   6.660   3.104   6.510
11518TIP3    H134495   6.701   3.138   6.589
11518TIP3    H234496   6.722   3.041   6.475
11519TIP3   OH234497   4.453   6.936   3.430
11519TIP3    H134498   4.531   6.926   3.485
11519TIP3    H234499   4.486   6.928   3.340
11520TIP3   OH234500   7.060   5.953   5.307
11520TIP3    H134501   7.116   5.893   5.259
11520TIP3    H234502   6.995   5.982   5.243
11521TIP3   OH234503   7.255   1.256   1.152
11521TIP3    H134504   7.316   1.183   1.147
11521TIP3    H234505   7.179   1.227   1.101
11522TIP3   OH234506   7.552   2.568   2.795
11522TIP3    H134507   7.492   2.557   2.722
11522TIP3    H234508   7.557   2.662   2.809
11523TIP3   OH234509   2.605   1.780   0.915
11523TIP3    H134510   2.579   1.707   0.859
11523TIP3    H234511   2.544   1.850   0.893
11524TIP3   OH234512   4.411   6.104   3.674
11524TIP3    H134513   4.359   6.138   3.746
11524TIP3    H234514   4.351   6.047   3.626
11525TIP3   OH234515   7.461   3.353   3.391
11525TIP3    H134516   7.413   3.433   3.374
11525TIP3    H234517   7.534   3.381   3.448
11526TIP3   OH234518   4.469   5.772   4.110
11526TIP3    H134519   4.410   5.844   4.087
11526TIP3    H234520   4.417   5.717   4.168
11527TIP3   OH234521   0.885   0.950   4.792
11527TIP3    H134522   0.837   1.032   4.801
11527TIP3    H234523   0.826   0.894   4.741
11528TIP3   OH234524   5.069   4.239   6.622
11528TIP3    H134525   5.116   4.235   6.705
11528TIP3    H234526   4.986   4.283   6.643
11529TIP3   OH234527   0.640   6.336   4.796
11529TIP3    H134528   0.573   6.347   4.729
11529TIP3    H234529   0.596   6.359   4.878
11530TIP3   OH234530   6.781   1.663   3.267
11530TIP3    H134531   6.714   1.632   3.328
11530TIP3    H234532   6.739   1.733   3.218
11531TIP3   OH234533   4.729   3.355   2.731
11531TIP3    H134534   4.757   3.362   2.822
11531TIP3    H234535   4.801   3.310   2.687
11532TIP3   OH234536   1.948   6.364   4.301
11532TIP3    H134537   1.908   6.330   4.221
11532TIP3    H234538   1.874   6.392   4.355
11533TIP3   OH234539   3.277   1.183   1.691
11533TIP3    H134540   3.301   1.182   1.598
11533TIP3    H234541   3.181   1.173   1.690
11534TIP3   OH234542   5.880   6.389   5.624
11534TIP3    H134543   5.907   6.455   5.687
11534TIP3    H234544   5.960   6.341   5.602
11535TIP3   OH234545   6.356   1.013   3.283
11535TIP3    H134546   6.284   1.058   3.326
11535TIP3    H234547   6.361   1.053   3.196
11536TIP3   OH234548   6.602   4.927   4.865
11536TIP3    H134549   6.616   4.909   4.957
11536TIP3    H234550   6.673   4.882   4.820
11537TIP3   OH234551   4.269   3.778   0.405
11537TIP3    H134552   4.287   3.690   0.437
11537TIP3    H234553   4.283   3.773   0.311
11538TIP3   OH234554   7.497   5.429   4.401
11538TIP3    H134555   7.422   5.484   4.376
11538TIP3    H234556   7.566   5.453   4.339
11539TIP3   OH234557   3.116   5.873   1.653
11539TIP3    H134558   3.133   5.787   1.691
11539TIP3    H234559   3.201   5.903   1.621
11540TIP3   OH234560   7.665   5.275   6.589
11540TIP3    H134561   7.683   5.303   6.500
11540TIP3    H234562   7.692   5.183   6.590
11541TIP3   OH234563   6.631   3.731   2.372
11541TIP3    H134564   6.624   3.779   2.454
11541TIP3    H234565   6.723   3.702   2.368
11542TIP3   OH234566   1.943   4.760   0.077
11542TIP3    H134567   1.957   4.685   0.020
11542TIP3    H234568   1.967   4.836   0.023
11543TIP3   OH234569   7.914   1.897   3.943
11543TIP3    H134570   7.882   1.985   3.923
11543TIP3    H234571   7.932   1.900   4.037
11544TIP3   OH234572   6.304   5.117   2.143
11544TIP3    H134573   6.212   5.132   2.120
11544TIP3    H234574   6.346   5.202   2.130
11545TIP3   OH234575   8.211   1.652   0.694
11545TIP3    H134576   8.260   1.573   0.672
11545TIP3    H234577   8.127   1.620   0.727
11546TIP3   OH234578   1.048   6.709   2.638
11546TIP3    H134579   1.102   6.648   2.588
11546TIP3    H234580   1.017   6.658   2.713
11547TIP3   OH234581   2.193   3.410   2.187
11547TIP3    H134582   2.110   3.369   2.211
11547TIP3    H234583   2.184   3.429   2.093
11548TIP3   OH234584   8.061   2.899   6.152
11548TIP3    H134585   8.148   2.923   6.119
11548TIP3    H234586   8.056   2.940   6.238
11549TIP3   OH234587   5.450   6.719   3.853
11549TIP3    H134588   5.499   6.783   3.801
11549TIP3    H234589   5.431   6.648   3.792
11550TIP3   OH234590   3.448   2.799   0.767
11550TIP3    H134591   3.537   2.834   0.760
11550TIP3    H234592   3.392   2.874   0.745
11551TIP3   OH234593   6.944   5.785   6.602
11551TIP3    H134594   6.909   5.804   6.689
11551TIP3    H234595   7.039   5.789   6.613
11552TIP3   OH234596   6.861   3.997   5.166
11552TIP3    H134597   6.887   3.955   5.084
11552TIP3    H234598   6.906   3.946   5.234
11553TIP3   OH234599   4.245   2.886   6.518
11553TIP3    H134600   4.302   2.957   6.491
11553TIP3    H234601   4.280   2.858   6.603
11554TIP3   OH234602   1.120   4.623   5.450
11554TIP3    H134603   1.188   4.591   5.391
11554TIP3    H234604   1.060   4.672   5.393
11555TIP3   OH234605   0.534   2.120   5.779
11555TIP3    H134606   0.458   2.091   5.728
11555TIP3    H234607   0.554   2.046   5.836
11556TIP3   OH234608   4.951   5.917   4.923
11556TIP3    H134609   4.876   5.876   4.880
11556TIP3    H234610   5.018   5.848   4.925
11557TIP3   OH234611   6.880   3.913   6.682
11557TIP3    H134612   6.818   3.894   6.612
11557TIP3    H234613   6.828   3.957   6.749
11558TIP3   OH234614   3.679   5.716   5.117
11558TIP3    H134615   3.680   5.622   5.134
11558TIP3    H234616   3.708   5.756   5.199
11559TIP3   OH234617   1.337   7.024   3.903
11559TIP3    H134618   1.255   6.976   3.887
11559TIP3    H234619   1.314   7.087   3.971
11560TIP3   OH234620   3.503   2.612   5.908
11560TIP3    H134621   3.426   2.661   5.936
11560TIP3    H234622   3.564   2.619   5.981
11561TIP3   OH234623   6.705   0.706   3.940
11561TIP3    H134624   6.749   0.781   3.981
11561TIP3    H234625   6.655   0.744   3.868
11562TIP3   OH234626   1.521   5.835   0.553
11562TIP3    H134627   1.517   5.867   0.644
11562TIP3    H234628   1.442   5.782   0.543
11563TIP3   OH234629   1.275   7.821   5.710
11563TIP3    H134630   1.329   7.779   5.643
11563TIP3    H234631   1.251   7.905   5.672
11564TIP3   OH234632   0.546   7.120   3.485
11564TIP3    H134633   0.500   7.066   3.550
11564TIP3    H234634   0.477   7.152   3.427
11565TIP3   OH234635   2.088   1.979   3.424
11565TIP3    H134636   2.024   1.925   3.470
11565TIP3    H234637   2.154   2.000   3.490
11566TIP3   OH234638   5.412   6.828   1.505
11566TIP3    H134639   5.439   6.740   1.533
11566TIP3    H234640   5.411   6.879   1.586
11567TIP3   OH234641   4.699   3.436   1.879
11567TIP3    H134642   4.752   3.357   1.882
11567TIP3    H234643   4.616   3.412   1.919
11568TIP3   OH234644   2.929   4.324   5.417
11568TIP3    H134645   2.957   4.410   5.388
11568TIP3    H234646   2.954   4.265   5.346
11569TIP3   OH234647   5.117   1.587   5.106
11569TIP3    H134648   5.181   1.585   5.177
11569TIP3    H234649   5.085   1.497   5.099
11570TIP3   OH234650   2.143   1.083   4.621
11570TIP3    H134651   2.059   1.123   4.599
11570TIP3    H234652   2.181   1.141   4.687
11571TIP3   OH234653   3.864   1.496   2.714
11571TIP3    H134654   3.866   1.589   2.739
11571TIP3    H234655   3.772   1.471   2.723
11572TIP3   OH234656   7.619   2.267   3.124
11572TIP3    H134657   7.640   2.308   3.040
11572TIP3    H234658   7.631   2.174   3.109
11573TIP3   OH234659   0.638   0.899   5.308
11573TIP3    H134660   0.620   0.817   5.354
11573TIP3    H234661   0.659   0.961   5.377
11574TIP3   OH234662   3.461   6.595   6.430
11574TIP3    H134663   3.550   6.566   6.453
11574TIP3    H234664   3.405   6.549   6.493
11575TIP3   OH234665   5.066   0.291   1.176
11575TIP3    H134666   5.155   0.261   1.190
11575TIP3    H234667   5.019   0.214   1.144
11576TIP3   OH234668   1.733   3.582   0.966
11576TIP3    H134669   1.827   3.595   0.961
11576TIP3    H234670   1.722   3.513   1.031
11577TIP3   OH234671   6.850   3.871   3.634
11577TIP3    H134672   6.857   3.957   3.675
11577TIP3    H234673   6.783   3.826   3.686
11578TIP3   OH234674   7.652   2.607   4.141
11578TIP3    H134675   7.641   2.698   4.168
11578TIP3    H234676   7.707   2.569   4.210
11579TIP3   OH234677   0.223   6.606   1.856
11579TIP3    H134678   0.308   6.638   1.828
11579TIP3    H234679   0.238   6.514   1.878
11580TIP3   OH234680   5.577   5.150   0.557
11580TIP3    H134681   5.538   5.063   0.557
11580TIP3    H234682   5.635   5.150   0.481
11581TIP3   OH234683   1.576   7.724   4.886
11581TIP3    H134684   1.534   7.793   4.835
11581TIP3    H234685   1.512   7.702   4.954
11582TIP3   OH234686   8.120   4.997   1.552
11582TIP3    H134687   8.087   4.936   1.619
11582TIP3    H234688   8.189   5.046   1.597
11583TIP3   OH234689   2.849   7.358   1.556
11583TIP3    H134690   2.795   7.379   1.632
11583TIP3    H234691   2.790   7.370   1.481
11584TIP3   OH234692   1.112   6.396   1.544
11584TIP3    H134693   1.039   6.416   1.486
11584TIP3    H234694   1.071   6.350   1.618
11585TIP3   OH234695   2.103   1.010   5.540
11585TIP3    H134696   2.044   1.060   5.484
11585TIP3    H234697   2.179   1.067   5.552
11586TIP3   OH234698   1.087   3.575   3.962
11586TIP3    H134699   1.003   3.536   3.986
11586TIP3    H234700   1.140   3.570   4.042
11587TIP3   OH234701   0.660   6.870   4.746
11587TIP3    H134702   0.698   6.958   4.742
11587TIP3    H234703   0.608   6.871   4.827
11588TIP3   OH234704   3.542   6.979   3.703
11588TIP3    H134705   3.536   6.985   3.798
11588TIP3    H234706   3.505   6.893   3.682
11589TIP3   OH234707   3.740   3.433   5.961
11589TIP3    H134708   3.724   3.359   6.019
11589TIP3    H234709   3.758   3.393   5.876
11590TIP3   OH234710   1.996   3.021   4.316
11590TIP3    H134711   1.974   3.067   4.397
11590TIP3    H234712   2.063   3.076   4.274
11591TIP3   OH234713   0.346   6.512   3.366
11591TIP3    H134714   0.413   6.578   3.350
11591TIP3    H234715   0.377   6.434   3.322
11592TIP3   OH234716   2.480   0.947   5.694
11592TIP3    H134717   2.426   0.982   5.765
11592TIP3    H234718   2.506   0.860   5.724
11593TIP3   OH234719   1.766   3.168   4.021
11593TIP3    H134720   1.731   3.244   4.066
11593TIP3    H234721   1.827   3.204   3.956
11594TIP3   OH234722   4.162   5.588   2.708
11594TIP3    H134723   4.083   5.637   2.685
11594TIP3    H234724   4.224   5.608   2.638
11595TIP3   OH234725   0.212   2.759   3.288
11595TIP3    H134726   0.200   2.813   3.210
11595TIP3    H234727   0.295   2.789   3.325
11596TIP3   OH234728   4.201   4.802   6.521
11596TIP3    H134729   4.121   4.750   6.515
11596TIP3    H234730   4.254   4.757   6.587
11597TIP3   OH234731   1.622   4.114   0.447
11597TIP3    H134732   1.589   4.193   0.489
11597TIP3    H234733   1.625   4.049   0.517
11598TIP3   OH234734   7.261   4.837   5.272
11598TIP3    H134735   7.277   4.913   5.217
11598TIP3    H234736   7.165   4.834   5.281
11599TIP3   OH234737   5.502   6.070   5.862
11599TIP3    H134738   5.547   6.033   5.937
11599TIP3    H234739   5.527   6.163   5.862
11600TIP3   OH234740   5.172   5.906   1.195
11600TIP3    H134741   5.246   5.964   1.215
11600TIP3    H234742   5.199   5.821   1.229
11601TIP3   OH234743   0.712   1.900   2.170
11601TIP3    H134744   0.664   1.959   2.227
11601TIP3    H234745   0.646   1.839   2.138
11602TIP3   OH234746   6.465   2.692   4.954
11602TIP3    H134747   6.532   2.748   4.994
11602TIP3    H234748   6.444   2.735   4.871
11603TIP3   OH234749   1.617   4.469   3.857
11603TIP3    H134750   1.563   4.543   3.829
11603TIP3    H234751   1.678   4.454   3.785
11604TIP3   OH234752   0.483   6.206   6.251
11604TIP3    H134753   0.421   6.140   6.280
11604TIP3    H234754   0.448   6.239   6.169
11605TIP3   OH234755   0.639   6.479   5.040
11605TIP3    H134756   0.734   6.487   5.048
11605TIP3    H234757   0.606   6.566   5.058
11606TIP3   OH234758   0.972   3.323   0.430
11606TIP3    H134759   1.032   3.394   0.453
11606TIP3    H234760   0.888   3.351   0.464
11607TIP3   OH234761   5.874   3.410   2.721
11607TIP3    H134762   5.931   3.401   2.798
11607TIP3    H234763   5.792   3.443   2.757
11608TIP3   OH234764   6.436   6.305   0.737
11608TIP3    H134765   6.472   6.367   0.801
11608TIP3    H234766   6.455   6.344   0.652
11609TIP3   OH234767   5.746   3.773   4.038
11609TIP3    H134768   5.803   3.698   4.022
11609TIP3    H234769   5.733   3.772   4.133
11610TIP3   OH234770   0.666   4.717   1.801
11610TIP3    H134771   0.584   4.682   1.835
11610TIP3    H234772   0.694   4.780   1.867
11611TIP3   OH234773   7.839   4.377   5.739
11611TIP3    H134774   7.924   4.333   5.735
11611TIP3    H234775   7.829   4.401   5.831
11612TIP3   OH234776   5.257   3.827   1.853
11612TIP3    H134777   5.292   3.915   1.839
11612TIP3    H234778   5.291   3.800   1.938
11613TIP3   OH234779   7.432   2.364   1.787
11613TIP3    H134780   7.384   2.429   1.736
11613TIP3    H234781   7.457   2.409   1.867
11614TIP3   OH234782   2.150   7.473   4.671
11614TIP3    H134783   2.139   7.534   4.744
11614TIP3    H234784   2.215   7.410   4.701
11615TIP3   OH234785   0.273   6.982   5.108
11615TIP3    H134786   0.268   7.007   5.016
11615TIP3    H234787   0.209   7.037   5.152
11616TIP3   OH234788   4.552   0.924   5.733
11616TIP3    H134789   4.523   0.874   5.809
11616TIP3    H234790   4.514   0.878   5.658
11617TIP3   OH234791   7.334   6.976   5.155
11617TIP3    H134792   7.427   6.969   5.177
11617TIP3    H234793   7.295   6.894   5.185
11618TIP3   OH234794   3.289   1.844   1.176
11618TIP3    H134795   3.249   1.757   1.183
11618TIP3    H234796   3.341   1.840   1.096
11619TIP3   OH234797   3.441   3.393   5.201
11619TIP3    H134798   3.456   3.470   5.257
11619TIP3    H234799   3.448   3.427   5.112
11620TIP3   OH234800   7.241   6.165   0.380
11620TIP3    H134801   7.300   6.192   0.310
11620TIP3    H234802   7.180   6.238   0.390
11621TIP3   OH234803   5.668   5.568   3.432
11621TIP3    H134804   5.657   5.615   3.350
11621TIP3    H234805   5.710   5.630   3.491
11622TIP3   OH234806   0.382   2.552   0.485
11622TIP3    H134807   0.346   2.531   0.399
11622TIP3    H234808   0.390   2.648   0.484
11623TIP3   OH234809   2.174   7.269   3.977
11623TIP3    H134810   2.144   7.338   3.917
11623TIP3    H234811   2.133   7.189   3.943
11624TIP3   OH234812   2.363   1.568   4.306
11624TIP3    H134813   2.337   1.522   4.386
11624TIP3    H234814   2.281   1.582   4.259
11625TIP3   OH234815   2.144   1.671   0.079
11625TIP3    H134816   2.073   1.734   0.080
11625TIP3    H234817   2.220   1.721   0.050
11626TIP3   OH234818   1.397   7.136   2.470
11626TIP3    H134819   1.303   7.119   2.459
11626TIP3    H234820   1.426   7.066   2.529
11627TIP3   OH234821   2.860   7.264   5.323
11627TIP3    H134822   2.809   7.237   5.247
11627TIP3    H234823   2.803   7.246   5.398
11628TIP3   OH234824   8.261   0.963   2.600
11628TIP3    H134825   8.329   1.011   2.648
11628TIP3    H234826   8.307   0.887   2.564
11629TIP3   OH234827   4.452   3.925   5.674
11629TIP3    H134828   4.513   3.998   5.671
11629TIP3    H234829   4.479   3.874   5.751
11630TIP3   OH234830   5.796   2.230   3.897
11630TIP3    H134831   5.883   2.190   3.892
11630TIP3    H234832   5.804   2.294   3.967
11631TIP3   OH234833   5.568   1.709   0.456
11631TIP3    H134834   5.600   1.658   0.530
11631TIP3    H234835   5.638   1.706   0.391
11632TIP3   OH234836   4.441   3.556   2.230
11632TIP3    H134837   4.420   3.467   2.202
11632TIP3    H234838   4.360   3.606   2.218
11633TIP3   OH234839   3.225   1.902   0.829
11633TIP3    H134840   3.194   1.947   0.751
11633TIP3    H234841   3.171   1.938   0.900
11634TIP3   OH234842   4.338   3.046   4.470
11634TIP3    H134843   4.351   2.984   4.398
11634TIP3    H234844   4.407   3.025   4.533
11635TIP3   OH234845   1.885   5.247   5.288
11635TIP3    H134846   1.898   5.342   5.283
11635TIP3    H234847   1.849   5.232   5.376
11636TIP3   OH234848   8.150   5.970   1.134
11636TIP3    H134849   8.080   6.015   1.088
11636TIP3    H234850   8.214   6.039   1.153
11637TIP3   OH234851   1.613   6.123   5.291
11637TIP3    H134852   1.632   6.031   5.310
11637TIP3    H234853   1.563   6.121   5.210
11638TIP3   OH234854   5.949   2.123   3.368
11638TIP3    H134855   5.991   2.078   3.295
11638TIP3    H234856   5.876   2.170   3.328
11639TIP3   OH234857   2.385   1.913   3.105
11639TIP3    H134858   2.293   1.926   3.131
11639TIP3    H234859   2.431   1.899   3.188
11640TIP3   OH234860   2.179   5.777   5.386
11640TIP3    H134861   2.205   5.704   5.329
11640TIP3    H234862   2.121   5.830   5.332
11641TIP3   OH234863   0.280   7.491   6.009
11641TIP3    H134864   0.290   7.416   6.068
11641TIP3    H234865   0.262   7.565   6.067
11642TIP3   OH234866   4.125   3.020   3.190
11642TIP3    H134867   4.080   3.077   3.127
11642TIP3    H234868   4.210   3.062   3.203
11643TIP3   OH234869   4.017   6.888   1.693
11643TIP3    H134870   3.967   6.886   1.611
11643TIP3    H234871   4.027   6.981   1.713
11644TIP3   OH234872   7.574   3.581   2.580
11644TIP3    H134873   7.660   3.539   2.578
11644TIP3    H234874   7.587   3.664   2.534
11645TIP3   OH234875   4.918   6.061   0.122
11645TIP3    H134876   4.896   6.127   0.187
11645TIP3    H234877   4.853   6.072   0.053
11646TIP3   OH234878   3.434   5.239   4.187
11646TIP3    H134879   3.343   5.254   4.160
11646TIP3    H234880   3.484   5.305   4.139
11647TIP3   OH234881   0.209   6.150   3.296
11647TIP3    H134882   0.165   6.234   3.289
11647TIP3    H234883   0.211   6.131   3.389
11648TIP3   OH234884   5.724   7.326   6.246
11648TIP3    H134885   5.779   7.402   6.226
11648TIP3    H234886   5.636   7.361   6.250
11649TIP3   OH234887   5.460   4.540   2.363
11649TIP3    H134888   5.381   4.504   2.322
11649TIP3    H234889   5.530   4.520   2.301
11650TIP3   OH234890   6.704   1.149   2.808
11650TIP3    H134891   6.711   1.055   2.793
11650TIP3    H234892   6.630   1.159   2.869
11651TIP3   OH234893   8.042   2.530   6.728
11651TIP3    H134894   7.981   2.542   6.801
11651TIP3    H234895   7.987   2.526   6.651
11652TIP3   OH234896   2.150   2.798   1.349
11652TIP3    H134897   2.235   2.797   1.392
11652TIP3    H234898   2.138   2.708   1.318
11653TIP3   OH234899   5.926   7.012   2.243
11653TIP3    H134900   5.959   6.978   2.159
11653TIP3    H234901   5.870   7.085   2.219
11654TIP3   OH234902   2.023   6.827   4.276
11654TIP3    H134903   1.943   6.775   4.276
11654TIP3    H234904   1.996   6.912   4.310
11655TIP3   OH234905   6.660   5.938   1.472
11655TIP3    H134906   6.594   5.870   1.459
11655TIP3    H234907   6.692   5.924   1.561
11656TIP3   OH234908   1.813   0.875   4.354
11656TIP3    H134909   1.797   0.899   4.446
11656TIP3    H234910   1.900   0.835   4.355
11657TIP3   OH234911   4.998   0.694   0.033
11657TIP3    H134912   5.037   0.628  -0.024
11657TIP3    H234913   5.044   0.685   0.116
11658TIP3   OH234914   1.598   4.648   0.933
11658TIP3    H134915   1.611   4.741   0.946
11658TIP3    H234916   1.504   4.635   0.941
11659TIP3   OH234917   3.415   5.341   5.320
11659TIP3    H134918   3.415   5.386   5.404
11659TIP3    H234919   3.362   5.397   5.263
11660TIP3   OH234920   4.040   3.503   2.650
11660TIP3    H134921   4.004   3.416   2.668
11660TIP3    H234922   4.097   3.521   2.725
11661TIP3   OH234923   5.885   2.100   6.396
11661TIP3    H134924   5.929   2.115   6.312
11661TIP3    H234925   5.901   2.179   6.446
11662TIP3   OH234926   0.662   3.314   1.733
11662TIP3    H134927   0.624   3.360   1.808
11662TIP3    H234928   0.753   3.299   1.757
11663TIP3   OH234929   4.251   6.387   5.794
11663TIP3    H134930   4.345   6.373   5.802
11663TIP3    H234931   4.217   6.380   5.883
11664TIP3   OH234932   3.285   2.524   2.658
11664TIP3    H134933   3.303   2.575   2.579
11664TIP3    H234934   3.368   2.521   2.705
11665TIP3   OH234935   3.189   0.571   0.577
11665TIP3    H134936   3.166   0.635   0.644
11665TIP3    H234937   3.257   0.517   0.618
11666TIP3   OH234938   6.214   3.338   6.055
11666TIP3    H134939   6.282   3.375   5.999
11666TIP3    H234940   6.209   3.397   6.130
11667TIP3   OH234941   2.359   2.566   1.121
11667TIP3    H134942   2.290   2.539   1.182
11667TIP3    H234943   2.428   2.501   1.134
11668TIP3   OH234944   7.029   1.570   5.531
11668TIP3    H134945   6.994   1.590   5.444
11668TIP3    H234946   7.122   1.591   5.525
11669TIP3   OH234947   6.202   1.684   5.492
11669TIP3    H134948   6.275   1.701   5.433
11669TIP3    H234949   6.201   1.588   5.501
11670TIP3   OH234950   0.326   3.909   2.928
11670TIP3    H134951   0.411   3.890   2.966
11670TIP3    H234952   0.323   4.005   2.923
11671TIP3   OH234953   6.780   5.444   1.490
11671TIP3    H134954   6.867   5.420   1.459
11671TIP3    H234955   6.778   5.540   1.486
11672TIP3   OH234956   0.894   6.413   1.396
11672TIP3    H134957   0.839   6.424   1.474
11672TIP3    H234958   0.845   6.454   1.325
11673TIP3   OH234959   6.891   4.452   6.366
11673TIP3    H134960   6.881   4.418   6.455
11673TIP3    H234961   6.824   4.407   6.315
11674TIP3   OH234962   8.016   4.430   2.094
11674TIP3    H134963   8.007   4.365   2.025
11674TIP3    H234964   8.018   4.379   2.175
11675TIP3   OH234965   4.022   5.660   3.407
11675TIP3    H134966   4.050   5.741   3.365
11675TIP3    H234967   4.081   5.593   3.371
11676TIP3   OH234968   7.575   7.539   1.082
11676TIP3    H134969   7.640   7.581   1.139
11676TIP3    H234970   7.624   7.470   1.038
11677TIP3   OH234971   7.568   0.123   0.513
11677TIP3    H134972   7.626   0.057   0.551
11677TIP3    H234973   7.482   0.082   0.512
11678TIP3   OH234974   7.926   1.474   4.380
11678TIP3    H134975   7.894   1.438   4.297
11678TIP3    H234976   7.946   1.565   4.359
11679TIP3   OH234977   8.356   4.831   6.720
11679TIP3    H134978   8.366   4.926   6.724
11679TIP3    H234979   8.410   4.804   6.646
11680TIP3   OH234980   6.313   6.928   4.512
11680TIP3    H134981   6.276   6.958   4.595
11680TIP3    H234982   6.276   6.841   4.498
11681TIP3   OH234983   6.648   7.290   2.134
11681TIP3    H134984   6.626   7.198   2.120
11681TIP3    H234985   6.581   7.322   2.194
11682TIP3   OH234986   3.734   1.419   0.507
11682TIP3    H134987   3.675   1.361   0.555
11682TIP3    H234988   3.821   1.398   0.541
11683TIP3   OH234989   0.170   2.581   3.689
11683TIP3    H134990   0.110   2.546   3.623
11683TIP3    H234991   0.129   2.662   3.719
11684TIP3   OH234992   6.102   1.292   4.567
11684TIP3    H134993   6.181   1.333   4.532
11684TIP3    H234994   6.074   1.231   4.498
11685TIP3   OH234995   5.552   7.488   1.522
11685TIP3    H134996   5.504   7.561   1.483
11685TIP3    H234997   5.546   7.503   1.616
11686TIP3   OH234998   5.434   2.747   0.484
11686TIP3    H134999   5.486   2.754   0.404
11686TIP3    H235000   5.401   2.836   0.498
11687TIP3   OH235001   5.354   0.429   2.336
11687TIP3    H135002   5.368   0.426   2.431
11687TIP3    H235003   5.273   0.378   2.323
11688TIP3   OH235004   6.268   2.624   3.106
11688TIP3    H135005   6.346   2.658   3.061
11688TIP3    H235006   6.194   2.656   3.053
11689TIP3   OH235007   7.161   4.260   2.123
11689TIP3    H135008   7.141   4.354   2.117
11689TIP3    H235009   7.174   4.244   2.216
11690TIP3   OH235010   8.358   0.782   5.573
11690TIP3    H135011   8.418   0.708   5.568
11690TIP3    H235012   8.274   0.746   5.545
11691TIP3   OH235013   1.394   2.740   2.572
11691TIP3    H135014   1.348   2.769   2.651
11691TIP3    H235015   1.377   2.646   2.568
11692TIP3   OH235016   7.195   7.230   3.716
11692TIP3    H135017   7.200   7.167   3.788
11692TIP3    H235018   7.174   7.177   3.640
11693TIP3   OH235019   7.480   2.861   6.322
11693TIP3    H135020   7.529   2.852   6.404
11693TIP3    H235021   7.506   2.947   6.288
11694TIP3   OH235022   1.179   4.880   4.025
11694TIP3    H135023   1.218   4.939   3.961
11694TIP3    H235024   1.099   4.849   3.983
11695TIP3   OH235025   7.557   5.586   5.118
11695TIP3    H135026   7.551   5.620   5.208
11695TIP3    H235027   7.534   5.493   5.126
11696TIP3   OH235028   3.267   0.626   1.325
11696TIP3    H135029   3.285   0.713   1.362
11696TIP3    H235030   3.191   0.639   1.268
11697TIP3   OH235031   4.874   0.117   2.150
11697TIP3    H135032   4.881   0.027   2.118
11697TIP3    H235033   4.947   0.163   2.107
11698TIP3   OH235034   6.866   3.492   4.489
11698TIP3    H135035   6.909   3.571   4.456
11698TIP3    H235036   6.911   3.421   4.444
11699TIP3   OH235037   2.146   6.131   3.425
11699TIP3    H135038   2.232   6.091   3.413
11699TIP3    H235039   2.090   6.085   3.363
11700TIP3   OH235040   1.966   2.262   6.793
11700TIP3    H135041   1.907   2.264   6.717
11700TIP3    H235042   1.912   2.230   6.865
11701TIP3   OH235043   2.422   0.501   3.027
11701TIP3    H135044   2.390   0.471   3.112
11701TIP3    H235045   2.342   0.514   2.975
11702TIP3   OH235046   1.912   5.093   2.035
11702TIP3    H135047   1.828   5.130   2.061
11702TIP3    H235048   1.907   5.001   2.061
11703TIP3   OH235049   5.257   2.427   0.281
11703TIP3    H135050   5.225   2.496   0.223
11703TIP3    H235051   5.343   2.403   0.246
11704TIP3   OH235052   8.123   4.563   0.122
11704TIP3    H135053   8.045   4.614   0.142
11704TIP3    H235054   8.195   4.625   0.130
11705TIP3   OH235055   8.142   5.566   6.783
11705TIP3    H135056   8.062   5.524   6.814
11705TIP3    H235057   8.176   5.612   6.859
11706TIP3   OH235058   3.795   0.323   1.402
11706TIP3    H135059   3.790   0.397   1.463
11706TIP3    H235060   3.713   0.276   1.415
11707TIP3   OH235061   4.698   4.036   0.336
11707TIP3    H135062   4.618   4.052   0.385
11707TIP3    H235063   4.668   4.007   0.250
11708TIP3   OH235064   5.039   6.903   6.780
11708TIP3    H135065   5.111   6.899   6.843
11708TIP3    H235066   5.005   6.813   6.776
11709TIP3   OH235067   1.519   2.077   6.082
11709TIP3    H135068   1.602   2.100   6.125
11709TIP3    H235069   1.516   2.135   6.005
11710TIP3   OH235070   3.751   4.038   6.686
11710TIP3    H135071   3.697   3.997   6.753
11710TIP3    H235072   3.822   4.079   6.735
11711TIP3   OH235073   0.397   3.499   6.510
11711TIP3    H135074   0.400   3.547   6.427
11711TIP3    H235075   0.416   3.565   6.577
11712TIP3   OH235076   4.868   2.507   0.540
11712TIP3    H135077   4.907   2.438   0.487
11712TIP3    H235078   4.846   2.576   0.477
11713TIP3   OH235079   1.873   1.278   6.423
11713TIP3    H135080   1.784   1.262   6.391
11713TIP3    H235081   1.917   1.320   6.350
11714TIP3   OH235082   6.206   0.095   0.413
11714TIP3    H135083   6.288   0.087   0.462
11714TIP3    H235084   6.141   0.121   0.478
11715TIP3   OH235085   2.896   5.253   6.262
11715TIP3    H135086   2.944   5.211   6.333
11715TIP3    H235087   2.804   5.236   6.281
11716TIP3   OH235088   8.228   0.417   1.860
11716TIP3    H135089   8.176   0.453   1.932
11716TIP3    H235090   8.295   0.484   1.844
11717TIP3   OH235091   2.226   3.548   4.428
11717TIP3    H135092   2.302   3.514   4.474
11717TIP3    H235093   2.182   3.470   4.394
11718TIP3   OH235094   7.855   7.813   0.321
11718TIP3    H135095   7.882   7.735   0.371
11718TIP3    H235096   7.777   7.786   0.273
11719TIP3   OH235097   6.048   0.293   1.873
11719TIP3    H135098   6.024   0.364   1.814
11719TIP3    H235099   6.086   0.337   1.949
11720TIP3   OH235100   1.335   3.786   4.023
11720TIP3    H135101   1.281   3.816   3.950
11720TIP3    H235102   1.373   3.704   3.992
11721TIP3   OH235103   1.252   1.945   6.033
11721TIP3    H135104   1.210   1.961   6.118
11721TIP3    H235105   1.251   2.030   5.989
11722TIP3   OH235106   8.154   5.779   6.614
11722TIP3    H135107   8.249   5.778   6.615
11722TIP3    H235108   8.128   5.719   6.684
11723TIP3   OH235109   3.861   5.337   6.779
11723TIP3    H135110   3.890   5.372   6.695
11723TIP3    H235111   3.913   5.258   6.792
11724TIP3   OH235112   4.681   4.750   4.965
11724TIP3    H135113   4.626   4.821   5.000
11724TIP3    H235114   4.665   4.753   4.871
11725TIP3   OH235115   4.110   7.327   6.019
11725TIP3    H135116   4.176   7.294   6.080
11725TIP3    H235117   4.087   7.250   5.966
11726TIP3   OH235118   6.162   0.384   6.496
11726TIP3    H135119   6.251   0.351   6.508
11726TIP3    H235120   6.144   0.369   6.403
11727TIP3   OH235121   1.998   6.540   5.507
11727TIP3    H135122   1.910   6.566   5.482
11727TIP3    H235123   2.026   6.605   5.571
11728TIP3   OH235124   2.797   4.645   5.856
11728TIP3    H135125   2.724   4.647   5.794
11728TIP3    H235126   2.867   4.599   5.809
11729TIP3   OH235127   6.338   2.698   1.295
11729TIP3    H135128   6.320   2.734   1.381
11729TIP3    H235129   6.409   2.752   1.260
11730TIP3   OH235130   7.100   5.069   0.141
11730TIP3    H135131   7.187   5.098   0.166
11730TIP3    H235132   7.049   5.070   0.222
11731TIP3   OH235133   6.837   6.919   2.237
11731TIP3    H135134   6.867   6.910   2.146
11731TIP3    H235135   6.818   6.829   2.265
11732TIP3   OH235136   1.423   5.281   3.459
11732TIP3    H135137   1.434   5.267   3.553
11732TIP3    H235138   1.404   5.375   3.451
11733TIP3   OH235139   0.878   0.331   0.767
11733TIP3    H135140   0.946   0.293   0.822
11733TIP3    H235141   0.897   0.299   0.679
11734TIP3   OH235142   5.495   4.505   5.533
11734TIP3    H135143   5.562   4.495   5.466
11734TIP3    H235144   5.528   4.454   5.608
11735TIP3   OH235145   3.632   7.603   1.313
11735TIP3    H135146   3.727   7.610   1.321
11735TIP3    H235147   3.598   7.674   1.368
11736TIP3   OH235148   7.645   6.089   4.855
11736TIP3    H135149   7.621   6.136   4.775
11736TIP3    H235150   7.738   6.070   4.846
11737TIP3   OH235151   8.136   0.271   1.052
11737TIP3    H135152   8.164   0.287   0.962
11737TIP3    H235153   8.200   0.210   1.087
11738TIP3   OH235154   3.882   3.293   4.367
11738TIP3    H135155   3.948   3.225   4.352
11738TIP3    H235156   3.882   3.344   4.286
11739TIP3   OH235157   3.885   3.631   6.069
11739TIP3    H135158   3.976   3.607   6.053
11739TIP3    H235159   3.834   3.556   6.037
11740TIP3   OH235160   2.585   2.977   0.192
11740TIP3    H135161   2.559   3.039   0.124
11740TIP3    H235162   2.609   2.898   0.143
11741TIP3   OH235163   5.148   5.608   1.466
11741TIP3    H135164   5.098   5.532   1.437
11741TIP3    H235165   5.224   5.612   1.408
11742TIP3   OH235166   6.801   1.365   4.764
11742TIP3    H135167   6.838   1.448   4.734
11742TIP3    H235168   6.760   1.327   4.686
11743TIP3   OH235169   8.265   5.542   0.077
11743TIP3    H135170   8.207   5.595   0.132
11743TIP3    H235171   8.240   5.564  -0.013
11744TIP3   OH235172   1.315   7.094   5.941
11744TIP3    H135173   1.367   7.084   6.021
11744TIP3    H235174   1.228   7.120   5.973
11745TIP3   OH235175   6.169   3.979   1.167
11745TIP3    H135176   6.085   4.020   1.188
11745TIP3    H235177   6.227   4.005   1.239
11746TIP3   OH235178   3.293   6.559   3.201
11746TIP3    H135179   3.200   6.550   3.181
11746TIP3    H235180   3.325   6.469   3.208
11747TIP3   OH235181   5.183   2.892   1.314
11747TIP3    H135182   5.188   2.796   1.318
11747TIP3    H235183   5.141   2.911   1.230
11748TIP3   OH235184   2.466   2.555   0.206
11748TIP3    H135185   2.390   2.566   0.263
11748TIP3    H235186   2.430   2.540   0.119
11749TIP3   OH235187   3.587   6.657   1.984
11749TIP3    H135188   3.568   6.747   1.960
11749TIP3    H235189   3.532   6.641   2.061
11750TIP3   OH235190   6.312   5.442   1.129
11750TIP3    H135191   6.386   5.452   1.069
11750TIP3    H235192   6.326   5.356   1.170
11751TIP3   OH235193   6.705   4.091   0.971
11751TIP3    H135194   6.696   4.068   0.879
11751TIP3    H235195   6.767   4.164   0.972
11752TIP3   OH235196   0.426   6.248   5.184
11752TIP3    H135197   0.494   6.308   5.153
11752TIP3    H235198   0.434   6.250   5.280
11753TIP3   OH235199   3.287   7.604   6.512
11753TIP3    H135200   3.299   7.634   6.422
11753TIP3    H235201   3.213   7.655   6.544
11754TIP3   OH235202   5.776   5.513   2.758
11754TIP3    H135203   5.755   5.606   2.767
11754TIP3    H235204   5.711   5.468   2.811
11755TIP3   OH235205   0.559   1.778   4.960
11755TIP3    H135206   0.603   1.838   4.899
11755TIP3    H235207   0.557   1.825   5.043
11756TIP3   OH235208   2.389   4.529   2.224
11756TIP3    H135209   2.370   4.443   2.186
11756TIP3    H235210   2.416   4.510   2.314
11757TIP3   OH235211   1.317   4.522   2.049
11757TIP3    H135212   1.314   4.498   2.141
11757TIP3    H235213   1.362   4.607   2.048
11758TIP3   OH235214   1.509   5.083   0.155
11758TIP3    H135215   1.438   5.140   0.185
11758TIP3    H235216   1.567   5.141   0.106
11759TIP3   OH235217   7.223   5.851   2.622
11759TIP3    H135218   7.267   5.877   2.703
11759TIP3    H235219   7.205   5.758   2.633
11760TIP3   OH235220   4.208   0.490   4.361
11760TIP3    H135221   4.186   0.452   4.276
11760TIP3    H235222   4.269   0.429   4.400
11761TIP3   OH235223   6.622   5.790   2.947
11761TIP3    H135224   6.556   5.828   2.889
11761TIP3    H235225   6.652   5.712   2.901
11762TIP3   OH235226   2.245   4.039   4.897
11762TIP3    H135227   2.264   3.949   4.924
11762TIP3    H235228   2.167   4.063   4.948
11763TIP3   OH235229   5.540   0.194   5.911
11763TIP3    H135230   5.567   0.284   5.890
11763TIP3    H235231   5.600   0.167   5.981
11764TIP3   OH235232   5.743   0.641   4.901
11764TIP3    H135233   5.676   0.685   4.953
11764TIP3    H235234   5.707   0.554   4.883
11765TIP3   OH235235   8.361   6.521   0.741
11765TIP3    H135236   8.332   6.610   0.760
11765TIP3    H235237   8.382   6.522   0.648
11766TIP3   OH235238   2.401   2.111   2.391
11766TIP3    H135239   2.322   2.069   2.356
11766TIP3    H235240   2.401   2.087   2.484
11767TIP3   OH235241   6.426   6.291   5.394
11767TIP3    H135242   6.406   6.279   5.487
11767TIP3    H235243   6.341   6.293   5.351
11768TIP3   OH235244   6.517   3.180   4.735
11768TIP3    H135245   6.475   3.262   4.761
11768TIP3    H235246   6.611   3.199   4.740
11769TIP3   OH235247   0.390   7.525   6.572
11769TIP3    H135248   0.328   7.594   6.547
11769TIP3    H235249   0.337   7.461   6.619
11770TIP3   OH235250   7.220   5.983   2.222
11770TIP3    H135251   7.279   6.031   2.164
11770TIP3    H235252   7.224   5.892   2.191
11771TIP3   OH235253   1.362   4.390   0.768
11771TIP3    H135254   1.429   4.334   0.731
11771TIP3    H235255   1.360   4.467   0.712
11772TIP3   OH235256   4.945   0.783   0.681
11772TIP3    H135257   4.856   0.785   0.644
11772TIP3    H235258   4.992   0.721   0.626
11773TIP3   OH235259   4.605   1.739   2.064
11773TIP3    H135260   4.646   1.824   2.080
11773TIP3    H235261   4.652   1.704   1.988
11774TIP3   OH235262   2.363   3.367   5.861
11774TIP3    H135263   2.318   3.283   5.855
11774TIP3    H235264   2.452   3.350   5.832
11775TIP3   OH235265   7.032   3.461   3.391
11775TIP3    H135266   7.074   3.398   3.450
11775TIP3    H235267   7.068   3.546   3.417
11776TIP3   OH235268   4.787   1.213   2.218
11776TIP3    H135269   4.851   1.143   2.205
11776TIP3    H235270   4.826   1.289   2.173
11777TIP3   OH235271   7.776   6.590   2.709
11777TIP3    H135272   7.773   6.516   2.770
11777TIP3    H235273   7.814   6.661   2.761
11778TIP3   OH235274   0.625   3.517   3.887
11778TIP3    H135275   0.593   3.551   3.970
11778TIP3    H235276   0.720   3.517   3.895
11779TIP3   OH235277   2.267   0.551   6.362
11779TIP3    H135278   2.172   0.545   6.365
11779TIP3    H235279   2.290   0.512   6.277
11780TIP3   OH235280   0.265   7.645   2.798
11780TIP3    H135281   0.181   7.626   2.838
11780TIP3    H235282   0.279   7.739   2.813
11781TIP3   OH235283   0.009   0.987   4.710
11781TIP3    H135284  -0.050   0.988   4.634
11781TIP3    H235285   0.090   1.028   4.679
11782TIP3   OH235286   7.025   4.403   0.753
11782TIP3    H135287   6.955   4.457   0.790
11782TIP3    H235288   7.106   4.443   0.785
11783TIP3   OH235289   5.013   4.609   2.642
11783TIP3    H135290   5.070   4.618   2.719
11783TIP3    H235291   4.925   4.603   2.678
11784TIP3   OH235292   2.230   1.474   1.645
11784TIP3    H135293   2.273   1.560   1.651
11784TIP3    H235294   2.262   1.426   1.721
11785TIP3   OH235295   6.103   2.513   4.014
11785TIP3    H135296   6.136   2.494   3.926
11785TIP3    H235297   6.140   2.599   4.035
11786TIP3   OH235298   3.609   5.624   6.318
11786TIP3    H135299   3.661   5.685   6.265
11786TIP3    H235300   3.663   5.545   6.324
11787TIP3   OH235301   6.996   6.101   6.374
11787TIP3    H135302   6.906   6.134   6.381
11787TIP3    H235303   7.040   6.134   6.452
11788TIP3   OH235304   2.423   6.327   4.540
11788TIP3    H135305   2.415   6.421   4.554
11788TIP3    H235306   2.462   6.318   4.453
11789TIP3   OH235307   1.028   1.440   5.918
11789TIP3    H135308   0.963   1.485   5.863
11789TIP3    H235309   1.076   1.511   5.961
11790TIP3   OH235310   6.309   3.569   0.362
11790TIP3    H135311   6.294   3.482   0.398
11790TIP3    H235312   6.268   3.568   0.276
11791TIP3   OH235313   3.812   4.565   5.339
11791TIP3    H135314   3.880   4.543   5.402
11791TIP3    H235315   3.859   4.595   5.262
11792TIP3   OH235316   2.020   5.722   4.149
11792TIP3    H135317   2.075   5.734   4.227
11792TIP3    H235318   1.951   5.663   4.178
11793TIP3   OH235319   6.855   6.681   3.993
11793TIP3    H135320   6.810   6.757   4.030
11793TIP3    H235321   6.896   6.639   4.069
11794TIP3   OH235322   5.884   3.068   3.332
11794TIP3    H135323   5.960   3.055   3.389
11794TIP3    H235324   5.843   2.982   3.327
11795TIP3   OH235325   4.204   0.890   5.306
11795TIP3    H135326   4.183   0.835   5.382
11795TIP3    H235327   4.160   0.973   5.324
11796TIP3   OH235328   5.811   2.997   5.463
11796TIP3    H135329   5.764   3.011   5.381
11796TIP3    H235330   5.750   2.949   5.518
11797TIP3   OH235331   4.033   0.765   2.497
11797TIP3    H135332   4.064   0.727   2.416
11797TIP3    H235333   4.025   0.858   2.479
11798TIP3   OH235334   5.805   6.782   2.895
11798TIP3    H135335   5.838   6.779   2.985
11798TIP3    H235336   5.792   6.691   2.871
11799TIP3   OH235337   8.072   2.856   3.717
11799TIP3    H135338   8.101   2.766   3.698
11799TIP3    H235339   7.976   2.852   3.710
11800TIP3   OH235340   7.846   5.943   3.993
11800TIP3    H135341   7.931   5.900   3.983
11800TIP3    H235342   7.837   5.956   4.087
11801TIP3   OH235343   8.367   4.782   5.334
11801TIP3    H135344   8.342   4.873   5.316
11801TIP3    H235345   8.459   4.777   5.308
11802TIP3   OH235346   2.399   4.490   6.221
11802TIP3    H135347   2.340   4.431   6.267
11802TIP3    H235348   2.487   4.457   6.240
11803TIP3   OH235349   7.631   1.456   4.687
11803TIP3    H135350   7.654   1.538   4.730
11803TIP3    H235351   7.611   1.395   4.758
11804TIP3   OH235352   0.162   1.682   3.087
11804TIP3    H135353   0.200   1.596   3.104
11804TIP3    H235354   0.146   1.719   3.173
11805TIP3   OH235355   6.800   4.908   4.337
11805TIP3    H135356   6.812   4.843   4.407
11805TIP3    H235357   6.775   4.988   4.383
11806TIP3   OH235358   4.430   1.538   2.639
11806TIP3    H135359   4.435   1.488   2.558
11806TIP3    H235360   4.336   1.549   2.655
11807TIP3   OH235361   6.148   0.240   0.666
11807TIP3    H135362   6.077   0.182   0.638
11807TIP3    H235363   6.187   0.196   0.741
11808TIP3   OH235364   1.615   7.458   3.800
11808TIP3    H135365   1.571   7.373   3.789
11808TIP3    H235366   1.569   7.517   3.740
11809TIP3   OH235367   3.156   6.471   4.358
11809TIP3    H135368   3.062   6.477   4.346
11809TIP3    H235369   3.192   6.501   4.274
11810TIP3   OH235370   5.928   5.442   0.824
11810TIP3    H135371   5.851   5.403   0.784
11810TIP3    H235372   6.000   5.417   0.766
11811TIP3   OH235373   3.508   4.705   1.783
11811TIP3    H135374   3.503   4.618   1.823
11811TIP3    H235375   3.428   4.711   1.730
11812TIP3   OH235376   1.888   2.393   5.195
11812TIP3    H135377   1.881   2.301   5.172
11812TIP3    H235378   1.844   2.439   5.123
11813TIP3   OH235379   4.839   4.622   4.716
11813TIP3    H135380   4.749   4.590   4.716
11813TIP3    H235381   4.883   4.568   4.782
11814TIP3   OH235382   7.039   6.998   3.473
11814TIP3    H135383   6.963   6.949   3.441
11814TIP3    H235384   7.052   7.068   3.409
11815TIP3   OH235385   2.635   4.474   5.234
11815TIP3    H135386   2.658   4.538   5.167
11815TIP3    H235387   2.629   4.525   5.315
11816TIP3   OH235388   7.211   3.646   3.901
11816TIP3    H135389   7.137   3.703   3.923
11816TIP3    H235390   7.212   3.643   3.806
11817TIP3   OH235391   1.832   1.610   0.350
11817TIP3    H135392   1.875   1.597   0.435
11817TIP3    H235393   1.741   1.587   0.366
11818TIP3   OH235394   4.176   6.975   4.778
11818TIP3    H135395   4.173   6.929   4.862
11818TIP3    H235396   4.085   6.998   4.760
11819TIP3   OH235397   4.057   6.386   1.349
11819TIP3    H135398   4.072   6.324   1.420
11819TIP3    H235399   3.998   6.451   1.387
11820TIP3   OH235400   4.354   0.199   3.885
11820TIP3    H135401   4.413   0.218   3.958
11820TIP3    H235402   4.309   0.282   3.868
11821TIP3   OH235403   6.528   6.496   1.347
11821TIP3    H135404   6.488   6.425   1.398
11821TIP3    H235405   6.618   6.467   1.332
11822TIP3   OH235406   2.955   4.630   1.495
11822TIP3    H135407   2.999   4.715   1.498
11822TIP3    H235408   2.901   4.634   1.416
11823TIP3   OH235409   0.673   7.011   0.195
11823TIP3    H135410   0.686   6.993   0.101
11823TIP3    H235411   0.633   6.931   0.229
11824TIP3   OH235412   2.989   1.768   4.098
11824TIP3    H135413   2.919   1.803   4.153
11824TIP3    H235414   3.070   1.804   4.135
11825TIP3   OH235415   5.165   0.305   4.756
11825TIP3    H135416   5.135   0.254   4.681
11825TIP3    H235417   5.259   0.317   4.741
11826TIP3   OH235418   3.886   3.354   3.790
11826TIP3    H135419   3.977   3.325   3.804
11826TIP3    H235420   3.847   3.284   3.738
11827TIP3   OH235421   2.846   5.727   1.406
11827TIP3    H135422   2.807   5.714   1.492
11827TIP3    H235423   2.791   5.793   1.364
11828TIP3   OH235424   3.630   6.116   2.830
11828TIP3    H135425   3.594   6.056   2.896
11828TIP3    H235426   3.615   6.203   2.867
11829TIP3   OH235427   6.652   7.356   2.918
11829TIP3    H135428   6.693   7.439   2.892
11829TIP3    H235429   6.578   7.346   2.858
11830TIP3   OH235430   7.835   0.192   4.283
11830TIP3    H135431   7.916   0.149   4.255
11830TIP3    H235432   7.790   0.213   4.201
11831TIP3   OH235433   4.087   3.184   6.295
11831TIP3    H135434   4.141   3.259   6.274
11831TIP3    H235435   4.115   3.116   6.234
11832TIP3   OH235436   2.769   2.315   6.100
11832TIP3    H135437   2.846   2.268   6.134
11832TIP3    H235438   2.769   2.295   6.006
11833TIP3   OH235439   6.463   2.823   0.641
11833TIP3    H135440   6.536   2.792   0.695
11833TIP3    H235441   6.504   2.877   0.573
11834TIP3   OH235442   7.291   1.746   4.523
11834TIP3    H135443   7.305   1.652   4.537
11834TIP3    H235444   7.198   1.755   4.506
11835TIP3   OH235445   5.367   0.215   1.855
11835TIP3    H135446   5.355   0.310   1.853
11835TIP3    H235447   5.344   0.186   1.767
11836TIP3   OH235448   4.697   3.124   5.679
11836TIP3    H135449   4.724   3.205   5.721
11836TIP3    H235450   4.727   3.133   5.588
11837TIP3   OH235451   6.027   4.881   3.047
11837TIP3    H135452   5.943   4.919   3.074
11837TIP3    H235453   6.090   4.916   3.110
11838TIP3   OH235454   7.541   6.059   6.212
11838TIP3    H135455   7.445   6.059   6.219
11838TIP3    H235456   7.559   6.011   6.132
11839TIP3   OH235457   1.640   5.890   3.945
11839TIP3    H135458   1.722   5.892   3.895
11839TIP3    H235459   1.585   5.957   3.904
11840TIP3   OH235460   1.014   2.277   1.101
11840TIP3    H135461   0.983   2.347   1.158
11840TIP3    H235462   0.967   2.199   1.129
11841TIP3   OH235463   3.889   5.076   1.881
11841TIP3    H135464   3.871   5.115   1.795
11841TIP3    H235465   3.967   5.022   1.866
11842TIP3   OH235466   4.323   3.371   0.931
11842TIP3    H135467   4.249   3.426   0.905
11842TIP3    H235468   4.380   3.371   0.854
11843TIP3   OH235469   7.272   2.731   2.452
11843TIP3    H135470   7.350   2.688   2.486
11843TIP3    H235471   7.205   2.663   2.450
11844TIP3   OH235472   2.966   4.510   5.669
11844TIP3    H135473   3.014   4.428   5.660
11844TIP3    H235474   3.018   4.574   5.619
11845TIP3   OH235475   7.865   1.389   2.560
11845TIP3    H135476   7.787   1.334   2.568
11845TIP3    H235477   7.937   1.327   2.545
11846TIP3   OH235478   1.826   0.506   1.023
11846TIP3    H135479   1.813   0.415   1.050
11846TIP3    H235480   1.869   0.500   0.938
11847TIP3   OH235481   3.938   0.386   6.025
11847TIP3    H135482   4.018   0.430   6.055
11847TIP3    H235483   3.877   0.395   6.098
11848TIP3   OH235484   5.714   7.499   0.477
11848TIP3    H135485   5.775   7.527   0.409
11848TIP3    H235486   5.630   7.537   0.452
11849TIP3   OH235487   3.369   6.018   1.664
11849TIP3    H135488   3.404   6.059   1.743
11849TIP3    H235489   3.324   6.089   1.618
11850TIP3   OH235490   2.995   2.538   3.447
11850TIP3    H135491   2.907   2.553   3.412
11850TIP3    H235492   3.040   2.621   3.434
11851TIP3   OH235493   4.985   6.661   0.911
11851TIP3    H135494   4.955   6.728   0.973
11851TIP3    H235495   4.999   6.708   0.829
11852TIP3   OH235496   4.060   5.611   4.761
11852TIP3    H135497   4.095   5.522   4.767
11852TIP3    H235498   4.038   5.635   4.851
11853TIP3   OH235499   1.493   2.036   3.549
11853TIP3    H135500   1.464   1.969   3.488
11853TIP3    H235501   1.465   2.004   3.635
11854TIP3   OH235502   1.396   2.886   0.747
11854TIP3    H135503   1.402   2.868   0.653
11854TIP3    H235504   1.302   2.887   0.765
11855TIP3   OH235505   3.908   1.664   0.312
11855TIP3    H135506   3.817   1.641   0.333
11855TIP3    H235507   3.956   1.649   0.393
11856TIP3   OH235508   8.066   7.423   1.049
11856TIP3    H135509   8.026   7.435   0.963
11856TIP3    H235510   7.993   7.398   1.106
11857TIP3   OH235511   0.073   4.900   1.280
11857TIP3    H135512   0.050   4.984   1.319
11857TIP3    H235513   0.140   4.921   1.214
11858TIP3   OH235514   7.757   0.751   1.138
11858TIP3    H135515   7.690   0.757   1.206
11858TIP3    H235516   7.810   0.675   1.163
11859TIP3   OH235517   0.251   1.011   6.120
11859TIP3    H135518   0.262   1.102   6.148
11859TIP3    H235519   0.167   0.984   6.158
11860TIP3   OH235520   0.853   3.139   3.075
11860TIP3    H135521   0.785   3.188   3.028
11860TIP3    H235522   0.807   3.097   3.148
11861TIP3   OH235523   0.613   6.630   3.670
11861TIP3    H135524   0.667   6.604   3.744
11861TIP3    H235525   0.676   6.653   3.601
11862TIP3   OH235526   3.561   1.194   3.101
11862TIP3    H135527   3.491   1.226   3.158
11862TIP3    H235528   3.613   1.136   3.156
11863TIP3   OH235529   6.732   4.315   2.043
11863TIP3    H135530   6.661   4.361   2.089
11863TIP3    H235531   6.807   4.323   2.101
11864TIP3   OH235532   2.932   3.259   4.857
11864TIP3    H135533   2.932   3.277   4.951
11864TIP3    H235534   3.022   3.277   4.829
11865TIP3   OH235535   1.699   4.368   0.316
11865TIP3    H135536   1.734   4.332   0.234
11865TIP3    H235537   1.686   4.461   0.298
11866TIP3   OH235538   6.514   2.574   4.002
11866TIP3    H135539   6.517   2.641   3.933
11866TIP3    H235540   6.559   2.614   4.076
11867TIP3   OH235541   5.744   3.355   0.877
11867TIP3    H135542   5.664   3.407   0.871
11867TIP3    H235543   5.815   3.418   0.861
11868TIP3   OH235544   5.326   1.509   2.159
11868TIP3    H135545   5.318   1.605   2.162
11868TIP3    H235546   5.358   1.486   2.246
11869TIP3   OH235547   4.106   3.143   4.323
11869TIP3    H135548   4.046   3.069   4.312
11869TIP3    H235549   4.171   3.112   4.386
11870TIP3   OH235550   4.848   0.112   3.131
11870TIP3    H135551   4.783   0.059   3.178
11870TIP3    H235552   4.871   0.059   3.055
11871TIP3   OH235553   8.212   3.418   2.721
11871TIP3    H135554   8.263   3.440   2.799
11871TIP3    H235555   8.173   3.501   2.693
11872TIP3   OH235556   1.814   3.258   6.295
11872TIP3    H135557   1.731   3.235   6.337
11872TIP3    H235558   1.805   3.350   6.273
11873TIP3   OH235559   8.033   1.725   4.284
11873TIP3    H135560   8.004   1.813   4.259
11873TIP3    H235561   8.095   1.700   4.216
11874TIP3   OH235562   1.143   4.068   6.712
11874TIP3    H135563   1.228   4.053   6.752
11874TIP3    H235564   1.161   4.069   6.618
11875TIP3   OH235565   5.530   2.113   3.362
11875TIP3    H135566   5.499   2.173   3.429
11875TIP3    H235567   5.560   2.169   3.291
11876TIP3   OH235568   7.455   2.997   5.676
11876TIP3    H135569   7.462   2.919   5.621
11876TIP3    H235570   7.531   3.050   5.653
11877TIP3   OH235571   8.123   6.187   2.348
11877TIP3    H135572   8.087   6.124   2.410
11877TIP3    H235573   8.155   6.259   2.402
11878TIP3   OH235574   7.922   6.250   0.801
11878TIP3    H135575   7.954   6.340   0.806
11878TIP3    H235576   7.940   6.214   0.887
11879TIP3   OH235577   4.223   7.913   6.041
11879TIP3    H135578   4.262   7.846   6.097
11879TIP3    H235579   4.185   7.977   6.102
11880TIP3   OH235580   3.901   4.859   0.655
11880TIP3    H135581   3.873   4.770   0.678
11880TIP3    H235582   3.965   4.846   0.585
11881TIP3   OH235583   2.577   1.252   2.856
11881TIP3    H135584   2.531   1.191   2.798
11881TIP3    H235585   2.565   1.216   2.944
11882TIP3   OH235586   0.599   2.384   4.441
11882TIP3    H135587   0.663   2.338   4.495
11882TIP3    H235588   0.547   2.435   4.503
11883TIP3   OH235589   4.529   1.139   2.078
11883TIP3    H135590   4.586   1.206   2.116
11883TIP3    H235591   4.588   1.068   2.052
11884TIP3   OH235592   0.787   6.151   4.276
11884TIP3    H135593   0.821   6.095   4.346
11884TIP3    H235594   0.757   6.230   4.319
11885TIP3   OH235595   4.857   5.290   0.784
11885TIP3    H135596   4.913   5.287   0.706
11885TIP3    H235597   4.768   5.279   0.750
11886TIP3   OH235598   2.265   5.423   1.064
11886TIP3    H135599   2.185   5.456   1.105
11886TIP3    H235600   2.336   5.461   1.117
11887TIP3   OH235601   5.081   1.058   3.866
11887TIP3    H135602   5.155   1.087   3.813
11887TIP3    H235603   5.121   1.006   3.936
11888TIP3   OH235604   2.533   0.849   2.679
11888TIP3    H135605   2.610   0.855   2.736
11888TIP3    H235606   2.570   0.844   2.590
11889TIP3   OH235607   4.088   1.070   1.953
11889TIP3    H135608   4.010   1.092   2.003
11889TIP3    H235609   4.094   1.139   1.887
11890TIP3   OH235610   6.191   1.419   5.389
11890TIP3    H135611   6.272   1.369   5.386
11890TIP3    H235612   6.145   1.387   5.466
11891TIP3   OH235613   5.021   1.511   4.065
11891TIP3    H135614   4.981   1.436   4.020
11891TIP3    H235615   4.948   1.572   4.079
11892TIP3   OH235616   1.656   4.933   0.882
11892TIP3    H135617   1.568   4.930   0.845
11892TIP3    H235618   1.712   4.957   0.809
11893TIP3   OH235619   8.384   6.355   1.444
11893TIP3    H135620   8.462   6.321   1.488
11893TIP3    H235621   8.331   6.393   1.515
11894TIP3   OH235622   8.200   6.872   4.229
11894TIP3    H135623   8.241   6.890   4.144
11894TIP3    H235624   8.181   6.958   4.265
11895TIP3   OH235625   7.516   1.338   2.413
11895TIP3    H135626   7.421   1.327   2.418
11895TIP3    H235627   7.532   1.426   2.447
11896TIP3   OH235628   6.593   2.098   4.249
11896TIP3    H135629   6.515   2.075   4.199
11896TIP3    H235630   6.606   2.191   4.233
11897TIP3   OH235631   7.654   0.915   3.789
11897TIP3    H135632   7.563   0.903   3.763
11897TIP3    H235633   7.672   1.007   3.772
11898TIP3   OH235634   3.716   1.504   6.029
11898TIP3    H135635   3.690   1.561   5.956
11898TIP3    H235636   3.803   1.473   6.006
11899TIP3   OH235637   3.356   6.470   0.257
11899TIP3    H135638   3.333   6.563   0.256
11899TIP3    H235639   3.334   6.440   0.169
11900TIP3   OH235640   3.356   3.156   2.110
11900TIP3    H135641   3.268   3.119   2.099
11900TIP3    H235642   3.411   3.081   2.133
11901TIP3   OH235643   1.884   6.060   3.207
11901TIP3    H135644   1.854   6.148   3.232
11901TIP3    H235645   1.812   6.003   3.234
11902TIP3   OH235646   2.822   6.026   2.357
11902TIP3    H135647   2.882   6.098   2.338
11902TIP3    H235648   2.840   6.004   2.449
11903TIP3   OH235649   1.757   2.176   6.165
11903TIP3    H135650   1.768   2.093   6.212
11903TIP3    H235651   1.829   2.231   6.198
11904TIP3   OH235652   6.009   3.536   4.330
11904TIP3    H135653   6.068   3.611   4.335
11904TIP3    H235654   6.019   3.491   4.414
11905TIP3   OH235655   5.783   0.512   1.513
11905TIP3    H135656   5.763   0.462   1.433
11905TIP3    H235657   5.810   0.597   1.481
11906TIP3   OH235658   2.659   1.935   4.855
11906TIP3    H135659   2.685   1.881   4.780
11906TIP3    H235660   2.721   2.007   4.857
11907TIP3   OH235661   3.740   7.121   3.530
11907TIP3    H135662   3.765   7.167   3.451
11907TIP3    H235663   3.748   7.186   3.600
11908TIP3   OH235664   6.901   3.417   0.498
11908TIP3    H135665   6.994   3.432   0.484
11908TIP3    H235666   6.873   3.490   0.554
11909TIP3   OH235667   6.230   5.363   5.125
11909TIP3    H135668   6.196   5.339   5.039
11909TIP3    H235669   6.325   5.354   5.118
11910TIP3   OH235670   3.287   7.771   4.545
11910TIP3    H135671   3.319   7.806   4.461
11910TIP3    H235672   3.332   7.687   4.553
11911TIP3   OH235673   8.317   1.364   2.781
11911TIP3    H135674   8.249   1.306   2.814
11911TIP3    H235675   8.297   1.449   2.821
11912TIP3   OH235676   4.654   7.498   3.008
11912TIP3    H135677   4.677   7.455   3.090
11912TIP3    H235678   4.609   7.578   3.034
11913TIP3   OH235679   8.000   0.610   5.863
11913TIP3    H135680   8.035   0.540   5.808
11913TIP3    H235681   7.954   0.565   5.934
11914TIP3   OH235682   0.779   4.894   2.498
11914TIP3    H135683   0.712   4.962   2.501
11914TIP3    H235684   0.857   4.939   2.466
11915TIP3   OH235685   4.669   2.005   2.177
11915TIP3    H135686   4.626   1.982   2.260
11915TIP3    H235687   4.761   2.018   2.201
11916TIP3   OH235688   3.680   1.966   5.533
11916TIP3    H135689   3.585   1.973   5.540
11916TIP3    H235690   3.696   1.955   5.439
11917TIP3   OH235691   1.957   3.163   5.670
11917TIP3    H135692   1.920   3.252   5.661
11917TIP3    H235693   1.886   3.105   5.643
11918TIP3   OH235694   3.846   0.177   6.852
11918TIP3    H135695   3.916   0.127   6.811
11918TIP3    H235696   3.840   0.257   6.800
11919TIP3   OH235697   0.558   0.986   2.933
11919TIP3    H135698   0.518   1.068   2.961
11919TIP3    H235699   0.607   0.955   3.009
11920TIP3   OH235700   0.365   4.645   6.185
11920TIP3    H135701   0.424   4.644   6.109
11920TIP3    H235702   0.278   4.637   6.147
11921TIP3   OH235703   3.361   0.013   6.083
11921TIP3    H135704   3.400   0.093   6.048
11921TIP3    H235705   3.391  -0.057   6.025
11922TIP3   OH235706   6.726   4.287   5.829
11922TIP3    H135707   6.723   4.344   5.906
11922TIP3    H235708   6.815   4.252   5.828
11923TIP3   OH235709   0.539   1.868   1.832
11923TIP3    H135710   0.525   1.838   1.921
11923TIP3    H235711   0.633   1.859   1.818
11924TIP3   OH235712   7.089   2.211   5.464
11924TIP3    H135713   7.076   2.276   5.533
11924TIP3    H235714   7.037   2.244   5.390
11925TIP3   OH235715   5.717   6.547   6.082
11925TIP3    H135716   5.690   6.545   5.990
11925TIP3    H235717   5.638   6.572   6.129
11926TIP3   OH235718   1.972   4.870   5.025
11926TIP3    H135719   1.994   4.818   4.949
11926TIP3    H235720   1.924   4.945   4.990
11927TIP3   OH235721   1.427   4.887   3.000
11927TIP3    H135722   1.519   4.865   2.985
11927TIP3    H235723   1.379   4.811   2.968
11928TIP3   OH235724   7.548   4.009   4.014
11928TIP3    H135725   7.487   4.077   3.987
11928TIP3    H235726   7.552   3.949   3.940
11929TIP3   OH235727   7.059   6.287   0.130
11929TIP3    H135728   7.033   6.290   0.222
11929TIP3    H235729   7.019   6.364   0.090
11930TIP3   OH235730   3.167   5.731   6.033
11930TIP3    H135731   3.139   5.716   6.124
11930TIP3    H235732   3.143   5.821   6.015
11931TIP3   OH235733   0.940   0.774   6.236
11931TIP3    H135734   0.899   0.775   6.149
11931TIP3    H235735   0.949   0.682   6.258
11932TIP3   OH235736   8.153   5.130   3.434
11932TIP3    H135737   8.195   5.215   3.444
11932TIP3    H235738   8.062   5.145   3.462
11933TIP3   OH235739   0.729   1.146   4.707
11933TIP3    H135740   0.733   1.177   4.616
11933TIP3    H235741   0.635   1.142   4.727
11934TIP3   OH235742   5.731   1.782   3.616
11934TIP3    H135743   5.761   1.712   3.674
11934TIP3    H235744   5.654   1.746   3.572
11935TIP3   OH235745   7.453   6.852   5.675
11935TIP3    H135746   7.413   6.894   5.598
11935TIP3    H235747   7.390   6.868   5.745
11936TIP3   OH235748   7.497   6.495   4.786
11936TIP3    H135749   7.406   6.508   4.814
11936TIP3    H235750   7.538   6.447   4.858
11937TIP3   OH235751   3.062   7.502   4.121
11937TIP3    H135752   3.145   7.469   4.156
11937TIP3    H235753   3.024   7.427   4.075
11938TIP3   OH235754   5.882   1.732   3.398
11938TIP3    H135755   5.861   1.787   3.323
11938TIP3    H235756   5.851   1.781   3.474
11939TIP3   OH235757   0.322   5.911   4.974
11939TIP3    H135758   0.313   5.877   4.885
11939TIP3    H235759   0.305   6.005   4.966
11940TIP3   OH235760   4.201   3.532   2.868
11940TIP3    H135761   4.272   3.474   2.896
11940TIP3    H235762   4.228   3.618   2.898
11941TIP3   OH235763   6.130   5.099   1.333
11941TIP3    H135764   6.080   5.179   1.317
11941TIP3    H235765   6.206   5.106   1.275
11942TIP3   OH235766   4.978   5.968   3.138
11942TIP3    H135767   4.889   6.002   3.146
11942TIP3    H235768   5.023   6.031   3.083
11943TIP3   OH235769   7.804   2.539   3.662
11943TIP3    H135770   7.804   2.633   3.644
11943TIP3    H235771   7.711   2.517   3.673
11944TIP3   OH235772   2.012   2.668   0.845
11944TIP3    H135773   1.971   2.677   0.759
11944TIP3    H235774   1.958   2.722   0.903
11945TIP3   OH235775   1.534   0.328   0.598
11945TIP3    H135776   1.444   0.297   0.600
11945TIP3    H235777   1.526   0.424   0.592
11946TIP3   OH235778   2.925   4.686   6.450
11946TIP3    H135779   3.009   4.671   6.406
11946TIP3    H235780   2.888   4.599   6.461
11947TIP3   OH235781   3.978   5.653   4.266
11947TIP3    H135782   3.971   5.661   4.361
11947TIP3    H235783   3.940   5.568   4.246
11948TIP3   OH235784   7.290   0.938   1.887
11948TIP3    H135785   7.334   0.976   1.811
11948TIP3    H235786   7.325   0.987   1.962
11949TIP3   OH235787   0.267   5.543   0.738
11949TIP3    H135788   0.266   5.539   0.834
11949TIP3    H235789   0.277   5.452   0.711
11950TIP3   OH235790   8.181   3.716   1.677
11950TIP3    H135791   8.221   3.681   1.757
11950TIP3    H235792   8.198   3.649   1.611
11951TIP3   OH235793   0.286   4.188   5.128
11951TIP3    H135794   0.332   4.126   5.186
11951TIP3    H235795   0.307   4.274   5.165
11952TIP3   OH235796   7.277   4.417   4.691
11952TIP3    H135797   7.359   4.448   4.653
11952TIP3    H235798   7.230   4.379   4.617
11953TIP3   OH235799   8.266   4.748   4.208
11953TIP3    H135800   8.247   4.771   4.299
11953TIP3    H235801   8.221   4.665   4.194
11954TIP3   OH235802   0.433   2.601   4.900
11954TIP3    H135803   0.378   2.669   4.938
11954TIP3    H235804   0.372   2.537   4.864
11955TIP3   OH235805   4.965   6.951   6.501
11955TIP3    H135806   4.988   6.944   6.593
11955TIP3    H235807   5.049   6.957   6.456
11956TIP3   OH235808   6.044   3.981   2.100
11956TIP3    H135809   6.018   4.027   2.020
11956TIP3    H235810   6.035   4.047   2.169
11957TIP3   OH235811   8.033   1.837   1.839
11957TIP3    H135812   8.034   1.875   1.751
11957TIP3    H235813   8.057   1.745   1.826
11958TIP3   OH235814   4.455   1.862   4.137
11958TIP3    H135815   4.500   1.905   4.064
11958TIP3    H235816   4.398   1.798   4.095
11959TIP3   OH235817   3.108   6.601   4.117
11959TIP3    H135818   3.119   6.695   4.102
11959TIP3    H235819   3.026   6.579   4.073
11960TIP3   OH235820   6.456   4.231   3.813
11960TIP3    H135821   6.399   4.173   3.763
11960TIP3    H235822   6.462   4.190   3.899
11961TIP3   OH235823   0.157   0.925   5.005
11961TIP3    H135824   0.162   0.848   4.949
11961TIP3    H235825   0.214   0.905   5.079
11962TIP3   OH235826   3.210   1.200   0.803
11962TIP3    H135827   3.270   1.242   0.865
11962TIP3    H235828   3.147   1.154   0.859
11963TIP3   OH235829   5.514   7.093   4.521
11963TIP3    H135830   5.594   7.041   4.527
11963TIP3    H235831   5.446   7.037   4.558
11964TIP3   OH235832   0.623   1.517   3.008
11964TIP3    H135833   0.613   1.535   2.914
11964TIP3    H235834   0.660   1.429   3.012
11965TIP3   OH235835   6.862   5.563   4.170
11965TIP3    H135836   6.932   5.584   4.232
11965TIP3    H235837   6.789   5.618   4.196
11966TIP3   OH235838   0.048   4.816   1.769
11966TIP3    H135839   0.006   4.896   1.739
11966TIP3    H235840   0.106   4.844   1.839
11967TIP3   OH235841   2.674   6.196   1.109
11967TIP3    H135842   2.598   6.231   1.156
11967TIP3    H235843   2.636   6.144   1.038
11968TIP3   OH235844   6.771   2.662   5.502
11968TIP3    H135845   6.701   2.598   5.484
11968TIP3    H235846   6.791   2.650   5.595
11969TIP3   OH235847   5.248   5.104   2.666
11969TIP3    H135848   5.251   5.055   2.584
11969TIP3    H235849   5.157   5.097   2.695
11970TIP3   OH235850   0.757   6.225   3.742
11970TIP3    H135851   0.749   6.206   3.835
11970TIP3    H235852   0.667   6.226   3.710
11971TIP3   OH235853   6.797   6.122   2.552
11971TIP3    H135854   6.891   6.116   2.565
11971TIP3    H235855   6.760   6.062   2.617
11972TIP3   OH235856   7.784   0.075   1.881
11972TIP3    H135857   7.868   0.064   1.925
11972TIP3    H235858   7.788   0.163   1.843
11973TIP3   OH235859   0.782   6.945   5.027
11973TIP3    H135860   0.698   6.910   5.058
11973TIP3    H235861   0.847   6.910   5.088
11974TIP3   OH235862   2.509   2.992   5.555
11974TIP3    H135863   2.466   3.078   5.553
11974TIP3    H235864   2.574   3.000   5.625
11975TIP3   OH235865   8.413   5.583   3.059
11975TIP3    H135866   8.327   5.606   3.023
11975TIP3    H235867   8.432   5.653   3.121
11976TIP3   OH235868   7.431   1.364   5.244
11976TIP3    H135869   7.340   1.357   5.273
11976TIP3    H235870   7.459   1.274   5.229
11977TIP3   OH235871   3.873   1.627   3.727
11977TIP3    H135872   3.822   1.547   3.710
11977TIP3    H235873   3.844   1.688   3.659
11978TIP3   OH235874   3.379   4.543   4.418
11978TIP3    H135875   3.315   4.607   4.448
11978TIP3    H235876   3.442   4.593   4.367
11979TIP3   OH235877   5.289   6.431   3.151
11979TIP3    H135878   5.310   6.519   3.184
11979TIP3    H235879   5.215   6.403   3.206
11980TIP3   OH235880   4.058   6.445   5.390
11980TIP3    H135881   3.978   6.400   5.416
11980TIP3    H235882   4.038   6.485   5.306
11981TIP3   OH235883   3.524   6.373   2.917
11981TIP3    H135884   3.572   6.352   2.997
11981TIP3    H235885   3.493   6.463   2.931
11982TIP3   OH235886   2.109   2.462   2.326
11982TIP3    H135887   2.095   2.466   2.232
11982TIP3    H235888   2.154   2.544   2.347
11983TIP3   OH235889   0.126   5.930   2.933
11983TIP3    H135890   0.158   5.920   2.843
11983TIP3    H235891   0.150   5.848   2.977
11984TIP3   OH235892   3.982   2.687   4.242
11984TIP3    H135893   4.037   2.622   4.286
11984TIP3    H235894   4.026   2.702   4.158
11985TIP3   OH235895   2.873   0.577   0.955
11985TIP3    H135896   2.876   0.667   0.924
11985TIP3    H235897   2.780   0.560   0.970
11986TIP3   OH235898   8.112   2.456   0.206
11986TIP3    H135899   8.112   2.506   0.287
11986TIP3    H235900   8.200   2.471   0.169
11987TIP3   OH235901   5.626   5.257   5.165
11987TIP3    H135902   5.619   5.183   5.106
11987TIP3    H235903   5.560   5.242   5.232
11988TIP3   OH235904   0.132   2.807   6.123
11988TIP3    H135905   0.131   2.723   6.076
11988TIP3    H235906   0.177   2.788   6.205
11989TIP3   OH235907   7.593   5.957   1.571
11989TIP3    H135908   7.605   6.032   1.512
11989TIP3    H235909   7.544   5.893   1.519
11990TIP3   OH235910   0.554   4.851   5.682
11990TIP3    H135911   0.466   4.871   5.651
11990TIP3    H235912   0.595   4.804   5.610
11991TIP3   OH235913   3.991   3.506   1.371
11991TIP3    H135914   3.903   3.512   1.336
11991TIP3    H235915   3.979   3.498   1.466
11992TIP3   OH235916   2.748   5.088   2.350
11992TIP3    H135917   2.768   5.182   2.354
11992TIP3    H235918   2.741   5.061   2.441
11993TIP3   OH235919   5.538   4.636   1.760
11993TIP3    H135920   5.588   4.569   1.807
11993TIP3    H235921   5.504   4.589   1.683
11994TIP3   OH235922   7.089   5.627   2.693
11994TIP3    H135923   7.018   5.662   2.639
11994TIP3    H235924   7.045   5.570   2.756
11995TIP3   OH235925   3.931   6.202   1.543
11995TIP3    H135926   3.968   6.242   1.622
11995TIP3    H235927   3.837   6.196   1.559
11996TIP3   OH235928   2.720   6.391   6.845
11996TIP3    H135929   2.774   6.467   6.866
11996TIP3    H235930   2.762   6.352   6.768
11997TIP3   OH235931   5.385   1.081   5.870
11997TIP3    H135932   5.451   1.062   5.803
11997TIP3    H235933   5.393   1.175   5.885
11998TIP3   OH235934   5.129   0.966   5.799
11998TIP3    H135935   5.209   0.978   5.849
11998TIP3    H235936   5.154   0.985   5.709
11999TIP3   OH235937   5.861   6.737   3.911
11999TIP3    H135938   5.788   6.761   3.969
11999TIP3    H235939   5.924   6.694   3.969
12000TIP3   OH235940   4.727   0.858   3.870
12000TIP3    H135941   4.767   0.784   3.824
12000TIP3    H235942   4.633   0.846   3.858
12001TIP3   OH235943   5.263   2.000   3.332
12001TIP3    H135944   5.347   2.034   3.360
12001TIP3    H235945   5.207   2.078   3.323
12002TIP3   OH235946   4.504   5.360   5.367
12002TIP3    H135947   4.598   5.348   5.352
12002TIP3    H235948   4.468   5.377   5.280
12003TIP3   OH235949   1.987   0.540   3.098
12003TIP3    H135950   1.940   0.456   3.100
12003TIP3    H235951   2.027   0.547   3.185
12004TIP3   OH235952   1.505   7.719   1.391
12004TIP3    H135953   1.542   7.777   1.458
12004TIP3    H235954   1.450   7.776   1.338
12005TIP3   OH235955   0.177   6.109   5.909
12005TIP3    H135956   0.094   6.152   5.892
12005TIP3    H235957   0.156   6.015   5.906
12006TIP3   OH235958   3.649   3.203   6.096
12006TIP3    H135959   3.590   3.127   6.090
12006TIP3    H235960   3.718   3.174   6.155
12007TIP3   OH235961   8.084   5.812   3.995
12007TIP3    H135962   8.107   5.732   3.948
12007TIP3    H235963   8.168   5.847   4.024
12008TIP3   OH235964   3.801   7.847   6.121
12008TIP3    H135965   3.734   7.914   6.108
12008TIP3    H235966   3.841   7.835   6.035
12009TIP3   OH235967   0.693   6.065   1.589
12009TIP3    H135968   0.611   6.083   1.543
12009TIP3    H235969   0.674   5.988   1.642
12010TIP3   OH235970   2.351   1.892   3.974
12010TIP3    H135971   2.387   1.807   3.951
12010TIP3    H235972   2.257   1.882   3.964
12011TIP3   OH235973   6.190   2.575   6.330
12011TIP3    H135974   6.190   2.665   6.298
12011TIP3    H235975   6.241   2.527   6.264
12012TIP3   OH235976   5.735   4.494   2.859
12012TIP3    H135977   5.766   4.556   2.925
12012TIP3    H235978   5.645   4.475   2.884
12013TIP3   OH235979   8.121   3.083   4.961
12013TIP3    H135980   8.070   3.096   5.041
12013TIP3    H235981   8.077   3.011   4.916
12014TIP3   OH235982   2.653   7.403   1.736
12014TIP3    H135983   2.642   7.387   1.830
12014TIP3    H235984   2.590   7.473   1.716
12015TIP3   OH235985   6.363   7.679   0.248
12015TIP3    H135986   6.360   7.592   0.209
12015TIP3    H235987   6.339   7.665   0.340
12016TIP3   OH235988   5.355   0.477   3.880
12016TIP3    H135989   5.305   0.416   3.935
12016TIP3    H235990   5.411   0.420   3.827
12017TIP3   OH235991   7.434   7.643   6.772
12017TIP3    H135992   7.520   7.637   6.730
12017TIP3    H235993   7.376   7.677   6.703
12018TIP3   OH235994   4.265   1.927   2.463
12018TIP3    H135995   4.356   1.912   2.439
12018TIP3    H235996   4.224   1.959   2.382
12019TIP3   OH235997   6.846   2.359   2.478
12019TIP3    H135998   6.794   2.440   2.480
12019TIP3    H235999   6.933   2.387   2.506
12020TIP3   OH236000   3.421   0.096   3.458
12020TIP3    H136001   3.469   0.112   3.376
12020TIP3    H236002   3.402   0.183   3.492
12021TIP3   OH236003   3.785   1.735   2.420
12021TIP3    H136004   3.775   1.805   2.356
12021TIP3    H236005   3.723   1.667   2.392
12022TIP3   OH236006   3.858   7.371   0.369
12022TIP3    H136007   3.868   7.403   0.459
12022TIP3    H236008   3.924   7.419   0.319
12023TIP3   OH236009   0.648   2.725   3.515
12023TIP3    H136010   0.602   2.699   3.594
12023TIP3    H236011   0.669   2.642   3.471
12024TIP3   OH236012   0.342   4.434   6.343
12024TIP3    H136013   0.341   4.367   6.274
12024TIP3    H236014   0.376   4.512   6.300
12025TIP3   OH236015   0.297   3.796   1.897
12025TIP3    H136016   0.258   3.712   1.921
12025TIP3    H236017   0.371   3.805   1.958
12026TIP3   OH236018   1.202   4.101   4.223
12026TIP3    H136019   1.203   4.169   4.291
12026TIP3    H236020   1.243   4.025   4.265
12027TIP3   OH236021   1.923   4.554   1.847
12027TIP3    H136022   1.987   4.521   1.911
12027TIP3    H236023   1.871   4.477   1.824
12028TIP3   OH236024   6.428   3.059   0.929
12028TIP3    H136025   6.507   3.106   0.902
12028TIP3    H236026   6.357   3.104   0.883
12029TIP3   OH236027   4.895   5.123   0.067
12029TIP3    H136028   4.945   5.205   0.057
12029TIP3    H236029   4.869   5.101  -0.023
12030TIP3   OH236030   7.604   6.922   0.065
12030TIP3    H136031   7.628   7.011   0.091
12030TIP3    H236032   7.509   6.921   0.066
12031TIP3   OH236033   4.588   2.278   1.249
12031TIP3    H136034   4.650   2.351   1.247
12031TIP3    H236035   4.636   2.207   1.290
12032TIP3   OH236036   4.658   2.197   6.651
12032TIP3    H136037   4.639   2.290   6.657
12032TIP3    H236038   4.572   2.155   6.648
12033TIP3   OH236039   3.435   3.679   4.519
12033TIP3    H136040   3.447   3.641   4.432
12033TIP3    H236041   3.454   3.772   4.507
12034TIP3   OH236042   5.607   7.447   3.772
12034TIP3    H136043   5.594   7.443   3.677
12034TIP3    H236044   5.601   7.540   3.793
12035TIP3   OH236045   5.464   7.333   3.091
12035TIP3    H136046   5.514   7.316   3.011
12035TIP3    H236047   5.391   7.388   3.063
12036TIP3   OH236048   2.304   2.449   4.352
12036TIP3    H136049   2.370   2.380   4.360
12036TIP3    H236050   2.330   2.513   4.419
12037TIP3   OH236051   2.999   2.723   5.565
12037TIP3    H136052   3.019   2.645   5.617
12037TIP3    H236053   3.002   2.693   5.474
12038TIP3   OH236054   8.084   4.843   0.608
12038TIP3    H136055   8.029   4.811   0.679
12038TIP3    H236056   8.172   4.845   0.645
12039TIP3   OH236057   4.460   6.023   2.947
12039TIP3    H136058   4.522   6.070   2.892
12039TIP3    H236059   4.456   5.935   2.909
12040TIP3   OH236060   6.349   3.692   1.710
12040TIP3    H136061   6.400   3.769   1.735
12040TIP3    H236062   6.415   3.626   1.687
12041TIP3   OH236063   7.349   5.253   0.154
12041TIP3    H136064   7.271   5.287   0.197
12041TIP3    H236065   7.418   5.315   0.177
12042TIP3   OH236066   7.637   0.620   6.745
12042TIP3    H136067   7.633   0.525   6.739
12042TIP3    H236068   7.730   0.641   6.735
12043TIP3   OH236069   7.556   0.194   1.046
12043TIP3    H136070   7.563   0.117   1.104
12043TIP3    H236071   7.472   0.182   1.001
12044TIP3   OH236072   3.085   6.142   1.754
12044TIP3    H136073   3.086   6.047   1.741
12044TIP3    H236074   3.025   6.175   1.687
12045TIP3   OH236075   4.128   5.511   5.258
12045TIP3    H136076   4.215   5.549   5.245
12045TIP3    H236077   4.116   5.511   5.353
12046TIP3   OH236078   7.301   3.400   1.111
12046TIP3    H136079   7.386   3.358   1.097
12046TIP3    H236080   7.275   3.430   1.024
12047TIP3   OH236081   3.672   4.566   6.545
12047TIP3    H136082   3.597   4.548   6.488
12047TIP3    H236083   3.653   4.520   6.626
12048TIP3   OH236084   4.177   0.554   6.076
12048TIP3    H136085   4.149   0.583   6.163
12048TIP3    H236086   4.271   0.538   6.085
12049TIP3   OH236087   0.808   1.972   3.098
12049TIP3    H136088   0.763   2.026   3.163
12049TIP3    H236089   0.752   1.895   3.089
12050TIP3   OH236090   4.740   1.243   4.238
12050TIP3    H136091   4.768   1.183   4.169
12050TIP3    H236092   4.807   1.235   4.306
12051TIP3   OH236093   3.656   1.026   4.996
12051TIP3    H136094   3.570   1.051   5.030
12051TIP3    H236095   3.636   0.981   4.914
12052TIP3   OH236096   7.032   3.248   1.379
12052TIP3    H136097   7.049   3.179   1.315
12052TIP3    H236098   6.951   3.289   1.350
12053TIP3   OH236099   8.364   7.731   5.952
12053TIP3    H136100   8.365   7.647   5.998
12053TIP3    H236101   8.309   7.788   6.006
12054TIP3   OH236102   2.548   4.891   3.441
12054TIP3    H136103   2.598   4.963   3.479
12054TIP3    H236104   2.551   4.907   3.347
12055TIP3   OH236105   7.001   7.575   0.209
12055TIP3    H136106   7.070   7.530   0.160
12055TIP3    H236107   7.036   7.583   0.298
12056TIP3   OH236108   7.896   6.466   5.551
12056TIP3    H136109   7.884   6.523   5.475
12056TIP3    H236110   7.989   6.444   5.550
12057TIP3   OH236111   7.427   0.072   6.722
12057TIP3    H136112   7.355   0.041   6.777
12057TIP3    H236113   7.503   0.073   6.780
12058TIP3   OH236114   8.082   4.726   5.263
12058TIP3    H136115   8.170   4.724   5.300
12058TIP3    H236116   8.028   4.767   5.331
12059TIP3   OH236117   0.160   6.282   6.554
12059TIP3    H136118   0.215   6.232   6.615
12059TIP3    H236119   0.214   6.356   6.528
12060TIP3   OH236120   2.966   4.164   5.174
12060TIP3    H136121   3.056   4.195   5.160
12060TIP3    H236122   2.973   4.068   5.166
12061TIP3   OH236123   7.612   2.162   1.133
12061TIP3    H136124   7.662   2.081   1.139
12061TIP3    H236125   7.523   2.134   1.114
12062TIP3   OH236126   2.911   5.347   1.654
12062TIP3    H136127   2.965   5.369   1.578
12062TIP3    H236128   2.920   5.421   1.713
12063TIP3   OH236129   4.481   7.469   5.650
12063TIP3    H136130   4.489   7.563   5.632
12063TIP3    H236131   4.529   7.456   5.732
12064TIP3   OH236132   6.253   3.157   5.168
12064TIP3    H136133   6.262   3.153   5.073
12064TIP3    H236134   6.340   3.133   5.201
12065TIP3   OH236135   1.288   0.454   1.488
12065TIP3    H136136   1.225   0.434   1.418
12065TIP3    H236137   1.373   0.454   1.444
12066TIP3   OH236138   6.147   1.244   3.197
12066TIP3    H136139   6.099   1.324   3.176
12066TIP3    H236140   6.143   1.238   3.293
12067TIP3   OH236141   0.920   4.141   1.692
12067TIP3    H136142   1.011   4.119   1.672
12067TIP3    H236143   0.893   4.200   1.622
12068TIP3   OH236144   1.664   7.509   1.278
12068TIP3    H136145   1.583   7.539   1.319
12068TIP3    H236146   1.714   7.470   1.350
12069TIP3   OH236147   0.648   7.396   4.267
12069TIP3    H136148   0.716   7.395   4.199
12069TIP3    H236149   0.636   7.489   4.287
12070TIP3   OH236150   3.180   1.100   2.754
12070TIP3    H136151   3.169   1.188   2.720
12070TIP3    H236152   3.169   1.043   2.678
12071TIP3   OH236153   3.653   1.642   0.879
12071TIP3    H136154   3.634   1.611   0.791
12071TIP3    H236155   3.734   1.692   0.870
12072TIP3   OH236156   5.768   1.261   0.902
12072TIP3    H136157   5.743   1.346   0.865
12072TIP3    H236158   5.855   1.276   0.939
12073TIP3   OH236159   4.386   1.688   5.144
12073TIP3    H136160   4.306   1.718   5.187
12073TIP3    H236161   4.440   1.767   5.136
12074TIP3   OH236162   0.826   5.488   3.154
12074TIP3    H136163   0.855   5.578   3.141
12074TIP3    H236164   0.898   5.446   3.202
12075TIP3   OH236165   2.108   7.145   4.756
12075TIP3    H136166   2.091   7.144   4.662
12075TIP3    H236167   2.191   7.192   4.766
12076TIP3   OH236168   1.974   6.345   5.708
12076TIP3    H136169   1.962   6.418   5.647
12076TIP3    H236170   1.939   6.376   5.791
12077TIP3   OH236171   8.008   0.120   3.853
12077TIP3    H136172   8.095   0.089   3.881
12077TIP3    H236173   8.019   0.140   3.760
12078TIP3   OH236174   8.357   6.155   1.253
12078TIP3    H136175   8.364   6.230   1.312
12078TIP3    H236176   8.411   6.087   1.295
12079TIP3   OH236177   5.874   0.092   1.280
12079TIP3    H136178   5.949   0.047   1.240
12079TIP3    H236179   5.801   0.033   1.264
12080TIP3   OH236180   2.567   1.243   3.334
12080TIP3    H136181   2.593   1.273   3.247
12080TIP3    H236182   2.492   1.185   3.319
12081TIP3   OH236183   5.795   2.064   4.178
12081TIP3    H136184   5.744   2.078   4.098
12081TIP3    H236185   5.730   2.043   4.245
12082TIP3   OH236186   7.887   2.396   0.056
12082TIP3    H136187   7.944   2.444   0.116
12082TIP3    H236188   7.946   2.337   0.009
12083TIP3   OH236189   1.206   0.330   3.084
12083TIP3    H136190   1.117   0.365   3.076
12083TIP3    H236191   1.193   0.238   3.105
12084TIP3   OH236192   6.751   5.944   2.742
12084TIP3    H136193   6.680   5.923   2.802
12084TIP3    H236194   6.807   6.005   2.791
12085TIP3   OH236195   0.594   3.859   3.361
12085TIP3    H136196   0.618   3.945   3.327
12085TIP3    H236197   0.509   3.840   3.322
12086TIP3   OH236198   3.660   1.601   6.645
12086TIP3    H136199   3.681   1.567   6.558
12086TIP3    H236200   3.697   1.690   6.645
12087TIP3   OH236201   5.162   3.350   1.130
12087TIP3    H136202   5.200   3.263   1.119
12087TIP3    H236203   5.213   3.406   1.072
12088TIP3   OH236204   8.083   0.536   6.327
12088TIP3    H136205   8.038   0.532   6.242
12088TIP3    H236206   8.018   0.573   6.387
12089TIP3   OH236207   2.623   5.857   5.439
12089TIP3    H136208   2.660   5.924   5.496
12089TIP3    H236209   2.694   5.835   5.379
12090TIP3   OH236210   8.267   5.049   1.056
12090TIP3    H136211   8.228   5.033   1.142
12090TIP3    H236212   8.196   5.036   0.994
12091TIP3   OH236213   3.743   0.574   1.541
12091TIP3    H136214   3.808   0.634   1.577
12091TIP3    H236215   3.671   0.630   1.512
12092TIP3   OH236216   6.775   4.998   6.003
12092TIP3    H136217   6.809   5.059   6.069
12092TIP3    H236218   6.777   5.047   5.921
12093TIP3   OH236219   1.756   5.089   3.547
12093TIP3    H136220   1.668   5.063   3.575
12093TIP3    H236221   1.799   5.115   3.628
12094TIP3   OH236222   2.393   5.783   0.610
12094TIP3    H136223   2.473   5.775   0.558
12094TIP3    H236224   2.330   5.822   0.550
12095TIP3   OH236225   2.570   3.188   4.608
12095TIP3    H136226   2.585   3.139   4.689
12095TIP3    H236227   2.639   3.158   4.549
12096TIP3   OH236228   5.323   7.436   2.821
12096TIP3    H136229   5.285   7.429   2.733
12096TIP3    H236230   5.340   7.345   2.847
12097TIP3   OH236231   4.562   6.509   0.592
12097TIP3    H136232   4.632   6.491   0.529
12097TIP3    H236233   4.608   6.525   0.675
12098TIP3   OH236234   4.221   7.692   2.293
12098TIP3    H136235   4.228   7.735   2.378
12098TIP3    H236236   4.310   7.697   2.256
12099TIP3   OH236237   5.228   0.727   1.137
12099TIP3    H136238   5.243   0.653   1.196
12099TIP3    H236239   5.141   0.710   1.100
12100TIP3   OH236240   8.020   6.048   5.613
12100TIP3    H136241   8.114   6.033   5.609
12100TIP3    H236242   7.982   5.971   5.571
12101TIP3   OH236243   2.170   4.374   5.487
12101TIP3    H136244   2.243   4.390   5.427
12101TIP3    H236245   2.144   4.462   5.516
12102TIP3   OH236246   3.380   2.896   5.344
12102TIP3    H136247   3.430   2.830   5.392
12102TIP3    H236248   3.341   2.848   5.270
12103TIP3   OH236249   1.668   6.909   5.284
12103TIP3    H136250   1.599   6.857   5.326
12103TIP3    H236251   1.683   6.982   5.344
12104TIP3   OH236252   6.284   1.139   6.190
12104TIP3    H136253   6.361   1.195   6.200
12104TIP3    H236254   6.298   1.067   6.252
12105TIP3   OH236255   3.900   7.116   0.240
12105TIP3    H136256   3.878   7.200   0.279
12105TIP3    H236257   3.967   7.135   0.174
12106TIP3   OH236258   3.406   2.014   5.561
12106TIP3    H136259   3.362   1.946   5.613
12106TIP3    H236260   3.372   2.096   5.596
12107TIP3   OH236261   6.988   4.626   4.030
12107TIP3    H136262   6.921   4.694   4.039
12107TIP3    H236263   7.037   4.651   3.951
12108TIP3   OH236264   8.392   4.465   3.254
12108TIP3    H136265   8.438   4.480   3.337
12108TIP3    H236266   8.300   4.478   3.276
12109TIP3   OH236267   7.701   3.616   1.884
12109TIP3    H136268   7.796   3.608   1.900
12109TIP3    H236269   7.667   3.528   1.903
12110TIP3   OH236270   0.225   1.295   0.177
12110TIP3    H136271   0.313   1.333   0.182
12110TIP3    H236272   0.203   1.273   0.267
12111TIP3   OH236273   3.040   5.059   5.900
12111TIP3    H136274   3.066   5.150   5.890
12111TIP3    H236275   2.958   5.063   5.951
12112TIP3   OH236276   3.939   2.878   1.208
12112TIP3    H136277   3.863   2.826   1.181
12112TIP3    H236278   3.910   2.924   1.286
12113TIP3   OH236279   5.064   1.653   5.641
12113TIP3    H136280   5.054   1.711   5.565
12113TIP3    H236281   5.070   1.565   5.604
12114TIP3   OH236282   8.128   1.993   3.549
12114TIP3    H136283   8.041   2.009   3.585
12114TIP3    H236284   8.161   2.080   3.526
12115TIP3   OH236285   6.793   0.741   6.255
12115TIP3    H136286   6.732   0.755   6.182
12115TIP3    H236287   6.772   0.809   6.318
12116TIP3   OH236288   1.479   5.215   6.306
12116TIP3    H136289   1.447   5.126   6.297
12116TIP3    H236290   1.550   5.222   6.243
12117TIP3   OH236291   7.106   3.737   3.455
12117TIP3    H136292   7.160   3.810   3.485
12117TIP3    H236293   7.067   3.767   3.373
12118TIP3   OH236294   4.335   5.524   4.543
12118TIP3    H136295   4.314   5.611   4.509
12118TIP3    H236296   4.392   5.486   4.477
12119TIP3   OH236297   6.651   0.880   0.813
12119TIP3    H136298   6.591   0.939   0.857
12119TIP3    H236299   6.657   0.915   0.724
12120TIP3   OH236300   3.652   6.894   0.843
12120TIP3    H136301   3.622   6.881   0.753
12120TIP3    H236302   3.687   6.809   0.869
12121TIP3   OH236303   6.023   6.657   3.703
12121TIP3    H136304   5.963   6.704   3.760
12121TIP3    H236305   6.041   6.575   3.749
12122TIP3   OH236306   8.157   0.240   0.781
12122TIP3    H136307   8.089   0.182   0.748
12122TIP3    H236308   8.189   0.287   0.703
12123TIP3   OH236309   7.580   5.070   0.234
12123TIP3    H136310   7.644   5.139   0.251
12123TIP3    H236311   7.497   5.116   0.223
12124TIP3   OH236312   1.174   1.779   4.532
12124TIP3    H136313   1.199   1.827   4.453
12124TIP3    H236314   1.235   1.705   4.535
12125TIP3   OH236315   0.462   3.857   4.017
12125TIP3    H136316   0.512   3.925   4.062
12125TIP3    H236317   0.475   3.778   4.070
12126TIP3   OH236318   0.960   5.435   2.568
12126TIP3    H136319   0.988   5.512   2.617
12126TIP3    H236320   1.017   5.432   2.491
12127TIP3   OH236321   2.726   6.990   5.975
12127TIP3    H136322   2.808   6.982   6.025
12127TIP3    H236323   2.678   6.910   5.996
12128TIP3   OH236324   7.773   4.101   6.293
12128TIP3    H136325   7.704   4.093   6.359
12128TIP3    H236326   7.799   4.011   6.274
12129TIP3   OH236327   0.915   0.471   3.411
12129TIP3    H136328   0.881   0.520   3.486
12129TIP3    H236329   0.851   0.400   3.398
12130TIP3   OH236330   3.753   4.587   0.095
12130TIP3    H136331   3.657   4.590   0.094
12130TIP3    H236332   3.777   4.578   0.003
12131TIP3   OH236333   6.643   0.273   5.882
12131TIP3    H136334   6.649   0.348   5.824
12131TIP3    H236335   6.663   0.307   5.969
12132TIP3   OH236336   3.202   4.299   2.423
12132TIP3    H136337   3.107   4.290   2.430
12132TIP3    H236338   3.217   4.393   2.421
12133TIP3   OH236339   4.821   2.645   6.077
12133TIP3    H136340   4.807   2.591   5.999
12133TIP3    H236341   4.829   2.734   6.042
12134TIP3   OH236342   8.202   1.539   6.074
12134TIP3    H136343   8.179   1.614   6.020
12134TIP3    H236344   8.240   1.576   6.154
12135TIP3   OH236345   4.614   1.933   3.378
12135TIP3    H136346   4.626   1.924   3.283
12135TIP3    H236347   4.552   1.864   3.401
12136TIP3   OH236348   7.851   0.999   4.078
12136TIP3    H136349   7.856   0.905   4.067
12136TIP3    H236350   7.758   1.017   4.090
12137TIP3   OH236351   1.380   5.645   2.948
12137TIP3    H136352   1.284   5.640   2.950
12137TIP3    H236353   1.399   5.727   2.901
12138TIP3   OH236354   7.002   5.719   1.971
12138TIP3    H136355   6.962   5.698   2.056
12138TIP3    H236356   7.090   5.749   1.993
12139TIP3   OH236357   6.156   1.140   1.739
12139TIP3    H136358   6.156   1.202   1.665
12139TIP3    H236359   6.104   1.184   1.807
12140TIP3   OH236360   3.357   7.333   6.226
12140TIP3    H136361   3.311   7.314   6.144
12140TIP3    H236362   3.296   7.306   6.295
12141TIP3   OH236363   7.073   6.424   1.783
12141TIP3    H136364   6.982   6.434   1.755
12141TIP3    H236365   7.069   6.423   1.878
12142TIP3   OH236366   1.944   3.662   5.487
12142TIP3    H136367   2.018   3.702   5.441
12142TIP3    H236368   1.948   3.698   5.575
12143TIP3   OH236369   3.175   0.059   4.759
12143TIP3    H136370   3.138   0.146   4.778
12143TIP3    H236371   3.159   0.047   4.665
12144TIP3   OH236372   2.660   0.920   1.113
12144TIP3    H136373   2.691   0.933   1.202
12144TIP3    H236374   2.599   0.846   1.119
12145TIP3   OH236375   4.383   1.971   1.624
12145TIP3    H136376   4.408   2.031   1.695
12145TIP3    H236377   4.379   2.027   1.546
12146TIP3   OH236378   8.368   7.879   4.070
12146TIP3    H136379   8.403   7.917   4.150
12146TIP3    H236380   8.276   7.906   4.068
12147TIP3   OH236381   4.606   4.859   4.543
12147TIP3    H136382   4.643   4.945   4.562
12147TIP3    H236383   4.674   4.797   4.567
12148TIP3   OH236384   5.834   7.281   2.205
12148TIP3    H136385   5.885   7.337   2.147
12148TIP3    H236386   5.751   7.328   2.217
12149TIP3   OH236387   6.418   4.494   3.213
12149TIP3    H136388   6.388   4.425   3.154
12149TIP3    H236389   6.348   4.502   3.278
12150TIP3   OH236390   2.202   4.144   0.420
12150TIP3    H136391   2.109   4.124   0.431
12150TIP3    H236392   2.217   4.223   0.471
12151TIP3   OH236393   4.945   6.110   1.220
12151TIP3    H136394   4.943   6.028   1.170
12151TIP3    H236395   5.026   6.105   1.271
12152TIP3   OH236396   2.278   6.106   6.412
12152TIP3    H136397   2.198   6.157   6.425
12152TIP3    H236398   2.346   6.158   6.454
12153TIP3   OH236399   5.708   0.895   2.409
12153TIP3    H136400   5.764   0.880   2.485
12153TIP3    H236401   5.762   0.871   2.334
12154TIP3   OH236402   0.377   6.779   0.961
12154TIP3    H136403   0.349   6.851   1.016
12154TIP3    H236404   0.297   6.748   0.918
12155TIP3   OH236405   5.608   5.973   3.741
12155TIP3    H136406   5.644   5.990   3.654
12155TIP3    H236407   5.514   5.961   3.726
12156TIP3   OH236408   7.511   0.202   4.807
12156TIP3    H136409   7.603   0.183   4.828
12156TIP3    H236410   7.472   0.228   4.891
12157TIP3   OH236411   7.593   6.922   5.237
12157TIP3    H136412   7.662   6.861   5.210
12157TIP3    H236413   7.640   6.993   5.281
12158TIP3   OH236414   8.298   3.563   4.472
12158TIP3    H136415   8.308   3.562   4.567
12158TIP3    H236416   8.365   3.623   4.441
12159TIP3   OH236417   2.957   7.016   6.140
12159TIP3    H136418   2.959   7.111   6.145
12159TIP3    H236419   2.929   6.988   6.227
12160TIP3   OH236420   4.519   5.131   4.392
12160TIP3    H136421   4.504   5.042   4.362
12160TIP3    H236422   4.533   5.182   4.312
12161TIP3   OH236423   1.314   2.021   6.389
12161TIP3    H136424   1.253   2.058   6.325
12161TIP3    H236425   1.390   2.078   6.386
12162TIP3   OH236426   8.298   1.339   6.347
12162TIP3    H136427   8.317   1.433   6.356
12162TIP3    H236428   8.291   1.326   6.252
12163TIP3   OH236429   6.515   0.874   3.470
12163TIP3    H136430   6.464   0.895   3.392
12163TIP3    H236431   6.486   0.936   3.536
12164TIP3   OH236432   3.053   6.616   5.304
12164TIP3    H136433   3.072   6.703   5.270
12164TIP3    H236434   2.968   6.593   5.266
12165TIP3   OH236435   2.806   4.012   0.404
12165TIP3    H136436   2.744   4.074   0.441
12165TIP3    H236437   2.889   4.031   0.449
12166TIP3   OH236438   3.306   5.824   1.311
12166TIP3    H136439   3.396   5.850   1.290
12166TIP3    H236440   3.251   5.891   1.269
12167TIP3   OH236441   0.511   2.305   3.288
12167TIP3    H136442   0.465   2.347   3.361
12167TIP3    H236443   0.445   2.299   3.219
12168TIP3   OH236444   0.346   1.341   2.203
12168TIP3    H136445   0.356   1.436   2.193
12168TIP3    H236446   0.252   1.326   2.205
12169TIP3   OH236447   5.547   7.766   6.236
12169TIP3    H136448   5.615   7.702   6.216
12169TIP3    H236449   5.575   7.846   6.191
12170TIP3   OH236450   2.215   1.255   3.875
12170TIP3    H136451   2.178   1.193   3.812
12170TIP3    H236452   2.140   1.308   3.903
12171TIP3   OH236453   1.037   4.796   6.072
12171TIP3    H136454   0.946   4.806   6.044
12171TIP3    H236455   1.049   4.863   6.139
12172TIP3   OH236456   3.577   2.582   6.697
12172TIP3    H136457   3.646   2.639   6.731
12172TIP3    H236458   3.542   2.629   6.622
12173TIP3   OH236459   7.486   7.379   4.954
12173TIP3    H136460   7.548   7.366   5.026
12173TIP3    H236461   7.407   7.334   4.982
12174TIP3   OH236462   5.623   3.943   2.352
12174TIP3    H136463   5.714   3.919   2.371
12174TIP3    H236464   5.629   3.996   2.272
12175TIP3   OH236465   4.074   0.777   1.997
12175TIP3    H136466   4.068   0.715   1.925
12175TIP3    H236467   4.090   0.862   1.954
12176TIP3   OH236468   2.137   5.753   4.885
12176TIP3    H136469   2.167   5.822   4.945
12176TIP3    H236470   2.117   5.799   4.804
12177TIP3   OH236471   4.263   4.665   2.483
12177TIP3    H136472   4.240   4.657   2.575
12177TIP3    H236473   4.357   4.651   2.479
12178TIP3   OH236474   6.890   2.002   2.670
12178TIP3    H136475   6.905   2.087   2.712
12178TIP3    H236476   6.831   1.956   2.730
12179TIP3   OH236477   1.783   3.024   1.281
12179TIP3    H136478   1.760   3.116   1.278
12179TIP3    H236479   1.722   2.982   1.220
12180TIP3   OH236480   0.505   6.688   1.796
12180TIP3    H136481   0.522   6.616   1.735
12180TIP3    H236482   0.522   6.767   1.744
12181TIP3   OH236483   0.956   5.222   4.624
12181TIP3    H136484   0.963   5.242   4.717
12181TIP3    H236485   1.039   5.179   4.602
12182TIP3   OH236486   2.821   6.759   0.642
12182TIP3    H136487   2.910   6.746   0.610
12182TIP3    H236488   2.828   6.752   0.737
12183TIP3   OH236489   4.435   1.108   2.656
12183TIP3    H136490   4.515   1.151   2.625
12183TIP3    H236491   4.370   1.127   2.588
12184TIP3   OH236492   7.895   4.404   2.931
12184TIP3    H136493   7.974   4.393   2.878
12184TIP3    H236494   7.889   4.498   2.947
12185TIP3   OH236495   4.965   0.114   6.699
12185TIP3    H136496   4.919   0.092   6.780
12185TIP3    H236497   5.050   0.071   6.707
12186TIP3   OH236498   4.799   7.875   2.026
12186TIP3    H136499   4.871   7.908   1.972
12186TIP3    H236500   4.831   7.793   2.063
12187TIP3   OH236501   7.906   7.416   2.033
12187TIP3    H136502   7.866   7.348   2.087
12187TIP3    H236503   7.918   7.375   1.948
12188TIP3   OH236504   1.240   0.214   2.021
12188TIP3    H136505   1.199   0.163   1.951
12188TIP3    H236506   1.322   0.167   2.040
12189TIP3   OH236507   4.309   3.421   5.258
12189TIP3    H136508   4.314   3.499   5.314
12189TIP3    H236509   4.226   3.380   5.283
12190TIP3   OH236510   6.714   7.493   1.937
12190TIP3    H136511   6.667   7.442   2.002
12190TIP3    H236512   6.754   7.428   1.879
12191TIP3   OH236513   4.855   1.218   0.102
12191TIP3    H136514   4.927   1.234   0.040
12191TIP3    H236515   4.874   1.277   0.175
12192TIP3   OH236516   3.036   4.587   5.342
12192TIP3    H136517   3.128   4.572   5.320
12192TIP3    H236518   3.038   4.656   5.409
12193TIP3   OH236519   5.617   3.848   6.459
12193TIP3    H136520   5.687   3.912   6.467
12193TIP3    H236521   5.598   3.821   6.550
12194TIP3   OH236522   4.090   5.982   2.644
12194TIP3    H136523   4.098   6.077   2.633
12194TIP3    H236524   4.035   5.953   2.572
12195TIP3   OH236525   4.215   0.183   5.384
12195TIP3    H136526   4.266   0.143   5.454
12195TIP3    H236527   4.280   0.230   5.331
12196TIP3   OH236528   5.028   7.787   0.369
12196TIP3    H136529   4.962   7.773   0.301
12196TIP3    H236530   5.022   7.710   0.425
12197TIP3   OH236531   5.813   4.396   4.849
12197TIP3    H136532   5.736   4.352   4.886
12197TIP3    H236533   5.780   4.482   4.823
12198TIP3   OH236534   3.572   4.406   3.734
12198TIP3    H136535   3.513   4.482   3.736
12198TIP3    H236536   3.650   4.437   3.688
12199TIP3   OH236537   0.203   7.422   4.781
12199TIP3    H136538   0.133   7.453   4.723
12199TIP3    H236539   0.267   7.493   4.782
12200TIP3   OH236540   0.183   2.866   3.031
12200TIP3    H136541   0.117   2.877   2.962
12200TIP3    H236542   0.262   2.840   2.985
12201TIP3   OH236543   7.956   7.727   4.225
12201TIP3    H136544   7.991   7.814   4.206
12201TIP3    H236545   7.992   7.671   4.156
12202TIP3   OH236546   4.310   5.067   4.890
12202TIP3    H136547   4.232   5.027   4.930
12202TIP3    H236548   4.363   4.992   4.861
12203TIP3   OH236549   0.266   5.859   5.276
12203TIP3    H136550   0.211   5.783   5.253
12203TIP3    H236551   0.270   5.910   5.195
12204TIP3   OH236552   5.026   5.710   3.216
12204TIP3    H136553   4.940   5.695   3.256
12204TIP3    H236554   5.013   5.786   3.160
12205TIP3   OH236555   4.579   3.379   3.217
12205TIP3    H136556   4.600   3.295   3.176
12205TIP3    H236557   4.664   3.424   3.223
12206TIP3   OH236558   2.611   5.269   4.260
12206TIP3    H136559   2.565   5.194   4.296
12206TIP3    H236560   2.622   5.249   4.167
12207TIP3   OH236561   6.401   0.643   6.725
12207TIP3    H136562   6.363   0.675   6.807
12207TIP3    H236563   6.443   0.720   6.687
12208TIP3   OH236564   5.869   4.767   2.234
12208TIP3    H136565   5.832   4.692   2.187
12208TIP3    H236566   5.833   4.760   2.322
12209TIP3   OH236567   3.584   3.059   4.399
12209TIP3    H136568   3.637   2.993   4.355
12209TIP3    H236569   3.520   3.009   4.450
12210TIP3   OH236570   3.661   3.431   3.423
12210TIP3    H136571   3.601   3.447   3.496
12210TIP3    H236572   3.719   3.507   3.421
12211TIP3   OH236573   2.151   3.017   1.962
12211TIP3    H136574   2.089   3.036   2.033
12211TIP3    H236575   2.144   2.922   1.948
12212TIP3   OH236576   2.614   2.714   1.999
12212TIP3    H136577   2.707   2.729   1.985
12212TIP3    H236578   2.610   2.640   2.059
12213TIP3   OH236579   0.634   5.614   5.262
12213TIP3    H136580   0.627   5.663   5.180
12213TIP3    H236581   0.569   5.654   5.320
12214TIP3   OH236582   6.137   1.057   6.760
12214TIP3    H136583   6.046   1.066   6.789
12214TIP3    H236584   6.139   0.974   6.712
12215TIP3   OH236585   1.568   3.329   6.001
12215TIP3    H136586   1.654   3.330   5.958
12215TIP3    H236587   1.522   3.403   5.963
12216TIP3   OH236588   7.549   7.790   3.401
12216TIP3    H136589   7.490   7.792   3.326
12216TIP3    H236590   7.511   7.723   3.459
12217TIP3   OH236591   2.215   2.947   6.490
12217TIP3    H136592   2.285   2.997   6.448
12217TIP3    H236593   2.135   2.979   6.448
12218TIP3   OH236594   2.252   4.841   6.804
12218TIP3    H136595   2.189   4.912   6.820
12218TIP3    H236596   2.308   4.840   6.881
12219TIP3   OH236597   7.482   7.324   4.419
12219TIP3    H136598   7.556   7.264   4.413
12219TIP3    H236599   7.436   7.299   4.499
12220TIP3   OH236600   7.156   5.203   3.393
12220TIP3    H136601   7.135   5.266   3.324
12220TIP3    H236602   7.234   5.158   3.361
12221TIP3   OH236603   6.489   7.876   3.498
12221TIP3    H136604   6.508   7.795   3.547
12221TIP3    H236605   6.555   7.878   3.429
12222TIP3   OH236606   1.227   3.581   2.587
12222TIP3    H136607   1.322   3.575   2.592
12222TIP3    H236608   1.206   3.664   2.631
12223TIP3   OH236609   1.664   2.256   2.215
12223TIP3    H136610   1.583   2.211   2.191
12223TIP3    H236611   1.643   2.301   2.297
12224TIP3   OH236612   6.034   6.689   2.744
12224TIP3    H136613   5.944   6.721   2.744
12224TIP3    H236614   6.066   6.709   2.655
12225TIP3   OH236615   3.045   1.265   4.252
12225TIP3    H136616   3.137   1.291   4.255
12225TIP3    H236617   3.026   1.234   4.340
12226TIP3   OH236618   2.526   0.118   0.709
12226TIP3    H136619   2.442   0.160   0.689
12226TIP3    H236620   2.546   0.147   0.798
12227TIP3   OH236621   5.237   5.289   1.648
12227TIP3    H136622   5.324   5.248   1.650
12227TIP3    H236623   5.235   5.333   1.563
12228TIP3   OH236624   7.081   5.677   5.809
12228TIP3    H136625   7.042   5.760   5.837
12228TIP3    H236626   7.035   5.610   5.859
12229TIP3   OH236627   7.627   2.855   3.939
12229TIP3    H136628   7.579   2.905   4.006
12229TIP3    H236629   7.560   2.826   3.878
12230TIP3   OH236630   3.010   4.237   6.532
12230TIP3    H136631   3.069   4.207   6.463
12230TIP3    H236632   2.931   4.267   6.485
12231TIP3   OH236633   0.548   1.854   3.393
12231TIP3    H136634   0.472   1.910   3.375
12231TIP3    H236635   0.510   1.769   3.417
12232TIP3   OH236636   6.584   5.323   1.350
12232TIP3    H136637   6.581   5.241   1.399
12232TIP3    H236638   6.650   5.376   1.396
12233TIP3   OH236639   5.261   3.342   4.153
12233TIP3    H136640   5.345   3.329   4.109
12233TIP3    H236641   5.199   3.289   4.103
12234TIP3   OH236642   7.039   0.022   1.820
12234TIP3    H136643   7.075  -0.043   1.759
12234TIP3    H236644   6.947   0.032   1.793
12235TIP3   OH236645   6.082   6.168   3.819
12235TIP3    H136646   6.035   6.238   3.774
12235TIP3    H236647   6.169   6.168   3.781
12236TIP3   OH236648   7.963   1.446   5.280
12236TIP3    H136649   7.957   1.514   5.213
12236TIP3    H236650   8.007   1.373   5.236
12237TIP3   OH236651   2.487   6.669   5.989
12237TIP3    H136652   2.411   6.628   5.948
12237TIP3    H236653   2.562   6.638   5.938
12238TIP3   OH236654   7.168   0.440   5.167
12238TIP3    H136655   7.242   0.383   5.147
12238TIP3    H236656   7.208   0.518   5.205
12239TIP3   OH236657   6.254   0.798   3.117
12239TIP3    H136658   6.319   0.765   3.179
12239TIP3    H236659   6.265   0.744   3.039
12240TIP3   OH236660   4.361   2.184   6.620
12240TIP3    H136661   4.306   2.234   6.681
12240TIP3    H236662   4.349   2.093   6.646
12241TIP3   OH236663   3.210   6.700   1.707
12241TIP3    H136664   3.223   6.697   1.612
12241TIP3    H236665   3.195   6.793   1.725
12242TIP3   OH236666   1.172   2.098   1.359
12242TIP3    H136667   1.181   2.121   1.266
12242TIP3    H236668   1.103   2.156   1.392
12243TIP3   OH236669   3.824   2.758   5.235
12243TIP3    H136670   3.861   2.764   5.147
12243TIP3    H236671   3.766   2.681   5.231
12244TIP3   OH236672   7.017   0.565   1.645
12244TIP3    H136673   7.000   0.650   1.606
12244TIP3    H236674   7.023   0.583   1.739
12245TIP3   OH236675   7.866   2.116   5.946
12245TIP3    H136676   7.794   2.175   5.968
12245TIP3    H236677   7.840   2.076   5.862
12246TIP3   OH236678   5.309   5.506   4.971
12246TIP3    H136679   5.372   5.446   4.932
12246TIP3    H236680   5.289   5.468   5.057
12247TIP3   OH236681   2.293   3.068   4.762
12247TIP3    H136682   2.298   3.141   4.824
12247TIP3    H236683   2.220   3.015   4.793
12248TIP3   OH236684   2.534   0.881   2.380
12248TIP3    H136685   2.456   0.901   2.328
12248TIP3    H236686   2.583   0.820   2.326
12249TIP3   OH236687   5.750   0.101   4.436
12249TIP3    H136688   5.718   0.130   4.521
12249TIP3    H236689   5.834   0.145   4.426
12250TIP3   OH236690   3.692   2.603   4.305
12250TIP3    H136691   3.771   2.615   4.252
12250TIP3    H236692   3.720   2.619   4.395
12251TIP3   OH236693   4.690   2.185   5.839
12251TIP3    H136694   4.745   2.153   5.911
12251TIP3    H236695   4.738   2.160   5.760
12252TIP3   OH236696   2.726   4.989   0.044
12252TIP3    H136697   2.718   4.953  -0.045
12252TIP3    H236698   2.812   4.959   0.073
12253TIP3   OH236699   2.863   6.928   1.691
12253TIP3    H136700   2.957   6.937   1.704
12253TIP3    H236701   2.826   7.011   1.720
12254TIP3   OH236702   5.788   7.659   3.244
12254TIP3    H136703   5.730   7.583   3.246
12254TIP3    H236704   5.739   7.728   3.289
12255TIP3   OH236705   0.290   0.409   0.297
12255TIP3    H136706   0.218   0.470   0.313
12255TIP3    H236707   0.306   0.415   0.203
12256TIP3   OH236708   0.652   6.853   4.319
12256TIP3    H136709   0.666   6.853   4.224
12256TIP3    H236710   0.584   6.918   4.333
12257TIP3   OH236711   6.943   2.004   5.311
12257TIP3    H136712   6.860   1.957   5.298
12257TIP3    H236713   6.938   2.079   5.252
12258TIP3   OH236714   7.365   5.858   5.375
12258TIP3    H136715   7.420   5.784   5.400
12258TIP3    H236716   7.301   5.821   5.314
12259TIP3   OH236717   4.766   3.022   2.170
12259TIP3    H136718   4.847   2.979   2.197
12259TIP3    H236719   4.740   2.977   2.090
12260TIP3   OH236720   4.053   0.146   2.684
12260TIP3    H136721   4.024   0.059   2.711
12260TIP3    H236722   4.042   0.200   2.762
12261TIP3   OH236723   3.042   4.954   2.667
12261TIP3    H136724   3.100   4.954   2.591
12261TIP3    H236725   2.998   5.039   2.663
12262TIP3   OH236726   7.128   5.324   0.313
12262TIP3    H136727   7.142   5.367   0.398
12262TIP3    H236728   7.034   5.335   0.297
12263TIP3   OH236729   5.667   5.229   1.516
12263TIP3    H136730   5.629   5.314   1.495
12263TIP3    H236731   5.596   5.181   1.558
12264TIP3   OH236732   2.377   1.614   5.563
12264TIP3    H136733   2.425   1.532   5.578
12264TIP3    H236734   2.413   1.675   5.627
12265TIP3   OH236735   3.925   6.377   5.162
12265TIP3    H136736   3.853   6.420   5.117
12265TIP3    H236737   3.901   6.284   5.162
12266TIP3   OH236738   4.060   6.508   1.098
12266TIP3    H136739   4.118   6.492   1.172
12266TIP3    H236740   4.072   6.601   1.077
12267TIP3   OH236741   5.145   5.703   5.704
12267TIP3    H136742   5.235   5.715   5.735
12267TIP3    H236743   5.154   5.687   5.610
12268TIP3   OH236744   2.111   2.398   0.633
12268TIP3    H136745   2.125   2.492   0.637
12268TIP3    H236746   2.115   2.369   0.724
12269TIP3   OH236747   6.615   5.847   5.613
12269TIP3    H136748   6.632   5.915   5.679
12269TIP3    H236749   6.692   5.847   5.557
12270TIP3   OH236750   3.609   3.448   6.767
12270TIP3    H136751   3.640   3.357   6.762
12270TIP3    H236752   3.677   3.499   6.722
12271TIP3   OH236753   1.245   3.091   0.396
12271TIP3    H136754   1.218   3.050   0.314
12271TIP3    H236755   1.335   3.064   0.409
12272TIP3   OH236756   6.850   2.709   3.394
12272TIP3    H136757   6.807   2.795   3.397
12272TIP3    H236758   6.897   2.709   3.310
12273TIP3   OH236759   7.631   4.642   0.822
12273TIP3    H136760   7.635   4.546   0.823
12273TIP3    H236761   7.539   4.662   0.805
12274TIP3   OH236762   5.424   6.508   6.358
12274TIP3    H136763   5.333   6.533   6.368
12274TIP3    H236764   5.461   6.572   6.297
12275TIP3   OH236765   5.951   4.703   6.609
12275TIP3    H136766   5.891   4.724   6.537
12275TIP3    H236767   5.951   4.608   6.613
12276TIP3   OH236768   3.040   5.542   1.467
12276TIP3    H136769   2.984   5.619   1.453
12276TIP3    H236770   3.129   5.575   1.454
12277TIP3   OH236771   3.889   7.066   4.599
12277TIP3    H136772   3.825   7.035   4.662
12277TIP3    H236773   3.917   7.151   4.631
12278TIP3   OH236774   3.987   7.795   2.991
12278TIP3    H136775   3.893   7.798   2.972
12278TIP3    H236776   4.022   7.730   2.930
12279TIP3   OH236777   3.152   4.614   4.071
12279TIP3    H136778   3.182   4.697   4.033
12279TIP3    H236779   3.225   4.584   4.125
12280TIP3   OH236780   5.589   7.697   3.899
12280TIP3    H136781   5.648   7.670   3.970
12280TIP3    H236782   5.604   7.791   3.890
12281TIP3   OH236783   4.344   7.300   4.451
12281TIP3    H136784   4.274   7.343   4.402
12281TIP3    H236785   4.301   7.264   4.529
12282TIP3   OH236786   6.891   3.641   4.209
12282TIP3    H136787   6.869   3.556   4.172
12282TIP3    H236788   6.830   3.702   4.169
12283TIP3   OH236789   3.301   5.592   1.410
12283TIP3    H136790   3.321   5.675   1.366
12283TIP3    H236791   3.382   5.569   1.455
12284TIP3   OH236792   0.138   4.648   2.207
12284TIP3    H136793   0.207   4.584   2.192
12284TIP3    H236794   0.060   4.610   2.168
12285TIP3   OH236795   6.394   6.634   4.377
12285TIP3    H136796   6.444   6.600   4.451
12285TIP3    H236797   6.308   6.655   4.414
12286TIP3   OH236798   0.937   0.676   1.726
12286TIP3    H136799   0.950   0.697   1.819
12286TIP3    H236800   0.875   0.742   1.696
12287TIP3   OH236801   2.046   3.487   6.466
12287TIP3    H136802   2.129   3.467   6.509
12287TIP3    H236803   1.986   3.420   6.498
12288TIP3   OH236804   2.326   0.743   4.428
12288TIP3    H136805   2.338   0.649   4.444
12288TIP3    H236806   2.367   0.758   4.343
12289TIP3   OH236807   3.330   5.706   4.854
12289TIP3    H136808   3.295   5.795   4.849
12289TIP3    H236809   3.282   5.658   4.787
12290TIP3   OH236810   1.631   5.559   2.617
12290TIP3    H136811   1.695   5.595   2.678
12290TIP3    H236812   1.570   5.509   2.671
12291TIP3   OH236813   0.126   5.445   3.860
12291TIP3    H136814   0.033   5.424   3.862
12291TIP3    H236815   0.168   5.371   3.903
12292TIP3   OH236816   0.965   6.818   4.855
12292TIP3    H136817   0.922   6.738   4.824
12292TIP3    H236818   0.893   6.870   4.893
12293TIP3   OH236819   3.444   3.957   4.115
12293TIP3    H136820   3.474   3.868   4.095
12293TIP3    H236821   3.353   3.946   4.143
12294TIP3   OH236822   6.969   4.115   0.292
12294TIP3    H136823   6.905   4.180   0.322
12294TIP3    H236824   6.979   4.131   0.199
12295TIP3   OH236825   0.799   4.844   3.759
12295TIP3    H136826   0.802   4.831   3.664
12295TIP3    H236827   0.706   4.842   3.781
12296TIP3   OH236828   5.124   2.209   4.330
12296TIP3    H136829   5.088   2.254   4.406
12296TIP3    H236830   5.080   2.125   4.328
12297TIP3   OH236831   5.197   6.498   4.357
12297TIP3    H136832   5.246   6.578   4.377
12297TIP3    H236833   5.210   6.485   4.263
12298TIP3   OH236834   2.580   1.812   0.484
12298TIP3    H136835   2.669   1.810   0.450
12298TIP3    H236836   2.533   1.872   0.426
12299TIP3   OH236837   5.562   5.118   6.084
12299TIP3    H136838   5.627   5.113   6.013
12299TIP3    H236839   5.613   5.145   6.161
12300TIP3   OH236840   2.370   0.317   5.835
12300TIP3    H136841   2.428   0.368   5.892
12300TIP3    H236842   2.395   0.226   5.850
12301TIP3   OH236843   8.106   5.666   0.494
12301TIP3    H136844   8.077   5.600   0.430
12301TIP3    H236845   8.146   5.615   0.564
12302TIP3   OH236846   1.941   1.715   5.631
12302TIP3    H136847   1.981   1.760   5.705
12302TIP3    H236848   1.894   1.785   5.583
12303TIP3   OH236849   0.592   0.807   3.930
12303TIP3    H136850   0.633   0.742   3.987
12303TIP3    H236851   0.662   0.871   3.912
12304TIP3   OH236852   6.407   6.753   5.544
12304TIP3    H136853   6.432   6.706   5.464
12304TIP3    H236854   6.471   6.824   5.551
12305TIP3   OH236855   0.276   7.204   4.555
12305TIP3    H136856   0.364   7.203   4.592
12305TIP3    H236857   0.222   7.245   4.622
12306TIP3   OH236858   2.244   0.353   6.589
12306TIP3    H136859   2.191   0.400   6.524
12306TIP3    H236860   2.222   0.394   6.672
12307TIP3   OH236861   2.974   0.444   3.792
12307TIP3    H136862   2.933   0.515   3.841
12307TIP3    H236863   2.922   0.436   3.712
12308TIP3   OH236864   8.085   6.929   0.015
12308TIP3    H136865   7.999   6.909  -0.022
12308TIP3    H236866   8.139   6.853  -0.008
12309TIP3   OH236867   1.394   4.344   6.592
12309TIP3    H136868   1.444   4.389   6.524
12309TIP3    H236869   1.313   4.394   6.599
12310TIP3   OH236870   4.510   3.999   2.387
12310TIP3    H136871   4.494   4.021   2.296
12310TIP3    H236872   4.578   3.932   2.385
12311TIP3   OH236873   5.102   4.182   5.714
12311TIP3    H136874   5.127   4.272   5.697
12311TIP3    H236875   5.134   4.164   5.803
12312TIP3   OH236876   2.601   7.733   1.312
12312TIP3    H136877   2.542   7.781   1.370
12312TIP3    H236878   2.612   7.790   1.236
12313TIP3   OH236879   7.940   5.209   5.094
12313TIP3    H136880   7.971   5.121   5.112
12313TIP3    H236881   7.995   5.266   5.148
12314TIP3   OH236882   0.285   1.420   1.494
12314TIP3    H136883   0.266   1.505   1.455
12314TIP3    H236884   0.223   1.360   1.453
12315TIP3   OH236885   6.419   1.563   4.923
12315TIP3    H136886   6.469   1.492   4.963
12315TIP3    H236887   6.399   1.532   4.835
12316TIP3   OH236888   2.221   7.217   3.575
12316TIP3    H136889   2.194   7.173   3.656
12316TIP3    H236890   2.165   7.179   3.508
12317TIP3   OH236891   6.337   1.775   0.284
12317TIP3    H136892   6.321   1.862   0.321
12317TIP3    H236893   6.345   1.718   0.359
12318TIP3   OH236894  -0.001   6.570   6.189
12318TIP3    H136895   0.066   6.616   6.139
12318TIP3    H236896   0.021   6.585   6.280
12319TIP3   OH236897   7.474   5.818   1.794
12319TIP3    H136898   7.506   5.867   1.719
12319TIP3    H236899   7.382   5.844   1.802
12320TIP3   OH236900   6.903   1.883   2.304
12320TIP3    H136901   6.859   1.953   2.352
12320TIP3    H236902   6.888   1.805   2.357
12321TIP3   OH236903   1.162   4.698   5.028
12321TIP3    H136904   1.121   4.713   4.943
12321TIP3    H236905   1.223   4.771   5.038
12322TIP3   OH236906   1.173   0.457   0.244
12322TIP3    H136907   1.243   0.523   0.252
12322TIP3    H236908   1.099   0.494   0.292
12323TIP3   OH236909   4.295   5.545   1.127
12323TIP3    H136910   4.359   5.603   1.085
12323TIP3    H236911   4.238   5.516   1.056
12324TIP3   OH236912   8.331   1.258   0.898
12324TIP3    H136913   8.345   1.342   0.854
12324TIP3    H236914   8.274   1.209   0.839
12325TIP3   OH236915   5.867   6.825   5.832
12325TIP3    H136916   5.793   6.854   5.780
12325TIP3    H236917   5.839   6.838   5.923
12326TIP3   OH236918   3.162   5.314   1.989
12326TIP3    H136919   3.254   5.325   1.962
12326TIP3    H236920   3.131   5.241   1.935
12327TIP3   OH236921   1.449   1.769   1.569
12327TIP3    H136922   1.523   1.797   1.515
12327TIP3    H236923   1.373   1.814   1.531
12328TIP3   OH236924   5.040   3.185   4.643
12328TIP3    H136925   5.000   3.124   4.582
12328TIP3    H236926   4.975   3.195   4.713
12329TIP3   OH236927   1.035   1.593   0.350
12329TIP3    H136928   1.102   1.616   0.286
12329TIP3    H236929   1.023   1.499   0.340
12330TIP3   OH236930   0.215   7.391   4.369
12330TIP3    H136931   0.128   7.400   4.409
12330TIP3    H236932   0.263   7.335   4.430
12331TIP3   OH236933   6.446   1.367   5.161
12331TIP3    H136934   6.436   1.356   5.256
12331TIP3    H236935   6.540   1.365   5.147
12332TIP3   OH236936   4.073   1.247   2.738
12332TIP3    H136937   4.041   1.223   2.651
12332TIP3    H236938   4.104   1.336   2.728
12333TIP3   OH236939   1.143   4.053   1.571
12333TIP3    H136940   1.222   4.024   1.617
12333TIP3    H236941   1.174   4.124   1.513
12334TIP3   OH236942   2.099   1.096   1.088
12334TIP3    H136943   2.160   1.169   1.097
12334TIP3    H236944   2.027   1.116   1.148
12335TIP3   OH236945   0.214   7.821   6.061
12335TIP3    H136946   0.212   7.846   6.154
12335TIP3    H236947   0.123   7.802   6.039
12336TIP3   OH236948   0.483   6.784   3.406
12336TIP3    H136949   0.437   6.796   3.489
12336TIP3    H236950   0.564   6.833   3.416
12337TIP3   OH236951   5.711   0.731   4.633
12337TIP3    H136952   5.649   0.801   4.653
12337TIP3    H236953   5.744   0.703   4.718
12338TIP3   OH236954   6.155   5.333   4.171
12338TIP3    H136955   6.226   5.290   4.122
12338TIP3    H236956   6.103   5.260   4.206
12339TIP3   OH236957   0.780   0.976   3.866
12339TIP3    H136958   0.771   1.045   3.932
12339TIP3    H236959   0.875   0.967   3.854
12340TIP3   OH236960   5.583   7.371   2.198
12340TIP3    H136961   5.517   7.321   2.247
12340TIP3    H236962   5.552   7.368   2.107
12341TIP3   OH236963   2.908   7.386   3.901
12341TIP3    H136964   2.871   7.474   3.908
12341TIP3    H236965   2.919   7.372   3.807
12342TIP3   OH236966   1.093   6.981   0.374
12342TIP3    H136967   1.043   6.906   0.406
12342TIP3    H236968   1.038   7.057   0.392
12343TIP3   OH236969   3.181   4.115   6.339
12343TIP3    H136970   3.270   4.141   6.319
12343TIP3    H236971   3.152   4.068   6.261
12344TIP3   OH236972   1.704   0.836   0.028
12344TIP3    H136973   1.721   0.881   0.111
12344TIP3    H236974   1.756   0.884  -0.036
12345TIP3   OH236975   7.126   6.468   6.525
12345TIP3    H136976   7.176   6.408   6.469
12345TIP3    H236977   7.077   6.523   6.463
12346TIP3   OH236978   7.279   3.662   1.458
12346TIP3    H136979   7.368   3.636   1.480
12346TIP3    H236980   7.235   3.673   1.542
12347TIP3   OH236981   5.993   0.827   5.486
12347TIP3    H136982   6.012   0.849   5.395
12347TIP3    H236983   6.053   0.880   5.537
12348TIP3   OH236984   6.355   3.695   2.825
12348TIP3    H136985   6.441   3.673   2.790
12348TIP3    H236986   6.293   3.664   2.759
12349TIP3   OH236987   3.718   4.371   4.516
12349TIP3    H136988   3.785   4.370   4.448
12349TIP3    H236989   3.722   4.283   4.554
12350TIP3   OH236990   8.002   1.986   1.616
12350TIP3    H136991   7.930   2.034   1.657
12350TIP3    H236992   7.979   1.984   1.523
12351TIP3   OH236993   3.527   4.366   5.474
12351TIP3    H136994   3.474   4.288   5.492
12351TIP3    H236995   3.485   4.405   5.397
12352TIP3   OH236996   6.407   0.270   3.327
12352TIP3    H136997   6.383   0.256   3.418
12352TIP3    H236998   6.347   0.338   3.297
12353TIP3   OH236999   3.612   7.187   3.212
12353TIP3    H137000   3.548   7.220   3.149
12353TIP3    H237001   3.696   7.222   3.180
12354TIP3   OH237002   1.271   3.430   0.989
12354TIP3    H137003   1.219   3.428   0.909
12354TIP3    H237004   1.254   3.517   1.025
12355TIP3   OH237005   1.903   1.871   0.197
12355TIP3    H137006   1.856   1.816   0.260
12355TIP3    H237007   1.964   1.921   0.250
12356TIP3   OH237008   2.123   3.073   6.745
12356TIP3    H137009   2.034   3.108   6.746
12356TIP3    H237010   2.131   3.031   6.660
12357TIP3   OH237011   2.612   4.938   6.011
12357TIP3    H137012   2.536   4.974   5.966
12357TIP3    H237013   2.578   4.864   6.061
12358TIP3   OH237014   7.127   4.196   1.048
12358TIP3    H137015   7.208   4.159   1.012
12358TIP3    H237016   7.155   4.246   1.124
12359TIP3   OH237017   4.983   3.774   4.880
12359TIP3    H137018   4.984   3.867   4.902
12359TIP3    H237019   4.964   3.731   4.963
12360TIP3   OH237020   2.853   0.718   5.133
12360TIP3    H137021   2.856   0.812   5.115
12360TIP3    H237022   2.927   0.702   5.191
12361TIP3   OH237023   0.511   4.492   4.670
12361TIP3    H137024   0.496   4.559   4.737
12361TIP3    H237025   0.579   4.436   4.708
12362TIP3   OH237026   8.151   4.225   3.313
12362TIP3    H137027   8.139   4.317   3.287
12362TIP3    H237028   8.113   4.221   3.401
12363TIP3   OH237029   2.063   7.127   4.489
12363TIP3    H137030   2.078   7.131   4.395
12363TIP3    H237031   1.968   7.121   4.498
12364TIP3   OH237032   8.101   0.637   5.518
12364TIP3    H137033   8.006   0.643   5.508
12364TIP3    H237034   8.115   0.551   5.557
12365TIP3   OH237035   1.228   1.987   1.791
12365TIP3    H137036   1.207   1.933   1.868
12365TIP3    H237037   1.305   1.945   1.754
12366TIP3   OH237038   1.884   4.029   4.089
12366TIP3    H137039   1.857   4.120   4.075
12366TIP3    H237040   1.833   3.979   4.026
12367TIP3   OH237041   7.885   3.155   2.607
12367TIP3    H137042   7.794   3.171   2.631
12367TIP3    H237043   7.893   3.059   2.609
12368TIP3   OH237044   1.972   6.775   2.346
12368TIP3    H137045   1.932   6.835   2.409
12368TIP3    H237046   1.998   6.699   2.398
12369TIP3   OH237047   7.297   6.179   0.050
12369TIP3    H137048   7.366   6.206   0.110
12369TIP3    H237049   7.217   6.216   0.087
12370TIP3   OH237050   3.967   6.906   1.187
12370TIP3    H137051   4.002   6.823   1.156
12370TIP3    H237052   4.034   6.971   1.165
12371TIP3   OH237053   8.239   5.802   1.698
12371TIP3    H137054   8.323   5.844   1.679
12371TIP3    H237055   8.175   5.873   1.694
12372TIP3   OH237056   7.230   7.449   5.709
12372TIP3    H137057   7.164   7.418   5.771
12372TIP3    H237058   7.303   7.388   5.718
12373TIP3   OH237059   5.634   6.975   2.046
12373TIP3    H137060   5.617   7.061   2.008
12373TIP3    H237061   5.724   6.955   2.020
12374TIP3   OH237062   1.835   0.230   5.513
12374TIP3    H137063   1.743   0.208   5.523
12374TIP3    H237064   1.836   0.325   5.501
12375TIP3   OH237065   3.964   4.663   6.528
12375TIP3    H137066   3.889   4.723   6.528
12375TIP3    H237067   3.963   4.623   6.441
12376TIP3   OH237068   4.763   5.391   3.539
12376TIP3    H137069   4.781   5.355   3.626
12376TIP3    H237070   4.821   5.467   3.533
12377TIP3   OH237071   7.871   2.141   3.820
12377TIP3    H137072   7.828   2.212   3.868
12377TIP3    H237073   7.962   2.144   3.850
12378TIP3   OH237074   8.029   5.100   0.527
12378TIP3    H137075   8.089   5.102   0.452
12378TIP3    H237076   8.043   5.014   0.566
12379TIP3   OH237077   3.911   5.688   2.685
12379TIP3    H137078   3.827   5.706   2.644
12379TIP3    H237079   3.915   5.748   2.760
12380TIP3   OH237080   2.580   1.325   4.370
12380TIP3    H137081   2.617   1.302   4.456
12380TIP3    H237082   2.486   1.328   4.385
12381TIP3   OH237083   8.233   0.802   4.430
12381TIP3    H137084   8.175   0.860   4.481
12381TIP3    H237085   8.177   0.765   4.363
12382TIP3   OH237086   1.226   1.331   2.622
12382TIP3    H137087   1.302   1.375   2.585
12382TIP3    H237088   1.155   1.351   2.562
12383TIP3   OH237089   3.362   7.893   1.233
12383TIP3    H137090   3.411   7.870   1.311
12383TIP3    H237091   3.330   7.810   1.199
12384TIP3   OH237092   6.434   7.379   1.901
12384TIP3    H137093   6.419   7.462   1.946
12384TIP3    H237094   6.379   7.382   1.823
12385TIP3   OH237095   7.775   6.605   1.501
12385TIP3    H137096   7.728   6.623   1.583
12385TIP3    H237097   7.845   6.546   1.527
12386TIP3   OH237098   0.603   4.661   5.493
12386TIP3    H137099   0.601   4.676   5.398
12386TIP3    H237100   0.696   4.665   5.515
12387TIP3   OH237101   5.792   6.972   4.555
12387TIP3    H137102   5.858   6.925   4.505
12387TIP3    H237103   5.739   6.903   4.595
12388TIP3   OH237104   7.743   3.249   3.179
12388TIP3    H137105   7.768   3.263   3.087
12388TIP3    H237106   7.721   3.156   3.184
12389TIP3   OH237107   6.787   5.977   3.413
12389TIP3    H137108   6.786   6.025   3.331
12389TIP3    H237109   6.872   5.933   3.414
12390TIP3   OH237110   3.403   5.480   6.232
12390TIP3    H137111   3.470   5.545   6.253
12390TIP3    H237112   3.338   5.490   6.302
12391TIP3   OH237113   1.892   0.582   1.976
12391TIP3    H137114   1.958   0.629   1.925
12391TIP3    H237115   1.808   0.610   1.937
12392TIP3   OH237116   7.832   7.324   4.221
12392TIP3    H137117   7.800   7.383   4.154
12392TIP3    H237118   7.759   7.265   4.239
12393TIP3   OH237119   0.763   3.502   5.951
12393TIP3    H137120   0.762   3.451   5.870
12393TIP3    H237121   0.855   3.506   5.976
12394TIP3   OH237122   0.946   4.730   2.653
12394TIP3    H137123   0.901   4.787   2.590
12394TIP3    H237124   1.004   4.677   2.599
12395TIP3   OH237125   1.037   7.073   6.262
12395TIP3    H137126   1.100   7.139   6.291
12395TIP3    H237127   1.079   7.032   6.187
12396TIP3   OH237128   5.323   0.043   6.261
12396TIP3    H137129   5.273   0.057   6.181
12396TIP3    H237130   5.283   0.101   6.325
12397TIP3   OH237131   6.074   7.568   2.314
12397TIP3    H137132   5.981   7.573   2.296
12397TIP3    H237133   6.113   7.534   2.233
12398TIP3   OH237134   5.924   6.950   1.097
12398TIP3    H137135   5.909   6.877   1.157
12398TIP3    H237136   5.839   6.992   1.088
12399TIP3   OH237137   0.365   4.218   4.108
12399TIP3    H137138   0.441   4.162   4.093
12399TIP3    H237139   0.332   4.237   4.020
12400TIP3   OH237140   4.456   7.670   3.180
12400TIP3    H137141   4.525   7.720   3.222
12400TIP3    H237142   4.378   7.688   3.232
12401TIP3   OH237143   7.646   4.519   5.215
12401TIP3    H137144   7.614   4.598   5.171
12401TIP3    H237145   7.738   4.514   5.191
12402TIP3   OH237146   2.473   2.650   1.746
12402TIP3    H137147   2.378   2.640   1.750
12402TIP3    H237148   2.499   2.665   1.837
12403TIP3   OH237149   1.796   1.587   5.870
12403TIP3    H137150   1.829   1.520   5.930
12403TIP3    H237151   1.828   1.560   5.784
12404TIP3   OH237152   3.824   2.376   5.727
12404TIP3    H137153   3.782   2.291   5.740
12404TIP3    H237154   3.893   2.380   5.793
12405TIP3   OH237155   5.794   1.104   0.103
12405TIP3    H137156   5.786   1.016   0.138
12405TIP3    H237157   5.721   1.153   0.140
12406TIP3   OH237158   2.635   3.030   0.446
12406TIP3    H137159   2.640   3.124   0.431
12406TIP3    H237160   2.611   2.993   0.360
12407TIP3   OH237161   7.996   4.690   3.672
12407TIP3    H137162   7.974   4.607   3.630
12407TIP3    H237163   8.017   4.748   3.599
12408TIP3   OH237164   6.159   0.833   6.585
12408TIP3    H137165   6.169   0.743   6.618
12408TIP3    H237166   6.083   0.828   6.526
12409TIP3   OH237167   4.886   2.301   3.185
12409TIP3    H137168   4.858   2.349   3.263
12409TIP3    H237169   4.979   2.286   3.199
12410TIP3   OH237170   1.519   1.631   4.262
12410TIP3    H137171   1.591   1.693   4.253
12410TIP3    H237172   1.456   1.658   4.195
12411TIP3   OH237173   7.067   7.443   4.447
12411TIP3    H137174   7.005   7.513   4.425
12411TIP3    H237175   7.100   7.412   4.362
12412TIP3   OH237176   0.678   0.981   2.190
12412TIP3    H137177   0.593   1.023   2.186
12412TIP3    H237178   0.711   0.983   2.100
12413TIP3   OH237179   4.444   0.555   4.885
12413TIP3    H137180   4.483   0.638   4.912
12413TIP3    H237181   4.506   0.489   4.915
12414TIP3   OH237182   0.793   2.341   4.646
12414TIP3    H137183   0.853   2.271   4.621
12414TIP3    H237184   0.805   2.350   4.741
12415TIP3   OH237185   0.550   6.161   0.918
12415TIP3    H137186   0.641   6.177   0.893
12415TIP3    H237187   0.499   6.205   0.850
12416TIP3   OH237188   0.773   6.617   4.816
12416TIP3    H137189   0.715   6.689   4.791
12416TIP3    H237190   0.715   6.543   4.829
12417TIP3   OH237191   4.762   4.210   2.329
12417TIP3    H137192   4.706   4.168   2.264
12417TIP3    H237193   4.710   4.284   2.360
12418TIP3   OH237194   5.957   0.031   0.609
12418TIP3    H137195   5.989  -0.053   0.640
12418TIP3    H237196   5.862   0.023   0.610
12419TIP3   OH237197   6.486   0.312   6.460
12419TIP3    H137198   6.565   0.327   6.512
12419TIP3    H237199   6.461   0.399   6.429
12420TIP3   OH237200   3.830   2.464   1.999
12420TIP3    H137201   3.838   2.436   2.090
12420TIP3    H237202   3.790   2.390   1.955
12421TIP3   OH237203   7.687   4.343   6.575
12421TIP3    H137204   7.623   4.274   6.558
12421TIP3    H237205   7.674   4.365   6.667
12422TIP3   OH237206   3.907   1.302   2.154
12422TIP3    H137207   3.955   1.382   2.133
12422TIP3    H237208   3.814   1.328   2.149
12423TIP3   OH237209   3.842   3.811   0.248
12423TIP3    H137210   3.864   3.819   0.155
12423TIP3    H237211   3.857   3.898   0.284
12424TIP3   OH237212   5.705   7.871   3.672
12424TIP3    H137213   5.650   7.930   3.620
12424TIP3    H237214   5.685   7.783   3.638
12425TIP3   OH237215   0.744   6.330   2.305
12425TIP3    H137216   0.826   6.380   2.303
12425TIP3    H237217   0.728   6.308   2.213
12426TIP3   OH237218   7.681   1.804   1.379
12426TIP3    H137219   7.681   1.710   1.397
12426TIP3    H237220   7.745   1.840   1.440
12427TIP3   OH237221   5.189   4.676   2.103
12427TIP3    H137222   5.212   4.605   2.162
12427TIP3    H237223   5.209   4.642   2.016
12428TIP3   OH237224   2.253   4.816   2.091
12428TIP3    H137225   2.237   4.786   2.001
12428TIP3    H237226   2.308   4.894   2.080
12429TIP3   OH237227   6.197   4.336   0.711
12429TIP3    H137228   6.280   4.304   0.676
12429TIP3    H237229   6.188   4.424   0.673
12430TIP3   OH237230   3.336   0.235   0.641
12430TIP3    H137231   3.410   0.177   0.659
12430TIP3    H237232   3.321   0.281   0.723
12431TIP3   OH237233   2.085   2.129   2.681
12431TIP3    H137234   2.112   2.166   2.765
12431TIP3    H237235   2.120   2.040   2.682
12432TIP3   OH237236   2.383   5.652   3.973
12432TIP3    H137237   2.291   5.675   3.983
12432TIP3    H237238   2.415   5.707   3.902
12433TIP3   OH237239   3.849   0.981   5.198
12433TIP3    H137240   3.821   1.044   5.265
12433TIP3    H237241   3.783   0.989   5.129
12434TIP3   OH237242   0.375   6.981   0.695
12434TIP3    H137243   0.312   6.915   0.723
12434TIP3    H237244   0.378   7.044   0.767
12435TIP3   OH237245   2.861   6.943   3.618
12435TIP3    H137246   2.775   6.968   3.650
12435TIP3    H237247   2.878   7.003   3.545
12436TIP3   OH237248   4.854   4.498   1.212
12436TIP3    H137249   4.896   4.529   1.132
12436TIP3    H237250   4.761   4.517   1.199
12437TIP3   OH237251   0.681   6.205   5.945
12437TIP3    H137252   0.717   6.133   5.996
12437TIP3    H237253   0.586   6.188   5.944
12438TIP3   OH237254   8.024   3.665   1.310
12438TIP3    H137255   8.092   3.612   1.350
12438TIP3    H237256   8.025   3.639   1.217
12439TIP3   OH237257   2.417   3.789   5.966
12439TIP3    H137258   2.414   3.694   5.969
12439TIP3    H237259   2.418   3.811   5.873
12440TIP3   OH237260   6.152   5.725   5.699
12440TIP3    H137261   6.116   5.779   5.769
12440TIP3    H237262   6.198   5.787   5.642
12441TIP3   OH237263   3.174   2.698   4.849
12441TIP3    H137264   3.197   2.609   4.874
12441TIP3    H237265   3.078   2.699   4.849
12442TIP3   OH237266   7.833   6.459   3.163
12442TIP3    H137267   7.763   6.521   3.142
12442TIP3    H237268   7.788   6.376   3.177
12443TIP3   OH237269   4.095   3.951   5.193
12443TIP3    H137270   4.170   3.984   5.243
12443TIP3    H237271   4.020   3.960   5.252
12444TIP3   OH237272   6.615   6.309   5.636
12444TIP3    H137273   6.524   6.331   5.618
12444TIP3    H237274   6.650   6.280   5.552
12445TIP3   OH237275   6.686   1.608   3.013
12445TIP3    H137276   6.744   1.562   2.952
12445TIP3    H237277   6.745   1.641   3.081
12446TIP3   OH237278   1.235   4.632   2.968
12446TIP3    H137279   1.155   4.581   2.959
12446TIP3    H237280   1.254   4.631   3.062
12447TIP3   OH237281   6.932   6.969   5.847
12447TIP3    H137282   6.872   6.897   5.829
12447TIP3    H237283   6.875   7.037   5.884
12448TIP3   OH237284   6.137   4.726   4.693
12448TIP3    H137285   6.129   4.639   4.735
12448TIP3    H237286   6.225   4.755   4.716
12449TIP3   OH237287   1.858   3.671   3.571
12449TIP3    H137288   1.914   3.617   3.515
12449TIP3    H237289   1.897   3.662   3.658
12450TIP3   OH237290   5.309   7.032   4.996
12450TIP3    H137291   5.347   7.120   5.000
12450TIP3    H237292   5.280   7.014   5.085
12451TIP3   OH237293   3.432   2.697   6.478
12451TIP3    H137294   3.353   2.741   6.445
12451TIP3    H237295   3.441   2.620   6.422
12452TIP3   OH237296   7.409   6.002   6.489
12452TIP3    H137297   7.438   5.975   6.576
12452TIP3    H237298   7.441   5.933   6.431
12453TIP3   OH237299   8.226   0.745   3.282
12453TIP3    H137300   8.146   0.695   3.296
12453TIP3    H237301   8.268   0.746   3.368
12454TIP3   OH237302   0.498   4.395   1.616
12454TIP3    H137303   0.584   4.430   1.593
12454TIP3    H237304   0.436   4.459   1.581
12455TIP3   OH237305   7.055   5.982   2.468
12455TIP3    H137306   7.119   6.029   2.415
12455TIP3    H237307   7.104   5.955   2.545
12456TIP3   OH237308   7.046   0.316   5.400
12456TIP3    H137309   6.979   0.258   5.364
12456TIP3    H237310   7.086   0.357   5.323
12457TIP3   OH237311   6.134   4.294   0.187
12457TIP3    H137312   6.218   4.248   0.197
12457TIP3    H237313   6.156   4.372   0.135
12458TIP3   OH237314   8.238   6.065   4.781
12458TIP3    H137315   8.205   6.035   4.865
12458TIP3    H237316   8.210   6.156   4.775
12459TIP3   OH237317   1.328   4.679   0.322
12459TIP3    H137318   1.235   4.692   0.343
12459TIP3    H237319   1.347   4.744   0.255
12460TIP3   OH237320   7.930   6.710   3.924
12460TIP3    H137321   7.970   6.627   3.897
12460TIP3    H237322   7.940   6.767   3.847
12461TIP3   OH237323   0.033   1.501   4.952
12461TIP3    H137324   0.091   1.443   5.001
12461TIP3    H237325  -0.036   1.444   4.919
12462TIP3   OH237326   4.694   7.644   6.798
12462TIP3    H137327   4.688   7.738   6.814
12462TIP3    H237328   4.743   7.636   6.717
12463TIP3   OH237329   7.967   4.621   5.696
12463TIP3    H137330   8.026   4.588   5.764
12463TIP3    H237331   7.980   4.563   5.622
12464TIP3   OH237332   5.861   6.303   6.107
12464TIP3    H137333   5.930   6.347   6.058
12464TIP3    H237334   5.786   6.362   6.102
12465TIP3   OH237335   0.816   0.535   4.705
12465TIP3    H137336   0.727   0.511   4.730
12465TIP3    H237337   0.840   0.469   4.639
12466TIP3   OH237338   3.515   4.608   3.025
12466TIP3    H137339   3.589   4.663   3.052
12466TIP3    H237340   3.542   4.570   2.941
12467TIP3   OH237341   4.218   4.054   0.488
12467TIP3    H137342   4.213   4.105   0.407
12467TIP3    H237343   4.264   3.973   0.462
12468TIP3   OH237344   1.193   0.637   4.626
12468TIP3    H137345   1.208   0.544   4.644
12468TIP3    H237346   1.128   0.664   4.691
12469TIP3   OH237347   1.564   5.366   1.811
12469TIP3    H137348   1.550   5.432   1.743
12469TIP3    H237349   1.657   5.346   1.806
12470TIP3   OH237350   1.112   1.207   0.590
12470TIP3    H137351   1.120   1.293   0.631
12470TIP3    H237352   1.038   1.166   0.635
12471TIP3   OH237353   5.041   6.709   2.800
12471TIP3    H137354   4.996   6.633   2.836
12471TIP3    H237355   5.010   6.716   2.710
12472TIP3   OH237356   6.133   5.307   0.145
12472TIP3    H137357   6.220   5.336   0.116
12472TIP3    H237358   6.074   5.339   0.076
12473TIP3   OH237359   1.891   2.659   4.405
12473TIP3    H137360   1.935   2.703   4.478
12473TIP3    H237361   1.955   2.593   4.376
12474TIP3   OH237362   2.212   6.377   3.514
12474TIP3    H137363   2.182   6.292   3.480
12474TIP3    H237364   2.261   6.355   3.593
12475TIP3   OH237365   0.119   2.764   4.254
12475TIP3    H137366   0.120   2.678   4.296
12475TIP3    H237367   0.026   2.782   4.240
12476TIP3   OH237368   5.855   4.324   3.965
12476TIP3    H137369   5.875   4.417   3.978
12476TIP3    H237370   5.800   4.300   4.039
12477TIP3   OH237371   3.162   1.435   5.335
12477TIP3    H137372   3.088   1.376   5.324
12477TIP3    H237373   3.187   1.425   5.427
12478TIP3   OH237374   3.312   0.773   4.539
12478TIP3    H137375   3.395   0.755   4.583
12478TIP3    H237376   3.247   0.770   4.609
12479TIP3   OH237377   3.679   0.616   1.099
12479TIP3    H137378   3.665   0.552   1.169
12479TIP3    H237379   3.627   0.692   1.124
12480TIP3   OH237380   4.124   4.162   5.451
12480TIP3    H137381   4.118   4.218   5.528
12480TIP3    H237382   4.158   4.219   5.382
12481TIP3   OH237383   3.741   1.366   2.976
12481TIP3    H137384   3.781   1.296   2.924
12481TIP3    H237385   3.666   1.324   3.018
12482TIP3   OH237386   3.478   0.915   3.513
12482TIP3    H137387   3.433   0.980   3.567
12482TIP3    H237388   3.485   0.837   3.568
12483TIP3   OH237389   2.438   1.933   0.787
12483TIP3    H137390   2.348   1.952   0.814
12483TIP3    H237391   2.436   1.936   0.691
12484TIP3   OH237392   2.308   6.324   5.532
12484TIP3    H137393   2.311   6.229   5.543
12484TIP3    H237394   2.215   6.346   5.537
12485TIP3   OH237395   2.744   2.943   3.006
12485TIP3    H137396   2.752   3.008   2.936
12485TIP3    H237397   2.826   2.951   3.055
12486TIP3   OH237398   0.742   2.456   0.868
12486TIP3    H137399   0.716   2.371   0.904
12486TIP3    H237400   0.700   2.459   0.782
12487TIP3   OH237401   3.580   4.232   4.760
12487TIP3    H137402   3.645   4.166   4.736
12487TIP3    H237403   3.496   4.190   4.740
12488TIP3   OH237404   5.537   3.966   0.070
12488TIP3    H137405   5.469   3.972   0.003
12488TIP3    H237406   5.495   3.920   0.142
12489TIP3   OH237407   1.192   0.962   0.265
12489TIP3    H137408   1.287   0.950   0.270
12489TIP3    H237409   1.177   1.050   0.300
12490TIP3   OH237410   8.149   6.293   5.582
12490TIP3    H137411   8.084   6.228   5.609
12490TIP3    H237412   8.167   6.271   5.490
12491TIP3   OH237413   0.258   0.221   1.968
12491TIP3    H137414   0.225   0.142   2.012
12491TIP3    H237415   0.333   0.249   2.021
12492TIP3   OH237416   2.283   3.235   3.038
12492TIP3    H137417   2.357   3.254   2.980
12492TIP3    H237418   2.267   3.141   3.025
12493TIP3   OH237419   6.819   1.161   0.869
12493TIP3    H137420   6.831   1.139   0.777
12493TIP3    H237421   6.728   1.137   0.888
12494TIP3   OH237422   3.790   4.205   0.870
12494TIP3    H137423   3.747   4.183   0.788
12494TIP3    H237424   3.810   4.120   0.911
12495TIP3   OH237425   6.213   3.185   0.831
12495TIP3    H137426   6.121   3.191   0.856
12495TIP3    H237427   6.212   3.157   0.739
12496TIP3   OH237428   7.624   5.944   2.632
12496TIP3    H137429   7.666   6.020   2.591
12496TIP3    H237430   7.631   5.962   2.726
12497TIP3   OH237431   7.689   6.917   4.913
12497TIP3    H137432   7.721   6.997   4.954
12497TIP3    H237433   7.598   6.910   4.939
12498TIP3   OH237434   5.562   5.535   2.269
12498TIP3    H137435   5.538   5.443   2.272
12498TIP3    H237436   5.655   5.537   2.289
12499TIP3   OH237437   7.979   7.152   4.797
12499TIP3    H137438   7.976   7.188   4.886
12499TIP3    H237439   8.052   7.199   4.755
12500TIP3   OH237440   4.857   4.169   2.582
12500TIP3    H137441   4.854   4.169   2.487
12500TIP3    H237442   4.829   4.082   2.608
12501TIP3   OH237443   6.698   5.007   6.488
12501TIP3    H137444   6.611   5.021   6.527
12501TIP3    H237445   6.687   5.032   6.396
12502TIP3   OH237446   5.475   5.411   3.843
12502TIP3    H137447   5.426   5.479   3.889
12502TIP3    H237448   5.452   5.422   3.751
12503TIP3   OH237449   7.524   0.168   5.342
12503TIP3    H137450   7.602   0.143   5.392
12503TIP3    H237451   7.478   0.229   5.399
12504TIP3   OH237452   6.435   3.787   0.439
12504TIP3    H137453   6.381   3.710   0.423
12504TIP3    H237454   6.382   3.860   0.407
12505TIP3   OH237455   7.330   7.624   1.046
12505TIP3    H137456   7.265   7.556   1.032
12505TIP3    H237457   7.409   7.578   1.073
12506TIP3   OH237458   2.651   4.025   6.337
12506TIP3    H137459   2.652   4.102   6.280
12506TIP3    H237460   2.633   3.952   6.278
12507TIP3   OH237461   3.391   4.670   2.238
12507TIP3    H137462   3.348   4.723   2.305
12507TIP3    H237463   3.452   4.730   2.196
12508TIP3   OH237464   3.097   1.558   3.184
12508TIP3    H137465   3.161   1.623   3.215
12508TIP3    H237466   3.119   1.478   3.233
12509TIP3   OH237467   0.551   4.936   1.061
12509TIP3    H137468   0.540   4.848   1.025
12509TIP3    H237469   0.554   4.922   1.156
12510TIP3   OH237470   3.472   1.904   4.365
12510TIP3    H137471   3.548   1.865   4.409
12510TIP3    H237472   3.439   1.969   4.428
12511TIP3   OH237473   4.813   0.025   6.117
12511TIP3    H137474   4.771  -0.006   6.037
12511TIP3    H237475   4.796  -0.044   6.181
12512TIP3   OH237476   4.625   3.764   1.269
12512TIP3    H137477   4.579   3.709   1.206
12512TIP3    H237478   4.611   3.721   1.354
12513TIP3   OH237479   7.759   4.480   5.495
12513TIP3    H137480   7.724   4.410   5.440
12513TIP3    H237481   7.789   4.435   5.574
12514TIP3   OH237482   1.756   5.823   0.760
12514TIP3    H137483   1.816   5.748   0.752
12514TIP3    H237484   1.679   5.787   0.804
12515TIP3   OH237485   0.879   6.680   6.814
12515TIP3    H137486   0.867   6.731   6.734
12515TIP3    H237487   0.960   6.631   6.800
12516TIP3   OH237488   4.581   2.012   6.128
12516TIP3    H137489   4.676   2.015   6.117
12516TIP3    H237490   4.557   2.100   6.157
12517TIP3   OH237491   3.151   7.409   0.389
12517TIP3    H137492   3.205   7.333   0.367
12517TIP3    H237493   3.156   7.415   0.485
12518TIP3   OH237494   2.241   4.225   0.161
12518TIP3    H137495   2.335   4.214   0.151
12518TIP3    H237496   2.215   4.159   0.225
12519TIP3   OH237497   1.514   2.268   5.869
12519TIP3    H137498   1.552   2.233   5.788
12519TIP3    H237499   1.445   2.327   5.840
12520TIP3   OH237500   7.376   7.658   4.942
12520TIP3    H137501   7.412   7.609   4.869
12520TIP3    H237502   7.286   7.629   4.949
12521TIP3   OH237503   8.297   7.338   4.282
12521TIP3    H137504   8.253   7.273   4.227
12521TIP3    H237505   8.349   7.390   4.221
12522TIP3   OH237506   5.801   2.246   5.024
12522TIP3    H137507   5.755   2.164   5.008
12522TIP3    H237508   5.889   2.232   4.987
12523TIP3   OH237509   3.227   2.063   2.219
12523TIP3    H137510   3.234   2.009   2.298
12523TIP3    H237511   3.173   2.137   2.247
12524TIP3   OH237512   3.916   0.939   4.841
12524TIP3    H137513   3.993   0.913   4.891
12524TIP3    H237514   3.845   0.885   4.877
12525TIP3   OH237515   4.087   3.379   4.537
12525TIP3    H137516   4.067   3.467   4.569
12525TIP3    H237517   4.019   3.361   4.472
12526TIP3   OH237518   2.411   3.486   6.171
12526TIP3    H137519   2.493   3.496   6.123
12526TIP3    H237520   2.363   3.419   6.122
12527TIP3   OH237521   3.544   3.111   1.879
12527TIP3    H137522   3.585   3.122   1.965
12527TIP3    H237523   3.458   3.152   1.888
12528TIP3   OH237524   2.833   4.991   3.261
12528TIP3    H137525   2.766   5.024   3.321
12528TIP3    H237526   2.916   5.005   3.307
12529TIP3   OH237527   4.309   1.280   1.071
12529TIP3    H137528   4.379   1.214   1.074
12529TIP3    H237529   4.264   1.263   0.988
12530TIP3   OH237530   5.301   7.452   3.341
12530TIP3    H137531   5.283   7.443   3.247
12530TIP3    H237532   5.318   7.363   3.370
12531TIP3   OH237533   5.029   3.865   0.381
12531TIP3    H137534   4.971   3.910   0.320
12531TIP3    H237535   4.984   3.782   0.399
12532TIP3   OH237536   7.033   7.806   4.180
12532TIP3    H137537   7.006   7.897   4.184
12532TIP3    H237538   7.002   7.776   4.094
12533TIP3   OH237539   3.684   5.413   4.853
12533TIP3    H137540   3.664   5.505   4.839
12533TIP3    H237541   3.770   5.400   4.812
12534TIP3   OH237542   5.291   1.158   4.140
12534TIP3    H137543   5.273   1.241   4.185
12534TIP3    H237544   5.308   1.183   4.049
12535TIP3   OH237545   0.627   1.427   4.023
12535TIP3    H137546   0.596   1.516   4.039
12535TIP3    H237547   0.712   1.423   4.069
12536TIP3   OH237548   2.638   6.666   6.525
12536TIP3    H137549   2.641   6.753   6.486
12536TIP3    H237550   2.728   6.648   6.552
12537TIP3   OH237551   7.518   4.104   0.409
12537TIP3    H137552   7.429   4.129   0.387
12537TIP3    H237553   7.573   4.158   0.352
12538TIP3   OH237554   7.156   1.343   5.313
12538TIP3    H137555   7.090   1.412   5.317
12538TIP3    H237556   7.105   1.261   5.315
12539TIP3   OH237557   5.700   1.338   0.292
12539TIP3    H137558   5.679   1.306   0.380
12539TIP3    H237559   5.615   1.355   0.252
12540TIP3   OH237560   4.849   3.224   4.826
12540TIP3    H137561   4.799   3.302   4.802
12540TIP3    H237562   4.794   3.179   4.890
12541TIP3   OH237563   2.113   3.166   3.308
12541TIP3    H137564   2.140   3.257   3.323
12541TIP3    H237565   2.192   3.122   3.279
12542TIP3   OH237566   8.323   5.545   1.765
12542TIP3    H137567   8.323   5.555   1.860
12542TIP3    H237568   8.303   5.632   1.731
12543TIP3   OH237569   0.607   7.824   0.157
12543TIP3    H137570   0.561   7.790   0.080
12543TIP3    H237571   0.603   7.919   0.147
12544TIP3   OH237572   1.297   0.734   2.188
12544TIP3    H137573   1.372   0.714   2.244
12544TIP3    H237574   1.267   0.649   2.156
12545TIP3   OH237575   4.529   6.300   0.808
12545TIP3    H137576   4.530   6.208   0.836
12545TIP3    H237577   4.487   6.299   0.722
12546TIP3   OH237578   2.233   2.589   3.749
12546TIP3    H137579   2.145   2.553   3.762
12546TIP3    H237580   2.291   2.521   3.784
12547TIP3   OH237581   1.172   6.569   1.806
12547TIP3    H137582   1.211   6.498   1.857
12547TIP3    H237583   1.123   6.524   1.737
12548TIP3   OH237584   1.863   4.011   2.274
12548TIP3    H137585   1.825   3.975   2.354
12548TIP3    H237586   1.858   3.939   2.211
12549TIP3   OH237587   2.584   6.108   3.625
12549TIP3    H137588   2.520   6.105   3.554
12549TIP3    H237589   2.629   6.192   3.612
12550TIP3   OH237590   7.683   1.501   1.327
12550TIP3    H137591   7.648   1.463   1.246
12550TIP3    H237592   7.673   1.432   1.392
12551TIP3   OH237593   4.465   3.322   4.401
12551TIP3    H137594   4.421   3.238   4.414
12551TIP3    H237595   4.445   3.345   4.311
12552TIP3   OH237596   3.205   5.552   4.591
12552TIP3    H137597   3.151   5.614   4.543
12552TIP3    H237598   3.167   5.467   4.572
12553TIP3   OH237599   6.417   5.408   0.037
12553TIP3    H137600   6.440   5.464  -0.038
12553TIP3    H237601   6.425   5.466   0.113
12554TIP3   OH237602   1.873   3.928   6.841
12554TIP3    H137603   1.783   3.896   6.844
12554TIP3    H237604   1.864   4.023   6.854
12555TIP3   OH237605   1.502   7.663   6.831
12555TIP3    H137606   1.419   7.622   6.854
12555TIP3    H237607   1.524   7.626   6.745
12556TIP3   OH237608   7.810   7.729   3.593
12556TIP3    H137609   7.850   7.816   3.593
12556TIP3    H237610   7.752   7.729   3.669
12557TIP3   OH237611   7.591   5.560   5.687
12557TIP3    H137612   7.610   5.469   5.711
12557TIP3    H237613   7.667   5.609   5.718
12558TIP3   OH237614   1.024   7.883   0.628
12558TIP3    H137615   0.976   7.812   0.672
12558TIP3    H237616   0.974   7.962   0.649
12559TIP3   OH237617   4.138   6.605   6.336
12559TIP3    H137618   4.049   6.625   6.366
12559TIP3    H237619   4.189   6.681   6.363
12560TIP3   OH237620   7.904   1.722   0.078
12560TIP3    H137621   7.922   1.781   0.005
12560TIP3    H237622   7.962   1.752   0.148
12561TIP3   OH237623   6.156   2.277   0.657
12561TIP3    H137624   6.204   2.231   0.726
12561TIP3    H237625   6.193   2.365   0.656
12562TIP3   OH237626   3.077   7.172   5.747
12562TIP3    H137627   2.987   7.181   5.778
12562TIP3    H237628   3.071   7.110   5.674
12563TIP3   OH237629   1.690   4.943   6.171
12563TIP3    H137630   1.727   5.025   6.204
12563TIP3    H237631   1.691   4.885   6.248
12564TIP3   OH237632   1.603   0.542   0.384
12564TIP3    H137633   1.694   0.517   0.365
12564TIP3    H237634   1.611   0.614   0.446
12565TIP3   OH237635   3.843   3.952   0.985
12565TIP3    H137636   3.774   3.963   1.051
12565TIP3    H237637   3.921   3.989   1.026
12566TIP3   OH237638   3.648   3.532   1.611
12566TIP3    H137639   3.700   3.610   1.593
12566TIP3    H237640   3.558   3.565   1.620
12567TIP3   OH237641   4.617   7.397   0.841
12567TIP3    H137642   4.692   7.448   0.810
12567TIP3    H237643   4.632   7.386   0.935
12568TIP3   OH237644   0.795   1.930   5.464
12568TIP3    H137645   0.811   1.879   5.385
12568TIP3    H237646   0.872   1.916   5.518
12569TIP3   OH237647   4.888   2.278   6.520
12569TIP3    H137648   4.934   2.344   6.571
12569TIP3    H237649   4.805   2.265   6.565
12570TIP3   OH237650   8.333   0.703   4.948
12570TIP3    H137651   8.255   0.750   4.981
12570TIP3    H237652   8.320   0.613   4.977
12571TIP3   OH237653   7.740   7.294   2.558
12571TIP3    H137654   7.663   7.243   2.582
12571TIP3    H237655   7.709   7.385   2.557
12572TIP3   OH237656   0.595   0.589   3.462
12572TIP3    H137657   0.514   0.639   3.457
12572TIP3    H237658   0.583   0.517   3.400
12573TIP3   OH237659   3.315   5.177   2.573
12573TIP3    H137660   3.292   5.123   2.497
12573TIP3    H237661   3.275   5.262   2.554
12574TIP3   OH237662   1.821   5.293   1.814
12574TIP3    H137663   1.870   5.374   1.826
12574TIP3    H237664   1.885   5.223   1.829
12575TIP3   OH237665   5.090   1.309   5.119
12575TIP3    H137666   5.007   1.291   5.075
12575TIP3    H237667   5.089   1.253   5.197
12576TIP3   OH237668   7.025   5.292   5.874
12576TIP3    H137669   7.087   5.249   5.814
12576TIP3    H237670   7.028   5.238   5.953
12577TIP3   OH237671   1.204   4.736   4.255
12577TIP3    H137672   1.183   4.793   4.180
12577TIP3    H237673   1.228   4.652   4.215
12578TIP3   OH237674   0.983   5.009   3.875
12578TIP3    H137675   0.929   5.028   3.951
12578TIP3    H237676   0.936   4.939   3.829
12579TIP3   OH237677   2.823   5.068   1.708
12579TIP3    H137678   2.867   5.154   1.710
12579TIP3    H237679   2.798   5.052   1.799
12580TIP3   OH237680   2.356   3.935   0.321
12580TIP3    H137681   2.307   3.858   0.293
12580TIP3    H237682   2.290   3.997   0.350
12581TIP3   OH237683   5.057   7.571   5.403
12581TIP3    H137684   5.085   7.488   5.364
12581TIP3    H237685   4.999   7.545   5.475
12582TIP3   OH237686   3.032   2.000   1.025
12582TIP3    H137687   2.992   2.065   0.968
12582TIP3    H237688   2.977   1.998   1.103
12583TIP3   OH237689   0.244   1.756   0.449
12583TIP3    H137690   0.190   1.835   0.443
12583TIP3    H237691   0.279   1.758   0.538
12584TIP3   OH237692   3.815   6.805   0.266
12584TIP3    H137693   3.854   6.888   0.294
12584TIP3    H237694   3.860   6.784   0.184
12585TIP3   OH237695   2.757   6.106   4.376
12585TIP3    H137696   2.751   6.045   4.449
12585TIP3    H237697   2.673   6.098   4.331
12586TIP3   OH237698   2.135   5.251   4.781
12586TIP3    H137699   2.193   5.177   4.767
12586TIP3    H237700   2.192   5.320   4.815
12587TIP3   OH237701   5.955   6.414   3.204
12587TIP3    H137702   5.884   6.474   3.181
12587TIP3    H237703   6.027   6.438   3.146
12588TIP3   OH237704   1.950   5.270   5.773
12588TIP3    H137705   1.907   5.341   5.821
12588TIP3    H237706   1.922   5.191   5.818
12589TIP3   OH237707   5.399   3.033   1.699
12589TIP3    H137708   5.324   3.025   1.758
12589TIP3    H237709   5.438   3.117   1.721
12590TIP3   OH237710   5.639   1.783   5.721
12590TIP3    H137711   5.674   1.783   5.810
12590TIP3    H237712   5.604   1.872   5.710
12591TIP3   OH237713   3.136   1.081   3.123
12591TIP3    H137714   3.186   1.136   3.062
12591TIP3    H237715   3.185   1.085   3.205
12592TIP3   OH237716   5.708   6.097   6.365
12592TIP3    H137717   5.800   6.073   6.366
12592TIP3    H237718   5.708   6.191   6.384
12593TIP3   OH237719   2.870   0.058   6.262
12593TIP3    H137720   2.816   0.015   6.328
12593TIP3    H237721   2.909   0.133   6.308
12594TIP3   OH237722   7.311   2.690   6.556
12594TIP3    H137723   7.376   2.650   6.499
12594TIP3    H237724   7.337   2.663   6.644
12595TIP3   OH237725   5.472   6.631   2.935
12595TIP3    H137726   5.420   6.561   2.896
12595TIP3    H237727   5.542   6.648   2.872
12596TIP3   OH237728   6.588   5.820   3.460
12596TIP3    H137729   6.576   5.821   3.555
12596TIP3    H237730   6.672   5.863   3.445
12597TIP3   OH237731   2.886   2.814   6.701
12597TIP3    H137732   2.887   2.722   6.730
12597TIP3    H237733   2.841   2.861   6.770
12598TIP3   OH237734   4.579   4.641   3.470
12598TIP3    H137735   4.568   4.554   3.432
12598TIP3    H237736   4.564   4.702   3.398
12599TIP3   OH237737   6.360   2.470   4.242
12599TIP3    H137738   6.400   2.553   4.218
12599TIP3    H237739   6.393   2.407   4.178
12600TIP3   OH237740   0.422   6.976   5.535
12600TIP3    H137741   0.481   7.021   5.474
12600TIP3    H237742   0.478   6.948   5.607
12601TIP3   OH237743   7.899   6.372   6.111
12601TIP3    H137744   7.972   6.319   6.143
12601TIP3    H237745   7.935   6.460   6.104
12602TIP3   OH237746   0.192   4.277   4.355
12602TIP3    H137747   0.246   4.250   4.281
12602TIP3    H237748   0.242   4.346   4.398
12603TIP3   OH237749   4.149   3.365   4.168
12603TIP3    H137750   4.235   3.404   4.183
12603TIP3    H237751   4.143   3.294   4.232
12604TIP3   OH237752   2.879   5.210   3.048
12604TIP3    H137753   2.837   5.135   3.089
12604TIP3    H237754   2.960   5.222   3.098
12605TIP3   OH237755   4.852   1.710   0.126
12605TIP3    H137756   4.862   1.672   0.039
12605TIP3    H237757   4.758   1.726   0.134
12606TIP3   OH237758   0.212   4.511   5.044
12606TIP3    H137759   0.240   4.448   4.978
12606TIP3    H237760   0.240   4.472   5.127
12607TIP3   OH237761   3.512   0.984   4.068
12607TIP3    H137762   3.593   0.945   4.100
12607TIP3    H237763   3.539   1.069   4.033
12608TIP3   OH237764   0.057   7.005   0.715
12608TIP3    H137765   0.049   6.942   0.643
12608TIP3    H237766   0.126   7.065   0.686
12609TIP3   OH237767   7.301   3.885   1.263
12609TIP3    H137768   7.356   3.947   1.312
12609TIP3    H237769   7.303   3.805   1.315
12610TIP3   OH237770   2.052   4.400   6.397
12610TIP3    H137771   1.996   4.333   6.358
12610TIP3    H237772   2.141   4.370   6.380
12611TIP3   OH237773   2.787   5.766   6.163
12611TIP3    H137774   2.851   5.819   6.210
12611TIP3    H237775   2.782   5.684   6.212
12612TIP3   OH237776   6.335   4.287   3.508
12612TIP3    H137777   6.430   4.271   3.504
12612TIP3    H237778   6.326   4.363   3.566
12613TIP3   OH237779   0.892   4.313   4.598
12613TIP3    H137780   0.958   4.335   4.663
12613TIP3    H237781   0.928   4.346   4.515
12614TIP3   OH237782   6.353   7.421   5.138
12614TIP3    H137783   6.416   7.350   5.127
12614TIP3    H237784   6.358   7.470   5.057
12615TIP3   OH237785   6.649   0.584   4.759
12615TIP3    H137786   6.604   0.610   4.679
12615TIP3    H237787   6.628   0.652   4.823
12616TIP3   OH237788   0.708   7.414   5.091
12616TIP3    H137789   0.791   7.405   5.140
12616TIP3    H237790   0.733   7.457   5.009
12617TIP3   OH237791   7.648   0.757   5.974
12617TIP3    H137792   7.554   0.742   5.969
12617TIP3    H237793   7.659   0.814   6.051
12618TIP3   OH237794   0.497   3.674   5.290
12618TIP3    H137795   0.501   3.618   5.368
12618TIP3    H237796   0.415   3.723   5.301
12619TIP3   OH237797   3.748   3.042   0.368
12619TIP3    H137798   3.720   2.963   0.323
12619TIP3    H237799   3.733   3.112   0.305
12620TIP3   OH237800   2.212   6.195   0.587
12620TIP3    H137801   2.270   6.215   0.513
12620TIP3    H237802   2.162   6.276   0.601
12621TIP3   OH237803   6.839   0.800   3.574
12621TIP3    H137804   6.788   0.878   3.552
12621TIP3    H237805   6.872   0.816   3.662
12622TIP3   OH237806   5.617   6.640   0.462
12622TIP3    H137807   5.709   6.654   0.440
12622TIP3    H237808   5.573   6.718   0.429
12623TIP3   OH237809   0.654   5.318   6.361
12623TIP3    H137810   0.597   5.318   6.285
12623TIP3    H237811   0.739   5.291   6.327
12624TIP3   OH237812   7.151   4.290   4.475
12624TIP3    H137813   7.125   4.200   4.498
12624TIP3    H237814   7.070   4.341   4.481
12625TIP3   OH237815   4.569   0.024   1.466
12625TIP3    H137816   4.545   0.077   1.390
12625TIP3    H237817   4.491   0.026   1.523
12626TIP3   OH237818   7.756   1.084   0.382
12626TIP3    H137819   7.848   1.088   0.408
12626TIP3    H237820   7.717   1.022   0.444
12627TIP3   OH237821   6.688   4.930   0.609
12627TIP3    H137822   6.724   4.845   0.634
12627TIP3    H237823   6.748   4.993   0.647
12628TIP3   OH237824   0.854   5.575   6.072
12628TIP3    H137825   0.837   5.543   6.160
12628TIP3    H237826   0.840   5.670   6.077
12629TIP3   OH237827   4.517   4.992   1.662
12629TIP3    H137828   4.547   5.011   1.573
12629TIP3    H237829   4.588   4.942   1.701
12630TIP3   OH237830   1.242   1.171   5.775
12630TIP3    H137831   1.163   1.205   5.732
12630TIP3    H237832   1.211   1.141   5.860
12631TIP3   OH237833   8.232   3.332   1.576
12631TIP3    H137834   8.173   3.305   1.647
12631TIP3    H237835   8.277   3.252   1.550
12632TIP3   OH237836   1.509   2.338   3.157
12632TIP3    H137837   1.602   2.345   3.179
12632TIP3    H237838   1.465   2.382   3.230
12633TIP3   OH237839   4.749   7.208   0.084
12633TIP3    H137840   4.732   7.269   0.155
12633TIP3    H237841   4.801   7.138   0.124
12634TIP3   OH237842   2.011   0.975   6.182
12634TIP3    H137843   2.060   0.893   6.187
12634TIP3    H237844   2.062   1.031   6.123
12635TIP3   OH237845   3.240   3.902   5.977
12635TIP3    H137846   3.197   3.837   5.921
12635TIP3    H237847   3.169   3.938   6.031
12636TIP3   OH237848   7.400   5.821   0.778
12636TIP3    H137849   7.403   5.879   0.702
12636TIP3    H237850   7.312   5.783   0.776
12637TIP3   OH237851   4.441   4.649   0.300
12637TIP3    H137852   4.520   4.660   0.247
12637TIP3    H237853   4.413   4.738   0.321
12638TIP3   OH237854   6.241   4.378   3.024
12638TIP3    H137855   6.152   4.392   3.058
12638TIP3    H237856   6.236   4.294   2.979
12639TIP3   OH237857   6.328   1.483   3.137
12639TIP3    H137858   6.235   1.503   3.142
12639TIP3    H237859   6.346   1.430   3.214
12640TIP3   OH237860   1.363   4.697   5.260
12640TIP3    H137861   1.333   4.786   5.240
12640TIP3    H237862   1.426   4.677   5.190
12641TIP3   OH237863   4.648   5.900   6.472
12641TIP3    H137864   4.726   5.944   6.507
12641TIP3    H237865   4.576   5.934   6.525
12642TIP3   OH237866  -0.016   7.436   3.178
12642TIP3    H137867  -0.009   7.528   3.154
12642TIP3    H237868   0.058   7.394   3.135
12643TIP3   OH237869   3.980   1.372   0.588
12643TIP3    H137870   4.032   1.416   0.655
12643TIP3    H237871   3.994   1.278   0.605
12644TIP3   OH237872   3.646   0.132   1.859
12644TIP3    H137873   3.665   0.073   1.787
12644TIP3    H237874   3.656   0.079   1.938
12645TIP3   OH237875   7.572   1.242   0.625
12645TIP3    H137876   7.541   1.254   0.535
12645TIP3    H237877   7.661   1.279   0.625
12646TIP3   OH237878   3.411   5.751   3.579
12646TIP3    H137879   3.329   5.702   3.577
12646TIP3    H237880   3.460   5.714   3.652
12647TIP3   OH237881   5.257   3.928   6.129
12647TIP3    H137882   5.340   3.901   6.168
12647TIP3    H237883   5.225   3.849   6.084
12648TIP3   OH237884   5.905   5.103   2.899
12648TIP3    H137885   5.987   5.117   2.850
12648TIP3    H237886   5.912   5.162   2.974
12649TIP3   OH237887   7.891   0.865   2.280
12649TIP3    H137888   7.804   0.841   2.313
12649TIP3    H237889   7.898   0.959   2.299
12650TIP3   OH237890   7.949   6.232   1.082
12650TIP3    H137891   7.959   6.257   1.174
12650TIP3    H237892   7.854   6.231   1.068
12651TIP3   OH237893   6.147   6.936   0.945
12651TIP3    H137894   6.082   6.955   1.012
12651TIP3    H237895   6.105   6.958   0.863
12652TIP3   OH237896   7.979   1.397   6.219
12652TIP3    H137897   8.072   1.412   6.202
12652TIP3    H237898   7.935   1.423   6.138
12653TIP3   OH237899   0.607   6.884   5.240
12653TIP3    H137900   0.664   6.834   5.299
12653TIP3    H237901   0.597   6.969   5.283
12654TIP3   OH237902   6.272   7.754   1.649
12654TIP3    H137903   6.300   7.832   1.697
12654TIP3    H237904   6.201   7.785   1.593
12655TIP3   OH237905   3.731   7.407   2.076
12655TIP3    H137906   3.695   7.484   2.032
12655TIP3    H237907   3.824   7.425   2.085
12656TIP3   OH237908   5.828   5.564   3.912
12656TIP3    H137909   5.776   5.603   3.842
12656TIP3    H237910   5.835   5.633   3.978
12657TIP3   OH237911   6.552   1.421   0.598
12657TIP3    H137912   6.613   1.467   0.656
12657TIP3    H237913   6.549   1.331   0.632
12658TIP3   OH237914   1.716   1.624   2.917
12658TIP3    H137915   1.780   1.693   2.899
12658TIP3    H237916   1.644   1.669   2.959
12659TIP3   OH237917   5.182   2.818   0.774
12659TIP3    H137918   5.202   2.833   0.867
12659TIP3    H237919   5.130   2.738   0.773
12660TIP3   OH237920   2.627   0.297   4.655
12660TIP3    H137921   2.604   0.361   4.588
12660TIP3    H237922   2.683   0.345   4.716
12661TIP3   OH237923   1.621   2.213   5.609
12661TIP3    H137924   1.706   2.236   5.574
12661TIP3    H237925   1.595   2.134   5.561
12662TIP3   OH237926   3.300   2.478   3.528
12662TIP3    H137927   3.347   2.395   3.529
12662TIP3    H237928   3.265   2.485   3.439
12663TIP3   OH237929   2.054   6.758   1.431
12663TIP3    H137930   2.044   6.778   1.524
12663TIP3    H237931   2.133   6.703   1.427
12664TIP3   OH237932   5.768   5.536   2.484
12664TIP3    H137933   5.812   5.451   2.475
12664TIP3    H237934   5.752   5.545   2.578
12665TIP3   OH237935   4.337   2.795   0.561
12665TIP3    H137936   4.271   2.802   0.631
12665TIP3    H237937   4.417   2.766   0.606
12666TIP3   OH237938   3.268   5.238   2.938
12666TIP3    H137939   3.244   5.310   2.996
12666TIP3    H237940   3.283   5.279   2.853
12667TIP3   OH237941   2.925   5.569   2.817
12667TIP3    H137942   2.858   5.577   2.885
12667TIP3    H237943   2.962   5.657   2.808
12668TIP3   OH237944   0.280   0.320   5.291
12668TIP3    H137945   0.210   0.279   5.240
12668TIP3    H237946   0.327   0.247   5.331
12669TIP3   OH237947   7.006   5.134   2.825
12669TIP3    H137948   6.983   5.052   2.781
12669TIP3    H237949   7.101   5.130   2.834
12670TIP3   OH237950   2.421   6.271   2.607
12670TIP3    H137951   2.490   6.305   2.550
12670TIP3    H237952   2.340   6.302   2.567
12671TIP3   OH237953   0.429   2.675   3.686
12671TIP3    H137954   0.338   2.652   3.667
12671TIP3    H237955   0.424   2.727   3.766
12672TIP3   OH237956   0.233   3.253   6.437
12672TIP3    H137957   0.181   3.174   6.451
12672TIP3    H237958   0.178   3.308   6.381
12673TIP3   OH237959   0.608   7.928   2.939
12673TIP3    H137960   0.595   7.867   3.012
12673TIP3    H237961   0.663   7.881   2.877
12674TIP3   OH237962   1.078   3.467   3.062
12674TIP3    H137963   0.983   3.470   3.052
12674TIP3    H237964   1.109   3.418   2.986
12675TIP3   OH237965   3.735   0.694   6.643
12675TIP3    H137966   3.643   0.672   6.627
12675TIP3    H237967   3.756   0.651   6.725
12676TIP3   OH237968   7.715   5.455   4.814
12676TIP3    H137969   7.780   5.502   4.762
12676TIP3    H237970   7.753   5.449   4.901
12677TIP3   OH237971   3.477   5.642   4.532
12677TIP3    H137972   3.385   5.625   4.550
12677TIP3    H237973   3.518   5.645   4.619
12678TIP3   OH237974   5.411   3.694   4.005
12678TIP3    H137975   5.337   3.665   4.057
12678TIP3    H237976   5.471   3.735   4.068
12679TIP3   OH237977   0.054   7.347   0.337
12679TIP3    H137978   0.004   7.422   0.307
12679TIP3    H237979   0.124   7.385   0.391
12680TIP3   OH237980   1.054   2.698   4.918
12680TIP3    H137981   0.960   2.682   4.929
12680TIP3    H237982   1.071   2.681   4.825
12681TIP3   OH237983   0.906   1.523   1.846
12681TIP3    H137984   0.950   1.559   1.770
12681TIP3    H237985   0.817   1.504   1.816
12682TIP3   OH237986   2.183   0.586   2.912
12682TIP3    H137987   2.154   0.532   2.838
12682TIP3    H237988   2.121   0.566   2.982
12683TIP3   OH237989   3.294   3.725   3.094
12683TIP3    H137990   3.232   3.652   3.094
12683TIP3    H237991   3.380   3.683   3.089
12684TIP3   OH237992   4.606   5.191   3.430
12684TIP3    H137993   4.635   5.110   3.473
12684TIP3    H237994   4.656   5.260   3.474
12685TIP3   OH237995   7.759   7.165   5.002
12685TIP3    H137996   7.732   7.245   5.046
12685TIP3    H237997   7.848   7.150   5.034
12686TIP3   OH237998   4.220   6.635   3.563
12686TIP3    H137999   4.149   6.625   3.499
12686TIP3    H238000   4.212   6.726   3.593
12687TIP3   OH238001   5.552   2.825   4.167
12687TIP3    H138002   5.519   2.776   4.092
12687TIP3    H238003   5.645   2.803   4.172
12688TIP3   OH238004   3.526   5.732   2.810
12688TIP3    H138005   3.606   5.716   2.759
12688TIP3    H238006   3.532   5.824   2.836
12689TIP3   OH238007   6.055   6.891   4.168
12689TIP3    H138008   6.105   6.973   4.170
12689TIP3    H238009   5.973   6.914   4.124
12690TIP3   OH238010   7.822   1.626   2.699
12690TIP3    H138011   7.878   1.697   2.669
12690TIP3    H238012   7.854   1.548   2.654
12691TIP3   OH238013   0.464   3.490   1.299
12691TIP3    H138014   0.519   3.437   1.241
12691TIP3    H238015   0.525   3.527   1.363
12692TIP3   OH238016   3.972   6.529   3.797
12692TIP3    H138017   3.917   6.505   3.723
12692TIP3    H238018   3.935   6.612   3.828
12693TIP3   OH238019   0.991   0.356   3.958
12693TIP3    H138020   0.950   0.326   3.877
12693TIP3    H238021   1.049   0.284   3.983
12694TIP3   OH238022   7.623   3.372   4.592
12694TIP3    H138023   7.595   3.349   4.680
12694TIP3    H238024   7.718   3.382   4.598
12695TIP3   OH238025   7.442   3.676   5.683
12695TIP3    H138026   7.397   3.753   5.650
12695TIP3    H238027   7.535   3.698   5.674
12696TIP3   OH238028   4.995   4.607   5.522
12696TIP3    H138029   5.088   4.631   5.518
12696TIP3    H238030   4.978   4.591   5.615
12697TIP3   OH238031   1.402   1.376   4.309
12697TIP3    H138032   1.356   1.370   4.226
12697TIP3    H238033   1.415   1.470   4.323
12698TIP3   OH238034   0.211   6.848   6.492
12698TIP3    H138035   0.176   6.833   6.579
12698TIP3    H238036   0.304   6.829   6.500
12699TIP3   OH238037   4.798   5.723   5.194
12699TIP3    H138038   4.882   5.769   5.199
12699TIP3    H238039   4.795   5.690   5.104
12700TIP3   OH238040   4.129   4.864   1.595
12700TIP3    H138041   4.079   4.875   1.514
12700TIP3    H238042   4.175   4.948   1.605
12701TIP3   OH238043   6.278   2.510   6.632
12701TIP3    H138044   6.240   2.573   6.694
12701TIP3    H238045   6.232   2.527   6.550
12702TIP3   OH238046   2.586   4.388   3.661
12702TIP3    H138047   2.587   4.405   3.567
12702TIP3    H238048   2.608   4.472   3.701
12703TIP3   OH238049   1.662   4.168   0.911
12703TIP3    H138050   1.713   4.229   0.965
12703TIP3    H238051   1.652   4.090   0.965
12704TIP3   OH238052   1.674   0.360   1.986
12704TIP3    H138053   1.591   0.382   2.028
12704TIP3    H238054   1.741   0.401   2.041
12705TIP3   OH238055   4.126   1.882   0.637
12705TIP3    H138056   4.204   1.846   0.679
12705TIP3    H238057   4.079   1.927   0.707
12706TIP3   OH238058   3.568   3.328   4.025
12706TIP3    H138059   3.572   3.247   3.973
12706TIP3    H238060   3.488   3.318   4.077
12707TIP3   OH238061   6.474   0.950   4.697
12707TIP3    H138062   6.544   0.997   4.742
12707TIP3    H238063   6.471   0.865   4.739
12708TIP3   OH238064   6.088   6.958   5.388
12708TIP3    H138065   6.102   6.940   5.295
12708TIP3    H238066   6.085   6.872   5.429
12709TIP3   OH238067   4.328   1.053   1.311
12709TIP3    H138068   4.368   1.006   1.237
12709TIP3    H238069   4.261   0.993   1.344
12710TIP3   OH238070   1.926   2.113   0.404
12710TIP3    H138071   1.964   2.083   0.486
12710TIP3    H238072   1.999   2.151   0.356
12711TIP3   OH238073   3.479   6.433   1.379
12711TIP3    H138074   3.474   6.483   1.460
12711TIP3    H238075   3.415   6.473   1.321
12712TIP3   OH238076   1.931   7.650   5.168
12712TIP3    H138077   1.877   7.575   5.147
12712TIP3    H238078   1.918   7.665   5.261
12713TIP3   OH238079   5.799   2.734   2.170
12713TIP3    H138080   5.724   2.712   2.115
12713TIP3    H238081   5.806   2.829   2.166
12714TIP3   OH238082   0.061   2.164   2.962
12714TIP3    H138083   0.054   2.256   2.936
12714TIP3    H238084   0.055   2.115   2.879
12715TIP3   OH238085   3.238   1.835   0.203
12715TIP3    H138086   3.297   1.774   0.245
12715TIP3    H238087   3.198   1.785   0.132
12716TIP3   OH238088   2.863   2.134   0.839
12716TIP3    H138089   2.859   2.091   0.754
12716TIP3    H238090   2.913   2.214   0.823
12717TIP3   OH238091   5.007   4.911   1.718
12717TIP3    H138092   5.036   4.906   1.809
12717TIP3    H238093   5.083   4.884   1.666
12718TIP3   OH238094   6.463   7.295   2.714
12718TIP3    H138095   6.448   7.390   2.717
12718TIP3    H238096   6.376   7.257   2.715
12719TIP3   OH238097   2.642   5.500   1.194
12719TIP3    H138098   2.704   5.556   1.240
12719TIP3    H238099   2.653   5.522   1.101
12720TIP3   OH238100   1.998   0.272   6.311
12720TIP3    H138101   1.967   0.361   6.327
12720TIP3    H238102   1.984   0.227   6.395
12721TIP3   OH238103   8.066   6.139   3.784
12721TIP3    H138104   8.096   6.179   3.866
12721TIP3    H238105   7.978   6.174   3.772
12722TIP3   OH238106   1.500   3.679   6.397
12722TIP3    H138107   1.576   3.620   6.390
12722TIP3    H238108   1.425   3.621   6.406
12723TIP3   OH238109   5.629   7.811   0.574
12723TIP3    H138110   5.707   7.829   0.521
12723TIP3    H238111   5.561   7.788   0.511
12724TIP3   OH238112   8.077   7.363   2.710
12724TIP3    H138113   8.083   7.321   2.795
12724TIP3    H238114   8.040   7.297   2.652
12725TIP3   OH238115   6.163   6.925   4.767
12725TIP3    H138116   6.243   6.890   4.806
12725TIP3    H238117   6.092   6.878   4.811
12726TIP3   OH238118   0.976   1.409   6.708
12726TIP3    H138119   1.038   1.481   6.722
12726TIP3    H238120   0.892   1.453   6.697
12727TIP3   OH238121   3.546   2.680   3.556
12727TIP3    H138122   3.454   2.704   3.567
12727TIP3    H238123   3.546   2.612   3.489
12728TIP3   OH238124   5.452   2.995   1.295
12728TIP3    H138125   5.357   3.004   1.295
12728TIP3    H238126   5.468   2.910   1.254
12729TIP3   OH238127   5.503   7.583   5.975
12729TIP3    H138128   5.475   7.609   6.063
12729TIP3    H238129   5.552   7.659   5.943
12730TIP3   OH238130   2.496   5.739   6.481
12730TIP3    H138131   2.497   5.679   6.406
12730TIP3    H238132   2.575   5.717   6.531
12731TIP3   OH238133   3.498   7.555   6.172
12731TIP3    H138134   3.557   7.535   6.245
12731TIP3    H238135   3.435   7.483   6.171
12732TIP3   OH238136   0.316   0.289   0.954
12732TIP3    H138137   0.387   0.248   0.904
12732TIP3    H238138   0.239   0.279   0.897
12733TIP3   OH238139   8.147   6.173   1.647
12733TIP3    H138140   8.207   6.195   1.718
12733TIP3    H238141   8.091   6.251   1.639
12734TIP3   OH238142   3.520   4.847   4.389
12734TIP3    H138143   3.512   4.942   4.388
12734TIP3    H238144   3.463   4.819   4.461
12735TIP3   OH238145   3.727   4.645   4.014
12735TIP3    H138146   3.718   4.550   4.027
12735TIP3    H238147   3.797   4.670   4.074
12736TIP3   OH238148   0.855   5.342   6.584
12736TIP3    H138149   0.859   5.438   6.576
12736TIP3    H238150   0.905   5.323   6.663
12737TIP3   OH238151   0.475   5.859   3.814
12737TIP3    H138152   0.386   5.882   3.839
12737TIP3    H238153   0.504   5.798   3.882
12738TIP3   OH238154   7.237   7.875   1.157
12738TIP3    H138155   7.208   7.843   1.243
12738TIP3    H238156   7.279   7.799   1.116
12739TIP3   OH238157   5.206   0.904   6.326
12739TIP3    H138158   5.237   0.813   6.323
12739TIP3    H238159   5.242   0.944   6.248
12740TIP3   OH238160   2.048   5.097   6.162
12740TIP3    H138161   2.107   5.022   6.164
12740TIP3    H238162   1.991   5.085   6.238
12741TIP3   OH238163   6.812   2.592   1.402
12741TIP3    H138164   6.748   2.551   1.460
12741TIP3    H238165   6.819   2.532   1.327
12742TIP3   OH238166   5.081   0.500   0.896
12742TIP3    H138167   5.086   0.487   0.802
12742TIP3    H238168   5.103   0.415   0.933
12743TIP3   OH238169   4.466   2.636   0.159
12743TIP3    H138170   4.387   2.686   0.178
12743TIP3    H238171   4.465   2.625   0.064
12744TIP3   OH238172   0.759   1.724   2.542
12744TIP3    H138173   0.810   1.729   2.461
12744TIP3    H238174   0.817   1.760   2.609
12745TIP3   OH238175   2.910   6.008   2.613
12745TIP3    H138176   2.957   6.090   2.599
12745TIP3    H238177   2.969   5.955   2.666
12746TIP3   OH238178   5.137   4.075   1.958
12746TIP3    H138179   5.126   4.050   2.050
12746TIP3    H238180   5.075   4.020   1.911
12747TIP3   OH238181   0.150   5.824   1.168
12747TIP3    H138182   0.225   5.870   1.129
12747TIP3    H238183   0.138   5.867   1.253
12748TIP3   OH238184   3.403   2.019   6.062
12748TIP3    H138185   3.397   2.052   6.152
12748TIP3    H238186   3.496   2.018   6.042
12749TIP3   OH238187   5.889   5.747   2.343
12749TIP3    H138188   5.906   5.696   2.263
12749TIP3    H238189   5.816   5.701   2.385
12750TIP3   OH238190   7.014   4.757   2.387
12750TIP3    H138191   7.088   4.818   2.378
12750TIP3    H238192   6.987   4.738   2.298
12751TIP3   OH238193   0.243   3.597   0.311
12751TIP3    H138194   0.316   3.567   0.257
12751TIP3    H238195   0.197   3.517   0.336
12752TIP3   OH238196   3.793   1.341   4.648
12752TIP3    H138197   3.869   1.381   4.606
12752TIP3    H238198   3.819   1.250   4.661
12753TIP3   OH238199   6.148   1.885   5.245
12753TIP3    H138200   6.164   1.972   5.281
12753TIP3    H238201   6.083   1.846   5.303
12754TIP3   OH238202   7.893   5.766   4.816
12754TIP3    H138203   7.810   5.774   4.862
12754TIP3    H238204   7.908   5.854   4.779
12755TIP3   OH238205   2.514   0.046   4.136
12755TIP3    H138206   2.470   0.096   4.205
12755TIP3    H238207   2.500   0.097   4.057
12756TIP3   OH238208   1.112   2.748   4.452
12756TIP3    H138209   1.066   2.696   4.518
12756TIP3    H238210   1.045   2.805   4.414
12757TIP3   OH238211   3.277   5.537   0.237
12757TIP3    H138212   3.341   5.529   0.167
12757TIP3    H238213   3.192   5.530   0.193
12758TIP3   OH238214   1.101   4.826   0.031
12758TIP3    H138215   1.059   4.884   0.095
12758TIP3    H238216   1.187   4.808   0.067
12759TIP3   OH238217   0.978   4.570   3.541
12759TIP3    H138218   0.969   4.509   3.468
12759TIP3    H238219   1.021   4.647   3.504
12760TIP3   OH238220   3.516   5.990   6.097
12760TIP3    H138221   3.445   6.053   6.087
12760TIP3    H238222   3.476   5.905   6.081
12761TIP3   OH238223   6.786   3.981   1.234
12761TIP3    H138224   6.765   4.055   1.291
12761TIP3    H238225   6.877   3.959   1.255
12762TIP3   OH238226   6.837   4.281   0.509
12762TIP3    H138227   6.772   4.233   0.559
12762TIP3    H238228   6.901   4.312   0.574
12763TIP3   OH238229   6.533   5.068   5.558
12763TIP3    H138230   6.486   5.040   5.479
12763TIP3    H238231   6.466   5.111   5.611
12764TIP3   OH238232   0.395   2.985   2.728
12764TIP3    H138233   0.301   3.004   2.721
12764TIP3    H238234   0.401   2.923   2.800
12765TIP3   OH238235   1.555   4.276   3.310
12765TIP3    H138236   1.506   4.195   3.321
12765TIP3    H238237   1.632   4.266   3.366
12766TIP3   OH238238   2.684   2.532   4.501
12766TIP3    H138239   2.691   2.454   4.556
12766TIP3    H238240   2.747   2.518   4.430
12767TIP3   OH238241   3.411   6.638   4.044
12767TIP3    H138242   3.318   6.654   4.025
12767TIP3    H238243   3.419   6.651   4.138
12768TIP3   OH238244   1.143   4.717   2.414
12768TIP3    H138245   1.091   4.638   2.402
12768TIP3    H238246   1.162   4.747   2.325
12769TIP3   OH238247   1.356   6.641   2.518
12769TIP3    H138248   1.429   6.630   2.458
12769TIP3    H238249   1.397   6.658   2.603
12770TIP3   OH238250   7.205   4.148   1.446
12770TIP3    H138251   7.236   4.057   1.449
12770TIP3    H238252   7.182   4.169   1.536
12771TIP3   OH238253   6.834   7.078   0.179
12771TIP3    H138254   6.794   7.071   0.266
12771TIP3    H238255   6.765   7.053   0.118
12772TIP3   OH238256   1.330   4.622   3.220
12772TIP3    H138257   1.408   4.586   3.178
12772TIP3    H238258   1.341   4.601   3.313
12773TIP3   OH238259   2.263   5.595   1.980
12773TIP3    H138260   2.273   5.523   1.917
12773TIP3    H238261   2.257   5.551   2.065
12774TIP3   OH238262   0.044   5.794   6.589
12774TIP3    H138263   0.136   5.768   6.583
12774TIP3    H238264   0.046   5.878   6.635
12775TIP3   OH238265   3.240   6.389   3.629
12775TIP3    H138266   3.317   6.366   3.681
12775TIP3    H238267   3.263   6.472   3.588
12776TIP3   OH238268   5.265   6.326   1.629
12776TIP3    H138269   5.188   6.304   1.681
12776TIP3    H238270   5.244   6.410   1.588
12777TIP3   OH238271   1.767   0.253   0.823
12777TIP3    H138272   1.674   0.252   0.798
12777TIP3    H238273   1.806   0.319   0.765
12778TIP3   OH238274   6.732   4.990   3.693
12778TIP3    H138275   6.801   4.983   3.627
12778TIP3    H238276   6.682   4.909   3.683
12779TIP3   OH238277   2.481   1.391   0.345
12779TIP3    H138278   2.411   1.418   0.286
12779TIP3    H238279   2.464   1.437   0.427
12780TIP3   OH238280   6.464   7.363   4.804
12780TIP3    H138281   6.483   7.355   4.711
12780TIP3    H238282   6.492   7.452   4.826
12781TIP3   OH238283   0.914   7.766   5.996
12781TIP3    H138284   0.933   7.860   5.999
12781TIP3    H238285   0.909   7.740   6.088
12782TIP3   OH238286   4.128   4.692   5.955
12782TIP3    H138287   4.045   4.738   5.962
12782TIP3    H238288   4.180   4.724   6.030
12783TIP3   OH238289   7.254   7.305   0.643
12783TIP3    H138290   7.169   7.350   0.639
12783TIP3    H238291   7.317   7.375   0.661
12784TIP3   OH238292   6.459   0.184   6.719
12784TIP3    H138293   6.544   0.172   6.761
12784TIP3    H238294   6.478   0.239   6.643
12785TIP3   OH238295   1.657   1.713   3.241
12785TIP3    H138296   1.678   1.620   3.232
12785TIP3    H238297   1.632   1.723   3.333
12786TIP3   OH238298   2.299   2.772   0.734
12786TIP3    H138299   2.260   2.730   0.811
12786TIP3    H238300   2.350   2.702   0.692
12787TIP3   OH238301   6.275   1.405   1.037
12787TIP3    H138302   6.218   1.419   0.961
12787TIP3    H238303   6.218   1.366   1.103
12788TIP3   OH238304   7.467   3.120   2.142
12788TIP3    H138305   7.377   3.141   2.116
12788TIP3    H238306   7.515   3.113   2.060
12789TIP3   OH238307   0.143   1.977   1.888
12789TIP3    H138308   0.133   2.035   1.964
12789TIP3    H238309   0.220   1.924   1.908
12790TIP3   OH238310   1.926   3.984   6.185
12790TIP3    H138311   1.853   3.927   6.158
12790TIP3    H238312   2.003   3.927   6.181
12791TIP3   OH238313   2.146   7.841   5.120
12791TIP3    H138314   2.084   7.769   5.132
12791TIP3    H238315   2.136   7.867   5.029
12792TIP3   OH238316   3.148   1.928   5.999
12792TIP3    H138317   3.173   1.841   5.968
12792TIP3    H238318   3.230   1.977   6.001
12793TIP3   OH238319   1.562   3.920   1.247
12793TIP3    H138320   1.468   3.907   1.254
12793TIP3    H238321   1.600   3.837   1.274
12794TIP3   OH238322   3.296   6.133   6.183
12794TIP3    H138323   3.244   6.112   6.261
12794TIP3    H238324   3.350   6.207   6.209
12795TIP3   OH238325   5.654   1.932   0.663
12795TIP3    H138326   5.691   1.886   0.588
12795TIP3    H238327   5.583   1.876   0.693
12796TIP3   OH238328   2.365   0.045   5.167
12796TIP3    H138329   2.288  -0.009   5.148
12796TIP3    H238330   2.346   0.083   5.252
12797TIP3   OH238331   6.031   4.852   1.345
12797TIP3    H138332   6.053   4.945   1.346
12797TIP3    H238333   6.067   4.819   1.263
12798TIP3   OH238334   0.453   6.402   0.096
12798TIP3    H138335   0.496   6.322   0.064
12798TIP3    H238336   0.492   6.417   0.182
12799TIP3   OH238337   3.372   4.213   3.765
12799TIP3    H138338   3.354   4.192   3.673
12799TIP3    H238339   3.428   4.290   3.761
12800TIP3   OH238340   2.075   3.872   2.082
12800TIP3    H138341   2.015   3.814   2.128
12800TIP3    H238342   2.094   3.826   2.000
12801TIP3   OH238343   8.331   1.315   6.069
12801TIP3    H138344   8.374   1.310   5.984
12801TIP3    H238345   8.279   1.395   6.065
12802TIP3   OH238346   6.765   2.241   1.667
12802TIP3    H138347   6.671   2.239   1.684
12802TIP3    H238348   6.789   2.332   1.680
12803TIP3   OH238349   1.407   2.390   4.398
12803TIP3    H138350   1.335   2.361   4.454
12803TIP3    H238351   1.432   2.475   4.433
12804TIP3   OH238352   5.065   6.009   0.838
12804TIP3    H138353   5.004   5.969   0.899
12804TIP3    H238354   5.031   5.986   0.751
12805TIP3   OH238355   1.666   4.746   3.005
12805TIP3    H138356   1.642   4.667   3.053
12805TIP3    H238357   1.687   4.810   3.073
12806TIP3   OH238358   3.902   3.853   2.368
12806TIP3    H138359   3.985   3.874   2.412
12806TIP3    H238360   3.925   3.849   2.275
12807TIP3   OH238361   4.688   5.390   1.054
12807TIP3    H138362   4.733   5.307   1.073
12807TIP3    H238363   4.619   5.366   0.992
12808TIP3   OH238364   5.063   1.051   1.889
12808TIP3    H138365   5.024   1.093   1.812
12808TIP3    H238366   5.157   1.070   1.881
12809TIP3   OH238367   6.860   0.600   3.388
12809TIP3    H138368   6.873   0.650   3.306
12809TIP3    H238369   6.860   0.667   3.456
12810TIP3   OH238370   5.089   5.567   3.480
12810TIP3    H138371   5.143   5.642   3.506
12810TIP3    H238372   5.099   5.562   3.385
12811TIP3   OH238373   6.705   0.265   1.782
12811TIP3    H138374   6.792   0.305   1.786
12811TIP3    H238375   6.658   0.315   1.715
12812TIP3   OH238376   7.263   2.128   3.729
12812TIP3    H138377   7.239   2.173   3.810
12812TIP3    H238378   7.350   2.162   3.708
12813TIP3   OH238379   5.819   7.819   2.468
12813TIP3    H138380   5.813   7.773   2.384
12813TIP3    H238381   5.907   7.800   2.500
12814TIP3   OH238382   1.638   1.528   3.966
12814TIP3    H138383   1.687   1.465   4.018
12814TIP3    H238384   1.546   1.506   3.983
12815TIP3   OH238385   7.701   4.786   4.010
12815TIP3    H138386   7.656   4.820   3.933
12815TIP3    H238387   7.638   4.799   4.082
12816TIP3   OH238388   0.361   7.605   0.631
12816TIP3    H138389   0.420   7.634   0.562
12816TIP3    H238390   0.284   7.661   0.622
12817TIP3   OH238391   3.155   1.038   4.714
12817TIP3    H138392   3.078   0.986   4.735
12817TIP3    H238393   3.135   1.125   4.749
12818TIP3   OH238394   7.369   6.205   3.219
12818TIP3    H138395   7.462   6.201   3.195
12818TIP3    H238396   7.369   6.200   3.314
12819TIP3   OH238397   2.080   2.394   3.467
12819TIP3    H138398   2.006   2.345   3.431
12819TIP3    H238399   2.141   2.404   3.394
12820TIP3   OH238400   6.355   2.962   3.210
12820TIP3    H138401   6.357   2.918   3.295
12820TIP3    H238402   6.386   2.895   3.148
12821TIP3   OH238403   4.782   4.426   4.369
12821TIP3    H138404   4.774   4.506   4.317
12821TIP3    H238405   4.874   4.421   4.393
12822TIP3   OH238406   4.916   1.036   4.975
12822TIP3    H138407   4.823   1.042   4.998
12822TIP3    H238408   4.945   0.955   5.017
12823TIP3   OH238409   8.367   5.247   4.060
12823TIP3    H138410   8.308   5.280   4.128
12823TIP3    H238411   8.373   5.153   4.078
12824TIP3   OH238412   6.554   2.160   5.121
12824TIP3    H138413   6.632   2.118   5.084
12824TIP3    H238414   6.561   2.144   5.215
12825TIP3   OH238415   1.689   7.787   2.055
12825TIP3    H138416   1.673   7.816   2.145
12825TIP3    H238417   1.764   7.728   2.062
12826TIP3   OH238418   6.377   7.000   6.517
12826TIP3    H138419   6.456   6.980   6.466
12826TIP3    H238420   6.322   7.049   6.456
12827TIP3   OH238421   2.445   7.123   6.737
12827TIP3    H138422   2.373   7.167   6.783
12827TIP3    H238423   2.482   7.062   6.801
12828TIP3   OH238424   3.835   2.975   3.363
12828TIP3    H138425   3.757   3.021   3.395
12828TIP3    H238426   3.908   3.017   3.408
12829TIP3   OH238427   0.074   7.647   4.326
12829TIP3    H138428   0.164   7.624   4.303
12829TIP3    H238429   0.023   7.621   4.249
12830TIP3   OH238430   3.493   4.251   4.406
12830TIP3    H138431   3.409   4.293   4.427
12830TIP3    H238432   3.558   4.305   4.451
12831TIP3   OH238433   8.229   2.012   4.285
12831TIP3    H138434   8.180   1.984   4.362
12831TIP3    H238435   8.301   1.949   4.279
12832TIP3   OH238436   6.014   7.846   1.800
12832TIP3    H138437   5.934   7.889   1.769
12832TIP3    H238438   6.015   7.762   1.754
12833TIP3   OH238439   7.642   2.552   1.196
12833TIP3    H138440   7.680   2.594   1.273
12833TIP3    H238441   7.715   2.505   1.156
12834TIP3   OH238442   5.411   1.487   1.072
12834TIP3    H138443   5.384   1.526   0.989
12834TIP3    H238444   5.342   1.424   1.092
12835TIP3   OH238445   3.192   5.476   6.425
12835TIP3    H138446   3.156   5.487   6.513
12835TIP3    H238447   3.215   5.383   6.419
12836TIP3   OH238448   1.625   7.142   6.511
12836TIP3    H138449   1.543   7.176   6.548
12836TIP3    H238450   1.622   7.048   6.527
12837TIP3   OH238451   4.917   3.257   1.847
12837TIP3    H138452   4.983   3.293   1.788
12837TIP3    H238453   4.967   3.204   1.909
12838TIP3   OH238454   7.363   0.674   1.527
12838TIP3    H138455   7.283   0.723   1.508
12838TIP3    H238456   7.364   0.665   1.622
12839TIP3   OH238457   0.825   0.546   5.628
12839TIP3    H138458   0.836   0.462   5.672
12839TIP3    H238459   0.890   0.604   5.669
12840TIP3   OH238460   0.205   6.517   0.205
12840TIP3    H138461   0.159   6.519   0.121
12840TIP3    H238462   0.291   6.481   0.185
12841TIP3   OH238463   3.558   5.217   0.181
12841TIP3    H138464   3.475   5.215   0.134
12841TIP3    H238465   3.552   5.145   0.244
12842TIP3   OH238466   3.584   7.727   4.650
12842TIP3    H138467   3.649   7.676   4.699
12842TIP3    H238468   3.635   7.794   4.605
12843TIP3   OH238469   1.687   4.835   4.551
12843TIP3    H138470   1.698   4.898   4.480
12843TIP3    H238471   1.695   4.749   4.510
12844TIP3   OH238472   7.561   7.003   1.408
12844TIP3    H138473   7.570   7.017   1.503
12844TIP3    H238474   7.542   6.909   1.400
12845TIP3   OH238475   7.454   2.488   6.433
12845TIP3    H138476   7.468   2.441   6.515
12845TIP3    H238477   7.538   2.483   6.388
12846TIP3   OH238478   3.745   5.290   6.331
12846TIP3    H138479   3.665   5.238   6.324
12846TIP3    H238480   3.799   5.261   6.258
12847TIP3   OH238481   0.327   2.079   4.491
12847TIP3    H138482   0.377   2.069   4.410
12847TIP3    H238483   0.358   2.008   4.548
12848TIP3   OH238484   3.675   7.252   4.822
12848TIP3    H138485   3.617   7.194   4.871
12848TIP3    H238486   3.623   7.277   4.745
12849TIP3   OH238487   3.370   7.081   1.874
12849TIP3    H138488   3.369   7.151   1.939
12849TIP3    H238489   3.439   7.107   1.813
12850TIP3   OH238490   6.843   6.900   3.280
12850TIP3    H138491   6.840   6.955   3.202
12850TIP3    H238492   6.910   6.834   3.260
12851TIP3   OH238493   3.598   5.718   6.567
12851TIP3    H138494   3.588   5.660   6.492
12851TIP3    H238495   3.619   5.803   6.530
12852TIP3   OH238496   1.010   6.463   3.977
12852TIP3    H138497   0.958   6.382   3.968
12852TIP3    H238498   1.071   6.444   4.048
12853TIP3   OH238499   2.816   6.128   6.604
12853TIP3    H138500   2.785   6.083   6.683
12853TIP3    H238501   2.824   6.058   6.539
12854TIP3   OH238502   4.971   6.461   5.183
12854TIP3    H138503   4.891   6.433   5.139
12854TIP3    H238504   5.019   6.510   5.117
12855TIP3   OH238505   7.887   1.731   3.151
12855TIP3    H138506   7.902   1.746   3.244
12855TIP3    H238507   7.831   1.803   3.124
12856TIP3   OH238508   5.734   5.637   0.125
12856TIP3    H138509   5.663   5.605   0.180
12856TIP3    H238510   5.763   5.717   0.169
12857TIP3   OH238511   2.781   3.305   0.575
12857TIP3    H138512   2.787   3.378   0.636
12857TIP3    H238513   2.724   3.337   0.506
12858TIP3   OH238514   1.039   5.083   5.190
12858TIP3    H138515   1.012   5.067   5.099
12858TIP3    H238516   1.131   5.105   5.183
12859TIP3   OH238517   0.098   7.490   1.804
12859TIP3    H138518   0.111   7.479   1.710
12859TIP3    H238519   0.039   7.420   1.829
12860TIP3   OH238520   7.955   1.196   4.214
12860TIP3    H138521   7.873   1.230   4.249
12860TIP3    H238522   7.929   1.126   4.154
12861TIP3   OH238523   1.188   2.760   0.420
12861TIP3    H138524   1.274   2.730   0.449
12861TIP3    H238525   1.152   2.806   0.496
12862TIP3   OH238526   8.235   2.048   5.325
12862TIP3    H138527   8.208   1.959   5.347
12862TIP3    H238528   8.326   2.039   5.297
12863TIP3   OH238529   1.388   1.411   1.491
12863TIP3    H138530   1.464   1.415   1.433
12863TIP3    H238531   1.327   1.352   1.447
12864TIP3   OH238532   0.265   3.324   1.054
12864TIP3    H138533   0.273   3.323   0.958
12864TIP3    H238534   0.264   3.417   1.076
12865TIP3   OH238535   1.693   7.751   3.883
12865TIP3    H138536   1.728   7.764   3.971
12865TIP3    H238537   1.660   7.661   3.884
12866TIP3   OH238538   2.303   5.165   1.780
12866TIP3    H138539   2.391   5.156   1.744
12866TIP3    H238540   2.272   5.249   1.747
12867TIP3   OH238541   1.478   7.899   2.732
12867TIP3    H138542   1.402   7.955   2.720
12867TIP3    H238543   1.476   7.838   2.658
12868TIP3   OH238544   3.537   6.174   0.155
12868TIP3    H138545   3.546   6.107   0.223
12868TIP3    H238546   3.489   6.129   0.085
12869TIP3   OH238547   7.386   1.704   0.191
12869TIP3    H138548   7.361   1.795   0.174
12869TIP3    H238549   7.408   1.702   0.284
12870TIP3   OH238550   5.636   5.000   5.674
12870TIP3    H138551   5.545   5.014   5.648
12870TIP3    H238552   5.684   4.988   5.592
12871TIP3   OH238553   5.313   6.972   6.604
12871TIP3    H138554   5.383   6.946   6.665
12871TIP3    H238555   5.256   7.028   6.656
12872TIP3   OH238556   4.417   1.520   4.460
12872TIP3    H138557   4.357   1.543   4.531
12872TIP3    H238558   4.360   1.486   4.391
12873TIP3   OH238559   7.369   2.265   4.791
12873TIP3    H138560   7.318   2.196   4.749
12873TIP3    H238561   7.385   2.329   4.722
12874TIP3   OH238562   0.665   0.669   0.784
12874TIP3    H138563   0.752   0.659   0.824
12874TIP3    H238564   0.664   0.605   0.713
12875TIP3   OH238565   7.438   0.429   4.309
12875TIP3    H138566   7.348   0.408   4.284
12875TIP3    H238567   7.454   0.375   4.386
12876TIP3   OH238568   4.511   2.529   6.023
12876TIP3    H138569   4.486   2.437   6.031
12876TIP3    H238570   4.596   2.528   5.979
12877TIP3   OH238571   0.537   6.324   5.437
12877TIP3    H138572   0.559   6.233   5.456
12877TIP3    H238573   0.477   6.349   5.507
12878TIP3   OH238574   6.631   2.751   0.861
12878TIP3    H138575   6.594   2.673   0.902
12878TIP3    H238576   6.705   2.775   0.917
12879TIP3   OH238577   4.722   3.378   4.248
12879TIP3    H138578   4.703   3.419   4.332
12879TIP3    H238579   4.702   3.446   4.183
12880TIP3   OH238580   7.912   5.638   3.099
12880TIP3    H138581   7.888   5.567   3.159
12880TIP3    H238582   7.831   5.657   3.051
12881TIP3   OH238583   7.206   5.810   6.633
12881TIP3    H138584   7.197   5.736   6.694
12881TIP3    H238585   7.300   5.820   6.622
12882TIP3   OH238586   6.479   0.634   2.040
12882TIP3    H138587   6.557   0.578   2.041
12882TIP3    H238588   6.489   0.691   2.117
12883TIP3   OH238589   3.215   0.042   3.797
12883TIP3    H138590   3.229   0.137   3.789
12883TIP3    H238591   3.286   0.012   3.854
12884TIP3   OH238592   3.040   2.057   4.710
12884TIP3    H138593   3.058   1.999   4.636
12884TIP3    H238594   3.068   2.007   4.787
12885TIP3   OH238595   1.009   7.751   0.141
12885TIP3    H138596   1.072   7.686   0.110
12885TIP3    H238597   0.939   7.700   0.181
12886TIP3   OH238598   7.731   7.341   3.429
12886TIP3    H138599   7.644   7.328   3.390
12886TIP3    H238600   7.764   7.421   3.389
12887TIP3   OH238601   5.651   2.502   6.818
12887TIP3    H138602   5.668   2.421   6.769
12887TIP3    H238603   5.647   2.570   6.751
12888TIP3   OH238604   1.185   2.318   4.546
12888TIP3    H138605   1.115   2.262   4.511
12888TIP3    H238606   1.176   2.311   4.641
12889TIP3   OH238607   7.951   4.324   4.075
12889TIP3    H138608   7.908   4.410   4.072
12889TIP3    H238609   7.988   4.314   3.987
12890TIP3   OH238610   4.431   5.642   6.482
12890TIP3    H138611   4.337   5.651   6.468
12890TIP3    H238612   4.467   5.729   6.460
12891TIP3   OH238613   4.201   1.228   3.536
12891TIP3    H138614   4.107   1.217   3.529
12891TIP3    H238615   4.221   1.303   3.480
12892TIP3   OH238616   1.855   5.734   0.204
12892TIP3    H138617   1.787   5.766   0.145
12892TIP3    H238618   1.928   5.711   0.146
12893TIP3   OH238619   4.630   1.444   4.668
12893TIP3    H138620   4.717   1.472   4.640
12893TIP3    H238621   4.581   1.526   4.679
12894TIP3   OH238622   1.735   0.942   6.067
12894TIP3    H138623   1.795   0.942   6.142
12894TIP3    H238624   1.661   0.889   6.097
12895TIP3   OH238625   7.571   5.960   3.527
12895TIP3    H138626   7.626   5.946   3.603
12895TIP3    H238627   7.625   6.012   3.467
12896TIP3   OH238628   0.291   3.558   5.881
12896TIP3    H138629   0.382   3.558   5.854
12896TIP3    H238630   0.248   3.623   5.825
12897TIP3   OH238631   5.064   5.024   5.521
12897TIP3    H138632   4.989   4.972   5.551
12897TIP3    H238633   5.047   5.111   5.556
12898TIP3   OH238634   2.958   3.712   3.931
12898TIP3    H138635   2.973   3.806   3.925
12898TIP3    H238636   3.005   3.685   4.010
12899TIP3   OH238637   0.100   0.658   0.306
12899TIP3    H138638   0.054   0.609   0.238
12899TIP3    H238639   0.032   0.715   0.343
12900TIP3   OH238640   0.131   6.544   0.482
12900TIP3    H138641   0.163   6.562   0.394
12900TIP3    H238642   0.142   6.449   0.493
12901TIP3   OH238643   0.704   6.837   3.016
12901TIP3    H138644   0.696   6.753   2.971
12901TIP3    H238645   0.629   6.841   3.075
12902TIP3   OH238646   1.224   5.284   5.388
12902TIP3    H138647   1.277   5.309   5.464
12902TIP3    H238648   1.289   5.267   5.319
12903TIP3   OH238649   5.816   7.035   3.285
12903TIP3    H138650   5.865   7.025   3.367
12903TIP3    H238651   5.858   6.972   3.225
12904TIP3   OH238652   5.533   0.369   1.488
12904TIP3    H138653   5.576   0.329   1.413
12904TIP3    H238654   5.598   0.429   1.525
12905TIP3   OH238655   6.553   3.434   0.694
12905TIP3    H138656   6.586   3.517   0.728
12905TIP3    H238657   6.558   3.443   0.599
12906TIP3   OH238658   7.973   7.238   3.557
12906TIP3    H138659   7.898   7.281   3.516
12906TIP3    H238660   8.012   7.185   3.487
12907TIP3   OH238661   0.654   0.466   3.991
12907TIP3    H138662   0.602   0.398   4.034
12907TIP3    H238663   0.687   0.520   4.062
12908TIP3   OH238664   7.409   5.327   5.215
12908TIP3    H138665   7.404   5.276   5.296
12908TIP3    H238666   7.334   5.386   5.219
12909TIP3   OH238667   3.147   5.331   4.065
12909TIP3    H138668   3.108   5.376   4.141
12909TIP3    H238669   3.180   5.402   4.011
12910TIP3   OH238670   4.662   1.061   5.059
12910TIP3    H138671   4.625   1.137   5.015
12910TIP3    H238672   4.610   1.052   5.138
12911TIP3   OH238673   5.427   3.894   0.584
12911TIP3    H138674   5.498   3.882   0.521
12911TIP3    H238675   5.410   3.989   0.582
12912TIP3   OH238676   7.306   1.271   5.611
12912TIP3    H138677   7.296   1.190   5.561
12912TIP3    H238678   7.399   1.292   5.605
12913TIP3   OH238679   0.456   5.595   5.908
12913TIP3    H138680   0.385   5.572   5.848
12913TIP3    H238681   0.534   5.598   5.853
12914TIP3   OH238682   3.661   4.039   1.196
12914TIP3    H138683   3.651   4.126   1.235
12914TIP3    H238684   3.587   4.030   1.136
12915TIP3   OH238685   7.794   4.928   4.340
12915TIP3    H138686   7.790   5.023   4.349
12915TIP3    H238687   7.761   4.894   4.423
12916TIP3   OH238688   6.846   6.819   1.808
12916TIP3    H138689   6.779   6.790   1.747
12916TIP3    H238690   6.929   6.803   1.762
12917TIP3   OH238691   5.816   2.208   5.868
12917TIP3    H138692   5.791   2.175   5.955
12917TIP3    H238693   5.749   2.273   5.847
12918TIP3   OH238694   1.121   3.014   6.588
12918TIP3    H138695   1.189   3.079   6.574
12918TIP3    H238696   1.111   2.971   6.503
12919TIP3   OH238697   8.107   7.111   1.538
12919TIP3    H138698   8.100   7.026   1.493
12919TIP3    H238699   8.101   7.090   1.631
12920TIP3   OH238700   2.760   0.203   4.247
12920TIP3    H138701   2.848   0.169   4.266
12920TIP3    H238702   2.702   0.155   4.306
12921TIP3   OH238703   6.181   4.609   6.854
12921TIP3    H138704   6.258   4.554   6.865
12921TIP3    H238705   6.143   4.581   6.771
12922TIP3   OH238706   7.808   4.232   4.278
12922TIP3    H138707   7.856   4.245   4.196
12922TIP3    H238708   7.875   4.208   4.342
12923TIP3   OH238709   1.615   6.227   4.807
12923TIP3    H138710   1.672   6.156   4.778
12923TIP3    H238711   1.671   6.304   4.812
12924TIP3   OH238712   3.768   2.183   4.801
12924TIP3    H138713   3.761   2.238   4.723
12924TIP3    H238714   3.677   2.161   4.822
12925TIP3   OH238715   2.622   1.705   2.315
12925TIP3    H138716   2.537   1.660   2.321
12925TIP3    H238717   2.681   1.652   2.369
12926TIP3   OH238718   2.551   3.408   3.698
12926TIP3    H138719   2.509   3.378   3.779
12926TIP3    H238720   2.570   3.328   3.649
12927TIP3   OH238721   6.102   7.419   6.398
12927TIP3    H138722   6.072   7.429   6.308
12927TIP3    H238723   6.025   7.389   6.446
12928TIP3   OH238724   3.791   5.794   1.658
12928TIP3    H138725   3.878   5.772   1.625
12928TIP3    H238726   3.792   5.889   1.669
12929TIP3   OH238727   3.822   6.455   3.566
12929TIP3    H138728   3.814   6.382   3.627
12929TIP3    H238729   3.738   6.455   3.518
12930TIP3   OH238730   5.067   6.303   5.417
12930TIP3    H138731   5.066   6.355   5.337
12930TIP3    H238732   5.144   6.246   5.408
12931TIP3   OH238733   7.601   5.006   1.961
12931TIP3    H138734   7.521   5.041   1.923
12931TIP3    H238735   7.605   5.045   2.048
12932TIP3   OH238736   8.017   4.339   0.763
12932TIP3    H138737   8.084   4.399   0.728
12932TIP3    H238738   7.974   4.390   0.832
12933TIP3   OH238739   2.424   4.620   1.137
12933TIP3    H138740   2.331   4.626   1.116
12933TIP3    H238741   2.445   4.704   1.178
12934TIP3   OH238742   8.326   3.542   4.740
12934TIP3    H138743   8.262   3.517   4.807
12934TIP3    H238744   8.406   3.497   4.766
12935TIP3   OH238745   2.527   4.429   1.914
12935TIP3    H138746   2.487   4.376   1.984
12935TIP3    H238747   2.464   4.499   1.898
12936TIP3   OH238748   3.607   4.576   3.286
12936TIP3    H138749   3.686   4.630   3.273
12936TIP3    H238750   3.632   4.489   3.253
12937TIP3   OH238751   6.303   6.454   5.641
12937TIP3    H138752   6.248   6.376   5.642
12937TIP3    H238753   6.253   6.519   5.691
12938TIP3   OH238754   6.454   6.831   5.032
12938TIP3    H138755   6.440   6.847   4.939
12938TIP3    H238756   6.548   6.839   5.044
12939TIP3   OH238757   6.300   7.287   5.930
12939TIP3    H138758   6.295   7.193   5.913
12939TIP3    H238759   6.236   7.326   5.871
12940TIP3   OH238760   2.119   7.091   4.232
12940TIP3    H138761   2.194   7.046   4.193
12940TIP3    H238762   2.057   7.100   4.159
12941TIP3   OH238763   0.531   0.358   1.163
12941TIP3    H138764   0.536   0.449   1.132
12941TIP3    H238765   0.468   0.316   1.104
12942TIP3   OH238766   3.392   7.573   0.463
12942TIP3    H138767   3.477   7.607   0.436
12942TIP3    H238768   3.329   7.612   0.402
12943TIP3   OH238769   3.609   6.898   0.571
12943TIP3    H138770   3.603   6.966   0.504
12943TIP3    H238771   3.544   6.833   0.545
12944TIP3   OH238772   7.052   5.108   2.172
12944TIP3    H138773   6.989   5.073   2.109
12944TIP3    H238774   7.132   5.058   2.156
12945TIP3   OH238775   6.313   4.033   4.632
12945TIP3    H138776   6.376   4.029   4.560
12945TIP3    H238777   6.362   4.069   4.705
12946TIP3   OH238778   0.995   2.307   6.797
12946TIP3    H138779   1.045   2.227   6.783
12946TIP3    H238780   0.914   2.278   6.840
12947TIP3   OH238781   8.041   3.483   0.376
12947TIP3    H138782   8.072   3.418   0.439
12947TIP3    H238783   7.945   3.482   0.385
12948TIP3   OH238784   7.642   1.592   0.459
12948TIP3    H138785   7.556   1.555   0.438
12948TIP3    H238786   7.634   1.685   0.435
12949TIP3   OH238787   1.133   1.505   4.396
12949TIP3    H138788   1.142   1.442   4.324
12949TIP3    H238789   1.122   1.590   4.354
12950TIP3   OH238790   1.775   6.256   3.370
12950TIP3    H138791   1.726   6.203   3.433
12950TIP3    H238792   1.837   6.305   3.423
12951TIP3   OH238793   6.186   5.353   0.850
12951TIP3    H138794   6.215   5.262   0.858
12951TIP3    H238795   6.136   5.370   0.930
12952TIP3   OH238796   3.292   6.520   1.213
12952TIP3    H138797   3.215   6.530   1.268
12952TIP3    H238798   3.284   6.432   1.176
12953TIP3   OH238799   7.228   7.363   1.239
12953TIP3    H138800   7.294   7.329   1.179
12953TIP3    H238801   7.151   7.380   1.184
12954TIP3   OH238802   2.540   2.442   0.873
12954TIP3    H138803   2.592   2.444   0.953
12954TIP3    H238804   2.515   2.534   0.859
12955TIP3   OH238805   2.669   1.631   3.240
12955TIP3    H138806   2.694   1.714   3.199
12955TIP3    H238807   2.747   1.603   3.288
12956TIP3   OH238808   3.051   0.278   1.770
12956TIP3    H138809   3.092   0.297   1.854
12956TIP3    H238810   3.093   0.337   1.708
12957TIP3   OH238811   1.354   7.156   0.577
12957TIP3    H138812   1.264   7.184   0.593
12957TIP3    H238813   1.348   7.099   0.500
12958TIP3   OH238814   5.238   2.552   4.665
12958TIP3    H138815   5.175   2.622   4.686
12958TIP3    H238816   5.317   2.599   4.638
12959TIP3   OH238817   6.981   0.241   3.997
12959TIP3    H138818   6.915   0.266   4.061
12959TIP3    H238819   6.946   0.162   3.956
12960TIP3   OH238820   2.802   6.456   2.467
12960TIP3    H138821   2.816   6.424   2.378
12960TIP3    H238822   2.707   6.457   2.478
12961TIP3   OH238823   5.862   1.576   3.724
12961TIP3    H138824   5.844   1.485   3.703
12961TIP3    H238825   5.853   1.582   3.819
12962TIP3   OH238826   5.726   3.839   3.687
12962TIP3    H138827   5.765   3.905   3.744
12962TIP3    H238828   5.753   3.864   3.599
12963TIP3   OH238829   6.925   1.093   4.485
12963TIP3    H138830   6.928   1.188   4.483
12963TIP3    H238831   7.013   1.067   4.512
12964TIP3   OH238832   4.014   1.757   2.577
12964TIP3    H138833   3.936   1.764   2.523
12964TIP3    H238834   4.064   1.836   2.558
12965TIP3   OH238835   4.092   7.343   3.192
12965TIP3    H138836   4.069   7.261   3.149
12965TIP3    H238837   4.055   7.335   3.280
12966TIP3   OH238838   7.545   2.246   4.284
12966TIP3    H138839   7.636   2.233   4.310
12966TIP3    H238840   7.536   2.196   4.203
12967TIP3   OH238841   1.886   1.501   0.093
12967TIP3    H138842   1.885   1.528   0.185
12967TIP3    H238843   1.974   1.525   0.062
12968TIP3   OH238844   4.115   6.958   6.221
12968TIP3    H138845   4.192   6.907   6.197
12968TIP3    H238846   4.042   6.897   6.214
12969TIP3   OH238847   1.423   1.349   5.966
12969TIP3    H138848   1.333   1.328   5.941
12969TIP3    H238849   1.440   1.435   5.926
12970TIP3   OH238850   3.077   0.210   3.449
12970TIP3    H138851   3.106   0.201   3.358
12970TIP3    H238852   3.158   0.223   3.498
12971TIP3   OH238853   0.933   3.451   5.685
12971TIP3    H138854   1.010   3.394   5.690
12971TIP3    H238855   0.860   3.392   5.669
12972TIP3   OH238856   3.801   6.857   3.625
12972TIP3    H138857   3.743   6.930   3.605
12972TIP3    H238858   3.776   6.829   3.713
12973TIP3   OH238859   8.184   0.306   4.475
12973TIP3    H138860   8.092   0.332   4.480
12973TIP3    H238861   8.217   0.317   4.564
12974TIP3   OH238862   6.421   5.138   4.958
12974TIP3    H138863   6.502   5.094   4.931
12974TIP3    H238864   6.439   5.231   4.946
12975TIP3   OH238865   8.131   3.508   3.276
12975TIP3    H138866   8.142   3.596   3.312
12975TIP3    H238867   8.036   3.494   3.274
12976TIP3   OH238868   3.164   2.290   5.254
12976TIP3    H138869   3.256   2.266   5.237
12976TIP3    H238870   3.145   2.255   5.341
12977TIP3   OH238871   1.149   7.905   2.434
12977TIP3    H138872   1.113   7.819   2.458
12977TIP3    H238873   1.090   7.968   2.477
12978TIP3   OH238874   5.742   6.894   0.172
12978TIP3    H138875   5.704   6.931   0.252
12978TIP3    H238876   5.728   6.799   0.180
12979TIP3   OH238877   6.809   3.144  -0.022
12979TIP3    H138878   6.877   3.078  -0.014
12979TIP3    H238879   6.849   3.224   0.013
12980TIP3   OH238880   4.157   1.600   6.387
12980TIP3    H138881   4.213   1.656   6.334
12980TIP3    H238882   4.210   1.577   6.463
12981TIP3   OH238883   5.732   7.752   5.153
12981TIP3    H138884   5.646   7.791   5.167
12981TIP3    H238885   5.717   7.686   5.085
12982TIP3   OH238886   2.036   6.586   4.686
12982TIP3    H138887   2.012   6.566   4.776
12982TIP3    H238888   2.071   6.675   4.689
12983TIP3   OH238889   0.549   6.971   2.758
12983TIP3    H138890   0.627   6.921   2.783
12983TIP3    H238891   0.538   6.953   2.665
12984TIP3   OH238892   6.403   6.693   3.537
12984TIP3    H138893   6.438   6.665   3.621
12984TIP3    H238894   6.412   6.617   3.480
12985TIP3   OH238895   0.194   5.653   3.697
12985TIP3    H138896   0.171   5.594   3.768
12985TIP3    H238897   0.210   5.595   3.622
12986TIP3   OH238898   5.084   1.326   3.202
12986TIP3    H138899   5.150   1.269   3.244
12986TIP3    H238900   5.061   1.280   3.121
12987TIP3   OH238901   4.606   4.593   6.583
12987TIP3    H138902   4.536   4.594   6.648
12987TIP3    H238903   4.658   4.671   6.602
12988TIP3   OH238904   5.258   0.643   1.558
12988TIP3    H138905   5.250   0.738   1.548
12988TIP3    H238906   5.304   0.615   1.479
12989TIP3   OH238907   3.999   7.751   5.603
12989TIP3    H138908   3.997   7.706   5.688
12989TIP3    H238909   3.983   7.843   5.624
12990TIP3   OH238910   5.307   5.448   4.203
12990TIP3    H138911   5.350   5.369   4.169
12990TIP3    H238912   5.379   5.505   4.229
12991TIP3   OH238913   3.954   1.894   4.750
12991TIP3    H138914   3.928   1.881   4.842
12991TIP3    H238915   4.028   1.954   4.754
12992TIP3   OH238916   1.484   2.284   3.450
12992TIP3    H138917   1.487   2.197   3.489
12992TIP3    H238918   1.390   2.303   3.444
12993TIP3   OH238919   5.791   3.233   4.374
12993TIP3    H138920   5.860   3.169   4.354
12993TIP3    H238921   5.737   3.190   4.440
12994TIP3   OH238922   4.100   7.267   2.892
12994TIP3    H138923   4.141   7.182   2.880
12994TIP3    H238924   4.007   7.248   2.903
12995TIP3   OH238925   3.756   2.809   2.945
12995TIP3    H138926   3.847   2.800   2.975
12995TIP3    H238927   3.764   2.849   2.859
12996TIP3   OH238928   7.472   3.402   4.374
12996TIP3    H138929   7.539   3.385   4.439
12996TIP3    H238930   7.496   3.348   4.299
12997TIP3   OH238931   0.825   0.485   3.669
12997TIP3    H138932   0.828   0.543   3.744
12997TIP3    H238933   0.851   0.399   3.704
12998TIP3   OH238934   4.054   2.075   6.015
12998TIP3    H138935   4.056   2.129   6.094
12998TIP3    H238936   4.055   2.138   5.943
12999TIP3   OH238937   5.029   5.943   6.369
12999TIP3    H138938   4.969   6.017   6.364
12999TIP3    H238939   5.063   5.934   6.280
13000TIP3   OH238940   5.200   4.274   5.003
13000TIP3    H138941   5.257   4.309   4.934
13000TIP3    H238942   5.259   4.253   5.075
13001TIP3   OH238943   0.890   7.848   4.588
13001TIP3    H138944   0.975   7.859   4.547
13001TIP3    H238945   0.827   7.885   4.526
13002TIP3   OH238946   1.991   5.008   3.345
13002TIP3    H138947   1.910   5.024   3.297
13002TIP3    H238948   1.966   5.013   3.437
13003TIP3   OH238949   4.497   4.424   6.159
13003TIP3    H138950   4.565   4.481   6.194
13003TIP3    H238951   4.531   4.335   6.170
13004TIP3   OH238952   7.367   2.062   6.164
13004TIP3    H138953   7.390   2.076   6.073
13004TIP3    H238954   7.307   2.134   6.185
13005TIP3   OH238955   6.330   4.485   4.564
13005TIP3    H138956   6.412   4.524   4.535
13005TIP3    H238957   6.265   4.555   4.554
13006TIP3   OH238958   7.122   0.682   1.892
13006TIP3    H138959   7.200   0.630   1.875
13006TIP3    H238960   7.153   0.773   1.893
13007TIP3   OH238961   6.689   4.920   2.502
13007TIP3    H138962   6.624   4.876   2.447
13007TIP3    H238963   6.755   4.953   2.440
13008TIP3   OH238964   3.010   6.646   0.101
13008TIP3    H138965   3.094   6.678   0.067
13008TIP3    H238966   2.945   6.678   0.039
13009TIP3   OH238967   2.877   6.234   0.074
13009TIP3    H138968   2.828   6.175   0.132
13009TIP3    H238969   2.963   6.242   0.116
13010TIP3   OH238970   1.193   0.966   0.888
13010TIP3    H138971   1.100   0.946   0.898
13010TIP3    H238972   1.198   1.018   0.808
13011TIP3   OH238973   6.085   1.170   0.508
13011TIP3    H138974   6.018   1.202   0.448
13011TIP3    H238975   6.150   1.130   0.451
13012TIP3   OH238976   2.355   0.914   1.336
13012TIP3    H138977   2.369   0.834   1.386
13012TIP3    H238978   2.286   0.891   1.273
13013TIP3   OH238979   0.391   0.760   2.925
13013TIP3    H138980   0.444   0.831   2.962
13013TIP3    H238981   0.452   0.686   2.918
13014TIP3   OH238982   6.572   1.805   6.679
13014TIP3    H138983   6.592   1.727   6.730
13014TIP3    H238984   6.632   1.800   6.604
13015TIP3   OH238985   0.384   3.590   2.387
13015TIP3    H138986   0.381   3.496   2.405
13015TIP3    H238987   0.401   3.596   2.293
13016TIP3   OH238988   1.138   2.874   1.749
13016TIP3    H138989   1.221   2.900   1.709
13016TIP3    H238990   1.071   2.907   1.689
13017TIP3   OH238991   4.856   7.306   1.448
13017TIP3    H138992   4.891   7.231   1.401
13017TIP3    H238993   4.875   7.288   1.540
13018TIP3   OH238994   6.846   2.839   2.104
13018TIP3    H138995   6.873   2.931   2.104
13018TIP3    H238996   6.908   2.796   2.163
13019TIP3   OH238997   5.293   6.369   0.025
13019TIP3    H138998   5.211   6.373  -0.025
13019TIP3    H238999   5.265   6.357   0.116
13020TIP3   OH239000   4.527   4.678   3.784
13020TIP3    H139001   4.557   4.647   3.699
13020TIP3    H239002   4.498   4.768   3.768
13021TIP3   OH239003   1.607   3.285   2.540
13021TIP3    H139004   1.538   3.345   2.510
13021TIP3    H239005   1.573   3.248   2.621
13022TIP3   OH239006   4.360   2.139   1.392
13022TIP3    H139007   4.302   2.208   1.423
13022TIP3    H239008   4.436   2.185   1.356
13023TIP3   OH239009   2.941   7.610   1.547
13023TIP3    H139010   2.912   7.520   1.537
13023TIP3    H239011   2.876   7.650   1.606
13024TIP3   OH239012   1.057   0.175   5.338
13024TIP3    H139013   1.065   0.251   5.395
13024TIP3    H239014   1.088   0.206   5.253
13025TIP3   OH239015   6.364   1.015   5.800
13025TIP3    H139016   6.432   0.973   5.748
13025TIP3    H239017   6.333   0.946   5.859
13026TIP3   OH239018   0.978   3.678   6.284
13026TIP3    H139019   1.062   3.656   6.244
13026TIP3    H239020   1.001   3.716   6.369
13027TIP3   OH239021   0.217   7.095   2.188
13027TIP3    H139022   0.163   7.024   2.153
13027TIP3    H239023   0.173   7.121   2.269
13028TIP3   OH239024   6.193   6.255   4.983
13028TIP3    H139025   6.205   6.288   4.894
13028TIP3    H239026   6.172   6.162   4.971
13029TIP3   OH239027   4.555   3.994   5.953
13029TIP3    H139028   4.486   4.045   5.911
13029TIP3    H239029   4.609   4.060   5.998
13030TIP3   OH239030   1.258   7.033   5.566
13030TIP3    H139031   1.315   7.072   5.500
13030TIP3    H239032   1.183   7.092   5.572
13031TIP3   OH239033   5.525   2.242   6.272
13031TIP3    H139034   5.483   2.292   6.341
13031TIP3    H239035   5.619   2.253   6.288
13032TIP3   OH239036   8.267   1.968   3.984
13032TIP3    H139037   8.267   1.892   3.926
13032TIP3    H239038   8.301   1.935   4.067
13033TIP3   OH239039   4.281   0.824   0.089
13033TIP3    H139040   4.282   0.754   0.155
13033TIP3    H239041   4.372   0.833   0.062
13034TIP3   OH239042   5.902   7.601   0.333
13034TIP3    H139043   5.931   7.608   0.242
13034TIP3    H239044   5.961   7.535   0.370
13035TIP3   OH239045   2.923   6.529   1.590
13035TIP3    H139046   2.974   6.604   1.562
13035TIP3    H239047   2.832   6.557   1.581
13036TIP3   OH239048   4.705   7.337   0.323
13036TIP3    H139049   4.610   7.328   0.328
13036TIP3    H239050   4.731   7.355   0.413
13037TIP3   OH239051   7.716   1.296   1.529
13037TIP3    H139052   7.750   1.207   1.524
13037TIP3    H239053   7.794   1.351   1.538
13038TIP3   OH239054   7.749   0.936   6.180
13038TIP3    H139055   7.844   0.934   6.170
13038TIP3    H239056   7.733   1.010   6.239
13039TIP3   OH239057   7.362   1.321   1.881
13039TIP3    H139058   7.381   1.375   1.958
13039TIP3    H239059   7.437   1.335   1.823
13040TIP3   OH239060   1.634   0.259   3.637
13040TIP3    H139061   1.571   0.331   3.639
13040TIP3    H239062   1.616   0.213   3.555
13041TIP3   OH239063   7.743   3.792   4.763
13041TIP3    H139064   7.833   3.759   4.774
13041TIP3    H239065   7.722   3.775   4.671
13042TIP3   OH239066   7.789   4.393   4.896
13042TIP3    H139067   7.835   4.367   4.976
13042TIP3    H239068   7.780   4.488   4.903
13043TIP3   OH239069   7.712   5.085   4.961
13043TIP3    H139070   7.789   5.141   4.969
13043TIP3    H239071   7.747   4.997   4.950
13044TIP3   OH239072  -0.006   2.525   5.154
13044TIP3    H139073  -0.013   2.576   5.074
13044TIP3    H239074   0.016   2.437   5.125
13045TIP3   OH239075   4.938   3.930   2.955
13045TIP3    H139076   4.958   3.984   3.032
13045TIP3    H239077   4.866   3.874   2.983
13046TIP3   OH239078   4.159   6.128   5.716
13046TIP3    H139079   4.196   6.216   5.723
13046TIP3    H239080   4.235   6.070   5.719
13047TIP3   OH239081   2.156   7.505   3.535
13047TIP3    H139082   2.204   7.586   3.521
13047TIP3    H239083   2.212   7.453   3.592
13048TIP3   OH239084   4.074   1.149   5.354
13048TIP3    H139085   3.980   1.158   5.371
13048TIP3    H239086   4.112   1.136   5.441
13049TIP3   OH239087   0.345   7.287   0.363
13049TIP3    H139088   0.418   7.344   0.387
13049TIP3    H239089   0.339   7.295   0.268
13050TIP3   OH239090   7.608   2.956   4.535
13050TIP3    H139091   7.677   2.900   4.500
13050TIP3    H239092   7.627   2.960   4.629
13051TIP3   OH239093   5.564   0.319   2.212
13051TIP3    H139094   5.490   0.363   2.254
13051TIP3    H239095   5.569   0.358   2.125
13052TIP3   OH239096   7.400   3.595   6.090
13052TIP3    H139097   7.325   3.556   6.045
13052TIP3    H239098   7.363   3.635   6.169
13053TIP3   OH239099   2.141   2.110   5.158
13053TIP3    H139100   2.180   2.032   5.119
13053TIP3    H239101   2.198   2.182   5.130
13054TIP3   OH239102   0.665   1.384   6.189
13054TIP3    H139103   0.739   1.442   6.209
13054TIP3    H239104   0.641   1.407   6.099
13055TIP3   OH239105   6.215   5.595   6.164
13055TIP3    H139106   6.240   5.634   6.080
13055TIP3    H239107   6.257   5.651   6.229
13056TIP3   OH239108   4.062   5.730   1.828
13056TIP3    H139109   4.038   5.822   1.836
13056TIP3    H239110   3.982   5.681   1.846
13057TIP3   OH239111   2.385   1.607   2.346
13057TIP3    H139112   2.369   1.561   2.429
13057TIP3    H239113   2.352   1.548   2.279
13058TIP3   OH239114   3.310   2.062   4.533
13058TIP3    H139115   3.233   2.081   4.479
13058TIP3    H239116   3.281   1.993   4.592
13059TIP3   OH239117   2.035   5.002   2.411
13059TIP3    H139118   2.004   4.934   2.472
13059TIP3    H239119   2.015   4.966   2.324
13060TIP3   OH239120  -0.007   2.082   4.568
13060TIP3    H139121   0.054   2.140   4.613
13060TIP3    H239122   0.035   1.996   4.571
13061TIP3   OH239123   1.356   6.007   5.574
13061TIP3    H139124   1.403   5.924   5.570
13061TIP3    H239125   1.267   5.983   5.600
13062TIP3   OH239126   1.069   3.262   3.257
13062TIP3    H139127   1.013   3.209   3.200
13062TIP3    H239128   1.091   3.339   3.206
13063TIP3   OH239129   4.552   3.958   2.795
13063TIP3    H139130   4.564   3.908   2.876
13063TIP3    H239131   4.469   4.004   2.808
13064TIP3   OH239132   5.835   1.928   4.688
13064TIP3    H139133   5.783   1.864   4.737
13064TIP3    H239134   5.772   1.968   4.628
13065TIP3   OH239135   3.562   7.030   4.316
13065TIP3    H139136   3.472   7.062   4.303
13065TIP3    H239137   3.555   6.968   4.387
13066TIP3   OH239138   0.956   7.584   4.376
13066TIP3    H139139   0.886   7.627   4.327
13066TIP3    H239140   0.911   7.526   4.437
13067TIP3   OH239141   5.735   3.477   1.148
13067TIP3    H139142   5.783   3.465   1.066
13067TIP3    H239143   5.803   3.498   1.212
13068TIP3   OH239144   7.212   6.667   4.640
13068TIP3    H139145   7.198   6.663   4.545
13068TIP3    H239146   7.243   6.579   4.663
13069TIP3   OH239147   5.953   5.950   4.700
13069TIP3    H139148   5.894   6.025   4.705
13069TIP3    H239149   6.039   5.988   4.680
13070TIP3   OH239150   4.345   3.663   5.913
13070TIP3    H139151   4.323   3.755   5.923
13070TIP3    H239152   4.427   3.652   5.963
13071TIP3   OH239153   7.873   4.645   1.889
13071TIP3    H139154   7.888   4.676   1.979
13071TIP3    H239155   7.927   4.702   1.835
13072TIP3   OH239156   0.454   3.240   4.324
13072TIP3    H139157   0.425   3.238   4.233
13072TIP3    H239158   0.467   3.148   4.347
13073TIP3   OH239159   1.304   3.638   5.492
13073TIP3    H139160   1.251   3.686   5.429
13073TIP3    H239161   1.300   3.547   5.463
13074TIP3   OH239162   3.828   2.076   5.071
13074TIP3    H139163   3.907   2.023   5.080
13074TIP3    H239164   3.839   2.121   4.987
13075TIP3   OH239165   2.148   7.565   5.528
13075TIP3    H139166   2.171   7.496   5.465
13075TIP3    H239167   2.069   7.604   5.493
13076TIP3   OH239168   0.562   3.614   5.785
13076TIP3    H139169   0.562   3.525   5.821
13076TIP3    H239170   0.644   3.653   5.815
13077TIP3   OH239171   1.301   4.098   4.544
13077TIP3    H139172   1.384   4.069   4.506
13077TIP3    H239173   1.285   4.184   4.504
13078TIP3   OH239174   2.886   5.014   6.582
13078TIP3    H139175   2.811   4.999   6.640
13078TIP3    H239176   2.865   4.966   6.502
13079TIP3   OH239177   3.796   4.245   2.577
13079TIP3    H139178   3.773   4.217   2.666
13079TIP3    H239179   3.878   4.198   2.559
13080TIP3   OH239180   8.395   1.120   1.136
13080TIP3    H139181   8.363   1.031   1.123
13080TIP3    H239182   8.381   1.164   1.052
13081TIP3   OH239183   6.692   0.080   5.684
13081TIP3    H139184   6.680   0.152   5.746
13081TIP3    H239185   6.641   0.107   5.607
13082TIP3   OH239186   4.020   2.785   4.984
13082TIP3    H139187   4.112   2.783   5.012
13082TIP3    H239188   4.000   2.877   4.973
13083TIP3   OH239189   6.271   1.537   0.009
13083TIP3    H139190   6.238   1.485  -0.064
13083TIP3    H239191   6.203   1.604   0.022
13084TIP3   OH239192   4.796   1.412   5.338
13084TIP3    H139193   4.710   1.454   5.347
13084TIP3    H239194   4.841   1.434   5.419
13085TIP3   OH239195   1.065   0.172   1.323
13085TIP3    H139196   1.107   0.253   1.294
13085TIP3    H239197   0.979   0.173   1.280
13086TIP3   OH239198   6.592   6.087   5.262
13086TIP3    H139199   6.538   6.116   5.188
13086TIP3    H239200   6.600   6.164   5.318
13087TIP3   OH239201   2.842   6.291   1.857
13087TIP3    H139202   2.907   6.283   1.787
13087TIP3    H239203   2.776   6.351   1.822
13088TIP3   OH239204   6.616   4.623   1.575
13088TIP3    H139205   6.527   4.657   1.563
13088TIP3    H239206   6.626   4.558   1.506
13089TIP3   OH239207   5.724   6.978   2.543
13089TIP3    H139208   5.741   6.907   2.481
13089TIP3    H239209   5.804   6.984   2.595
13090TIP3   OH239210   5.851   4.524   6.330
13090TIP3    H139211   5.837   4.431   6.350
13090TIP3    H239212   5.770   4.566   6.358
13091TIP3   OH239213   7.290   5.857   2.897
13091TIP3    H139214   7.209   5.894   2.934
13091TIP3    H239215   7.287   5.764   2.923
13092TIP3   OH239216   7.426   2.464   5.202
13092TIP3    H139217   7.434   2.381   5.154
13092TIP3    H239218   7.493   2.460   5.270
13093TIP3   OH239219   5.354   6.641   5.189
13093TIP3    H139220   5.292   6.672   5.122
13093TIP3    H239221   5.298   6.606   5.259
13094TIP3   OH239222   2.030   1.291   0.369
13094TIP3    H139223   2.006   1.241   0.292
13094TIP3    H239224   1.952   1.289   0.424
13095TIP3   OH239225   7.383   0.309   6.342
13095TIP3    H139226   7.449   0.374   6.317
13095TIP3    H239227   7.430   0.226   6.344
13096TIP3   OH239228   0.256   5.105   5.798
13096TIP3    H139229   0.311   5.030   5.776
13096TIP3    H239230   0.173   5.066   5.827
13097TIP3   OH239231   5.085   7.812   5.183
13097TIP3    H139232   5.083   7.904   5.211
13097TIP3    H239233   5.178   7.791   5.178
13098TIP3   OH239234  -0.023   5.275   6.195
13098TIP3    H139235   0.060   5.290   6.150
13098TIP3    H239236   0.001   5.233   6.277
13099TIP3   OH239237   6.456   5.538   3.425
13099TIP3    H139238   6.542   5.496   3.425
13099TIP3    H239239   6.398   5.474   3.383
13100TIP3   OH239240   1.798   0.311   0.264
13100TIP3    H139241   1.770   0.339   0.176
13100TIP3    H239242   1.893   0.314   0.260
13101TIP3   OH239243   1.271   0.495   0.514
13101TIP3    H139244   1.271   0.474   0.421
13101TIP3    H239245   1.309   0.583   0.518
13102TIP3   OH239246   3.657   4.848   5.442
13102TIP3    H139247   3.737   4.828   5.393
13102TIP3    H239248   3.631   4.766   5.483
13103TIP3   OH239249   7.164   0.740   3.418
13103TIP3    H139250   7.208   0.712   3.338
13103TIP3    H239251   7.116   0.663   3.448
13104TIP3   OH239252   3.228   0.949   5.600
13104TIP3    H139253   3.253   0.978   5.688
13104TIP3    H239254   3.278   0.868   5.587
13105TIP3   OH239255   1.633   4.578   4.769
13105TIP3    H139256   1.718   4.547   4.800
13105TIP3    H239257   1.602   4.511   4.708
13106TIP3   OH239258   7.410   3.375   2.657
13106TIP3    H139259   7.408   3.378   2.562
13106TIP3    H239260   7.450   3.458   2.683
13107TIP3   OH239261   1.927   3.820   3.306
13107TIP3    H139262   2.010   3.778   3.283
13107TIP3    H239263   1.861   3.752   3.290
13108TIP3   OH239264   1.527   5.588   1.982
13108TIP3    H139265   1.602   5.645   1.997
13108TIP3    H239266   1.565   5.504   1.957
13109TIP3   OH239267   7.723   2.623   0.505
13109TIP3    H139268   7.811   2.643   0.474
13109TIP3    H239269   7.735   2.557   0.573
13110TIP3   OH239270   4.584   5.090   0.950
13110TIP3    H139271   4.639   5.017   0.922
13110TIP3    H239272   4.587   5.152   0.877
13111TIP3   OH239273   4.801   7.163   2.535
13111TIP3    H139274   4.731   7.133   2.478
13111TIP3    H239275   4.866   7.200   2.475
13112TIP3   OH239276   8.183   0.253   5.924
13112TIP3    H139277   8.197   0.232   6.016
13112TIP3    H239278   8.121   0.187   5.894
13113TIP3   OH239279   0.693   0.429   4.264
13113TIP3    H139280   0.617   0.383   4.300
13113TIP3    H239281   0.741   0.363   4.215
13114TIP3   OH239282   7.906   0.551   6.121
13114TIP3    H139283   7.827   0.500   6.103
13114TIP3    H239284   7.878   0.642   6.110
13115TIP3   OH239285   1.980   1.398   3.582
13115TIP3    H139286   2.059   1.344   3.584
13115TIP3    H239287   2.009   1.483   3.549
13116TIP3   OH239288   1.657   6.947   6.778
13116TIP3    H139289   1.681   6.860   6.811
13116TIP3    H239290   1.577   6.969   6.824
13117TIP3   OH239291   0.787   4.748   1.390
13117TIP3    H139292   0.858   4.697   1.429
13117TIP3    H239293   0.750   4.690   1.323
13118TIP3   OH239294   1.336   7.025   0.240
13118TIP3    H139295   1.262   6.984   0.286
13118TIP3    H239296   1.379   6.954   0.194
13119TIP3   OH239297   6.022   7.699   3.111
13119TIP3    H139298   5.934   7.668   3.133
13119TIP3    H239299   6.072   7.685   3.192
13120TIP3   OH239300   3.499   0.147   1.103
13120TIP3    H139301   3.504   0.135   1.198
13120TIP3    H239302   3.405   0.147   1.084
13121TIP3   OH239303   3.464   4.309   0.629
13121TIP3    H139304   3.390   4.370   0.628
13121TIP3    H239305   3.424   4.224   0.644
13122TIP3   OH239306   0.346   5.848   0.345
13122TIP3    H139307   0.251   5.847   0.337
13122TIP3    H239308   0.364   5.915   0.412
13123TIP3   OH239309   6.350   6.471   3.107
13123TIP3    H139310   6.422   6.487   3.046
13123TIP3    H239311   6.325   6.380   3.091
13124TIP3   OH239312   5.412   2.477   0.517
13124TIP3    H139313   5.323   2.446   0.501
13124TIP3    H239314   5.410   2.569   0.492
13125TIP3   OH239315   2.851   5.419   2.603
13125TIP3    H139316   2.877   5.481   2.534
13125TIP3    H239317   2.888   5.456   2.683
13126TIP3   OH239318   2.884   3.281   6.045
13126TIP3    H139319   2.951   3.223   6.081
13126TIP3    H239320   2.931   3.341   5.988
13127TIP3   OH239321   1.269   3.616   5.764
13127TIP3    H139322   1.275   3.625   5.669
13127TIP3    H239323   1.218   3.692   5.792
13128TIP3   OH239324   5.531   0.974   2.048
13128TIP3    H139325   5.518   0.879   2.051
13128TIP3    H239326   5.625   0.984   2.032
13129TIP3   OH239327   5.718   7.217   0.483
13129TIP3    H139328   5.810   7.198   0.503
13129TIP3    H239329   5.707   7.309   0.509
13130TIP3   OH239330   0.361   0.708   3.810
13130TIP3    H139331   0.411   0.751   3.880
13130TIP3    H239332   0.424   0.652   3.766
13131TIP3   OH239333   4.069   1.304   5.113
13131TIP3    H139334   4.004   1.248   5.071
13131TIP3    H239335   4.113   1.247   5.176
13132TIP3   OH239336   5.390   3.462   3.380
13132TIP3    H139337   5.355   3.550   3.395
13132TIP3    H239338   5.467   3.476   3.326
13133TIP3   OH239339   2.128   1.639   2.209
13133TIP3    H139340   2.093   1.614   2.295
13133TIP3    H239341   2.183   1.715   2.227
13134TIP3   OH239342   7.964   6.787   1.659
13134TIP3    H139343   7.880   6.832   1.653
13134TIP3    H239344   7.963   6.745   1.745
13135TIP3   OH239345   5.442   1.644   5.538
13135TIP3    H139346   5.514   1.603   5.490
13135TIP3    H239347   5.477   1.656   5.627
13136TIP3   OH239348   6.764   0.039   1.666
13136TIP3    H139349   6.689   0.021   1.609
13136TIP3    H239350   6.736   0.113   1.720
13137TIP3   OH239351   6.226   5.460   6.677
13137TIP3    H139352   6.297   5.524   6.686
13137TIP3    H239353   6.180   5.463   6.761
13138TIP3   OH239354   1.028   5.084   2.123
13138TIP3    H139355   1.054   5.176   2.133
13138TIP3    H239356   1.018   5.072   2.029
13139TIP3   OH239357   7.917   1.205   3.704
13139TIP3    H139358   7.984   1.267   3.674
13139TIP3    H239359   7.962   1.121   3.708
13140TIP3   OH239360   7.301   1.035   2.660
13140TIP3    H139361   7.340   1.065   2.742
13140TIP3    H239362   7.298   1.113   2.605
13141TIP3   OH239363   7.439   0.872   4.901
13141TIP3    H139364   7.402   0.784   4.896
13141TIP3    H239365   7.368   0.929   4.871
13142TIP3   OH239366   3.148   3.244   6.194
13142TIP3    H139367   3.184   3.188   6.125
13142TIP3    H239368   3.193   3.217   6.274
13143TIP3   OH239369   1.188   0.020   5.001
13143TIP3    H139370   1.189   0.115   5.016
13143TIP3    H239371   1.095  -0.003   5.003
13144TIP3   OH239372   2.675   5.950   5.112
13144TIP3    H139373   2.594   5.934   5.063
13144TIP3    H239374   2.717   5.864   5.117
13145TIP3   OH239375   0.935   0.185   0.550
13145TIP3    H139376   1.009   0.135   0.583
13145TIP3    H239377   0.938   0.172   0.455
13146TIP3   OH239378   6.772   7.181   5.454
13146TIP3    H139379   6.804   7.091   5.462
13146TIP3    H239380   6.848   7.235   5.476
13147TIP3   OH239381   7.637   7.683   3.783
13147TIP3    H139382   7.617   7.663   3.875
13147TIP3    H239383   7.607   7.607   3.735
13148TIP3   OH239384   3.792   4.320   5.528
13148TIP3    H139385   3.709   4.360   5.502
13148TIP3    H239386   3.772   4.226   5.534
13149TIP3   OH239387   4.723   4.473   2.775
13149TIP3    H139388   4.694   4.382   2.774
13149TIP3    H239389   4.792   4.475   2.842
13150TIP3   OH239390   0.086   5.830   4.304
13150TIP3    H139391   0.124   5.824   4.392
13150TIP3    H239392  -0.001   5.792   4.313
13151TIP3   OH239393   2.588   5.169   0.163
13151TIP3    H139394   2.500   5.131   0.167
13151TIP3    H239395   2.639   5.104   0.114
13152TIP3   OH239396   1.872   7.029   1.923
13152TIP3    H139397   1.814   6.976   1.869
13152TIP3    H239398   1.924   6.965   1.972
13153TIP3   OH239399   0.578   5.863   6.388
13153TIP3    H139400   0.517   5.925   6.347
13153TIP3    H239401   0.543   5.852   6.477
13154TIP3   OH239402   1.875   3.626   6.685
13154TIP3    H139403   1.951   3.671   6.721
13154TIP3    H239404   1.878   3.645   6.592
13155TIP3   OH239405   0.697   7.659   4.576
13155TIP3    H139406   0.764   7.725   4.590
13155TIP3    H239407   0.618   7.694   4.616
13156TIP3   OH239408   3.388   7.840   4.288
13156TIP3    H139409   3.308   7.814   4.243
13156TIP3    H239410   3.458   7.822   4.226
13157TIP3   OH239411   2.356   7.690   3.184
13157TIP3    H139412   2.261   7.681   3.188
13157TIP3    H239413   2.371   7.753   3.113
13158TIP3   OH239414   7.820   2.389   3.951
13158TIP3    H139415   7.834   2.448   4.025
13158TIP3    H239416   7.837   2.442   3.874
13159TIP3   OH239417   4.635   1.757   5.599
13159TIP3    H139418   4.684   1.748   5.681
13159TIP3    H239419   4.655   1.676   5.551
13160TIP3   OH239420   7.726   5.706   0.146
13160TIP3    H139421   7.691   5.724   0.233
13160TIP3    H239422   7.684   5.770   0.088
13161TIP3   OH239423   3.683   6.735   4.934
13161TIP3    H139424   3.722   6.652   4.961
13161TIP3    H239425   3.595   6.711   4.905
13162TIP3   OH239426   3.513   5.757   6.823
13162TIP3    H139427   3.578   5.757   6.893
13162TIP3    H239428   3.564   5.762   6.742
13163TIP3   OH239429   2.365   0.945   6.189
13163TIP3    H139430   2.455   0.958   6.157
13163TIP3    H239431   2.329   1.034   6.193
13164TIP3   OH239432   1.295   3.000   5.152
13164TIP3    H139433   1.222   2.966   5.100
13164TIP3    H239434   1.318   2.928   5.211
13165TIP3   OH239435   7.822   7.629   0.542
13165TIP3    H139436   7.847   7.709   0.589
13165TIP3    H239437   7.732   7.613   0.568
13166TIP3   OH239438   7.681   4.322   3.498
13166TIP3    H139439   7.684   4.365   3.413
13166TIP3    H239440   7.772   4.318   3.527
13167TIP3   OH239441   3.227   0.324   1.237
13167TIP3    H139442   3.254   0.328   1.328
13167TIP3    H239443   3.208   0.232   1.221
13168TIP3   OH239444   0.210   3.169   3.517
13168TIP3    H139445   0.256   3.153   3.434
13168TIP3    H239446   0.120   3.142   3.499
13169TIP3   OH239447   2.811   6.826   0.917
13169TIP3    H139448   2.802   6.908   0.870
13169TIP3    H239449   2.807   6.851   1.010
13170TIP3   OH239450   5.674   2.018   0.929
13170TIP3    H139451   5.612   2.079   0.969
13170TIP3    H239452   5.656   2.024   0.835
13171TIP3   OH239453   1.241   7.022   3.444
13171TIP3    H139454   1.154   6.982   3.439
13171TIP3    H239455   1.289   6.970   3.508
13172TIP3   OH239456   5.823   5.689   5.498
13172TIP3    H139457   5.741   5.733   5.475
13172TIP3    H239458   5.827   5.613   5.439
13173TIP3   OH239459   3.109   2.232   0.268
13173TIP3    H139460   3.151   2.247   0.183
13173TIP3    H239461   3.125   2.313   0.317
13174TIP3   OH239462   8.099   2.925   0.017
13174TIP3    H139463   8.165   2.925   0.087
13174TIP3    H239464   8.105   2.838  -0.022
13175TIP3   OH239465   8.351   6.955   4.536
13175TIP3    H139466   8.356   6.944   4.630
13175TIP3    H239467   8.366   6.868   4.500
13176TIP3   OH239468   2.323   7.487   2.995
13176TIP3    H139469   2.284   7.493   3.082
13176TIP3    H239470   2.309   7.396   2.969
13177TIP3   OH239471   6.165   5.915   5.924
13177TIP3    H139472   6.260   5.912   5.912
13177TIP3    H239473   6.140   6.002   5.892
13178TIP3   OH239474   1.687   7.115   5.873
13178TIP3    H139475   1.754   7.140   5.937
13178TIP3    H239476   1.675   7.021   5.887
13179TIP3   OH239477   3.862   2.738   6.073
13179TIP3    H139478   3.948   2.705   6.050
13179TIP3    H239479   3.875   2.831   6.091
13180TIP3   OH239480   0.964   5.706   1.024
13180TIP3    H139481   0.955   5.798   1.046
13180TIP3    H239482   0.919   5.660   1.095
13181TIP3   OH239483   6.946   0.544   4.710
13181TIP3    H139484   6.941   0.615   4.646
13181TIP3    H239485   6.867   0.553   4.763
13182TIP3   OH239486   5.005   6.839   0.669
13182TIP3    H139487   5.098   6.829   0.687
13182TIP3    H239488   5.002   6.889   0.587
13183TIP3   OH239489   2.054   0.915   2.855
13183TIP3    H139490   2.004   0.834   2.863
13183TIP3    H239491   2.105   0.919   2.936
13184TIP3   OH239492   5.294   5.772   2.675
13184TIP3    H139493   5.278   5.678   2.687
13184TIP3    H239494   5.250   5.794   2.593
13185TIP3   OH239495   5.541   7.387   1.092
13185TIP3    H139496   5.455   7.384   1.049
13185TIP3    H239497   5.531   7.332   1.170
13186TIP3   OH239498   5.240   7.784   4.851
13186TIP3    H139499   5.271   7.746   4.933
13186TIP3    H239500   5.156   7.825   4.874
13187TIP3   OH239501   1.948   5.522   0.540
13187TIP3    H139502   2.008   5.577   0.489
13187TIP3    H239503   1.864   5.568   0.533
13188TIP3   OH239504   2.331   7.877   1.731
13188TIP3    H139505   2.235   7.873   1.728
13188TIP3    H239506   2.355   7.927   1.653
13189TIP3   OH239507   3.469   5.567   4.113
13189TIP3    H139508   3.393   5.547   4.168
13189TIP3    H239509   3.433   5.614   4.038
13190TIP3   OH239510   0.371   0.162   5.735
13190TIP3    H139511   0.412   0.082   5.768
13190TIP3    H239512   0.424   0.186   5.659
13191TIP3   OH239513   7.930   1.137   5.262
13191TIP3    H139514   8.007   1.159   5.211
13191TIP3    H239515   7.956   1.061   5.314
13192TIP3   OH239516   2.006   0.246   4.906
13192TIP3    H139517   1.969   0.205   4.985
13192TIP3    H239518   2.100   0.232   4.914
13193TIP3   OH239519   2.551   3.245   2.526
13193TIP3    H139520   2.503   3.176   2.572
13193TIP3    H239521   2.517   3.326   2.563
13194TIP3   OH239522   4.647   2.494   5.264
13194TIP3    H139523   4.633   2.516   5.356
13194TIP3    H239524   4.636   2.577   5.218
13195TIP3   OH239525   5.660   5.477   4.957
13195TIP3    H139526   5.752   5.485   4.982
13195TIP3    H239527   5.619   5.434   5.032
13196TIP3   OH239528   5.980   7.007   0.251
13196TIP3    H139529   5.903   6.971   0.207
13196TIP3    H239530   6.032   7.046   0.181
13197TIP3   OH239531   8.169   0.459   3.748
13197TIP3    H139532   8.170   0.406   3.828
13197TIP3    H239533   8.083   0.441   3.710
13198TIP3   OH239534   2.187   6.616   5.964
13198TIP3    H139535   2.136   6.535   5.968
13198TIP3    H239536   2.166   6.654   5.879
13199TIP3   OH239537   5.321   5.935   4.282
13199TIP3    H139538   5.387   5.877   4.243
13199TIP3    H239539   5.323   5.914   4.375
13200TIP3   OH239540   3.309   6.348   5.689
13200TIP3    H139541   3.366   6.401   5.744
13200TIP3    H239542   3.296   6.400   5.610
13201TIP3   OH239543   8.059   2.887   6.497
13201TIP3    H139544   7.967   2.860   6.493
13201TIP3    H239545   8.062   2.966   6.444
13202TIP3   OH239546   6.370   2.404   4.538
13202TIP3    H139547   6.367   2.310   4.558
13202TIP3    H239548   6.366   2.408   4.443
13203TIP3   OH239549   2.219   0.735   3.523
13203TIP3    H139550   2.194   0.716   3.613
13203TIP3    H239551   2.275   0.812   3.529
13204TIP3   OH239552   2.338   4.637   5.714
13204TIP3    H139553   2.319   4.704   5.779
13204TIP3    H239554   2.253   4.600   5.691
13205TIP3   OH239555   4.850   6.572   5.767
13205TIP3    H139556   4.842   6.492   5.819
13205TIP3    H239557   4.802   6.638   5.817
13206TIP3   OH239558   3.464   7.040   2.603
13206TIP3    H139559   3.397   6.972   2.592
13206TIP3    H239560   3.425   7.117   2.562
13207TIP3   OH239561   1.683   7.046   4.860
13207TIP3    H139562   1.666   7.112   4.793
13207TIP3    H239563   1.619   7.064   4.928
13208TIP3   OH239564   0.207   3.236   4.497
13208TIP3    H139565   0.283   3.221   4.442
13208TIP3    H239566   0.233   3.306   4.556
13209TIP3   OH239567   6.955   0.971   3.789
13209TIP3    H139568   6.985   0.994   3.700
13209TIP3    H239569   6.947   1.055   3.833
13210TIP3   OH239570   7.177   5.487   5.328
13210TIP3    H139571   7.121   5.409   5.333
13210TIP3    H239572   7.187   5.516   5.419
13211TIP3   OH239573   6.300   7.705   3.639
13211TIP3    H139574   6.322   7.786   3.593
13211TIP3    H239575   6.282   7.732   3.729
13212TIP3   OH239576   4.201   3.973   1.514
13212TIP3    H139577   4.158   4.046   1.470
13212TIP3    H239578   4.250   3.928   1.445
13213TIP3   OH239579   0.902   4.192   2.966
13213TIP3    H139580   0.942   4.182   2.879
13213TIP3    H239581   0.959   4.143   3.025
13214TIP3   OH239582   2.179   7.387   4.242
13214TIP3    H139583   2.129   7.462   4.274
13214TIP3    H239584   2.114   7.316   4.237
13215TIP3   OH239585   0.246   3.117   6.794
13215TIP3    H139586   0.157   3.095   6.822
13215TIP3    H239587   0.265   3.201   6.836
13216TIP3   OH239588   1.008   3.666   0.188
13216TIP3    H139589   1.014   3.742   0.129
13216TIP3    H239590   0.961   3.699   0.264
13217TIP3   OH239591   8.025   2.213   5.455
13217TIP3    H139592   7.958   2.144   5.456
13217TIP3    H239593   8.105   2.167   5.429
13218TIP3   OH239594   1.162   6.828   5.393
13218TIP3    H139595   1.123   6.872   5.318
13218TIP3    H239596   1.181   6.899   5.455
13219TIP3   OH239597   6.557   3.048   0.155
13219TIP3    H139598   6.591   3.028   0.067
13219TIP3    H239599   6.579   3.140   0.168
13220TIP3   OH239600   6.065   5.067   5.248
13220TIP3    H139601   5.996   5.116   5.202
13220TIP3    H239602   6.133   5.054   5.182
13221TIP3   OH239603   6.883   7.191   3.282
13221TIP3    H139604   6.804   7.244   3.292
13221TIP3    H239605   6.955   7.251   3.298
13222TIP3   OH239606   6.776   5.979   3.692
13222TIP3    H139607   6.792   6.005   3.602
13222TIP3    H239608   6.745   6.059   3.735
13223TIP3   OH239609   0.098   7.411   5.377
13223TIP3    H139610   0.182   7.455   5.376
13223TIP3    H239611   0.035   7.478   5.350
13224TIP3   OH239612   0.638   7.004   6.061
13224TIP3    H139613   0.615   7.091   6.026
13224TIP3    H239614   0.636   6.947   5.985
13225TIP3   OH239615   3.937   3.452   6.677
13225TIP3    H139616   3.910   3.507   6.603
13225TIP3    H239617   4.029   3.431   6.658
13226TIP3   OH239618   0.176   3.803   3.551
13226TIP3    H139619   0.208   3.803   3.642
13226TIP3    H239620   0.104   3.739   3.551
13227TIP3   OH239621   3.885   1.878   1.197
13227TIP3    H139622   3.957   1.882   1.259
13227TIP3    H239623   3.809   1.853   1.250
13228TIP3   OH239624   3.004   6.763   3.226
13228TIP3    H139625   2.965   6.727   3.306
13228TIP3    H239626   2.932   6.807   3.181
13229TIP3   OH239627   7.920   5.000   4.111
13229TIP3    H139628   7.860   4.953   4.169
13229TIP3    H239629   7.870   5.014   4.031
13230TIP3   OH239630   1.404   3.930   4.928
13230TIP3    H139631   1.313   3.903   4.935
13230TIP3    H239632   1.424   3.924   4.835
13231TIP3   OH239633   7.260   1.073   3.116
13231TIP3    H139634   7.184   1.027   3.151
13231TIP3    H239635   7.335   1.017   3.137
13232TIP3   OH239636   6.365   4.305   1.447
13232TIP3    H139637   6.287   4.268   1.405
13232TIP3    H239638   6.334   4.336   1.532
13233TIP3   OH239639   3.468   2.848   2.721
13233TIP3    H139640   3.561   2.867   2.709
13233TIP3    H239641   3.430   2.854   2.633
13234TIP3   OH239642   5.929   5.256   5.442
13234TIP3    H139643   5.901   5.166   5.422
13234TIP3    H239644   5.951   5.254   5.535
13235TIP3   OH239645   2.056   7.233   5.187
13235TIP3    H139646   2.068   7.142   5.159
13235TIP3    H239647   2.041   7.281   5.106
13236TIP3   OH239648   8.077   6.088   4.998
13236TIP3    H139649   8.119   6.172   5.016
13236TIP3    H239650   8.013   6.078   5.069
13237TIP3   OH239651   2.648   3.601   1.014
13237TIP3    H139652   2.709   3.669   0.988
13237TIP3    H239653   2.562   3.639   1.000
13238TIP3   OH239654   0.371   0.964   4.329
13238TIP3    H139655   0.379   1.041   4.386
13238TIP3    H239656   0.299   0.986   4.270
13239TIP3   OH239657   8.262   0.722   3.770
13239TIP3    H139658   8.226   0.633   3.777
13239TIP3    H239659   8.207   0.775   3.828
13240TIP3   OH239660   4.335   2.331   4.547
13240TIP3    H139661   4.275   2.265   4.581
13240TIP3    H239662   4.387   2.358   4.623
13241TIP3   OH239663   6.957   2.545   4.464
13241TIP3    H139664   6.898   2.611   4.428
13241TIP3    H239665   7.036   2.551   4.410
13242TIP3   OH239666   2.462   1.168   1.838
13242TIP3    H139667   2.413   1.237   1.883
13242TIP3    H239668   2.396   1.112   1.798
13243TIP3   OH239669   3.592   5.413   0.597
13243TIP3    H139670   3.607   5.361   0.675
13243TIP3    H239671   3.657   5.381   0.534
13244TIP3   OH239672   4.820   6.090   0.749
13244TIP3    H139673   4.781   6.006   0.772
13244TIP3    H239674   4.839   6.132   0.833
13245TIP3   OH239675   0.280   5.814   3.422
13245TIP3    H139676   0.247   5.875   3.488
13245TIP3    H239677   0.204   5.761   3.398
13246TIP3   OH239678   5.886   3.993   4.780
13246TIP3    H139679   5.831   3.978   4.857
13246TIP3    H239680   5.935   3.911   4.769
13247TIP3   OH239681   2.140   0.522   0.613
13247TIP3    H139682   2.217   0.577   0.598
13247TIP3    H239683   2.115   0.490   0.526
13248TIP3   OH239684   6.474   2.195   1.506
13248TIP3    H139685   6.440   2.181   1.594
13248TIP3    H239686   6.418   2.262   1.468
13249TIP3   OH239687   7.697   2.784   2.506
13249TIP3    H139688   7.670   2.830   2.427
13249TIP3    H239689   7.636   2.814   2.574
13250TIP3   OH239690   1.029   2.261   2.335
13250TIP3    H139691   0.951   2.207   2.349
13250TIP3    H239692   1.044   2.257   2.240
13251TIP3   OH239693   0.435   0.196   1.607
13251TIP3    H139694   0.477   0.258   1.548
13251TIP3    H239695   0.451   0.110   1.567
13252TIP3   OH239696   2.875   6.735   6.666
13252TIP3    H139697   2.962   6.716   6.630
13252TIP3    H239698   2.868   6.830   6.660
13253TIP3   OH239699   7.170   7.448   4.184
13253TIP3    H139700   7.107   7.455   4.113
13253TIP3    H239701   7.255   7.440   4.140
13254TIP3   OH239702   4.078   6.158   1.947
13254TIP3    H139703   4.000   6.111   1.977
13254TIP3    H239704   4.043   6.234   1.901
13255TIP3   OH239705   2.415   1.804   4.481
13255TIP3    H139706   2.342   1.760   4.437
13255TIP3    H239707   2.462   1.849   4.410
13256TIP3   OH239708   0.021   0.962   5.804
13256TIP3    H139709   0.103   0.913   5.807
13256TIP3    H239710  -0.037   0.909   5.749
13257TIP3   OH239711   0.373   0.285   3.637
13257TIP3    H139712   0.452   0.336   3.650
13257TIP3    H239713   0.334   0.277   3.724
13258TIP3   OH239714   3.788   7.699   5.408
13258TIP3    H139715   3.729   7.774   5.415
13258TIP3    H239716   3.865   7.725   5.458
13259TIP3   OH239717   0.412   4.806   2.772
13259TIP3    H139718   0.352   4.738   2.741
13259TIP3    H239719   0.492   4.792   2.722
13260TIP3   OH239720   1.859   6.376   2.591
13260TIP3    H139721   1.795   6.323   2.544
13260TIP3    H239722   1.815   6.460   2.606
13261TIP3   OH239723   4.942   1.389   2.069
13261TIP3    H139724   4.943   1.459   2.135
13261TIP3    H239725   5.027   1.396   2.025
13262TIP3   OH239726   5.631   6.756   4.053
13262TIP3    H139727   5.593   6.727   4.136
13262TIP3    H239728   5.570   6.724   3.987
13263TIP3   OH239729   5.312   3.961   2.564
13263TIP3    H139730   5.309   4.056   2.549
13263TIP3    H239731   5.239   3.945   2.624
13264TIP3   OH239732   8.404   6.869   0.282
13264TIP3    H139733   8.406   6.929   0.357
13264TIP3    H239734   8.311   6.847   0.273
13265TIP3   OH239735   5.723   0.341   1.299
13265TIP3    H139736   5.789   0.276   1.277
13265TIP3    H239737   5.688   0.370   1.214
13266TIP3   OH239738   4.446   5.792   4.889
13266TIP3    H139739   4.482   5.705   4.873
13266TIP3    H239740   4.431   5.829   4.802
13267TIP3   OH239741   4.863   4.991   5.867
13267TIP3    H139742   4.833   5.045   5.941
13267TIP3    H239743   4.941   4.947   5.900
13268TIP3   OH239744   0.845   5.165   0.397
13268TIP3    H139745   0.838   5.260   0.387
13268TIP3    H239746   0.758   5.132   0.375
13269TIP3   OH239747   5.290   0.768   4.553
13269TIP3    H139748   5.260   0.858   4.564
13269TIP3    H239749   5.298   0.735   4.643
13270TIP3   OH239750   7.759   1.778   2.039
13270TIP3    H139751   7.828   1.843   2.024
13270TIP3    H239752   7.694   1.825   2.092
13271TIP3   OH239753   6.944   4.908   2.712
13271TIP3    H139754   7.025   4.862   2.690
13271TIP3    H239755   6.881   4.877   2.647
13272TIP3   OH239756   2.197   2.294   6.478
13272TIP3    H139757   2.117   2.295   6.530
13272TIP3    H239758   2.174   2.337   6.396
13273TIP3   OH239759   5.626   4.205   0.341
13273TIP3    H139760   5.603   4.286   0.296
13273TIP3    H239761   5.721   4.200   0.334
13274TIP3   OH239762   5.397   4.609   5.201
13274TIP3    H139763   5.304   4.588   5.188
13274TIP3    H239764   5.424   4.554   5.275
13275TIP3   OH239765   0.689   0.994   5.551
13275TIP3    H139766   0.770   1.008   5.602
13275TIP3    H239767   0.656   0.909   5.582
13276TIP3   OH239768   5.484   5.942   5.051
13276TIP3    H139769   5.513   5.872   4.991
13276TIP3    H239770   5.501   6.023   5.003
13277TIP3   OH239771   5.850   3.243   5.661
13277TIP3    H139772   5.853   3.283   5.748
13277TIP3    H239773   5.893   3.159   5.672
13278TIP3   OH239774   6.623   1.235   2.330
13278TIP3    H139775   6.633   1.157   2.385
13278TIP3    H239776   6.538   1.222   2.287
13279TIP3   OH239777   1.162   2.162   5.126
13279TIP3    H139778   1.168   2.088   5.187
13279TIP3    H239779   1.074   2.196   5.138
13280TIP3   OH239780   4.020   5.450   1.680
13280TIP3    H139781   3.932   5.482   1.662
13280TIP3    H239782   4.064   5.523   1.724
13281TIP3   OH239783   2.148   5.597   2.642
13281TIP3    H139784   2.099   5.651   2.704
13281TIP3    H239785   2.083   5.537   2.605
13282TIP3   OH239786   0.473   3.703   2.735
13282TIP3    H139787   0.458   3.614   2.704
13282TIP3    H239788   0.540   3.694   2.802
13283TIP3   OH239789   8.188   0.658   6.668
13283TIP3    H139790   8.226   0.741   6.640
13283TIP3    H239791   8.263   0.603   6.693
13284TIP3   OH239792   7.662   6.553   5.370
13284TIP3    H139793   7.581   6.553   5.421
13284TIP3    H239794   7.704   6.637   5.390
13285TIP3   OH239795   2.197   3.837   1.720
13285TIP3    H139796   2.139   3.908   1.750
13285TIP3    H239797   2.249   3.876   1.650
13286TIP3   OH239798   1.535   0.071   0.040
13286TIP3    H139799   1.538   0.145  -0.020
13286TIP3    H239800   1.543   0.110   0.127
13287TIP3   OH239801   1.563   3.307   3.150
13287TIP3    H139802   1.583   3.277   3.239
13287TIP3    H239803   1.637   3.279   3.097
13288TIP3   OH239804   0.021   3.040   4.607
13288TIP3    H139805  -0.066   3.009   4.581
13288TIP3    H239806   0.031   3.124   4.563
13289TIP3   OH239807   2.942   4.417   2.476
13289TIP3    H139808   2.880   4.470   2.526
13289TIP3    H239809   2.935   4.450   2.386
13290TIP3   OH239810   2.263   0.421   1.140
13290TIP3    H139811   2.246   0.489   1.075
13290TIP3    H239812   2.191   0.430   1.202
13291TIP3   OH239813   2.258   0.992   1.725
13291TIP3    H139814   2.222   0.965   1.809
13291TIP3    H239815   2.207   0.942   1.660
13292TIP3   OH239816   4.813   4.680   4.205
13292TIP3    H139817   4.908   4.668   4.205
13292TIP3    H239818   4.784   4.640   4.122
13293TIP3   OH239819   4.278   4.945   5.398
13293TIP3    H139820   4.228   5.025   5.382
13293TIP3    H239821   4.366   4.975   5.419
13294TIP3   OH239822   5.564   1.720   6.483
13294TIP3    H139823   5.520   1.794   6.441
13294TIP3    H239824   5.643   1.706   6.430
13295TIP3   OH239825   1.270   0.098   6.304
13295TIP3    H139826   1.245   0.033   6.238
13295TIP3    H239827   1.354   0.132   6.272
13296TIP3   OH239828   2.304   4.578   6.002
13296TIP3    H139829   2.380   4.575   5.944
13296TIP3    H239830   2.334   4.540   6.084
13297TIP3   OH239831   6.901  -0.011   6.554
13297TIP3    H139832   6.841   0.002   6.480
13297TIP3    H239833   6.845  -0.005   6.632
13298TIP3   OH239834   5.509   3.080   4.268
13298TIP3    H139835   5.562   3.128   4.205
13298TIP3    H239836   5.525   2.988   4.247
13299TIP3   OH239837   6.004   3.170   6.088
13299TIP3    H139838   5.980   3.227   6.161
13299TIP3    H239839   6.086   3.205   6.055
13300TIP3   OH239840   1.553   5.155   1.080
13300TIP3    H139841   1.635   5.157   1.030
13300TIP3    H239842   1.560   5.078   1.136
13301TIP3   OH239843   0.547   3.784   1.076
13301TIP3    H139844   0.475   3.767   1.137
13301TIP3    H239845   0.611   3.714   1.096
13302TIP3   OH239846   8.318   1.110   3.599
13302TIP3    H139847   8.400   1.152   3.574
13302TIP3    H239848   8.331   1.084   3.690
13303TIP3   OH239849   3.649   7.602   2.594
13303TIP3    H139850   3.729   7.619   2.546
13303TIP3    H239851   3.599   7.684   2.588
13304TIP3   OH239852   1.412   0.743   4.519
13304TIP3    H139853   1.462   0.819   4.549
13304TIP3    H239854   1.344   0.731   4.585
13305TIP3   OH239855   4.820   2.941   6.069
13305TIP3    H139856   4.763   3.017   6.057
13305TIP3    H239857   4.789   2.900   6.149
13306TIP3   OH239858   4.386   0.336   4.556
13306TIP3    H139859   4.450   0.311   4.490
13306TIP3    H239860   4.392   0.432   4.560
13307TIP3   OH239861   7.535   0.391   0.459
13307TIP3    H139862   7.470   0.408   0.526
13307TIP3    H239863   7.542   0.295   0.456
13308TIP3   OH239864   0.416   0.775   6.105
13308TIP3    H139865   0.398   0.715   6.178
13308TIP3    H239866   0.344   0.838   6.108
13309TIP3   OH239867   6.551   3.002   2.871
13309TIP3    H139868   6.503   3.084   2.884
13309TIP3    H239869   6.622   3.005   2.934
13310TIP3   OH239870   8.368   3.430   3.929
13310TIP3    H139871   8.434   3.381   3.879
13310TIP3    H239872   8.289   3.377   3.920
13311TIP3   OH239873   3.291   4.780   1.604
13311TIP3    H139874   3.220   4.837   1.633
13311TIP3    H239875   3.337   4.831   1.538
13312TIP3   OH239876   0.681   4.363   4.452
13312TIP3    H139877   0.740   4.356   4.527
13312TIP3    H239878   0.633   4.280   4.451
13313TIP3   OH239879   6.674   0.746   1.815
13313TIP3    H139880   6.655   0.654   1.802
13313TIP3    H239881   6.750   0.747   1.874
13314TIP3   OH239882   3.563   7.775   4.941
13314TIP3    H139883   3.512   7.830   4.882
13314TIP3    H239884   3.592   7.702   4.887
13315TIP3   OH239885   3.648   5.435   5.141
13315TIP3    H139886   3.585   5.364   5.150
13315TIP3    H239887   3.732   5.391   5.128
13316TIP3   OH239888   2.085   0.425   5.834
13316TIP3    H139889   2.152   0.384   5.779
13316TIP3    H239890   2.011   0.365   5.830
13317TIP3   OH239891   7.111   1.512   5.054
13317TIP3    H139892   7.206   1.501   5.060
13317TIP3    H239893   7.079   1.430   5.018
13318TIP3   OH239894   1.206   5.276   6.603
13318TIP3    H139895   1.155   5.294   6.682
13318TIP3    H239896   1.218   5.362   6.563
13319TIP3   OH239897   4.071   0.730   5.895
13319TIP3    H139898   4.034   0.662   5.839
13319TIP3    H239899   4.125   0.682   5.958
13320TIP3   OH239900   3.671   4.385   4.018
13320TIP3    H139901   3.651   4.385   3.924
13320TIP3    H239902   3.617   4.315   4.054
13321TIP3   OH239903   8.132   7.723   3.767
13321TIP3    H139904   8.093   7.806   3.739
13321TIP3    H239905   8.090   7.657   3.712
13322TIP3   OH239906   1.969   2.676   1.692
13322TIP3    H139907   1.891   2.646   1.645
13322TIP3    H239908   2.023   2.597   1.701
13323TIP3   OH239909   5.462   7.380   2.537
13323TIP3    H139910   5.367   7.386   2.526
13323TIP3    H239911   5.479   7.288   2.556
13324TIP3   OH239912   4.867   0.864   2.714
13324TIP3    H139913   4.915   0.902   2.789
13324TIP3    H239914   4.775   0.883   2.732
13325TIP3   OH239915   4.744   0.441   0.851
13325TIP3    H139916   4.831   0.462   0.818
13325TIP3    H239917   4.687   0.507   0.811
13326TIP3   OH239918   4.152   7.318   4.012
13326TIP3    H139919   4.061   7.290   4.023
13326TIP3    H239920   4.147   7.390   3.948
13327TIP3   OH239921   0.666   3.887   0.244
13327TIP3    H139922   0.671   3.928   0.158
13327TIP3    H239923   0.619   3.805   0.228
13328TIP3   OH239924   4.230   3.811   1.062
13328TIP3    H139925   4.221   3.728   1.108
13328TIP3    H239926   4.260   3.787   0.974
13329TIP3   OH239927   1.463   5.690   5.829
13329TIP3    H139928   1.461   5.728   5.917
13329TIP3    H239929   1.554   5.666   5.815
13330TIP3   OH239930   3.286   4.823   3.959
13330TIP3    H139931   3.362   4.784   4.003
13330TIP3    H239932   3.257   4.892   4.019
13331TIP3   OH239933   6.120   3.961   2.683
13331TIP3    H139934   6.166   3.907   2.619
13331TIP3    H239935   6.065   4.018   2.630
13332TIP3   OH239936   7.545   4.605   0.376
13332TIP3    H139937   7.576   4.677   0.321
13332TIP3    H239938   7.517   4.647   0.457
13333TIP3   OH239939   5.037   0.367   3.195
13333TIP3    H139940   5.035   0.449   3.244
13333TIP3    H239941   5.104   0.314   3.239
13334TIP3   OH239942   6.151   6.953   1.435
13334TIP3    H139943   6.197   6.943   1.518
13334TIP3    H239944   6.136   6.863   1.405
13335TIP3   OH239945   8.252   6.165   0.001
13335TIP3    H139946   8.328   6.112   0.028
13335TIP3    H239947   8.238   6.225   0.075
13336TIP3   OH239948   3.357   2.442   0.709
13336TIP3    H139949   3.333   2.493   0.787
13336TIP3    H239950   3.373   2.508   0.642
13337TIP3   OH239951   6.054   2.486   1.669
13337TIP3    H139952   6.066   2.505   1.762
13337TIP3    H239953   6.016   2.566   1.633
13338TIP3   OH239954   5.853   0.193   6.606
13338TIP3    H139955   5.827   0.274   6.650
13338TIP3    H239956   5.780   0.134   6.620
13339TIP3   OH239957   5.461   2.861   5.738
13339TIP3    H139958   5.480   2.836   5.648
13339TIP3    H239959   5.506   2.945   5.749
13340TIP3   OH239960   0.764   6.143   0.737
13340TIP3    H139961   0.823   6.076   0.772
13340TIP3    H239962   0.684   6.095   0.716
13341TIP3   OH239963   6.778   1.308   3.636
13341TIP3    H139964   6.723   1.276   3.707
13341TIP3    H239965   6.790   1.401   3.655
13342TIP3   OH239966   5.453   3.296   4.458
13342TIP3    H139967   5.452   3.224   4.395
13342TIP3    H239968   5.544   3.329   4.455
13343TIP3   OH239969   5.867   6.654   0.731
13343TIP3    H139970   5.960   6.654   0.708
13343TIP3    H239971   5.843   6.562   0.735
13344TIP3   OH239972   3.820   2.705   3.971
13344TIP3    H139973   3.726   2.702   3.987
13344TIP3    H239974   3.853   2.769   4.034
13345TIP3   OH239975   0.776   4.766   6.677
13345TIP3    H139976   0.716   4.764   6.751
13345TIP3    H239977   0.782   4.675   6.648
13346TIP3   OH239978   7.262   4.182   4.178
13346TIP3    H139979   7.250   4.174   4.084
13346TIP3    H239980   7.357   4.193   4.189
13347TIP3   OH239981   1.514   7.783   2.984
13347TIP3    H139982   1.464   7.856   3.021
13347TIP3    H239983   1.521   7.805   2.891
13348TIP3   OH239984   0.367   7.625   4.160
13348TIP3    H139985   0.425   7.576   4.102
13348TIP3    H239986   0.327   7.691   4.103
13349TIP3   OH239987   0.582   7.360   0.697
13349TIP3    H139988   0.543   7.374   0.611
13349TIP3    H239989   0.508   7.370   0.758
13350TIP3   OH239990   8.058   4.043   1.963
13350TIP3    H139991   8.037   3.951   1.949
13350TIP3    H239992   8.122   4.043   2.034
13351TIP3   OH239993   5.435   7.922   1.428
13351TIP3    H139994   5.443   7.926   1.523
13351TIP3    H239995   5.392   7.839   1.411
13352TIP3   OH239996   0.806   0.473   6.073
13352TIP3    H139997   0.886   0.478   6.021
13352TIP3    H239998   0.785   0.380   6.077
13353TIP3   OH239999   5.976   2.119   0.504
13353TIP3    H140000   5.961   2.058   0.576
13353TIP3    H240001   6.044   2.178   0.536
13354TIP3   OH240002   1.244   5.024   3.437
13354TIP3    H140003   1.261   5.114   3.463
13354TIP3    H240004   1.257   5.023   3.343
13355TIP3   OH240005   3.595   4.973   0.327
13355TIP3    H140006   3.609   4.927   0.409
13355TIP3    H240007   3.666   4.944   0.270
13356TIP3   OH240008   6.009   4.014   0.511
13356TIP3    H140009   5.972   4.052   0.590
13356TIP3    H240010   5.954   4.046   0.439
13357TIP3   OH240011   2.541   4.153   0.214
13357TIP3    H140012   2.520   4.060   0.212
13357TIP3    H240013   2.561   4.172   0.305
13358TIP3   OH240014   3.679   6.915   5.735
13358TIP3    H140015   3.589   6.948   5.730
13358TIP3    H240016   3.733   6.988   5.706
13359TIP3   OH240017   2.142   3.509   1.929
13359TIP3    H140018   2.214   3.468   1.880
13359TIP3    H240019   2.097   3.563   1.865
13360TIP3   OH240020   0.616   5.653   3.022
13360TIP3    H140021   0.571   5.656   3.106
13360TIP3    H240022   0.706   5.680   3.042
13361TIP3   OH240023   4.101   3.518   4.890
13361TIP3    H140024   4.140   3.440   4.931
13361TIP3    H240025   4.008   3.498   4.884
13362TIP3   OH240026   7.760   3.546   5.475
13362TIP3    H140027   7.832   3.495   5.512
13362TIP3    H240028   7.733   3.606   5.545
13363TIP3   OH240029   2.024   1.725   5.373
13363TIP3    H140030   2.094   1.790   5.382
13363TIP3    H240031   1.999   1.704   5.463
13364TIP3   OH240032   6.891   0.189   1.376
13364TIP3    H140033   6.933   0.231   1.301
13364TIP3    H240034   6.945   0.216   1.451
13365TIP3   OH240035   0.113   4.327   2.428
13365TIP3    H140036   0.145   4.237   2.427
13365TIP3    H240037   0.062   4.334   2.508
13366TIP3   OH240038   6.295   7.195   0.694
13366TIP3    H140039   6.287   7.238   0.609
13366TIP3    H240040   6.250   7.111   0.683
13367TIP3   OH240041   1.314   3.325   3.750
13367TIP3    H140042   1.356   3.250   3.791
13367TIP3    H240043   1.228   3.331   3.792
13368TIP3   OH240044   1.629   4.082   5.725
13368TIP3    H140045   1.549   4.058   5.678
13368TIP3    H240046   1.661   4.000   5.761
13369TIP3   OH240047   6.615   4.414   1.403
13369TIP3    H140048   6.525   4.388   1.382
13369TIP3    H240049   6.661   4.331   1.418
13370TIP3   OH240050   6.493   0.538   3.468
13370TIP3    H140051   6.539   0.606   3.517
13370TIP3    H240052   6.488   0.464   3.528
13371TIP3   OH240053   7.842   2.080   6.474
13371TIP3    H140054   7.790   2.098   6.396
13371TIP3    H240055   7.779   2.049   6.539
13372TIP3   OH240056   1.628   2.919   0.905
13372TIP3    H140057   1.701   2.924   0.844
13372TIP3    H240058   1.550   2.932   0.851
13373TIP3   OH240059   7.501   5.320   3.541
13373TIP3    H140060   7.460   5.237   3.564
13373TIP3    H240061   7.540   5.305   3.455
13374TIP3   OH240062   7.085   5.110   0.632
13374TIP3    H140063   7.064   5.060   0.553
13374TIP3    H240064   7.000   5.142   0.663
13375TIP3   OH240065   5.201   0.979   3.096
13375TIP3    H140066   5.235   0.891   3.115
13375TIP3    H240067   5.272   1.038   3.121
13376TIP3   OH240068   3.292   3.329   1.831
13376TIP3    H140069   3.377   3.359   1.862
13376TIP3    H240070   3.239   3.322   1.911
13377TIP3   OH240071   2.118   2.609   5.533
13377TIP3    H140072   2.146   2.695   5.565
13377TIP3    H240073   2.104   2.622   5.439
13378TIP3   OH240074   8.226   7.540   1.967
13378TIP3    H140075   8.254   7.631   1.952
13378TIP3    H240076   8.132   7.541   1.947
13379TIP3   OH240077   1.337   0.086   3.496
13379TIP3    H140078   1.428   0.084   3.524
13379TIP3    H240079   1.292   0.139   3.562
13380TIP3   OH240080   1.190   0.330   5.587
13380TIP3    H140081   1.269   0.378   5.611
13380TIP3    H240082   1.181   0.263   5.655
13381TIP3   OH240083   1.402   3.425   1.380
13381TIP3    H140084   1.435   3.339   1.407
13381TIP3    H240085   1.439   3.437   1.292
13382TIP3   OH240086   7.127   2.041   3.467
13382TIP3    H140087   7.137   2.091   3.549
13382TIP3    H240088   7.199   1.978   3.469
13383TIP3   OH240089   5.690   2.017   6.667
13383TIP3    H140090   5.677   2.045   6.757
13383TIP3    H240091   5.602   2.014   6.630
13384TIP3   OH240092   2.020   6.562   6.566
13384TIP3    H140093   2.085   6.583   6.632
13384TIP3    H240094   2.065   6.504   6.505
13385TIP3   OH240095   7.546   2.398   1.399
13385TIP3    H140096   7.494   2.478   1.412
13385TIP3    H240097   7.592   2.413   1.317
13386TIP3   OH240098   6.627   3.944   0.198
13386TIP3    H140099   6.646   4.023   0.148
13386TIP3    H240100   6.647   3.967   0.289
13387TIP3   OH240101   2.018   6.422   6.025
13387TIP3    H140102   1.930   6.431   6.062
13387TIP3    H240103   2.053   6.343   6.065
13388TIP3   OH240104   0.035   4.637   1.363
13388TIP3    H140105   0.025   4.597   1.277
13388TIP3    H240106   0.074   4.723   1.346
13389TIP3   OH240107   6.303   1.087   0.361
13389TIP3    H140108   6.290   1.105   0.267
13389TIP3    H240109   6.397   1.075   0.370
13390TIP3   OH240110   1.422   2.847   6.264
13390TIP3    H140111   1.447   2.865   6.354
13390TIP3    H240112   1.416   2.933   6.223
13391TIP3   OH240113   2.293   3.242   5.543
13391TIP3    H140114   2.312   3.336   5.544
13391TIP3    H240115   2.276   3.220   5.634
13392TIP3   OH240116   3.735   2.801   6.768
13392TIP3    H140117   3.726   2.861   6.694
13392TIP3    H240118   3.669   2.831   6.830
13393TIP3   OH240119   0.275   6.671   4.360
13393TIP3    H140120   0.180   6.680   4.358
13393TIP3    H240121   0.299   6.694   4.450
13394TIP3   OH240122   7.297   1.847   1.773
13394TIP3    H140123   7.335   1.804   1.849
13394TIP3    H240124   7.290   1.939   1.798
13395TIP3   OH240125   2.055   4.653   5.233
13395TIP3    H140126   2.047   4.747   5.248
13395TIP3    H240127   2.144   4.632   5.262
13396TIP3   OH240128   7.549   7.161   2.740
13396TIP3    H140129   7.507   7.174   2.825
13396TIP3    H240130   7.477   7.140   2.681
13397TIP3   OH240131   0.401   4.902   1.974
13397TIP3    H140132   0.425   4.810   1.971
13397TIP3    H240133   0.484   4.948   1.991
13398TIP3   OH240134   1.041   4.981   0.515
13398TIP3    H140135   0.999   4.974   0.601
13398TIP3    H240136   1.002   5.059   0.476
13399TIP3   OH240137   5.571   4.366   1.679
13399TIP3    H140138   5.646   4.330   1.632
13399TIP3    H240139   5.502   4.300   1.667
13400TIP3   OH240140   1.485   0.149   2.156
13400TIP3    H140141   1.576   0.124   2.169
13400TIP3    H240142   1.455   0.175   2.244
13401TIP3   OH240143   6.223   0.236   5.193
13401TIP3    H140144   6.271   0.155   5.210
13401TIP3    H240145   6.264   0.301   5.250
13402TIP3   OH240146   0.728   0.432   6.484
13402TIP3    H140147   0.711   0.401   6.573
13402TIP3    H240148   0.653   0.400   6.434
13403TIP3   OH240149   4.051   5.089   5.804
13403TIP3    H140150   4.027   5.005   5.844
13403TIP3    H240151   4.026   5.079   5.712
13404TIP3   OH240152   3.877   3.473   1.942
13404TIP3    H140153   3.796   3.513   1.974
13404TIP3    H240154   3.900   3.410   2.009
13405TIP3   OH240155   5.542   2.831   2.526
13405TIP3    H140156   5.621   2.829   2.472
13405TIP3    H240157   5.573   2.861   2.612
13406TIP3   OH240158   5.836   5.850   0.662
13406TIP3    H140159   5.864   5.936   0.629
13406TIP3    H240160   5.867   5.849   0.753
13407TIP3   OH240161   4.684   5.094   0.666
13407TIP3    H140162   4.643   5.123   0.585
13407TIP3    H240163   4.776   5.080   0.642
13408TIP3   OH240164   8.350   7.638   5.285
13408TIP3    H140165   8.262   7.601   5.297
13408TIP3    H240166   8.375   7.668   5.373
13409TIP3   OH240167   2.271   7.021   0.429
13409TIP3    H140168   2.342   6.974   0.385
13409TIP3    H240169   2.253   6.971   0.508
13410TIP3   OH240170   1.307   5.476   5.613
13410TIP3    H140171   1.255   5.544   5.570
13410TIP3    H240172   1.242   5.416   5.650
13411TIP3   OH240173   2.699   1.077   6.347
13411TIP3    H140174   2.618   1.091   6.396
13411TIP3    H240175   2.724   1.165   6.318
13412TIP3   OH240176   8.154   2.061   1.089
13412TIP3    H140177   8.122   2.122   1.155
13412TIP3    H240178   8.249   2.071   1.090
13413TIP3   OH240179   4.565   7.827   0.449
13413TIP3    H140180   4.609   7.765   0.391
13413TIP3    H240181   4.506   7.773   0.502
13414TIP3   OH240182   0.286   6.443   3.036
13414TIP3    H140183   0.201   6.399   3.034
13414TIP3    H240184   0.271   6.522   3.089
13415TIP3   OH240185   7.877   1.638   3.581
13415TIP3    H140186   7.790   1.676   3.596
13415TIP3    H240187   7.926   1.657   3.661
13416TIP3   OH240188   2.259   7.264   1.300
13416TIP3    H140189   2.258   7.320   1.222
13416TIP3    H240190   2.331   7.297   1.353
13417TIP3   OH240191   5.023   4.221   1.039
13417TIP3    H140192   5.112   4.253   1.053
13417TIP3    H240193   4.976   4.245   1.119
13418TIP3   OH240194   5.663   6.236   3.856
13418TIP3    H140195   5.703   6.233   3.943
13418TIP3    H240196   5.646   6.144   3.834
13419TIP3   OH240197   4.041   5.939   1.378
13419TIP3    H140198   4.046   5.845   1.361
13419TIP3    H240199   3.973   5.971   1.319
13420TIP3   OH240200   4.102   2.161   0.215
13420TIP3    H140201   4.022   2.201   0.248
13420TIP3    H240202   4.172   2.199   0.268
13421TIP3   OH240203   5.310   3.051   2.147
13421TIP3    H140204   5.350   3.083   2.228
13421TIP3    H240205   5.376   3.067   2.080
13422TIP3   OH240206   1.807   7.538   5.641
13422TIP3    H140207   1.721   7.573   5.665
13422TIP3    H240208   1.855   7.534   5.723
13423TIP3   OH240209   4.067   2.199   6.244
13423TIP3    H140210   4.096   2.263   6.310
13423TIP3    H240211   4.072   2.115   6.289
13424TIP3   OH240212   3.544   3.437   4.718
13424TIP3    H140213   3.524   3.511   4.660
13424TIP3    H240214   3.578   3.369   4.659
13425TIP3   OH240215   4.816   1.279   1.493
13425TIP3    H140216   4.857   1.330   1.423
13425TIP3    H240217   4.726   1.311   1.495
13426TIP3   OH240218   6.703   3.070   5.015
13426TIP3    H140219   6.747   3.124   5.080
13426TIP3    H240220   6.656   3.132   4.960
13427TIP3   OH240221   4.403   2.972   4.860
13427TIP3    H140222   4.356   2.980   4.943
13427TIP3    H240223   4.349   3.020   4.797
13428TIP3   OH240224   0.412   6.931   1.346
13428TIP3    H140225   0.496   6.971   1.324
13428TIP3    H240226   0.372   6.913   1.261
13429TIP3   OH240227   8.254   3.064   0.359
13429TIP3    H140228   8.204   3.134   0.317
13429TIP3    H240229   8.198   3.034   0.430
13430TIP3   OH240230   0.540   1.334   5.301
13430TIP3    H140231   0.545   1.428   5.320
13430TIP3    H240232   0.449   1.311   5.321
13431TIP3   OH240233   4.413   1.947   1.187
13431TIP3    H140234   4.376   1.977   1.104
13431TIP3    H240235   4.394   2.018   1.248
13432TIP3   OH240236   5.143   0.130   3.015
13432TIP3    H140237   5.089   0.192   2.966
13432TIP3    H240238   5.082   0.089   3.076
13433TIP3   OH240239   7.033   4.270   3.581
13433TIP3    H140240   7.079   4.353   3.594
13433TIP3    H240241   7.102   4.205   3.572
13434TIP3   OH240242   0.661   2.864   0.931
13434TIP3    H140243   0.623   2.813   0.859
13434TIP3    H240244   0.732   2.809   0.964
13435TIP3   OH240245   5.578   4.997   6.705
13435TIP3    H140246   5.642   5.069   6.699
13435TIP3    H240247   5.519   5.013   6.631
13436TIP3   OH240248   5.173   3.805   1.256
13436TIP3    H140249   5.140   3.721   1.291
13436TIP3    H240250   5.213   3.848   1.332
13437TIP3   OH240251   4.004   4.078   2.602
13437TIP3    H140252   4.089   4.078   2.558
13437TIP3    H240253   3.990   3.986   2.625
13438TIP3   OH240254   8.271   4.956   1.980
13438TIP3    H140255   8.362   4.940   2.006
13438TIP3    H240256   8.278   5.023   1.912
13439TIP3   OH240257   5.710   5.350   0.667
13439TIP3    H140258   5.660   5.423   0.630
13439TIP3    H240259   5.650   5.276   0.664
13440TIP3   OH240260   1.211   3.059   3.112
13440TIP3    H140261   1.285   3.002   3.132
13440TIP3    H240262   1.173   3.081   3.197
13441TIP3   OH240263   2.393   0.626   2.724
13441TIP3    H140264   2.448   0.698   2.692
13441TIP3    H240265   2.335   0.667   2.787
13442TIP3   OH240266   3.705   5.329   4.502
13442TIP3    H140267   3.630   5.388   4.511
13442TIP3    H240268   3.732   5.311   4.591
13443TIP3   OH240269   0.866   0.167   4.329
13443TIP3    H140270   0.943   0.222   4.320
13443TIP3    H240271   0.825   0.195   4.411
13444TIP3   OH240272   8.245   5.997   2.979
13444TIP3    H140273   8.194   6.070   2.945
13444TIP3    H240274   8.329   6.003   2.935
13445TIP3   OH240275   2.525   0.487   0.916
13445TIP3    H140276   2.481   0.475   0.832
13445TIP3    H240277   2.509   0.405   0.963
13446TIP3   OH240278   0.816   0.210   4.890
13446TIP3    H140279   0.874   0.286   4.904
13446TIP3    H240280   0.766   0.204   4.971
13447TIP3   OH240281   4.555   4.972   5.071
13447TIP3    H140282   4.650   4.977   5.078
13447TIP3    H240283   4.530   5.056   5.032
13448TIP3   OH240284   4.093   0.559   5.445
13448TIP3    H140285   4.003   0.553   5.412
13448TIP3    H240286   4.146   0.522   5.374
13449TIP3   OH240287   0.366   2.894   1.638
13449TIP3    H140288   0.414   2.843   1.703
13449TIP3    H240289   0.431   2.955   1.603
13450TIP3   OH240290   2.598   3.366   4.890
13450TIP3    H140291   2.680   3.355   4.938
13450TIP3    H240292   2.594   3.290   4.831
13451TIP3   OH240293   0.941   7.505   3.802
13451TIP3    H140294   0.929   7.466   3.716
13451TIP3    H240295   1.036   7.509   3.814
13452TIP3   OH240296   4.371   3.704   4.097
13452TIP3    H140297   4.375   3.712   4.192
13452TIP3    H240298   4.380   3.611   4.080
13453TIP3   OH240299   2.324   1.174   0.573
13453TIP3    H140300   2.240   1.159   0.617
13453TIP3    H240301   2.303   1.235   0.502
13454TIP3   OH240302   7.161   6.909   0.952
13454TIP3    H140303   7.227   6.904   1.021
13454TIP3    H240304   7.119   6.994   0.964
13455TIP3   OH240305   0.593   7.445   3.473
13455TIP3    H140306   0.632   7.526   3.505
13455TIP3    H240307   0.539   7.415   3.546
13456TIP3   OH240308   4.387   5.897   5.689
13456TIP3    H140309   4.360   5.903   5.781
13456TIP3    H240310   4.479   5.922   5.689
13457TIP3   OH240311   0.777   7.191   2.448
13457TIP3    H140312   0.802   7.118   2.390
13457TIP3    H240313   0.692   7.165   2.483
13458TIP3   OH240314   0.087   5.567   2.348
13458TIP3    H140315   0.010   5.622   2.362
13458TIP3    H240316   0.129   5.562   2.434
13459TIP3   OH240317   1.992   7.258   6.639
13459TIP3    H140318   1.905   7.298   6.646
13459TIP3    H240319   1.990   7.186   6.702
13460TIP3   OH240320   8.185   6.556   2.275
13460TIP3    H140321   8.264   6.503   2.284
13460TIP3    H240322   8.198   6.630   2.335
13461TIP3   OH240323   0.014   4.988   5.929
13461TIP3    H140324  -0.011   4.900   5.901
13461TIP3    H240325  -0.068   5.036   5.935
13462TIP3   OH240326   5.670   0.032   0.007
13462TIP3    H140327   5.668   0.005   0.098
13462TIP3    H240328   5.665   0.128   0.010
13463TIP3   OH240329   0.410   1.864   0.671
13463TIP3    H140330   0.499   1.832   0.655
13463TIP3    H240331   0.421   1.955   0.699
13464TIP3   OH240332   8.254   7.947   4.936
13464TIP3    H140333   8.194   7.877   4.960
13464TIP3    H240334   8.319   7.949   5.007
13465TIP3   OH240335   1.789   4.984   0.658
13465TIP3    H140336   1.724   4.993   0.588
13465TIP3    H240337   1.866   4.948   0.614
13466TIP3   OH240338   6.644   0.878   2.191
13466TIP3    H140339   6.681   0.934   2.259
13466TIP3    H240340   6.674   0.790   2.214
13467TIP3   OH240341   2.841   2.131   4.872
13467TIP3    H140342   2.885   2.189   4.934
13467TIP3    H240343   2.910   2.104   4.811
13468TIP3   OH240344   1.297   2.498   4.972
13468TIP3    H140345   1.288   2.585   4.932
13468TIP3    H240346   1.310   2.516   5.065
13469TIP3   OH240347   6.375   2.060   0.147
13469TIP3    H140348   6.339   2.059   0.236
13469TIP3    H240349   6.461   2.100   0.157
13470TIP3   OH240350   7.155   6.177   4.620
13470TIP3    H140351   7.200   6.135   4.547
13470TIP3    H240352   7.104   6.247   4.581
13471TIP3   OH240353   1.034   1.842   1.013
13471TIP3    H140354   1.095   1.908   0.982
13471TIP3    H240355   1.066   1.760   0.977
13472TIP3   OH240356   7.067   6.854   1.640
13472TIP3    H140357   7.081   6.922   1.573
13472TIP3    H240358   7.064   6.772   1.591
13473TIP3   OH240359   4.154   0.252   2.923
13473TIP3    H140360   4.154   0.346   2.911
13473TIP3    H240361   4.243   0.224   2.899
13474TIP3   OH240362   4.733   0.558   2.649
13474TIP3    H140363   4.825   0.547   2.672
13474TIP3    H240364   4.734   0.597   2.562
13475TIP3   OH240365   0.983   2.670   1.450
13475TIP3    H140366   0.971   2.651   1.543
13475TIP3    H240367   1.066   2.717   1.446
13476TIP3   OH240368   6.766   4.166   2.339
13476TIP3    H140369   6.816   4.099   2.293
13476TIP3    H240370   6.818   4.246   2.329
13477TIP3   OH240371   1.178   7.771   6.248
13477TIP3    H140372   1.208   7.694   6.199
13477TIP3    H240373   1.203   7.845   6.192
13478TIP3   OH240374   5.880   2.393   0.399
13478TIP3    H140375   5.836   2.455   0.458
13478TIP3    H240376   5.811   2.331   0.374
13479TIP3   OH240377   7.886   5.889   2.910
13479TIP3    H140378   7.791   5.901   2.921
13479TIP3    H240379   7.922   5.905   2.998
13480TIP3   OH240380   7.610   0.509   2.235
13480TIP3    H140381   7.684   0.464   2.274
13480TIP3    H240382   7.597   0.465   2.151
13481TIP3   OH240383   5.326   1.521   3.385
13481TIP3    H140384   5.287   1.584   3.324
13481TIP3    H240385   5.264   1.448   3.387
13482TIP3   OH240386   2.902   4.371   3.781
13482TIP3    H140387   2.826   4.313   3.789
13482TIP3    H240388   2.966   4.319   3.732
13483TIP3   OH240389   6.972   2.013   0.764
13483TIP3    H140390   6.942   1.992   0.676
13483TIP3    H240391   6.893   2.008   0.818
13484TIP3   OH240392   8.046   1.294   3.360
13484TIP3    H140393   8.052   1.200   3.378
13484TIP3    H240394   8.079   1.303   3.271
13485TIP3   OH240395  -0.033   3.727   2.977
13485TIP3    H140396   0.053   3.712   2.937
13485TIP3    H240397  -0.014   3.734   3.071
13486TIP3   OH240398   5.935   5.134   6.783
13486TIP3    H140399   5.947   5.163   6.873
13486TIP3    H240400   5.915   5.213   6.734
13487TIP3   OH240401   0.996   1.398   2.456
13487TIP3    H140402   0.918   1.385   2.510
13487TIP3    H240403   0.961   1.425   2.370
13488TIP3   OH240404   5.605   2.688   0.210
13488TIP3    H140405   5.612   2.783   0.218
13488TIP3    H240406   5.669   2.654   0.272
13489TIP3   OH240407   2.213   7.313   5.401
13489TIP3    H140408   2.291   7.259   5.410
13489TIP3    H240409   2.159   7.267   5.336
13490TIP3   OH240410   0.681   2.006   4.861
13490TIP3    H140411   0.760   2.051   4.889
13490TIP3    H240412   0.704   1.965   4.778
13491TIP3   OH240413   3.825   1.311   3.950
13491TIP3    H140414   3.784   1.315   3.863
13491TIP3    H240415   3.917   1.294   3.933
13492TIP3   OH240416   8.336   7.845   6.482
13492TIP3    H140417   8.291   7.879   6.560
13492TIP3    H240418   8.268   7.799   6.433
13493TIP3   OH240419   7.554   5.482   0.104
13493TIP3    H140420   7.618   5.554   0.106
13493TIP3    H240421   7.531   5.472   0.012
13494TIP3   OH240422   6.153   5.028   2.414
13494TIP3    H140423   6.087   5.034   2.345
13494TIP3    H240424   6.233   5.001   2.369
13495TIP3   OH240425   4.820   2.669   2.859
13495TIP3    H140426   4.768   2.657   2.779
13495TIP3    H240427   4.821   2.582   2.900
13496TIP3   OH240428   8.005   2.860   0.698
13496TIP3    H140429   8.053   2.817   0.768
13496TIP3    H240430   7.913   2.840   0.716
13497TIP3   OH240431   0.597   6.090   5.620
13497TIP3    H140432   0.578   6.027   5.550
13497TIP3    H240433   0.624   6.035   5.694
13498TIP3   OH240434   6.739   1.437   0.866
13498TIP3    H140435   6.809   1.454   0.804
13498TIP3    H240436   6.738   1.342   0.876
13499TIP3   OH240437   5.912   1.132   2.855
13499TIP3    H140438   5.901   1.114   2.762
13499TIP3    H240439   6.006   1.120   2.871
13500TIP3   OH240440   2.165   4.746   4.850
13500TIP3    H140441   2.234   4.769   4.913
13500TIP3    H240442   2.209   4.749   4.765
13501TIP3   OH240443   8.173   2.276   4.629
13501TIP3    H140444   8.099   2.238   4.676
13501TIP3    H240445   8.219   2.201   4.591
13502TIP3   OH240446   5.456   3.254   5.890
13502TIP3    H140447   5.445   3.346   5.865
13502TIP3    H240448   5.517   3.218   5.826
13503TIP3   OH240449   2.228   5.168   0.250
13503TIP3    H140450   2.265   5.094   0.298
13503TIP3    H240451   2.165   5.206   0.312
13504TIP3   OH240452   6.159   5.874   1.854
13504TIP3    H140453   6.101   5.808   1.817
13504TIP3    H240454   6.247   5.841   1.835
13505TIP3   OH240455   7.179   4.799   2.643
13505TIP3    H140456   7.194   4.808   2.549
13505TIP3    H240457   7.254   4.843   2.683
13506TIP3   OH240458   6.374   2.019   3.190
13506TIP3    H140459   6.352   2.067   3.110
13506TIP3    H240460   6.369   2.085   3.259
13507TIP3   OH240461   5.794   4.022   1.069
13507TIP3    H140462   5.861   4.025   1.138
13507TIP3    H240463   5.836   3.976   0.997
13508TIP3   OH240464   6.672   5.521   3.747
13508TIP3    H140465   6.579   5.506   3.765
13508TIP3    H240466   6.673   5.600   3.694
13509TIP3   OH240467   4.903   2.884   3.308
13509TIP3    H140468   4.840   2.846   3.246
13509TIP3    H240469   4.981   2.828   3.301
13510TIP3   OH240470   1.992   5.508   3.613
13510TIP3    H140471   2.071   5.467   3.649
13510TIP3    H240472   1.947   5.436   3.569
13511TIP3   OH240473   2.264   4.300   0.658
13511TIP3    H140474   2.280   4.394   0.654
13511TIP3    H240475   2.190   4.291   0.719
13512TIP3   OH240476   6.344   5.195   5.707
13512TIP3    H140477   6.359   5.158   5.794
13512TIP3    H240478   6.278   5.263   5.720
13513TIP3   OH240479   5.882   5.809   4.957
13513TIP3    H140480   5.852   5.787   4.869
13513TIP3    H240481   5.889   5.725   5.002
13514TIP3   OH240482   2.007   3.082   3.826
13514TIP3    H140483   1.995   2.987   3.821
13514TIP3    H240484   2.044   3.106   3.742
13515TIP3   OH240485   8.026   3.583   6.533
13515TIP3    H140486   8.019   3.532   6.614
13515TIP3    H240487   7.982   3.530   6.467
13516TIP3   OH240488   0.365   5.097   2.890
13516TIP3    H140489   0.349   5.015   2.844
13516TIP3    H240490   0.334   5.081   2.979
13517TIP3   OH240491   8.037   5.131   5.445
13517TIP3    H140492   8.047   5.129   5.540
13517TIP3    H240493   8.074   5.215   5.419
13518TIP3   OH240494   1.288   1.633   0.252
13518TIP3    H140495   1.288   1.539   0.267
13518TIP3    H240496   1.373   1.651   0.211
13519TIP3   OH240497   0.445   3.401   2.678
13519TIP3    H140498   0.456   3.385   2.584
13519TIP3    H240499   0.350   3.412   2.689
13520TIP3   OH240500   5.269   4.100   4.523
13520TIP3    H140501   5.182   4.088   4.561
13520TIP3    H240502   5.269   4.043   4.446
13521TIP3   OH240503   2.180   1.520   6.096
13521TIP3    H140504   2.229   1.529   6.177
13521TIP3    H240505   2.224   1.577   6.034
13522TIP3   OH240506   6.999   4.540   3.382
13522TIP3    H140507   7.025   4.550   3.290
13522TIP3    H240508   6.974   4.629   3.409
13523TIP3   OH240509   0.619   5.975   0.574
13523TIP3    H140510   0.663   5.899   0.537
13523TIP3    H240511   0.545   5.992   0.516
13524TIP3   OH240512   3.767   4.853   0.141
13524TIP3    H140513   3.769   4.760   0.118
13524TIP3    H240514   3.837   4.893   0.089
13525TIP3   OH240515   3.117   4.658   6.262
13525TIP3    H140516   3.085   4.739   6.224
13525TIP3    H240517   3.112   4.594   6.192
13526TIP3   OH240518   4.995   7.058   1.580
13526TIP3    H140519   5.079   7.057   1.624
13526TIP3    H240520   4.947   7.131   1.620
13527TIP3   OH240521   0.762   0.713   6.594
13527TIP3    H140522   0.693   0.777   6.578
13527TIP3    H240523   0.770   0.666   6.511
13528TIP3   OH240524   7.330   7.736   0.168
13528TIP3    H140525   7.261   7.783   0.215
13528TIP3    H240526   7.363   7.799   0.104
13529TIP3   OH240527   1.402   0.462   5.750
13529TIP3    H140528   1.432   0.551   5.733
13529TIP3    H240529   1.482   0.413   5.771
13530TIP3   OH240530   0.752   0.868   3.104
13530TIP3    H140531   0.716   0.862   3.192
13530TIP3    H240532   0.843   0.839   3.113
13531TIP3   OH240533   4.450   0.944   5.991
13531TIP3    H140534   4.472   0.859   6.028
13531TIP3    H240535   4.429   0.998   6.067
13532TIP3   OH240536   8.131   4.851   3.498
13532TIP3    H140537   8.227   4.855   3.501
13532TIP3    H240538   8.104   4.942   3.498
13533TIP3   OH240539   5.978   2.473   5.346
13533TIP3    H140540   6.009   2.491   5.257
13533TIP3    H240541   5.950   2.381   5.343
13534TIP3   OH240542   0.567   5.848   0.202
13534TIP3    H140543   0.478   5.838   0.236
13534TIP3    H240544   0.562   5.923   0.144
13535TIP3   OH240545   1.697   4.786   6.400
13535TIP3    H140546   1.736   4.845   6.464
13535TIP3    H240547   1.767   4.724   6.380
13536TIP3   OH240548   7.700   3.411   3.553
13536TIP3    H140549   7.686   3.500   3.587
13536TIP3    H240550   7.751   3.423   3.473
13537TIP3   OH240551   0.365   0.636   4.698
13537TIP3    H140552   0.399   0.672   4.780
13537TIP3    H240553   0.273   0.662   4.697
13538TIP3   OH240554   8.069   4.977   5.106
13538TIP3    H140555   8.100   4.918   5.175
13538TIP3    H240556   8.021   4.920   5.045
13539TIP3   OH240557   4.446   4.947   3.283
13539TIP3    H140558   4.493   4.946   3.367
13539TIP3    H240559   4.473   4.866   3.240
13540TIP3   OH240560   5.749   3.360   5.186
13540TIP3    H140561   5.786   3.448   5.182
13540TIP3    H240562   5.673   3.364   5.128
13541TIP3   OH240563   0.315   7.360   1.617
13541TIP3    H140564   0.258   7.284   1.610
13541TIP3    H240565   0.391   7.329   1.665
13542TIP3   OH240566   5.057   3.923   6.349
13542TIP3    H140567   5.082   3.963   6.266
13542TIP3    H240568   5.140   3.906   6.394
13543TIP3   OH240569   1.221   4.447   5.917
13543TIP3    H140570   1.136   4.476   5.952
13543TIP3    H240571   1.271   4.528   5.907
13544TIP3   OH240572   3.618   2.044   3.535
13544TIP3    H140573   3.579   1.957   3.520
13544TIP3    H240574   3.678   2.056   3.461
13545TIP3   OH240575   3.127   7.190   4.086
13545TIP3    H140576   3.121   7.187   4.182
13545TIP3    H240577   3.036   7.186   4.056
13546TIP3   OH240578   5.352   3.645   6.817
13546TIP3    H140579   5.261   3.670   6.829
13546TIP3    H240580   5.352   3.595   6.735
13547TIP3   OH240581   0.496   2.383   1.568
13547TIP3    H140582   0.524   2.391   1.659
13547TIP3    H240583   0.569   2.419   1.518
13548TIP3   OH240584   3.183   6.050   2.896
13548TIP3    H140585   3.249   6.025   2.961
13548TIP3    H240586   3.185   6.146   2.895
13549TIP3   OH240587   3.650   1.033   5.692
13549TIP3    H140588   3.611   1.114   5.660
13549TIP3    H240589   3.659   1.046   5.787
13550TIP3   OH240590   1.565   5.253   5.452
13550TIP3    H140591   1.657   5.237   5.473
13550TIP3    H240592   1.522   5.168   5.461
13551TIP3   OH240593   3.821   6.269   3.757
13551TIP3    H140594   3.785   6.183   3.779
13551TIP3    H240595   3.816   6.319   3.838
13552TIP3   OH240596   1.845   6.906   5.067
13552TIP3    H140597   1.808   6.962   4.998
13552TIP3    H240598   1.768   6.870   5.112
13553TIP3   OH240599   2.972   2.196   1.711
13553TIP3    H140600   2.922   2.254   1.769
13553TIP3    H240601   3.042   2.252   1.676
13554TIP3   OH240602   3.660   7.206   0.827
13554TIP3    H140603   3.667   7.198   0.732
13554TIP3    H240604   3.636   7.297   0.843
13555TIP3   OH240605   0.693   7.865   2.018
13555TIP3    H140606   0.638   7.926   2.067
13555TIP3    H240607   0.638   7.837   1.944
13556TIP3   OH240608   4.298   0.371   1.469
13556TIP3    H140609   4.380   0.334   1.435
13556TIP3    H240610   4.233   0.351   1.402
13557TIP3   OH240611   5.243   2.954   5.125
13557TIP3    H140612   5.224   2.978   5.216
13557TIP3    H240613   5.292   3.029   5.091
13558TIP3   OH240614   3.092   6.917   2.068
13558TIP3    H140615   3.171   6.949   2.110
13558TIP3    H240616   3.050   6.995   2.032
13559TIP3   OH240617   0.641   5.418   0.707
13559TIP3    H140618   0.678   5.332   0.690
13559TIP3    H240619   0.612   5.415   0.798
13560TIP3   OH240620   6.686   1.895   3.163
13560TIP3    H140621   6.668   1.920   3.253
13560TIP3    H240622   6.673   1.975   3.112
13561TIP3   OH240623   1.792   5.907   5.584
13561TIP3    H140624   1.753   5.905   5.497
13561TIP3    H240625   1.870   5.852   5.577
13562TIP3   OH240626   1.287   0.583   6.807
13562TIP3    H140627   1.208   0.599   6.755
13562TIP3    H240628   1.306   0.668   6.848
13563TIP3   OH240629   1.892   0.150   5.214
13563TIP3    H140630   1.889   0.181   5.304
13563TIP3    H240631   1.897   0.055   5.221
13564TIP3   OH240632   5.423   3.190   6.145
13564TIP3    H140633   5.404   3.096   6.156
13564TIP3    H240634   5.432   3.202   6.051
13565TIP3   OH240635   3.116   3.410   5.358
13565TIP3    H140636   3.097   3.380   5.447
13565TIP3    H240637   3.101   3.332   5.303
13566TIP3   OH240638   2.586   0.199   2.124
13566TIP3    H140639   2.607   0.172   2.214
13566TIP3    H240640   2.543   0.123   2.085
13567TIP3   OH240641   2.941   4.239   5.972
13567TIP3    H140642   2.851   4.271   5.960
13567TIP3    H240643   2.981   4.250   5.886
13568TIP3   OH240644   4.374   7.663   3.729
13568TIP3    H140645   4.382   7.568   3.720
13568TIP3    H240646   4.435   7.686   3.800
13569TIP3   OH240647   7.346   3.705   4.626
13569TIP3    H140648   7.417   3.640   4.619
13569TIP3    H240649   7.359   3.744   4.713
13570TIP3   OH240650   6.982   2.993   4.430
13570TIP3    H140651   7.027   2.980   4.346
13570TIP3    H240652   7.036   2.946   4.494
13571TIP3   OH240653   3.601   2.160   3.784
13571TIP3    H140654   3.591   2.101   3.710
13571TIP3    H240655   3.575   2.246   3.750
13572TIP3   OH240656   7.380   7.386   6.586
13572TIP3    H140657   7.447   7.324   6.612
13572TIP3    H240658   7.413   7.472   6.614
13573TIP3   OH240659   2.946   6.460   5.549
13573TIP3    H140660   3.010   6.523   5.583
13573TIP3    H240661   2.922   6.407   5.626
13574TIP3   OH240662   3.410   5.375   4.892
13574TIP3    H140663   3.502   5.404   4.897
13574TIP3    H240664   3.392   5.370   4.798
13575TIP3   OH240665   4.424   3.614   6.430
13575TIP3    H140666   4.392   3.604   6.520
13575TIP3    H240667   4.362   3.672   6.388
13576TIP3   OH240668   1.308   7.028   4.583
13576TIP3    H140669   1.320   6.983   4.499
13576TIP3    H240670   1.298   6.958   4.647
13577TIP3   OH240671   5.643   2.982   2.726
13577TIP3    H140672   5.705   3.006   2.795
13577TIP3    H240673   5.559   3.016   2.755
13578TIP3   OH240674   6.591   7.578   4.003
13578TIP3    H140675   6.518   7.573   4.064
13578TIP3    H240676   6.664   7.612   4.055
13579TIP3   OH240677   2.233   2.222   1.479
13579TIP3    H140678   2.199   2.145   1.525
13579TIP3    H240679   2.215   2.295   1.539
13580TIP3   OH240680   1.493   0.645   2.742
13580TIP3    H140681   1.579   0.607   2.758
13580TIP3    H240682   1.477   0.702   2.817
13581TIP3   OH240683   1.008   5.064   3.142
13581TIP3    H140684   1.101   5.080   3.155
13581TIP3    H240685   0.991   5.089   3.051
13582TIP3   OH240686   0.130   0.416   1.765
13582TIP3    H140687   0.177   0.395   1.845
13582TIP3    H240688   0.086   0.499   1.782
13583TIP3   OH240689   7.100   3.621   0.423
13583TIP3    H140690   7.064   3.706   0.446
13583TIP3    H240691   7.112   3.624   0.328
13584TIP3   OH240692   3.973   1.521   2.414
13584TIP3    H140693   3.894   1.485   2.454
13584TIP3    H240694   3.985   1.606   2.456
13585TIP3   OH240695   2.463   5.671   0.082
13585TIP3    H140696   2.421   5.693   0.165
13585TIP3    H240697   2.447   5.747   0.025
13586TIP3   OH240698   8.139   2.021   2.042
13586TIP3    H140699   8.073   2.033   2.110
13586TIP3    H240700   8.092   1.979   1.970
13587TIP3   OH240701   1.970   1.812   1.189
13587TIP3    H140702   1.952   1.875   1.259
13587TIP3    H240703   2.065   1.819   1.175
13588TIP3   OH240704   0.648   5.548   2.769
13588TIP3    H140705   0.630   5.574   2.859
13588TIP3    H240706   0.714   5.610   2.737
13589TIP3   OH240707   4.640   2.476   1.637
13589TIP3    H140708   4.689   2.465   1.718
13589TIP3    H240709   4.692   2.538   1.585
13590TIP3   OH240710   4.525   1.029   0.376
13590TIP3    H140711   4.514   1.032   0.281
13590TIP3    H240712   4.437   1.036   0.411
13591TIP3   OH240713   7.645   4.686   3.552
13591TIP3    H140714   7.720   4.640   3.591
13591TIP3    H240715   7.655   4.675   3.458
13592TIP3   OH240716   7.102   5.477   4.543
13592TIP3    H140717   7.173   5.503   4.601
13592TIP3    H240718   7.024   5.517   4.580
13593TIP3   OH240719   3.848   6.581   1.412
13593TIP3    H140720   3.784   6.533   1.463
13593TIP3    H240721   3.804   6.598   1.328
13594TIP3   OH240722   5.032   7.294   5.912
13594TIP3    H140723   5.051   7.386   5.890
13594TIP3    H240724   5.074   7.281   5.997
13595TIP3   OH240725   1.887   7.839   4.108
13595TIP3    H140726   1.966   7.894   4.113
13595TIP3    H240727   1.854   7.838   4.198
13596TIP3   OH240728   8.112   7.792   5.481
13596TIP3    H140729   8.131   7.881   5.449
13596TIP3    H240730   8.023   7.797   5.516
13597TIP3   OH240731   0.115   3.761   4.886
13597TIP3    H140732   0.074   3.805   4.960
13597TIP3    H240733   0.042   3.719   4.840
13598TIP3   OH240734   8.020   3.221   2.288
13598TIP3    H140735   7.958   3.153   2.314
13598TIP3    H240736   8.016   3.285   2.359
13599TIP3   OH240737   2.634   5.089   2.103
13599TIP3    H140738   2.704   5.099   2.038
13599TIP3    H240739   2.679   5.088   2.187
13600TIP3   OH240740   7.355   7.269   1.530
13600TIP3    H140741   7.384   7.342   1.475
13600TIP3    H240742   7.435   7.240   1.575
13601TIP3   OH240743   8.181   3.129   6.678
13601TIP3    H140744   8.230   3.091   6.605
13601TIP3    H240745   8.163   3.054   6.736
13602TIP3   OH240746   2.274   4.261   6.334
13602TIP3    H140747   2.276   4.210   6.252
13602TIP3    H240748   2.298   4.198   6.402
13603TIP3   OH240749   5.424   0.992   6.458
13603TIP3    H140750   5.330   0.976   6.450
13603TIP3    H240751   5.465   0.917   6.416
13604TIP3   OH240752   5.718   4.441   5.373
13604TIP3    H140753   5.798   4.413   5.417
13604TIP3    H240754   5.739   4.527   5.336
13605TIP3   OH240755   7.620   0.111   2.322
13605TIP3    H140756   7.537   0.156   2.306
13605TIP3    H240757   7.672   0.128   2.244
13606TIP3   OH240758   0.390   0.569   0.739
13606TIP3    H140759   0.406   0.500   0.804
13606TIP3    H240760   0.410   0.650   0.785
13607TIP3   OH240761   0.861   5.780   3.008
13607TIP3    H140762   0.821   5.829   2.937
13607TIP3    H240763   0.862   5.841   3.082
13608TIP3   OH240764   1.355   1.839   3.419
13608TIP3    H140765   1.288   1.838   3.351
13608TIP3    H240766   1.365   1.748   3.446
13609TIP3   OH240767   2.320   3.384   3.567
13609TIP3    H140768   2.391   3.408   3.627
13609TIP3    H240769   2.361   3.380   3.481
13610TIP3   OH240770   7.910   0.621   6.740
13610TIP3    H140771   7.984   0.663   6.696
13610TIP3    H240772   7.946   0.539   6.773
13611TIP3   OH240773   3.136   4.521   5.065
13611TIP3    H140774   3.067   4.470   5.024
13611TIP3    H240775   3.100   4.610   5.071
13612TIP3   OH240776   2.969   4.243   1.380
13612TIP3    H140777   3.001   4.280   1.462
13612TIP3    H240778   2.997   4.151   1.383
13613TIP3   OH240779   2.549   4.666   3.588
13613TIP3    H140780   2.529   4.733   3.523
13613TIP3    H240781   2.491   4.686   3.662
13614TIP3   OH240782   1.082   3.353   4.683
13614TIP3    H140783   1.100   3.261   4.665
13614TIP3    H240784   0.986   3.360   4.676
13615TIP3   OH240785   1.251   0.134   2.744
13615TIP3    H140786   1.236   0.229   2.745
13615TIP3    H240787   1.260   0.113   2.651
13616TIP3   OH240788   5.711   7.510   2.476
13616TIP3    H140789   5.635   7.472   2.519
13616TIP3    H240790   5.780   7.444   2.488
13617TIP3   OH240791   7.808   4.718   0.607
13617TIP3    H140792   7.748   4.784   0.573
13617TIP3    H240793   7.795   4.720   0.702
13618TIP3   OH240794   7.274   6.887   4.783
13618TIP3    H140795   7.221   6.820   4.739
13618TIP3    H240796   7.332   6.838   4.840
13619TIP3   OH240797   4.187   4.214   1.295
13619TIP3    H140798   4.240   4.159   1.238
13619TIP3    H240799   4.233   4.298   1.298
13620TIP3   OH240800   0.668   7.773   5.879
13620TIP3    H140801   0.745   7.739   5.925
13620TIP3    H240802   0.704   7.822   5.805
13621TIP3   OH240803   4.096   5.920   3.263
13621TIP3    H140804   4.105   5.987   3.194
13621TIP3    H240805   4.070   5.969   3.341
13622TIP3   OH240806   3.287   2.792   5.105
13622TIP3    H140807   3.364   2.749   5.068
13622TIP3    H240808   3.242   2.831   5.030
13623TIP3   OH240809   0.982   5.395   2.081
13623TIP3    H140810   1.014   5.477   2.043
13623TIP3    H240811   0.929   5.422   2.156
13624TIP3   OH240812   4.133   6.672   6.808
13624TIP3    H140813   4.091   6.731   6.746
13624TIP3    H240814   4.187   6.728   6.863
13625TIP3   OH240815   2.530   6.900   1.715
13625TIP3    H140816   2.579   6.859   1.786
13625TIP3    H240817   2.548   6.845   1.639
13626TIP3   OH240818   6.579   1.053   0.343
13626TIP3    H140819   6.635   1.052   0.265
13626TIP3    H240820   6.570   0.961   0.368
13627TIP3   OH240821   5.347   7.546   3.890
13627TIP3    H140822   5.415   7.602   3.926
13627TIP3    H240823   5.389   7.460   3.882
13628TIP3   OH240824   2.166   7.154   1.985
13628TIP3    H140825   2.128   7.179   1.902
13628TIP3    H240826   2.121   7.073   2.009
13629TIP3   OH240827   3.182   5.602   3.604
13629TIP3    H140828   3.170   5.533   3.538
13629TIP3    H240829   3.119   5.670   3.579
13630TIP3   OH240830   4.014   2.378   3.459
13630TIP3    H140831   4.038   2.300   3.508
13630TIP3    H240832   3.935   2.410   3.502
13631TIP3   OH240833   2.071   6.438   1.688
13631TIP3    H140834   2.072   6.436   1.783
13631TIP3    H240835   2.139   6.377   1.661
13632TIP3   OH240836   2.549   6.926   3.972
13632TIP3    H140837   2.491   6.988   4.017
13632TIP3    H240838   2.628   6.923   4.026
13633TIP3   OH240839   8.288   5.557   5.021
13633TIP3    H140840   8.202   5.590   5.049
13633TIP3    H240841   8.271   5.466   4.997
13634TIP3   OH240842   0.574   0.302   1.860
13634TIP3    H140843   0.565   0.397   1.862
13634TIP3    H240844   0.523   0.275   1.784
13635TIP3   OH240845   3.299   1.635   6.586
13635TIP3    H140846   3.290   1.589   6.502
13635TIP3    H240847   3.394   1.636   6.602
13636TIP3   OH240848   8.142   4.410   2.801
13636TIP3    H140849   8.185   4.393   2.885
13636TIP3    H240850   8.150   4.505   2.789
13637TIP3   OH240851   3.518   2.339   0.054
13637TIP3    H140852   3.524   2.427   0.091
13637TIP3    H240853   3.607   2.305   0.058
13638TIP3   OH240854   4.445   0.790   3.510
13638TIP3    H140855   4.383   0.834   3.569
13638TIP3    H240856   4.500   0.861   3.477
13639TIP3   OH240857   6.972   4.985   0.392
13639TIP3    H140858   7.012   4.904   0.360
13639TIP3    H240859   6.879   4.975   0.373
13640TIP3   OH240860   4.578   6.196   6.132
13640TIP3    H140861   4.650   6.144   6.096
13640TIP3    H240862   4.561   6.262   6.065
13641TIP3   OH240863   6.462   7.848   4.879
13641TIP3    H140864   6.473   7.871   4.971
13641TIP3    H240865   6.421   7.925   4.839
13642TIP3   OH240866   1.113   6.664   0.199
13642TIP3    H140867   1.081   6.616   0.276
13642TIP3    H240868   1.037   6.673   0.142
13643TIP3   OH240869   5.581   0.302   0.039
13643TIP3    H140870   5.497   0.276   0.078
13643TIP3    H240871   5.601   0.386   0.081
13644TIP3   OH240872   7.741   4.109   5.651
13644TIP3    H140873   7.663   4.126   5.599
13644TIP3    H240874   7.721   4.146   5.737
13645TIP3   OH240875   4.225   2.797   4.596
13645TIP3    H140876   4.284   2.724   4.578
13645TIP3    H240877   4.220   2.845   4.513
13646TIP3   OH240878   4.814   5.047   5.082
13646TIP3    H140879   4.829   5.132   5.041
13646TIP3    H240880   4.814   5.066   5.176
13647TIP3   OH240881   8.096   0.135   4.242
13647TIP3    H140882   8.148   0.200   4.289
13647TIP3    H240883   8.156   0.063   4.225
13648TIP3   OH240884   4.179   0.385   3.240
13648TIP3    H140885   4.102   0.440   3.224
13648TIP3    H240886   4.192   0.339   3.157
13649TIP3   OH240887   3.243   1.823   3.327
13649TIP3    H140888   3.237   1.833   3.232
13649TIP3    H240889   3.154   1.838   3.359
13650TIP3   OH240890   5.676   3.259   3.810
13650TIP3    H140891   5.700   3.179   3.764
13650TIP3    H240892   5.603   3.295   3.760
13651TIP3   OH240893   0.542   0.571   1.447
13651TIP3    H140894   0.587   0.494   1.413
13651TIP3    H240895   0.458   0.537   1.479
13652TIP3   OH240896   6.581   4.585   6.737
13652TIP3    H140897   6.628   4.597   6.819
13652TIP3    H240898   6.491   4.566   6.764
13653TIP3   OH240899   7.041   5.020   4.249
13653TIP3    H140900   7.052   5.110   4.278
13653TIP3    H240901   6.966   4.987   4.300
13654TIP3   OH240902   1.198   5.844   0.390
13654TIP3    H140903   1.187   5.749   0.377
13654TIP3    H240904   1.174   5.882   0.305
13655TIP3   OH240905   6.412   3.408   4.860
13655TIP3    H140906   6.449   3.358   4.933
13655TIP3    H240907   6.446   3.497   4.873
13656TIP3   OH240908   5.518   2.382   4.005
13656TIP3    H140909   5.431   2.412   4.034
13656TIP3    H240910   5.571   2.383   4.084
13657TIP3   OH240911   3.483   0.707   3.686
13657TIP3    H140912   3.549   0.649   3.724
13657TIP3    H240913   3.401   0.681   3.727
13658TIP3   OH240914   8.023   0.944   1.110
13658TIP3    H140915   8.094   0.933   1.173
13658TIP3    H240916   8.060   0.916   1.026
13659TIP3   OH240917   7.354   4.792   4.713
13659TIP3    H140918   7.410   4.870   4.717
13659TIP3    H240919   7.415   4.720   4.698
13660TIP3   OH240920   5.005   6.907   1.079
13660TIP3    H140921   4.967   6.988   1.048
13660TIP3    H240922   5.095   6.930   1.105
13661TIP3   OH240923   6.678   1.314   4.534
13661TIP3    H140924   6.732   1.321   4.456
13661TIP3    H240925   6.606   1.374   4.519
13662TIP3   OH240926   6.431   6.825   4.768
13662TIP3    H140927   6.469   6.887   4.706
13662TIP3    H240928   6.470   6.741   4.744
13663TIP3   OH240929   2.534   1.574   2.037
13663TIP3    H140930   2.481   1.650   2.012
13663TIP3    H240931   2.529   1.572   2.133
13664TIP3   OH240932   2.440   5.074   5.203
13664TIP3    H140933   2.436   5.050   5.296
13664TIP3    H240934   2.350   5.067   5.173
13665TIP3   OH240935   1.547   0.425   1.352
13665TIP3    H140936   1.506   0.339   1.342
13665TIP3    H240937   1.628   0.408   1.399
13666TIP3   OH240938   3.367   6.315   4.722
13666TIP3    H140939   3.363   6.231   4.768
13666TIP3    H240940   3.277   6.347   4.724
13667TIP3   OH240941   7.866   0.085   6.749
13667TIP3    H140942   7.861  -0.010   6.736
13667TIP3    H240943   7.781   0.108   6.788
13668TIP3   OH240944   5.066   4.654   3.628
13668TIP3    H140945   5.152   4.680   3.662
13668TIP3    H240946   5.068   4.558   3.629
13669TIP3   OH240947   2.602   1.705   4.646
13669TIP3    H140948   2.654   1.659   4.580
13669TIP3    H240949   2.538   1.755   4.596
13670TIP3   OH240950   2.746   6.857   1.180
13670TIP3    H140951   2.754   6.836   1.273
13670TIP3    H240952   2.771   6.949   1.174
13671TIP3   OH240953   5.193   5.526   6.717
13671TIP3    H140954   5.210   5.614   6.751
13671TIP3    H240955   5.242   5.468   6.774
13672TIP3   OH240956   4.782   2.911   0.969
13672TIP3    H140957   4.689   2.885   0.971
13672TIP3    H240958   4.795   2.942   0.880
13673TIP3   OH240959   7.037   3.110   5.990
13673TIP3    H140960   7.050   3.176   6.058
13673TIP3    H240961   6.961   3.059   6.020
13674TIP3   OH240962   2.379   5.665   6.144
13674TIP3    H140963   2.379   5.569   6.143
13674TIP3    H240964   2.432   5.690   6.068
13675TIP3   OH240965   7.159   0.736   2.428
13675TIP3    H140966   7.167   0.744   2.332
13675TIP3    H240967   7.249   0.744   2.460
13676TIP3   OH240968   2.588   2.193   2.194
13676TIP3    H140969   2.508   2.183   2.245
13676TIP3    H240970   2.595   2.111   2.145
13677TIP3   OH240971   5.807   0.124   4.950
13677TIP3    H140972   5.898   0.102   4.933
13677TIP3    H240973   5.798   0.115   5.045
13678TIP3   OH240974   2.938   0.722   1.946
13678TIP3    H140975   2.889   0.706   1.865
13678TIP3    H240976   2.993   0.797   1.927
13679TIP3   OH240977   5.057   1.193   1.637
13679TIP3    H140978   4.968   1.206   1.604
13679TIP3    H240979   5.113   1.214   1.562
13680TIP3   OH240980   0.690   1.761   4.667
13680TIP3    H140981   0.605   1.806   4.670
13680TIP3    H240982   0.668   1.668   4.665
13681TIP3   OH240983   0.977   4.284   6.052
13681TIP3    H140984   0.942   4.239   5.975
13681TIP3    H240985   0.956   4.226   6.125
13682TIP3   OH240986   6.431   7.839   0.510
13682TIP3    H140987   6.452   7.760   0.559
13682TIP3    H240988   6.465   7.911   0.565
13683TIP3   OH240989   0.578   5.817   2.528
13683TIP3    H140990   0.627   5.895   2.501
13683TIP3    H240991   0.636   5.771   2.587
13684TIP3   OH240992   8.168   6.620   4.609
13684TIP3    H140993   8.231   6.657   4.547
13684TIP3    H240994   8.082   6.644   4.573
13685TIP3   OH240995   0.729   5.893   1.280
13685TIP3    H140996   0.671   5.919   1.352
13685TIP3    H240997   0.675   5.900   1.202
13686TIP3   OH240998   5.540   3.295   1.693
13686TIP3    H140999   5.621   3.272   1.648
13686TIP3    H241000   5.497   3.358   1.635
13687TIP3   OH241001   0.524   5.249   4.843
13687TIP3    H141002   0.472   5.327   4.862
13687TIP3    H241003   0.573   5.272   4.763
13688TIP3   OH241004   2.697   4.702   6.700
13688TIP3    H141005   2.654   4.732   6.621
13688TIP3    H241006   2.651   4.621   6.724
13689TIP3   OH241007   6.918   7.274   0.554
13689TIP3    H141008   6.909   7.336   0.481
13689TIP3    H241009   6.829   7.258   0.582
13690TIP3   OH241010   5.043   3.724   1.710
13690TIP3    H141011   4.967   3.737   1.767
13690TIP3    H241012   5.118   3.752   1.762
13691TIP3   OH241013   5.063   7.120   5.471
13691TIP3    H141014   5.029   7.122   5.560
13691TIP3    H241015   5.030   7.038   5.434
13692TIP3   OH241016   1.719   3.881   3.930
13692TIP3    H141017   1.646   3.853   3.876
13692TIP3    H241018   1.771   3.802   3.943
13693TIP3   OH241019   3.504   6.562   4.547
13693TIP3    H141020   3.499   6.564   4.643
13693TIP3    H241021   3.588   6.522   4.528
13694TIP3   OH241022   6.204   2.969   2.924
13694TIP3    H141023   6.213   3.009   2.837
13694TIP3    H241024   6.210   3.042   2.985
13695TIP3   OH241025   2.716   0.051   5.708
13695TIP3    H141026   2.750   0.139   5.727
13695TIP3    H241027   2.740   0.000   5.785
13696TIP3   OH241028   8.251   2.042   5.856
13696TIP3    H141029   8.195   1.968   5.882
13696TIP3    H241030   8.328   2.034   5.912
13697TIP3   OH241031   7.778   6.265   3.855
13697TIP3    H141032   7.775   6.276   3.950
13697TIP3    H241033   7.738   6.180   3.840
13698TIP3   OH241034   5.466   1.946   6.277
13698TIP3    H141035   5.374   1.970   6.270
13698TIP3    H241036   5.512   2.030   6.286
13699TIP3   OH241037   3.382   1.454   4.040
13699TIP3    H141038   3.454   1.392   4.052
13699TIP3    H241039   3.398   1.492   3.954
13700TIP3   OH241040   0.158   1.866   1.240
13700TIP3    H141041   0.148   1.823   1.325
13700TIP3    H241042   0.168   1.794   1.178
13701TIP3   OH241043   7.544   3.806   1.759
13701TIP3    H141044   7.628   3.777   1.794
13701TIP3    H241045   7.479   3.763   1.814
13702TIP3   OH241046   4.076   5.127   2.249
13702TIP3    H141047   4.150   5.086   2.293
13702TIP3    H241048   4.114   5.169   2.172
13703TIP3   OH241049   7.107   6.465   2.050
13703TIP3    H141050   7.014   6.475   2.072
13703TIP3    H241051   7.144   6.416   2.123
13704TIP3   OH241052   0.956   2.018   4.218
13704TIP3    H141053   0.886   1.975   4.169
13704TIP3    H241054   1.001   2.072   4.153
13705TIP3   OH241055   2.982   0.934   0.459
13705TIP3    H141056   2.999   1.019   0.497
13705TIP3    H241057   2.923   0.952   0.385
13706TIP3   OH241058   6.672   6.661   3.171
13706TIP3    H141059   6.667   6.739   3.116
13706TIP3    H241060   6.666   6.693   3.261
13707TIP3   OH241061   2.914   2.645   2.655
13707TIP3    H141062   2.969   2.723   2.655
13707TIP3    H241063   2.943   2.595   2.578
13708TIP3   OH241064   7.807   1.296   4.558
13708TIP3    H141065   7.733   1.344   4.594
13708TIP3    H241066   7.843   1.354   4.491
13709TIP3   OH241067   5.307   7.479   1.899
13709TIP3    H141068   5.357   7.405   1.866
13709TIP3    H241069   5.365   7.519   1.964
13710TIP3   OH241070   2.572   5.434   3.196
13710TIP3    H141071   2.516   5.507   3.170
13710TIP3    H241072   2.514   5.359   3.201
13711TIP3   OH241073   0.965   2.020   6.820
13711TIP3    H141074   0.897   1.955   6.836
13711TIP3    H241075   1.013   1.987   6.744
13712TIP3   OH241076   4.827   7.806   5.645
13712TIP3    H141077   4.896   7.872   5.658
13712TIP3    H241078   4.860   7.728   5.689
13713TIP3   OH241079   8.325   0.342   4.259
13713TIP3    H141080   8.282   0.310   4.338
13713TIP3    H241081   8.417   0.319   4.271
13714TIP3   OH241082   2.740   6.254   3.845
13714TIP3    H141083   2.736   6.279   3.937
13714TIP3    H241084   2.680   6.181   3.837
13715TIP3   OH241085   3.469   1.695   2.366
13715TIP3    H141086   3.419   1.682   2.285
13715TIP3    H241087   3.505   1.783   2.357
13716TIP3   OH241088   4.088   4.609   0.318
13716TIP3    H141089   4.114   4.678   0.258
13716TIP3    H241090   4.097   4.648   0.405
13717TIP3   OH241091   0.900   6.846   0.532
13717TIP3    H141092   0.823   6.796   0.505
13717TIP3    H241093   0.867   6.907   0.598
13718TIP3   OH241094   5.238   5.369   6.330
13718TIP3    H141095   5.306   5.384   6.394
13718TIP3    H241096   5.157   5.397   6.373
13719TIP3   OH241097   7.803   0.989   0.908
13719TIP3    H141098   7.883   0.978   0.855
13719TIP3    H241099   7.815   0.930   0.982
13720TIP3   OH241100   7.041   5.513   0.511
13720TIP3    H141101   7.127   5.474   0.529
13720TIP3    H241102   7.061   5.588   0.454
13721TIP3   OH241103   2.169   4.579   3.684
13721TIP3    H141104   2.162   4.670   3.711
13721TIP3    H241105   2.112   4.531   3.745
13722TIP3   OH241106   0.231   0.544   1.025
13722TIP3    H141107   0.318   0.574   1.053
13722TIP3    H241108   0.248   0.465   0.973
13723TIP3   OH241109   6.133   6.557   1.129
13723TIP3    H141110   6.074   6.485   1.106
13723TIP3    H241111   6.094   6.595   1.208
13724TIP3   OH241112   4.640   6.071   0.488
13724TIP3    H141113   4.545   6.084   0.486
13724TIP3    H241114   4.670   6.114   0.567
13725TIP3   OH241115   7.696   7.352   2.222
13725TIP3    H141116   7.708   7.258   2.232
13725TIP3    H241117   7.680   7.384   2.311
13726TIP3   OH241118   0.097   6.639   2.285
13726TIP3    H141119   0.088   6.568   2.349
13726TIP3    H241120   0.190   6.639   2.262
13727TIP3   OH241121   5.934   2.802   0.584
13727TIP3    H141122   5.972   2.740   0.521
13727TIP3    H241123   6.009   2.834   0.634
13728TIP3   OH241124   7.753   4.650   2.659
13728TIP3    H141125   7.680   4.636   2.599
13728TIP3    H241126   7.775   4.562   2.691
13729TIP3   OH241127   7.748   0.659   3.106
13729TIP3    H141128   7.719   0.595   3.170
13729TIP3    H241129   7.670   0.711   3.086
13730TIP3   OH241130   3.701   6.274   6.366
13730TIP3    H141131   3.690   6.353   6.420
13730TIP3    H241132   3.712   6.203   6.429
13731TIP3   OH241133   6.102   0.071   6.594
13731TIP3    H141134   6.074   0.155   6.631
13731TIP3    H241135   6.021   0.030   6.564
13732TIP3   OH241136   5.599   5.861   5.440
13732TIP3    H141137   5.532   5.917   5.401
13732TIP3    H241138   5.554   5.778   5.457
13733TIP3   OH241139   1.606   3.126   3.366
13733TIP3    H141140   1.568   3.145   3.452
13733TIP3    H241141   1.697   3.157   3.373
13734TIP3   OH241142   1.675   6.692   6.502
13734TIP3    H141143   1.700   6.611   6.456
13734TIP3    H241144   1.758   6.730   6.531
13735TIP3   OH241145   1.156   3.774   4.479
13735TIP3    H141146   1.106   3.850   4.509
13735TIP3    H241147   1.230   3.812   4.432
13736TIP3   OH241148   7.347   4.423   4.329
13736TIP3    H141149   7.346   4.432   4.234
13736TIP3    H241150   7.266   4.377   4.350
13737TIP3   OH241151   0.500   6.261   4.307
13737TIP3    H141152   0.461   6.314   4.238
13737TIP3    H241153   0.438   6.189   4.320
13738TIP3   OH241154   2.669   1.081   2.530
13738TIP3    H141155   2.607   1.039   2.470
13738TIP3    H241156   2.747   1.027   2.526
13739TIP3   OH241157   7.667   0.684   0.031
13739TIP3    H141158   7.581   0.703  -0.006
13739TIP3    H241159   7.725   0.751  -0.006
13740TIP3   OH241160   0.857   4.059   3.475
13740TIP3    H141161   0.927   4.065   3.541
13740TIP3    H241162   0.864   3.970   3.441
13741TIP3   OH241163   1.115   4.239   2.322
13741TIP3    H141164   1.148   4.155   2.354
13741TIP3    H241165   1.025   4.221   2.294
13742TIP3   OH241166   7.710   4.170   5.922
13742TIP3    H141167   7.641   4.104   5.931
13742TIP3    H241168   7.678   4.245   5.973
13743TIP3   OH241169   3.175   6.641   0.550
13743TIP3    H141170   3.258   6.675   0.517
13743TIP3    H241171   3.110   6.665   0.484
13744TIP3   OH241172   1.033   5.015   2.398
13744TIP3    H141173   1.069   4.981   2.315
13744TIP3    H241174   1.110   5.041   2.448
13745TIP3   OH241175   3.512   5.108   2.917
13745TIP3    H141176   3.430   5.151   2.893
13745TIP3    H241177   3.494   5.067   3.002
13746TIP3   OH241178   2.847   3.031   2.010
13746TIP3    H141179   2.762   3.067   1.984
13746TIP3    H241180   2.848   2.943   1.972
13747TIP3   OH241181   8.157   4.023   2.508
13747TIP3    H141182   8.227   3.968   2.541
13747TIP3    H241183   8.095   3.962   2.468
13748TIP3   OH241184   0.995   3.254   6.092
13748TIP3    H141185   0.954   3.265   6.178
13748TIP3    H241186   1.024   3.342   6.069
13749TIP3   OH241187   5.114   3.921   0.635
13749TIP3    H141188   5.108   3.906   0.540
13749TIP3    H241189   5.028   3.954   0.660
13750TIP3   OH241190   2.056   2.955   2.659
13750TIP3    H141191   2.121   2.886   2.646
13750TIP3    H241192   2.033   2.950   2.752
13751TIP3   OH241193   6.369   4.081   0.021
13751TIP3    H141194   6.408   3.993   0.017
13751TIP3    H241195   6.441   4.138   0.049
13752TIP3   OH241196   2.761   2.883   1.305
13752TIP3    H141197   2.849   2.846   1.306
13752TIP3    H241198   2.754   2.930   1.388
13753TIP3   OH241199   3.160   7.269   5.119
13753TIP3    H141200   3.100   7.331   5.078
13753TIP3    H241201   3.152   7.286   5.213
13754TIP3   OH241202   5.062   3.682   2.871
13754TIP3    H141203   5.045   3.667   2.778
13754TIP3    H241204   5.016   3.763   2.891
13755TIP3   OH241205   6.538   5.655   6.432
13755TIP3    H141206   6.488   5.584   6.391
13755TIP3    H241207   6.483   5.732   6.422
13756TIP3   OH241208   7.616   3.339   3.857
13756TIP3    H141209   7.623   3.393   3.778
13756TIP3    H241210   7.669   3.262   3.837
13757TIP3   OH241211   6.820   7.217   4.709
13757TIP3    H141212   6.738   7.188   4.748
13757TIP3    H241213   6.798   7.239   4.619
13758TIP3   OH241214   2.432   0.162   4.798
13758TIP3    H141215   2.483   0.209   4.732
13758TIP3    H241216   2.498   0.114   4.849
13759TIP3   OH241217   2.425   1.527   3.300
13759TIP3    H141218   2.502   1.578   3.277
13759TIP3    H241219   2.360   1.593   3.325
13760TIP3   OH241220   2.689   5.114   3.487
13760TIP3    H141221   2.643   5.179   3.540
13760TIP3    H241222   2.750   5.073   3.548
13761TIP3   OH241223   5.761   3.054   4.906
13761TIP3    H141224   5.807   3.128   4.867
13761TIP3    H241225   5.673   3.058   4.869
13762TIP3   OH241226   4.249   0.380   5.615
13762TIP3    H141227   4.157   0.385   5.643
13762TIP3    H241228   4.248   0.320   5.541
13763TIP3   OH241229   7.235   3.469   5.012
13763TIP3    H141230   7.244   3.480   4.917
13763TIP3    H241231   7.212   3.377   5.023
13764TIP3   OH241232   2.850   3.861   5.557
13764TIP3    H141233   2.802   3.920   5.614
13764TIP3    H241234   2.784   3.799   5.525
13765TIP3   OH241235   6.844   2.676   0.474
13765TIP3    H141236   6.792   2.753   0.451
13765TIP3    H241237   6.922   2.712   0.517
13766TIP3   OH241238   1.804   5.206   5.549
13766TIP3    H141239   1.831   5.266   5.618
13766TIP3    H241240   1.845   5.122   5.572
13767TIP3   OH241241   3.899   7.811   4.187
13767TIP3    H141242   3.866   7.732   4.230
13767TIP3    H241243   3.918   7.871   4.260
13768TIP3   OH241244   4.850   0.055   0.222
13768TIP3    H141245   4.785   0.120   0.194
13768TIP3    H241246   4.834  -0.020   0.165
13769TIP3   OH241247   3.806   4.354   4.256
13769TIP3    H141248   3.769   4.342   4.169
13769TIP3    H241249   3.898   4.376   4.241
13770TIP3   OH241250   1.178   2.701   5.160
13770TIP3    H141251   1.116   2.668   5.095
13770TIP3    H241252   1.124   2.722   5.236
13771TIP3   OH241253   4.024   7.350   0.047
13771TIP3    H141254   4.060   7.389   0.127
13771TIP3    H241255   3.968   7.419   0.011
13772TIP3   OH241256   3.664   2.683   1.862
13772TIP3    H141257   3.723   2.627   1.913
13772TIP3    H241258   3.713   2.704   1.783
13773TIP3   OH241259   0.096   6.364   2.001
13773TIP3    H141260   0.032   6.355   2.072
13773TIP3    H241261   0.177   6.330   2.039
13774TIP3   OH241262   1.664   7.725   2.350
13774TIP3    H141263   1.587   7.721   2.406
13774TIP3    H241264   1.656   7.649   2.293
13775TIP3   OH241265   6.716   3.729   1.568
13775TIP3    H141266   6.711   3.726   1.472
13775TIP3    H241267   6.809   3.746   1.585
13776TIP3   OH241268   8.239   5.884   6.140
13776TIP3    H141269   8.164   5.921   6.187
13776TIP3    H241270   8.232   5.922   6.052
13777TIP3   OH241271   0.238   2.888   4.485
13777TIP3    H141272   0.213   2.841   4.406
13777TIP3    H241273   0.157   2.932   4.513
13778TIP3   OH241274   5.071   5.771   4.577
13778TIP3    H141275   5.110   5.855   4.551
13778TIP3    H241276   5.125   5.741   4.649
13779TIP3   OH241277   8.018   6.512   2.939
13779TIP3    H141278   8.001   6.600   2.904
13779TIP3    H241279   7.954   6.502   3.010
13780TIP3   OH241280   8.103   2.081   0.699
13780TIP3    H141281   8.035   2.109   0.760
13780TIP3    H241282   8.161   2.158   0.692
13781TIP3   OH241283   7.457   5.574   0.359
13781TIP3    H141284   7.495   5.550   0.275
13781TIP3    H241285   7.498   5.657   0.381
13782TIP3   OH241286   2.443   3.091   2.707
13782TIP3    H141287   2.458   3.147   2.783
13782TIP3    H241288   2.358   3.050   2.724
13783TIP3   OH241289   4.504   3.864   1.591
13783TIP3    H141290   4.491   3.838   1.682
13783TIP3    H241291   4.450   3.804   1.540
13784TIP3   OH241292   4.478   3.123   1.954
13784TIP3    H141293   4.467   3.037   1.914
13784TIP3    H241294   4.493   3.182   1.880
13785TIP3   OH241295   3.234   5.613   2.611
13785TIP3    H141296   3.200   5.526   2.591
13785TIP3    H241297   3.253   5.610   2.705
13786TIP3   OH241298   2.985   7.319   3.656
13786TIP3    H141299   2.979   7.251   3.588
13786TIP3    H241300   2.984   7.401   3.607
13787TIP3   OH241301   6.237   3.738   3.357
13787TIP3    H141302   6.317   3.687   3.370
13787TIP3    H241303   6.178   3.679   3.310
13788TIP3   OH241304   2.503   6.006   3.854
13788TIP3    H141305   2.429   5.949   3.834
13788TIP3    H241306   2.534   6.036   3.769
13789TIP3   OH241307   0.841   1.535   3.715
13789TIP3    H141308   0.821   1.554   3.623
13789TIP3    H241309   0.803   1.448   3.730
13790TIP3   OH241310   4.394   1.454   4.967
13790TIP3    H141311   4.358   1.442   5.054
13790TIP3    H241312   4.447   1.533   4.973
13791TIP3   OH241313   3.679   5.242   2.381
13791TIP3    H141314   3.732   5.320   2.392
13791TIP3    H241315   3.657   5.214   2.470
13792TIP3   OH241316   0.560   0.789   4.901
13792TIP3    H141317   0.624   0.735   4.854
13792TIP3    H241318   0.556   0.871   4.852
13793TIP3   OH241319   1.466   7.742   1.840
13793TIP3    H141320   1.420   7.760   1.921
13793TIP3    H241321   1.558   7.756   1.860
13794TIP3   OH241322   5.846   7.052   4.093
13794TIP3    H141323   5.854   7.107   4.170
13794TIP3    H241324   5.766   7.084   4.049
13795TIP3   OH241325   1.672   7.586   2.675
13795TIP3    H141326   1.741   7.652   2.682
13795TIP3    H241327   1.603   7.628   2.626
13796TIP3   OH241328   1.478   4.783   5.992
13796TIP3    H141329   1.550   4.737   6.034
13796TIP3    H241330   1.506   4.874   5.987
13797TIP3   OH241331   5.159   6.031  -0.006
13797TIP3    H141332   5.079   6.050   0.042
13797TIP3    H241333   5.219   6.102   0.017
13798TIP3   OH241334   5.480   3.682   3.740
13798TIP3    H141335   5.457   3.674   3.833
13798TIP3    H241336   5.557   3.740   3.739
13799TIP3   OH241337   8.221   4.008   1.664
13799TIP3    H141338   8.153   4.064   1.701
13799TIP3    H241339   8.189   3.919   1.679
13800TIP3   OH241340   0.249   5.098   4.326
13800TIP3    H141341   0.295   5.080   4.244
13800TIP3    H241342   0.157   5.096   4.303
13801TIP3   OH241343   1.105   3.980   2.028
13801TIP3    H141344   1.195   4.011   2.012
13801TIP3    H241345   1.116   3.896   2.071
13802TIP3   OH241346   6.143   1.752   4.235
13802TIP3    H141347   6.142   1.755   4.331
13802TIP3    H241348   6.220   1.699   4.214
13803TIP3   OH241349   5.031   5.452   6.476
13803TIP3    H141350   5.061   5.480   6.562
13803TIP3    H241351   4.968   5.520   6.449
13804TIP3   OH241352   3.495   4.513   2.781
13804TIP3    H141353   3.495   4.515   2.685
13804TIP3    H241354   3.416   4.464   2.803
13805TIP3   OH241355   7.763   2.216   1.973
13805TIP3    H141356   7.764   2.155   1.899
13805TIP3    H241357   7.783   2.301   1.934
13806TIP3   OH241358   4.070   4.147   4.455
13806TIP3    H141359   3.982   4.174   4.479
13806TIP3    H241360   4.057   4.071   4.398
13807TIP3   OH241361   2.305   3.681   4.026
13807TIP3    H141362   2.377   3.657   3.968
13807TIP3    H241363   2.347   3.704   4.109
13808TIP3   OH241364   1.592   4.392   1.239
13808TIP3    H141365   1.656   4.353   1.179
13808TIP3    H241366   1.541   4.318   1.270
13809TIP3   OH241367   5.495   4.729   4.050
13809TIP3    H141368   5.401   4.748   4.054
13809TIP3    H241369   5.537   4.815   4.044
13810TIP3   OH241370   6.090   4.555   2.507
13810TIP3    H141371   6.072   4.642   2.470
13810TIP3    H241372   6.005   4.525   2.539
13811TIP3   OH241373   4.932   7.708   1.093
13811TIP3    H141374   4.919   7.658   1.173
13811TIP3    H241375   5.023   7.735   1.097
13812TIP3   OH241376   0.439   1.422   3.222
13812TIP3    H141377   0.487   1.473   3.156
13812TIP3    H241378   0.349   1.420   3.189
13813TIP3   OH241379   8.056   5.688   6.038
13813TIP3    H141380   8.058   5.631   6.115
13813TIP3    H241381   8.046   5.776   6.074
13814TIP3   OH241382   5.261   6.678   4.047
13814TIP3    H141383   5.320   6.703   3.976
13814TIP3    H241384   5.267   6.583   4.051
13815TIP3   OH241385   4.210   4.644   4.663
13815TIP3    H141386   4.161   4.565   4.684
13815TIP3    H241387   4.195   4.658   4.570
13816TIP3   OH241388   5.884   5.818   6.006
13816TIP3    H141389   5.929   5.893   5.967
13816TIP3    H241390   5.931   5.802   6.089
13817TIP3   OH241391   2.742   1.891   2.528
13817TIP3    H141392   2.673   1.883   2.462
13817TIP3    H241393   2.696   1.884   2.612
13818TIP3   OH241394   1.017   4.423   0.392
13818TIP3    H141395   1.092   4.483   0.395
13818TIP3    H241396   1.009   4.400   0.300
13819TIP3   OH241397   0.812   4.497   2.782
13819TIP3    H141398   0.886   4.474   2.726
13819TIP3    H241399   0.758   4.555   2.728
13820TIP3   OH241400   0.515   1.996   0.265
13820TIP3    H141401   0.422   1.989   0.246
13820TIP3    H241402   0.556   2.013   0.180
13821TIP3   OH241403   5.103   6.632   5.360
13821TIP3    H141404   5.039   6.642   5.430
13821TIP3    H241405   5.057   6.582   5.293
13822TIP3   OH241406   8.276   4.323   2.276
13822TIP3    H141407   8.348   4.313   2.338
13822TIP3    H241408   8.293   4.259   2.208
13823TIP3   OH241409   5.983   6.606   6.707
13823TIP3    H141410   6.061   6.662   6.700
13823TIP3    H241411   6.017   6.517   6.700
13824TIP3   OH241412   7.901   1.596   1.150
13824TIP3    H141413   7.829   1.542   1.183
13824TIP3    H241414   7.946   1.628   1.229
13825TIP3   OH241415   3.034   6.910   4.272
13825TIP3    H141416   2.980   6.868   4.339
13825TIP3    H241417   3.093   6.968   4.321
13826TIP3   OH241418   8.013   6.136   4.535
13826TIP3    H141419   8.019   6.231   4.526
13826TIP3    H241420   8.103   6.105   4.528
13827TIP3   OH241421   8.222   4.339   4.877
13827TIP3    H141422   8.306   4.315   4.839
13827TIP3    H241423   8.238   4.340   4.972
13828TIP3   OH241424   7.961   3.573   1.852
13828TIP3    H141425   8.054   3.555   1.862
13828TIP3    H241426   7.938   3.539   1.766
13829TIP3   OH241427   7.347   3.278   3.762
13829TIP3    H141428   7.360   3.205   3.702
13829TIP3    H241429   7.429   3.327   3.759
13830TIP3   OH241430   8.186   2.437   4.406
13830TIP3    H141431   8.140   2.391   4.336
13830TIP3    H241432   8.184   2.376   4.480
13831TIP3   OH241433   3.615   4.558   4.274
13831TIP3    H141434   3.620   4.623   4.344
13831TIP3    H241435   3.693   4.505   4.285
13832TIP3   OH241436   6.340   2.394   5.497
13832TIP3    H141437   6.356   2.303   5.470
13832TIP3    H241438   6.418   2.418   5.547
13833TIP3   OH241439   3.089   3.278   5.593
13833TIP3    H141440   3.168   3.224   5.595
13833TIP3    H241441   3.027   3.227   5.541
13834TIP3   OH241442   2.922   0.871   3.720
13834TIP3    H141443   2.845   0.813   3.716
13834TIP3    H241444   2.997   0.812   3.717
13835TIP3   OH241445   6.278   7.593   0.557
13835TIP3    H141446   6.331   7.527   0.599
13835TIP3    H241447   6.247   7.649   0.628
13836TIP3   OH241448   2.336   2.630   6.555
13836TIP3    H141449   2.334   2.640   6.460
13836TIP3    H241450   2.260   2.678   6.586
13837TIP3   OH241451   4.636   2.920   6.649
13837TIP3    H141452   4.729   2.901   6.651
13837TIP3    H241453   4.610   2.924   6.741
13838TIP3   OH241454   5.467   6.581   6.660
13838TIP3    H141455   5.478   6.490   6.689
13838TIP3    H241456   5.448   6.574   6.566
13839TIP3   OH241457   0.297   1.269   3.807
13839TIP3    H141458   0.335   1.198   3.859
13839TIP3    H241459   0.206   1.274   3.837
13840TIP3   OH241460   6.924   4.264   5.287
13840TIP3    H141461   6.924   4.179   5.244
13840TIP3    H241462   6.999   4.261   5.347
13841TIP3   OH241463   0.046   2.853   1.001
13841TIP3    H141464   0.131   2.874   1.040
13841TIP3    H241465   0.052   2.885   0.911
13842TIP3   OH241466   1.906   6.757   0.315
13842TIP3    H141467   1.967   6.825   0.287
13842TIP3    H241468   1.865   6.793   0.394
13843TIP3   OH241469   8.382   6.634   3.089
13843TIP3    H141470   8.332   6.703   3.045
13843TIP3    H241471   8.402   6.572   3.019
13844TIP3   OH241472   6.556   1.360   3.026
13844TIP3    H141473   6.597   1.447   3.027
13844TIP3    H241474   6.467   1.376   3.058
13845TIP3   OH241475   8.064   5.352   0.610
13845TIP3    H141476   8.064   5.402   0.529
13845TIP3    H241477   8.040   5.263   0.584
13846TIP3   OH241478   0.467   5.222   1.408
13846TIP3    H141479   0.534   5.155   1.419
13846TIP3    H241480   0.395   5.193   1.464
13847TIP3   OH241481   3.370   2.240   5.803
13847TIP3    H141482   3.462   2.216   5.795
13847TIP3    H241483   3.355   2.245   5.898
13848TIP3   OH241484   4.453   7.760   2.429
13848TIP3    H141485   4.513   7.820   2.475
13848TIP3    H241486   4.480   7.673   2.457
13849TIP3   OH241487   1.757   0.566   3.409
13849TIP3    H141488   1.815   0.610   3.345
13849TIP3    H241489   1.814   0.503   3.453
13850TIP3   OH241490   0.298   1.507   3.648
13850TIP3    H141491   0.304   1.492   3.743
13850TIP3    H241492   0.257   1.428   3.614
13851TIP3   OH241493   5.885   1.803   4.388
13851TIP3    H141494   5.803   1.811   4.437
13851TIP3    H241495   5.914   1.893   4.374
13852TIP3   OH241496   7.412   2.230   5.718
13852TIP3    H141497   7.419   2.143   5.757
13852TIP3    H241498   7.367   2.282   5.784
13853TIP3   OH241499   6.314   7.810   5.724
13853TIP3    H141500   6.360   7.858   5.655
13853TIP3    H241501   6.359   7.725   5.728
13854TIP3   OH241502   3.344   5.044   5.721
13854TIP3    H141503   3.315   5.041   5.812
13854TIP3    H241504   3.425   5.095   5.723
13855TIP3   OH241505   6.070   5.473   1.464
13855TIP3    H141506   6.154   5.436   1.491
13855TIP3    H241507   6.053   5.435   1.378
13856TIP3   OH241508   4.416   7.000   0.828
13856TIP3    H141509   4.357   7.074   0.817
13856TIP3    H241510   4.359   6.923   0.821
13857TIP3   OH241511   0.651   0.883   0.109
13857TIP3    H141512   0.612   0.901   0.195
13857TIP3    H241513   0.699   0.801   0.121
13858TIP3   OH241514   1.006   0.611   6.666
13858TIP3    H141515   1.073   0.629   6.601
13858TIP3    H241516   0.932   0.667   6.641
13859TIP3   OH241517   0.250   1.217   5.377
13859TIP3    H141518   0.168   1.169   5.387
13859TIP3    H241519   0.316   1.160   5.415
13860TIP3   OH241520   1.337   5.763   4.236
13860TIP3    H141521   1.260   5.735   4.187
13860TIP3    H241522   1.330   5.719   4.320
13861TIP3   OH241523   5.449   6.796   3.339
13861TIP3    H141524   5.433   6.857   3.267
13861TIP3    H241525   5.369   6.745   3.345
13862TIP3   OH241526   7.625   7.838   0.885
13862TIP3    H141527   7.625   7.933   0.877
13862TIP3    H241528   7.587   7.821   0.971
13863TIP3   OH241529   7.726   2.055   4.742
13863TIP3    H141530   7.820   2.055   4.725
13863TIP3    H241531   7.687   2.100   4.667
13864TIP3   OH241532   5.907   4.902   0.220
13864TIP3    H141533   5.843   4.832   0.232
13864TIP3    H241534   5.969   4.890   0.291
13865TIP3   OH241535   7.369   2.847   4.756
13865TIP3    H141536   7.275   2.859   4.740
13865TIP3    H241537   7.380   2.752   4.766
13866TIP3   OH241538   8.334   3.070   3.472
13866TIP3    H141539   8.293   3.078   3.558
13866TIP3    H241540   8.272   3.113   3.413
13867TIP3   OH241541   0.884   3.122   0.133
13867TIP3    H141542   0.974   3.137   0.103
13867TIP3    H241543   0.831   3.180   0.078
13868TIP3   OH241544   5.112   3.295   3.696
13868TIP3    H141545   5.118   3.297   3.792
13868TIP3    H241546   5.162   3.217   3.671
13869TIP3   OH241547   2.924   6.323   3.523
13869TIP3    H141548   2.880   6.382   3.585
13869TIP3    H241549   2.880   6.340   3.439
13870TIP3   OH241550   2.954   1.012   1.799
13870TIP3    H141551   2.951   1.094   1.749
13870TIP3    H241552   3.013   0.956   1.749
13871TIP3   OH241553   4.255   5.329   0.673
13871TIP3    H141554   4.251   5.349   0.579
13871TIP3    H241555   4.238   5.235   0.679
13872TIP3   OH241556   3.915   6.190   5.564
13872TIP3    H141557   4.002   6.172   5.600
13872TIP3    H241558   3.875   6.250   5.626
13873TIP3   OH241559   6.049   5.495   2.747
13873TIP3    H141560   5.953   5.494   2.756
13873TIP3    H241561   6.081   5.458   2.829
13874TIP3   OH241562   6.754   4.018   4.310
13874TIP3    H141563   6.734   4.104   4.348
13874TIP3    H241564   6.848   4.007   4.325
13875TIP3   OH241565   7.024   6.398   6.225
13875TIP3    H141566   6.990   6.487   6.236
13875TIP3    H241567   6.959   6.342   6.266
13876TIP3   OH241568   5.386   2.716   6.815
13876TIP3    H141569   5.408   2.654   6.884
13876TIP3    H241570   5.310   2.676   6.771
13877TIP3   OH241571   5.740   2.743   5.259
13877TIP3    H141572   5.644   2.739   5.262
13877TIP3    H241573   5.765   2.665   5.210
13878TIP3   OH241574   1.441   4.451   2.857
13878TIP3    H141575   1.404   4.536   2.832
13878TIP3    H241576   1.381   4.417   2.924
13879TIP3   OH241577   6.622   5.574   0.176
13879TIP3    H141578   6.629   5.653   0.230
13879TIP3    H241579   6.657   5.600   0.091
13880TIP3   OH241580   7.742   2.174   5.516
13880TIP3    H141581   7.774   2.126   5.592
13880TIP3    H241582   7.685   2.242   5.552
13881TIP3   OH241583   2.254   4.131   2.945
13881TIP3    H141584   2.339   4.097   2.975
13881TIP3    H241585   2.272   4.165   2.857
13882TIP3   OH241586   8.083   5.182   2.402
13882TIP3    H141587   8.031   5.143   2.332
13882TIP3    H241588   8.143   5.112   2.429
13883TIP3   OH241589   1.702   4.246   2.383
13883TIP3    H141590   1.639   4.216   2.317
13883TIP3    H241591   1.743   4.165   2.415
13884TIP3   OH241592   6.704   7.843   2.136
13884TIP3    H141593   6.623   7.890   2.118
13884TIP3    H241594   6.730   7.806   2.051
13885TIP3   OH241595   1.961   3.287   2.264
13885TIP3    H141596   1.945   3.206   2.215
13885TIP3    H241597   1.943   3.264   2.355
13886TIP3   OH241598   0.626   4.795   4.897
13886TIP3    H141599   0.543   4.758   4.868
13886TIP3    H241600   0.606   4.886   4.920
13887TIP3   OH241601   3.400   3.358   2.291
13887TIP3    H141602   3.317   3.353   2.338
13887TIP3    H241603   3.382   3.315   2.208
13888TIP3   OH241604   0.953   0.534   4.280
13888TIP3    H141605   1.012   0.460   4.296
13888TIP3    H241606   0.865   0.495   4.282
13889TIP3   OH241607   6.887   4.386   2.535
13889TIP3    H141608   6.843   4.375   2.619
13889TIP3    H241609   6.977   4.408   2.557
13890TIP3   OH241610   7.462   7.327   3.382
13890TIP3    H141611   7.404   7.266   3.337
13890TIP3    H241612   7.402   7.388   3.426
13891TIP3   OH241613   6.765   4.437   3.492
13891TIP3    H141614   6.715   4.508   3.452
13891TIP3    H241615   6.851   4.441   3.451
13892TIP3   OH241616   4.251   6.711   0.820
13892TIP3    H141617   4.265   6.691   0.727
13892TIP3    H241618   4.300   6.643   0.866
13893TIP3   OH241619   5.728   4.227   1.408
13893TIP3    H141620   5.739   4.178   1.326
13893TIP3    H241621   5.720   4.318   1.380
13894TIP3   OH241622   2.005   6.675   4.977
13894TIP3    H141623   2.019   6.763   4.941
13894TIP3    H241624   1.924   6.683   5.028
13895TIP3   OH241625   8.047   6.672   0.390
13895TIP3    H141626   8.046   6.761   0.355
13895TIP3    H241627   7.957   6.656   0.418
13896TIP3   OH241628   5.440   2.030   6.574
13896TIP3    H141629   5.373   1.993   6.517
13896TIP3    H241630   5.415   2.122   6.584
13897TIP3   OH241631   2.384   1.967   4.888
13897TIP3    H141632   2.476   1.944   4.876
13897TIP3    H241633   2.360   2.014   4.809
13898TIP3   OH241634   0.179   3.742   2.760
13898TIP3    H141635   0.262   3.713   2.722
13898TIP3    H241636   0.204   3.812   2.820
13899TIP3   OH241637   4.733   4.051   1.602
13899TIP3    H141638   4.675   3.994   1.553
13899TIP3    H241639   4.817   4.046   1.556
13900TIP3   OH241640   7.594   1.067   1.954
13900TIP3    H141641   7.599   1.154   1.914
13900TIP3    H241642   7.534   1.079   2.028
13901TIP3   OH241643   4.051   6.364   0.872
13901TIP3    H141644   4.053   6.422   0.948
13901TIP3    H241645   4.112   6.403   0.809
13902TIP3   OH241646   0.623   2.630   3.120
13902TIP3    H141647   0.656   2.615   3.209
13902TIP3    H241648   0.600   2.542   3.088
13903TIP3   OH241649   3.471   7.203   6.823
13903TIP3    H141650   3.529   7.167   6.755
13903TIP3    H241651   3.407   7.254   6.774
13904TIP3   OH241652   8.254   0.807   0.124
13904TIP3    H141653   8.265   0.775   0.034
13904TIP3    H241654   8.231   0.729   0.174
13905TIP3   OH241655   7.035   1.132   1.067
13905TIP3    H141656   7.048   1.068   1.137
13905TIP3    H241657   6.947   1.114   1.034
13906TIP3   OH241658   8.171   0.689   2.557
13906TIP3    H141659   8.123   0.739   2.623
13906TIP3    H241660   8.196   0.608   2.601
13907TIP3   OH241661   7.911   5.034   1.976
13907TIP3    H141662   7.844   5.049   2.043
13907TIP3    H241663   7.957   5.118   1.970
13908TIP3   OH241664   0.189   3.257   0.186
13908TIP3    H141665   0.106   3.298   0.212
13908TIP3    H241666   0.245   3.264   0.264
13909TIP3   OH241667   6.959   0.099   2.088
13909TIP3    H141668   7.010   0.051   2.154
13909TIP3    H241669   7.011   0.092   2.008
13910TIP3   OH241670   5.627   6.627   0.151
13910TIP3    H141671   5.615   6.537   0.180
13910TIP3    H241672   5.540   6.667   0.160
13911TIP3   OH241673   4.319   6.004   1.994
13911TIP3    H141674   4.344   5.954   2.072
13911TIP3    H241675   4.233   6.040   2.015
13912TIP3   OH241676   0.360   6.803   5.329
13912TIP3    H141677   0.361   6.720   5.378
13912TIP3    H241678   0.348   6.870   5.397
13913TIP3   OH241679   5.948   3.000   0.349
13913TIP3    H141680   6.019   2.946   0.314
13913TIP3    H241681   5.918   2.954   0.427
13914TIP3   OH241682   4.919   4.372   5.985
13914TIP3    H141683   4.855   4.441   5.968
13914TIP3    H241684   4.996   4.398   5.935
13915TIP3   OH241685   1.548   2.716   5.087
13915TIP3    H141686   1.582   2.628   5.074
13915TIP3    H241687   1.522   2.719   5.179
13916TIP3   OH241688   2.376   0.047   3.692
13916TIP3    H141689   2.383   0.093   3.775
13916TIP3    H241690   2.359   0.116   3.628
13917TIP3   OH241691   1.327   3.429   6.180
13917TIP3    H141692   1.414   3.432   6.142
13917TIP3    H241693   1.337   3.471   6.266
13918TIP3   OH241694   1.895   0.038   3.864
13918TIP3    H141695   1.839  -0.039   3.857
13918TIP3    H241696   1.852   0.093   3.931
13919TIP3   OH241697   0.184   1.139   0.403
13919TIP3    H141698   0.160   1.082   0.330
13919TIP3    H241699   0.270   1.108   0.430
13920TIP3   OH241700   4.555   6.728   1.360
13920TIP3    H141701   4.634   6.691   1.400
13920TIP3    H241702   4.530   6.800   1.418
13921TIP3   OH241703   5.874   7.515   5.008
13921TIP3    H141704   5.883   7.457   4.933
13921TIP3    H241705   5.927   7.592   4.986
13922TIP3   OH241706   0.838   3.402   4.025
13922TIP3    H141707   0.805   3.332   3.969
13922TIP3    H241708   0.807   3.380   4.112
13923TIP3   OH241709   2.462   3.845   5.090
13923TIP3    H141710   2.480   3.870   4.999
13923TIP3    H241711   2.390   3.783   5.083
13924TIP3   OH241712   5.634   6.730   0.867
13924TIP3    H141713   5.710   6.749   0.812
13924TIP3    H241714   5.655   6.648   0.910
13925TIP3   OH241715   6.511   2.913   1.214
13925TIP3    H141716   6.425   2.923   1.175
13925TIP3    H241717   6.572   2.947   1.149
13926TIP3   OH241718   3.669   2.839   4.707
13926TIP3    H141719   3.742   2.898   4.688
13926TIP3    H241720   3.603   2.895   4.749
13927TIP3   OH241721   4.452   6.940   2.269
13927TIP3    H141722   4.383   6.990   2.225
13927TIP3    H241723   4.512   7.007   2.303
13928TIP3   OH241724   6.962   2.408   3.150
13928TIP3    H141725   7.028   2.355   3.195
13928TIP3    H241726   7.010   2.483   3.116
13929TIP3   OH241727   2.170   0.056   3.289
13929TIP3    H141728   2.102   0.121   3.274
13929TIP3    H241729   2.127  -0.028   3.270
13930TIP3   OH241730   4.408   2.724   6.687
13930TIP3    H141731   4.436   2.694   6.774
13930TIP3    H241732   4.477   2.694   6.628
13931TIP3   OH241733   6.306   1.234   2.023
13931TIP3    H141734   6.213   1.256   2.019
13931TIP3    H241735   6.350   1.318   2.008
13932TIP3   OH241736   4.822   7.687   5.278
13932TIP3    H141737   4.852   7.684   5.369
13932TIP3    H241738   4.729   7.666   5.283
13933TIP3   OH241739   4.441   5.016   4.109
13933TIP3    H141740   4.524   4.971   4.129
13933TIP3    H241741   4.454   5.053   4.022
13934TIP3   OH241742   3.171   5.152   5.539
13934TIP3    H141743   3.113   5.193   5.602
13934TIP3    H241744   3.238   5.108   5.592
13935TIP3   OH241745   4.313   6.829   3.098
13935TIP3    H141746   4.253   6.810   3.170
13935TIP3    H241747   4.400   6.812   3.134
13936TIP3   OH241748   2.134   4.807   0.856
13936TIP3    H141749   2.083   4.726   0.853
13936TIP3    H241750   2.069   4.877   0.848
13937TIP3   OH241751   8.112   5.875   2.412
13937TIP3    H141752   8.065   5.868   2.329
13937TIP3    H241753   8.165   5.796   2.417
13938TIP3   OH241754   0.301   3.314   1.821
13938TIP3    H141755   0.287   3.353   1.734
13938TIP3    H241756   0.354   3.379   1.867
13939TIP3   OH241757   7.466   1.838   1.229
13939TIP3    H141758   7.403   1.900   1.266
13939TIP3    H241759   7.533   1.828   1.297
13940TIP3   OH241760   0.360   0.690   3.407
13940TIP3    H141761   0.294   0.621   3.418
13940TIP3    H241762   0.308   0.770   3.393
13941TIP3   OH241763   5.062   5.426   1.214
13941TIP3    H141764   5.140   5.381   1.247
13941TIP3    H241765   5.085   5.450   1.124
13942TIP3   OH241766   2.531   0.225   2.883
13942TIP3    H141767   2.614   0.225   2.836
13942TIP3    H241768   2.467   0.256   2.819
13943TIP3   OH241769   7.358   1.404   2.164
13943TIP3    H141770   7.445   1.363   2.158
13943TIP3    H241771   7.373   1.485   2.212
13944TIP3   OH241772   7.874   3.017   1.457
13944TIP3    H141773   7.814   2.982   1.390
13944TIP3    H241774   7.953   2.964   1.449
13945TIP3   OH241775   5.210   4.234   2.756
13945TIP3    H141776   5.240   4.257   2.668
13945TIP3    H241777   5.162   4.152   2.744
13946TIP3   OH241778   5.697   0.567   4.425
13946TIP3    H141779   5.727   0.637   4.482
13946TIP3    H241780   5.735   0.488   4.462
13947TIP3   OH241781   5.278   6.086   0.307
13947TIP3    H141782   5.214   6.153   0.286
13947TIP3    H241783   5.326   6.072   0.225
13948TIP3   OH241784   3.531   3.115   0.508
13948TIP3    H141785   3.531   3.131   0.413
13948TIP3    H241786   3.622   3.097   0.529
13949TIP3   OH241787   7.961   4.835   2.615
13949TIP3    H141788   7.889   4.772   2.622
13949TIP3    H241789   7.956   4.886   2.696
13950TIP3   OH241790   5.124   5.951   6.114
13950TIP3    H141791   5.059   5.927   6.049
13950TIP3    H241792   5.149   6.040   6.093
13951TIP3   OH241793   7.115   2.360   1.305
13951TIP3    H141794   7.192   2.307   1.290
13951TIP3    H241795   7.101   2.357   1.400
13952TIP3   OH241796   4.858   1.862   2.516
13952TIP3    H141797   4.816   1.779   2.538
13952TIP3    H241798   4.925   1.873   2.582
13953TIP3   OH241799   8.197   1.190   4.520
13953TIP3    H141800   8.203   1.174   4.426
13953TIP3    H241801   8.160   1.110   4.556
13954TIP3   OH241802   1.955   7.318   0.310
13954TIP3    H141803   1.994   7.272   0.235
13954TIP3    H241804   1.870   7.348   0.278
13955TIP3   OH241805   4.718   3.785   3.327
13955TIP3    H141806   4.680   3.707   3.367
13955TIP3    H241807   4.775   3.821   3.395
13956TIP3   OH241808   8.239   1.280   6.700
13956TIP3    H141809   8.221   1.319   6.785
13956TIP3    H241810   8.231   1.186   6.714
13957TIP3   OH241811   7.268   3.532   2.964
13957TIP3    H141812   7.270   3.613   3.014
13957TIP3    H241813   7.361   3.509   2.952
13958TIP3   OH241814   4.780   2.645   6.539
13958TIP3    H141815   4.754   2.724   6.490
13958TIP3    H241816   4.822   2.589   6.474
13959TIP3   OH241817   0.644   2.607   4.716
13959TIP3    H141818   0.570   2.569   4.764
13959TIP3    H241819   0.696   2.532   4.688
13960TIP3   OH241820   8.076   3.950   5.846
13960TIP3    H141821   7.995   3.976   5.890
13960TIP3    H241822   8.079   3.854   5.855
13961TIP3   OH241823   7.944   3.027   3.493
13961TIP3    H141824   7.979   3.108   3.531
13961TIP3    H241825   7.950   3.040   3.399
13962TIP3   OH241826   7.846   5.338   1.846
13962TIP3    H141827   7.782   5.394   1.890
13962TIP3    H241828   7.794   5.264   1.814
13963TIP3   OH241829   1.277   7.208   3.247
13963TIP3    H141830   1.274   7.147   3.320
13963TIP3    H241831   1.216   7.171   3.183
13964TIP3   OH241832   7.630   6.670   3.102
13964TIP3    H141833   7.604   6.610   3.032
13964TIP3    H241834   7.655   6.750   3.056
13965TIP3   OH241835   7.835   3.508   2.626
13965TIP3    H141836   7.876   3.444   2.568
13965TIP3    H241837   7.894   3.514   2.701
13966TIP3   OH241838   2.707   2.042   3.103
13966TIP3    H141839   2.771   2.104   3.138
13966TIP3    H241840   2.661   2.009   3.180
13967TIP3   OH241841   1.444   7.268   4.237
13967TIP3    H141842   1.500   7.306   4.305
13967TIP3    H241843   1.505   7.247   4.165
13968TIP3   OH241844   2.934   7.364   5.021
13968TIP3    H141845   2.955   7.279   4.982
13968TIP3    H241846   2.840   7.359   5.037
13969TIP3   OH241847   0.138   5.061   3.638
13969TIP3    H141848   0.053   5.040   3.677
13969TIP3    H241849   0.187   5.104   3.708
13970TIP3   OH241850   1.606   0.142   1.825
13970TIP3    H141851   1.614   0.226   1.871
13970TIP3    H241852   1.615   0.076   1.894
13971TIP3   OH241853   6.648   2.574   2.563
13971TIP3    H141854   6.615   2.659   2.592
13971TIP3    H241855   6.691   2.537   2.640
13972TIP3   OH241856   0.506   2.578   4.268
13972TIP3    H141857   0.435   2.565   4.206
13972TIP3    H241858   0.526   2.491   4.301
13973TIP3   OH241859   0.825   6.685   3.882
13973TIP3    H141860   0.891   6.736   3.836
13973TIP3    H241861   0.871   6.605   3.908
13974TIP3   OH241862   6.830   6.979   1.431
13974TIP3    H141863   6.772   7.011   1.500
13974TIP3    H241864   6.844   7.055   1.374
13975TIP3   OH241865   1.682   3.613   2.926
13975TIP3    H141866   1.717   3.691   2.882
13975TIP3    H241867   1.619   3.648   2.989
13976TIP3   OH241868   5.041   7.354   4.161
13976TIP3    H141869   5.015   7.263   4.146
13976TIP3    H241870   5.012   7.401   4.082
13977TIP3   OH241871   3.979   1.449   4.467
13977TIP3    H141872   4.015   1.466   4.380
13977TIP3    H241873   3.996   1.530   4.516
13978TIP3   OH241874   7.507   4.170   6.406
13978TIP3    H141875   7.469   4.240   6.353
13978TIP3    H241876   7.438   4.149   6.470
13979TIP3   OH241877   3.047   4.025   6.120
13979TIP3    H141878   2.985   4.090   6.086
13979TIP3    H241879   2.995   3.945   6.129
13980TIP3   OH241880   2.284   5.764   3.429
13980TIP3    H141881   2.273   5.676   3.392
13980TIP3    H241882   2.206   5.777   3.483
13981TIP3   OH241883   4.765   2.929   2.461
13981TIP3    H141884   4.779   2.984   2.384
13981TIP3    H241885   4.844   2.874   2.466
13982TIP3   OH241886   7.103   7.240   2.989
13982TIP3    H141887   7.147   7.188   2.922
13982TIP3    H241888   7.010   7.216   2.980
13983TIP3   OH241889   8.144   7.556   0.634
13983TIP3    H141890   8.100   7.576   0.717
13983TIP3    H241891   8.193   7.635   0.612
13984TIP3   OH241892   2.143   4.431   2.914
13984TIP3    H141893   2.056   4.468   2.928
13984TIP3    H241894   2.202   4.489   2.962
13985TIP3   OH241895   2.241   1.964   2.848
13985TIP3    H141896   2.265   1.939   2.937
13985TIP3    H241897   2.179   1.897   2.820
13986TIP3   OH241898   2.607   4.587   1.430
13986TIP3    H141899   2.545   4.574   1.358
13986TIP3    H241900   2.684   4.537   1.405
13987TIP3   OH241901   4.903   6.653   4.120
13987TIP3    H141902   4.914   6.720   4.053
13987TIP3    H241903   4.903   6.570   4.072
13988TIP3   OH241904   0.372   7.761   5.841
13988TIP3    H141905   0.322   7.798   5.914
13988TIP3    H241906   0.448   7.722   5.882
13989TIP3   OH241907   3.003   3.943   1.111
13989TIP3    H141908   2.922   3.905   1.079
13989TIP3    H241909   3.015   4.022   1.057
13990TIP3   OH241910   7.834   2.053   3.281
13990TIP3    H141911   7.859   1.979   3.336
13990TIP3    H241912   7.823   2.126   3.343
13991TIP3   OH241913   7.400   4.643   6.311
13991TIP3    H141914   7.430   4.709   6.249
13991TIP3    H241915   7.327   4.686   6.357
13992TIP3   OH241916   7.590   0.623   0.863
13992TIP3    H141917   7.508   0.580   0.890
13992TIP3    H241918   7.622   0.665   0.943
13993TIP3   OH241919   6.785   0.613   1.423
13993TIP3    H141920   6.781   0.692   1.477
13993TIP3    H241921   6.875   0.612   1.391
13994TIP3   OH241922   7.319   0.258   5.017
13994TIP3    H141923   7.276   0.174   5.036
13994TIP3    H241924   7.251   0.309   4.972
13995TIP3   OH241925   4.221   5.644   2.042
13995TIP3    H141926   4.165   5.680   1.973
13995TIP3    H241927   4.272   5.576   1.999
13996TIP3   OH241928   4.996   7.525   2.335
13996TIP3    H141929   5.018   7.438   2.369
13996TIP3    H241930   4.969   7.575   2.411
13997TIP3   OH241931   7.893   6.688   6.670
13997TIP3    H141932   7.823   6.709   6.610
13997TIP3    H241933   7.916   6.771   6.711
13998TIP3   OH241934   3.829   5.252   0.602
13998TIP3    H141935   3.784   5.170   0.584
13998TIP3    H241936   3.847   5.249   0.696
13999TIP3   OH241937   4.797   4.170   4.103
13999TIP3    H141938   4.875   4.115   4.099
13999TIP3    H241939   4.824   4.254   4.066
14000TIP3   OH241940   7.360   7.088   0.498
14000TIP3    H141941   7.361   7.119   0.407
14000TIP3    H241942   7.334   7.164   0.549
14001TIP3   OH241943   8.037   3.091   5.936
14001TIP3    H141944   7.979   3.142   5.993
14001TIP3    H241945   8.083   3.032   5.995
14002TIP3   OH241946   7.858   3.950   4.087
14002TIP3    H141947   7.897   3.929   4.171
14002TIP3    H241948   7.763   3.946   4.103
14003TIP3   OH241949   0.156   4.548   1.781
14003TIP3    H141950   0.128   4.501   1.703
14003TIP3    H241951   0.101   4.627   1.783
14004TIP3   OH241952   6.198   2.251   4.066
14004TIP3    H141953   6.166   2.325   4.015
14004TIP3    H241954   6.292   2.268   4.076
14005TIP3   OH241955   1.556   7.500   0.761
14005TIP3    H141956   1.568   7.514   0.667
14005TIP3    H241957   1.462   7.506   0.774
14006TIP3   OH241958   8.167   5.758   4.701
14006TIP3    H141959   8.088   5.753   4.754
14006TIP3    H241960   8.222   5.823   4.746
14007TIP3   OH241961   2.308   0.208   3.044
14007TIP3    H141962   2.379   0.236   2.987
14007TIP3    H241963   2.320   0.258   3.125
14008TIP3   OH241964   0.173   7.589   3.342
14008TIP3    H141965   0.157   7.577   3.436
14008TIP3    H241966   0.217   7.508   3.315
14009TIP3   OH241967   1.243   5.242   5.049
14009TIP3    H141968   1.277   5.203   4.969
14009TIP3    H241969   1.321   5.259   5.102
14010TIP3   OH241970   1.290   5.056   3.169
14010TIP3    H141971   1.365   5.110   3.190
14010TIP3    H241972   1.327   4.982   3.120
14011TIP3   OH241973   2.275   1.443   2.648
14011TIP3    H141974   2.344   1.396   2.602
14011TIP3    H241975   2.320   1.507   2.702
14012TIP3   OH241976   0.594   0.479   2.329
14012TIP3    H141977   0.676   0.488   2.378
14012TIP3    H241978   0.618   0.429   2.251
14013TIP3   OH241979   1.312   6.122   3.637
14013TIP3    H141980   1.363   6.198   3.610
14013TIP3    H241981   1.229   6.158   3.666
14014TIP3   OH241982   1.458   2.918   3.170
14014TIP3    H141983   1.521   2.869   3.117
14014TIP3    H241984   1.512   2.976   3.224
14015TIP3   OH241985   4.436   2.163   5.115
14015TIP3    H141986   4.349   2.127   5.097
14015TIP3    H241987   4.428   2.256   5.093
14016TIP3   OH241988   2.334   0.761   5.983
14016TIP3    H141989   2.262   0.817   5.953
14016TIP3    H241990   2.365   0.803   6.063
14017TIP3   OH241991   1.577   7.002   1.525
14017TIP3    H141992   1.497   6.973   1.480
14017TIP3    H241993   1.639   6.930   1.513
14018TIP3   OH241994   7.681   1.201   2.634
14018TIP3    H141995   7.660   1.187   2.542
14018TIP3    H241996   7.617   1.266   2.664
14019TIP3   OH241997   5.841   7.719   5.956
14019TIP3    H141998   5.912   7.784   5.948
14019TIP3    H241999   5.856   7.658   5.884
14020TIP3   OH242000   6.847   1.315   1.818
14020TIP3    H142001   6.819   1.237   1.769
14020TIP3    H242002   6.933   1.291   1.854
14021TIP3   OH242003   6.367   0.725   1.166
14021TIP3    H142004   6.396   0.770   1.245
14021TIP3    H242005   6.321   0.647   1.198
14022TIP3   OH242006   8.319   5.452   6.597
14022TIP3    H142007   8.389   5.426   6.657
14022TIP3    H242008   8.247   5.480   6.654
14023TIP3   OH242009   5.124  -0.007   5.295
14023TIP3    H142010   5.053  -0.011   5.231
14023TIP3    H242011   5.136   0.087   5.312
14024TIP3   OH242012   7.560   5.656   5.402
14024TIP3    H142013   7.603   5.615   5.477
14024TIP3    H242014   7.623   5.721   5.371
14025TIP3   OH242015   0.777   6.211   3.048
14025TIP3    H142016   0.749   6.213   2.957
14025TIP3    H242017   0.747   6.294   3.085
14026TIP3   OH242018   3.590   4.687   0.736
14026TIP3    H142019   3.682   4.663   0.750
14026TIP3    H242020   3.541   4.609   0.759
14027TIP3   OH242021   6.688   6.657   2.232
14027TIP3    H142022   6.749   6.618   2.294
14027TIP3    H242023   6.711   6.620   2.147
14028TIP3   OH242024   8.263   4.691   1.580
14028TIP3    H142025   8.319   4.753   1.626
14028TIP3    H242026   8.318   4.658   1.508
14029TIP3   OH242027   1.510   3.178   5.294
14029TIP3    H142028   1.595   3.162   5.252
14029TIP3    H242029   1.446   3.146   5.231
14030TIP3   OH242030   2.063   0.553   2.243
14030TIP3    H142031   1.987   0.607   2.222
14030TIP3    H242032   2.135   0.594   2.195
14031TIP3   OH242033   6.514   5.948   2.385
14031TIP3    H142034   6.446   5.881   2.389
14031TIP3    H242035   6.482   6.018   2.444
14032TIP3   OH242036   0.778   7.418   4.001
14032TIP3    H142037   0.791   7.324   4.014
14032TIP3    H242038   0.848   7.444   3.942
14033TIP3   OH242039   4.137   0.225   4.606
14033TIP3    H142040   4.151   0.154   4.544
14033TIP3    H242041   4.217   0.279   4.600
14034TIP3   OH242042   1.542   6.404   5.196
14034TIP3    H142043   1.582   6.322   5.166
14034TIP3    H242044   1.553   6.403   5.291
14035TIP3   OH242045   5.231   4.745   3.916
14035TIP3    H142046   5.287   4.772   3.844
14035TIP3    H242047   5.160   4.809   3.916
14036TIP3   OH242048   1.949   0.706   2.566
14036TIP3    H142049   1.900   0.638   2.611
14036TIP3    H242050   2.034   0.708   2.610
14037TIP3   OH242051   5.529   6.241   5.506
14037TIP3    H142052   5.543   6.210   5.595
14037TIP3    H242053   5.444   6.284   5.508
14038TIP3   OH242054   0.853   1.179   3.509
14038TIP3    H142055   0.826   1.087   3.509
14038TIP3    H242056   0.813   1.215   3.588
14039TIP3   OH242057   5.421   1.790   1.081
14039TIP3    H142058   5.414   1.724   1.150
14039TIP3    H242059   5.487   1.852   1.114
14040TIP3   OH242060   4.588   3.339   3.496
14040TIP3    H142061   4.672   3.374   3.527
14040TIP3    H242062   4.579   3.372   3.407
14041TIP3   OH242063   4.028   6.194   3.372
14041TIP3    H142064   4.030   6.211   3.467
14041TIP3    H242065   3.939   6.218   3.346
14042TIP3   OH242066   2.669   6.363   6.085
14042TIP3    H142067   2.695   6.346   5.994
14042TIP3    H242068   2.574   6.377   6.079
14043TIP3   OH242069   6.872   3.241   3.508
14043TIP3    H142070   6.805   3.306   3.531
14043TIP3    H242071   6.953   3.275   3.546
14044TIP3   OH242072   7.342   3.219   5.360
14044TIP3    H142073   7.281   3.292   5.350
14044TIP3    H242074   7.425   3.259   5.386
14045TIP3   OH242075   3.503   6.313   3.733
14045TIP3    H142076   3.532   6.344   3.647
14045TIP3    H242077   3.530   6.221   3.735
14046TIP3   OH242078   8.132   0.376   2.189
14046TIP3    H142079   8.141   0.452   2.247
14046TIP3    H242080   8.059   0.398   2.131
14047TIP3   OH242081   0.153   1.667   1.452
14047TIP3    H142082   0.083   1.608   1.424
14047TIP3    H242083   0.120   1.707   1.532
14048TIP3   OH242084   1.451   6.118   0.158
14048TIP3    H142085   1.499   6.191   0.119
14048TIP3    H242086   1.472   6.122   0.251
14049TIP3   OH242087   1.747   6.996   2.273
14049TIP3    H142088   1.735   7.071   2.332
14049TIP3    H242089   1.793   7.033   2.198
14050TIP3   OH242090   3.688   1.902   4.616
14050TIP3    H142091   3.766   1.889   4.668
14050TIP3    H242092   3.687   1.828   4.554
14051TIP3   OH242093   2.452   3.083   0.988
14051TIP3    H142094   2.362   3.063   0.960
14051TIP3    H242095   2.482   3.148   0.925
14052TIP3   OH242096   6.433   1.794   3.390
14052TIP3    H142097   6.409   1.863   3.329
14052TIP3    H242098   6.358   1.789   3.451
14053TIP3   OH242099   7.709   5.317   0.443
14053TIP3    H142100   7.656   5.397   0.447
14053TIP3    H242101   7.762   5.327   0.364
14054TIP3   OH242102   8.051   7.313   3.923
14054TIP3    H142103   8.002   7.312   3.841
14054TIP3    H242104   7.997   7.262   3.983
14055TIP3   OH242105   6.762   3.643   0.281
14055TIP3    H142106   6.791   3.720   0.331
14055TIP3    H242107   6.714   3.680   0.207
14056TIP3   OH242108   6.859   6.917   5.517
14056TIP3    H142109   6.834   6.830   5.547
14056TIP3    H242110   6.902   6.902   5.433
14057TIP3   OH242111   4.159   3.134   4.676
14057TIP3    H142112   4.172   3.228   4.663
14057TIP3    H242113   4.224   3.093   4.619
14058TIP3   OH242114   4.594   5.866   4.426
14058TIP3    H142115   4.678   5.867   4.472
14058TIP3    H242116   4.574   5.773   4.415
14059TIP3   OH242117   6.553   7.379   3.820
14059TIP3    H142118   6.568   7.463   3.864
14059TIP3    H242119   6.471   7.348   3.857
14060TIP3   OH242120   2.033   0.078   3.602
14060TIP3    H142121   2.011   0.054   3.692
14060TIP3    H242122   2.038  -0.005   3.556
14061TIP3   OH242123   5.752   4.559   4.500
14061TIP3    H142124   5.801   4.518   4.429
14061TIP3    H242125   5.681   4.606   4.457
14062TIP3   OH242126   7.032   7.621   1.797
14062TIP3    H142127   7.101   7.615   1.731
14062TIP3    H242128   7.030   7.535   1.838
14063TIP3   OH242129   3.224   7.707   1.590
14063TIP3    H142130   3.132   7.683   1.606
14063TIP3    H242131   3.221   7.803   1.581
14064TIP3   OH242132   6.062   7.190   5.117
14064TIP3    H142133   5.973   7.185   5.151
14064TIP3    H242134   6.094   7.100   5.123
14065TIP3   OH242135   1.315   2.502   5.925
14065TIP3    H142136   1.293   2.556   6.001
14065TIP3    H242137   1.285   2.554   5.849
14066TIP3   OH242138   1.790   3.352   3.820
14066TIP3    H142139   1.731   3.374   3.892
14066TIP3    H242140   1.863   3.413   3.830
14067TIP3   OH242141   6.686   0.895   3.229
14067TIP3    H142142   6.758   0.838   3.200
14067TIP3    H242143   6.704   0.911   3.321
14068TIP3   OH242144   6.289   5.262   0.463
14068TIP3    H142145   6.197   5.287   0.456
14068TIP3    H242146   6.338   5.342   0.444
14069TIP3   OH242147   3.148   6.971   1.723
14069TIP3    H142148   3.128   7.047   1.670
14069TIP3    H242149   3.215   7.002   1.785
14070TIP3   OH242150   7.547   3.931   5.934
14070TIP3    H142151   7.491   3.886   5.872
14070TIP3    H242152   7.510   3.911   6.020
14071TIP3   OH242153   3.741   4.913   1.005
14071TIP3    H142154   3.821   4.861   1.014
14071TIP3    H242155   3.769   5.003   1.017
14072TIP3   OH242156   5.469   1.703   2.538
14072TIP3    H142157   5.491   1.723   2.447
14072TIP3    H242158   5.543   1.737   2.588
14073TIP3   OH242159   2.781   7.709   1.739
14073TIP3    H142160   2.809   7.700   1.830
14073TIP3    H242161   2.697   7.755   1.744
14074TIP3   OH242162   7.393   0.311   3.288
14074TIP3    H142163   7.332   0.237   3.286
14074TIP3    H242164   7.366   0.363   3.363
14075TIP3   OH242165   7.490   4.248   3.122
14075TIP3    H142166   7.457   4.311   3.186
14075TIP3    H242167   7.412   4.220   3.073
14076TIP3   OH242168   6.711   5.704   5.917
14076TIP3    H142169   6.769   5.763   5.869
14076TIP3    H242170   6.759   5.621   5.919
14077TIP3   OH242171   0.457   1.194   2.584
14077TIP3    H142172   0.486   1.103   2.578
14077TIP3    H242173   0.536   1.246   2.567
14078TIP3   OH242174   6.981   0.756   2.873
14078TIP3    H142175   7.000   0.664   2.855
14078TIP3    H242176   7.067   0.799   2.871
14079TIP3   OH242177   1.999   1.014   4.144
14079TIP3    H142178   2.058   0.973   4.208
14079TIP3    H242179   1.913   1.010   4.186
14080TIP3   OH242180   6.334   4.054   6.690
14080TIP3    H142181   6.370   3.966   6.703
14080TIP3    H242182   6.311   4.084   6.778
14081TIP3   OH242183   4.052   0.095   4.122
14081TIP3    H142184   4.133   0.074   4.076
14081TIP3    H242185   4.061   0.187   4.146
14082TIP3   OH242186   6.913   5.521   5.958
14082TIP3    H142187   6.905   5.499   6.051
14082TIP3    H242188   6.936   5.438   5.916
14083TIP3   OH242189   1.049   5.473   5.899
14083TIP3    H142190   1.005   5.515   5.972
14083TIP3    H242191   1.125   5.530   5.881
14084TIP3   OH242192   7.961   4.553   6.233
14084TIP3    H142193   7.956   4.476   6.290
14084TIP3    H242194   7.927   4.624   6.287
14085TIP3   OH242195   1.593   6.820   4.664
14085TIP3    H142196   1.570   6.869   4.585
14085TIP3    H242197   1.672   6.863   4.697
14086TIP3   OH242198   7.597   3.238   1.483
14086TIP3    H142199   7.650   3.227   1.562
14086TIP3    H242200   7.623   3.324   1.449
14087TIP3   OH242201   2.425   7.169   4.068
14087TIP3    H142202   2.438   7.180   4.163
14087TIP3    H242203   2.349   7.224   4.048
14088TIP3   OH242204   2.452   0.784   6.397
14088TIP3    H142205   2.381   0.721   6.402
14088TIP3    H242206   2.422   0.849   6.334
14089TIP3   OH242207   6.543   3.663   4.927
14089TIP3    H142208   6.613   3.729   4.925
14089TIP3    H242209   6.488   3.690   5.000
14090TIP3   OH242210   8.087   2.573   3.674
14090TIP3    H142211   8.135   2.490   3.682
14090TIP3    H242212   8.004   2.548   3.634
14091TIP3   OH242213   6.908   3.744   6.394
14091TIP3    H142214   6.837   3.718   6.453
14091TIP3    H242215   6.897   3.687   6.318
14092TIP3   OH242216   1.532   1.259   0.720
14092TIP3    H142217   1.496   1.173   0.701
14092TIP3    H242218   1.508   1.312   0.644
14093TIP3   OH242219   0.134   4.582   0.870
14093TIP3    H142220   0.223   4.573   0.903
14093TIP3    H242221   0.092   4.645   0.929
14094TIP3   OH242222   5.858   1.522   4.524
14094TIP3    H142223   5.947   1.540   4.555
14094TIP3    H242224   5.836   1.599   4.472
14095TIP3   OH242225   0.458   5.448   3.645
14095TIP3    H142226   0.367   5.442   3.617
14095TIP3    H242227   0.509   5.426   3.567
14096TIP3   OH242228   4.551   2.448   5.541
14096TIP3    H142229   4.555   2.532   5.587
14096TIP3    H242230   4.460   2.442   5.511
14097TIP3   OH242231   3.814   0.329   1.936
14097TIP3    H142232   3.863   0.304   2.015
14097TIP3    H242233   3.775   0.247   1.905
14098TIP3   OH242234   7.034   5.514   2.309
14098TIP3    H142235   6.978   5.587   2.285
14098TIP3    H242236   7.016   5.499   2.402
14099TIP3   OH242237   7.118   0.287   6.465
14099TIP3    H142238   7.148   0.356   6.523
14099TIP3    H242239   7.197   0.259   6.418
14100TIP3   OH242240   0.812   4.515   2.152
14100TIP3    H142241   0.819   4.459   2.074
14100TIP3    H242242   0.863   4.593   2.131
14101TIP3   OH242243   8.100   1.171   1.917
14101TIP3    H142244   8.061   1.241   1.864
14101TIP3    H242245   8.113   1.099   1.855
14102TIP3   OH242246   7.607   2.714   3.130
14102TIP3    H142247   7.666   2.652   3.087
14102TIP3    H242248   7.574   2.667   3.207
14103TIP3   OH242249   4.253   0.182   3.416
14103TIP3    H142250   4.324   0.234   3.454
14103TIP3    H242251   4.197   0.247   3.372
14104TIP3   OH242252   1.314   0.436   2.769
14104TIP3    H142253   1.345   0.427   2.859
14104TIP3    H242254   1.378   0.494   2.728
14105TIP3   OH242255   3.373   0.134   2.177
14105TIP3    H142256   3.309   0.164   2.242
14105TIP3    H242257   3.456   0.130   2.225
14106TIP3   OH242258   4.675   7.439   5.297
14106TIP3    H142259   4.749   7.416   5.353
14106TIP3    H242260   4.697   7.402   5.211
14107TIP3   OH242261   8.057   7.738   4.912
14107TIP3    H142262   7.994   7.810   4.906
14107TIP3    H242263   8.029   7.688   4.989
14108TIP3   OH242264   1.358   5.173   1.845
14108TIP3    H142265   1.318   5.186   1.759
14108TIP3    H242266   1.446   5.207   1.836
14109TIP3   OH242267   3.483   0.245   6.018
14109TIP3    H142268   3.483   0.254   5.923
14109TIP3    H242269   3.420   0.310   6.048
14110TIP3   OH242270   0.886   1.224   3.237
14110TIP3    H142271   0.935   1.302   3.261
14110TIP3    H242272   0.864   1.182   3.321
14111TIP3   OH242273   6.067   4.558   6.152
14111TIP3    H142274   6.004   4.522   6.215
14111TIP3    H242275   6.020   4.559   6.069
14112TIP3   OH242276   6.278   5.369   3.312
14112TIP3    H142277   6.187   5.395   3.295
14112TIP3    H242278   6.271   5.285   3.356
14113TIP3   OH242279   4.633   3.540   3.956
14113TIP3    H142280   4.580   3.619   3.946
14113TIP3    H242281   4.699   3.546   3.888
14114TIP3   OH242282   2.915   6.251   1.577
14114TIP3    H142283   2.943   6.336   1.543
14114TIP3    H242284   2.899   6.198   1.499
14115TIP3   OH242285   1.650   7.219   6.170
14115TIP3    H142286   1.684   7.224   6.260
14115TIP3    H242287   1.729   7.221   6.116
14116TIP3   OH242288   4.026   2.076   4.204
14116TIP3    H142289   3.982   2.041   4.282
14116TIP3    H242290   3.957   2.122   4.156
14117TIP3   OH242291   5.085   5.542   4.813
14117TIP3    H142292   5.155   5.601   4.787
14117TIP3    H242293   5.122   5.490   4.885
14118TIP3   OH242294   5.373   1.333   5.017
14118TIP3    H142295   5.411   1.389   5.085
14118TIP3    H242296   5.279   1.334   5.035
14119TIP3   OH242297   3.491   6.717   3.662
14119TIP3    H142298   3.428   6.675   3.604
14119TIP3    H242299   3.573   6.672   3.645
14120TIP3   OH242300   2.168   7.290   1.722
14120TIP3    H142301   2.244   7.231   1.715
14120TIP3    H242302   2.188   7.360   1.659
14121TIP3   OH242303   1.320   6.988   4.270
14121TIP3    H142304   1.225   6.980   4.275
14121TIP3    H242305   1.336   7.080   4.252
14122TIP3   OH242306   5.218   6.366   2.489
14122TIP3    H142307   5.258   6.328   2.411
14122TIP3    H242308   5.152   6.427   2.454
14123TIP3   OH242309   4.796   4.291   1.387
14123TIP3    H142310   4.811   4.365   1.328
14123TIP3    H242311   4.737   4.233   1.339
14124TIP3   OH242312   7.216   0.257   4.379
14124TIP3    H142313   7.186   0.167   4.374
14124TIP3    H242314   7.230   0.273   4.472
14125TIP3   OH242315   2.106   3.266   1.039
14125TIP3    H142316   2.055   3.198   1.082
14125TIP3    H242317   2.161   3.220   0.976
14126TIP3   OH242318   0.844   3.496   0.630
14126TIP3    H142319   0.851   3.414   0.679
14126TIP3    H242320   0.780   3.547   0.680
14127TIP3   OH242321   7.621   5.503   6.759
14127TIP3    H142322   7.653   5.430   6.706
14127TIP3    H242323   7.557   5.548   6.703
14128TIP3   OH242324   5.107   5.887   3.431
14128TIP3    H142325   5.149   5.970   3.408
14128TIP3    H242326   5.095   5.842   3.347
14129TIP3   OH242327   0.724   6.168   0.292
14129TIP3    H142328   0.794   6.104   0.304
14129TIP3    H242329   0.676   6.137   0.215
14130TIP3   OH242330   1.970   3.069   6.429
14130TIP3    H142331   1.934   3.139   6.374
14130TIP3    H242332   1.894   3.015   6.452
14131TIP3   OH242333   3.474   7.740   0.274
14131TIP3    H142334   3.568   7.759   0.274
14131TIP3    H242335   3.433   7.824   0.293
14132TIP3   OH242336   2.957   1.926   3.305
14132TIP3    H142337   2.940   1.919   3.399
14132TIP3    H242338   2.983   2.018   3.293
14133TIP3   OH242339   3.094   6.142   6.732
14133TIP3    H142340   3.093   6.226   6.776
14133TIP3    H242341   3.007   6.136   6.690
14134TIP3   OH242342   1.634   3.333   3.559
14134TIP3    H142343   1.695   3.340   3.486
14134TIP3    H242344   1.690   3.328   3.636
14135TIP3   OH242345   1.177   5.908   6.290
14135TIP3    H142346   1.124   5.842   6.336
14135TIP3    H242347   1.158   5.893   6.198
14136TIP3   OH242348   0.666   0.402   2.763
14136TIP3    H142349   0.618   0.456   2.701
14136TIP3    H242350   0.715   0.464   2.817
14137TIP3   OH242351   2.462   3.808   5.690
14137TIP3    H142352   2.540   3.754   5.705
14137TIP3    H242353   2.451   3.808   5.595
14138TIP3   OH242354   0.273   1.617   2.130
14138TIP3    H142355   0.224   1.681   2.181
14138TIP3    H242356   0.266   1.648   2.040
14139TIP3   OH242357   8.217   4.826   0.357
14139TIP3    H142358   8.165   4.826   0.437
14139TIP3    H242359   8.210   4.915   0.323
14140TIP3   OH242360   2.047   4.379   0.857
14140TIP3    H142361   2.016   4.457   0.904
14140TIP3    H242362   2.117   4.344   0.912
14141TIP3   OH242363   1.510   0.621   6.627
14141TIP3    H142364   1.422   0.592   6.604
14141TIP3    H242365   1.498   0.707   6.667
14142TIP3   OH242366   2.963   7.869   5.791
14142TIP3    H142367   2.983   7.788   5.839
14142TIP3    H242368   2.928   7.928   5.858
14143TIP3   OH242369   2.067   3.327   4.274
14143TIP3    H142370   2.070   3.284   4.189
14143TIP3    H242371   2.134   3.283   4.326
14144TIP3   OH242372   6.704   6.568   6.095
14144TIP3    H142373   6.739   6.651   6.063
14144TIP3    H242374   6.725   6.505   6.025
14145TIP3   OH242375   5.478   5.065   0.232
14145TIP3    H142376   5.424   5.114   0.169
14145TIP3    H242377   5.567   5.096   0.216
14146TIP3   OH242378   0.102   7.788   0.859
14146TIP3    H142379   0.085   7.694   0.860
14146TIP3    H242380   0.089   7.815   0.768
14147TIP3   OH242381   3.643   1.214   6.747
14147TIP3    H142382   3.671   1.293   6.792
14147TIP3    H242383   3.581   1.172   6.807
14148TIP3   OH242384   7.336   6.696   3.173
14148TIP3    H142385   7.341   6.665   3.083
14148TIP3    H242386   7.426   6.691   3.206
14149TIP3   OH242387   5.403   0.080   3.024
14149TIP3    H142388   5.310   0.093   3.044
14149TIP3    H242389   5.437   0.033   3.100
14150TIP3   OH242390   4.200   1.320   1.333
14150TIP3    H142391   4.234   1.232   1.348
14150TIP3    H242392   4.202   1.329   1.237
14151TIP3   OH242393   4.906   7.302   3.122
14151TIP3    H142394   4.865   7.284   3.037
14151TIP3    H242395   4.993   7.263   3.115
14152TIP3   OH242396   7.467   5.714   2.662
14152TIP3    H142397   7.539   5.776   2.651
14152TIP3    H242398   7.421   5.745   2.741
14153TIP3   OH242399   1.169   6.595   2.296
14153TIP3    H142400   1.178   6.657   2.224
14153TIP3    H242401   1.228   6.628   2.364
14154TIP3   OH242402   3.242   7.247   3.831
14154TIP3    H142403   3.189   7.234   3.910
14154TIP3    H242404   3.178   7.264   3.762
14155TIP3   OH242405   4.579   2.161   4.569
14155TIP3    H142406   4.543   2.194   4.486
14155TIP3    H242407   4.549   2.224   4.634
14156TIP3   OH242408   6.194   5.992   5.242
14156TIP3    H142409   6.165   5.932   5.311
14156TIP3    H242410   6.277   5.956   5.212
14157TIP3   OH242411   1.157   3.987   2.426
14157TIP3    H142412   1.091   3.959   2.490
14157TIP3    H242413   1.218   3.914   2.421
14158TIP3   OH242414   7.541   7.701   6.363
14158TIP3    H142415   7.611   7.757   6.396
14158TIP3    H242416   7.466   7.722   6.419
14159TIP3   OH242417   2.743   1.492   3.798
14159TIP3    H142418   2.832   1.526   3.809
14159TIP3    H242419   2.731   1.489   3.703
14160TIP3   OH242420   4.011   1.570   1.229
14160TIP3    H142421   3.945   1.515   1.270
14160TIP3    H242422   3.979   1.585   1.140
14161TIP3   OH242423   6.892   5.769   2.558
14161TIP3    H142424   6.943   5.832   2.506
14161TIP3    H242425   6.855   5.821   2.629
14162TIP3   OH242426   2.202   5.763   0.866
14162TIP3    H142427   2.288   5.775   0.826
14162TIP3    H242428   2.191   5.668   0.869
14163TIP3   OH242429   8.285   1.390   1.581
14163TIP3    H142430   8.320   1.396   1.492
14163TIP3    H242431   8.207   1.336   1.572
14164TIP3   OH242432   6.386   7.314   5.597
14164TIP3    H142433   6.322   7.243   5.589
14164TIP3    H242434   6.442   7.304   5.520
14165TIP3   OH242435   1.353   4.568   4.476
14165TIP3    H142436   1.319   4.607   4.395
14165TIP3    H242437   1.362   4.643   4.535
14166TIP3   OH242438   3.050   7.613   4.922
14166TIP3    H142439   2.994   7.658   4.858
14166TIP3    H242440   3.008   7.528   4.935
14167TIP3   OH242441   1.763   1.467   2.514
14167TIP3    H142442   1.719   1.552   2.515
14167TIP3    H242443   1.752   1.433   2.603
14168TIP3   OH242444   4.571   5.325   4.166
14168TIP3    H142445   4.574   5.411   4.124
14168TIP3    H242446   4.661   5.292   4.159
14169TIP3   OH242447   6.755   0.348   4.506
14169TIP3    H142448   6.783   0.376   4.593
14169TIP3    H242449   6.827   0.373   4.448
14170TIP3   OH242450   0.892   2.965   2.708
14170TIP3    H142451   0.953   3.001   2.774
14170TIP3    H242452   0.806   2.989   2.741
14171TIP3   OH242453   5.323   1.308   6.280
14171TIP3    H142454   5.368   1.227   6.301
14171TIP3    H242455   5.377   1.377   6.318
14172TIP3   OH242456   2.629   7.555   5.567
14172TIP3    H142457   2.723   7.537   5.580
14172TIP3    H242458   2.610   7.523   5.480
14173TIP3   OH242459   3.299   6.044   0.976
14173TIP3    H142460   3.244   6.088   0.912
14173TIP3    H242461   3.389   6.065   0.949
14174TIP3   OH242462   6.496   5.992   6.513
14174TIP3    H142463   6.463   5.953   6.594
14174TIP3    H242464   6.473   6.084   6.520
14175TIP3   OH242465   4.298   7.032   2.595
14175TIP3    H142466   4.336   7.029   2.683
14175TIP3    H242467   4.288   6.941   2.570
14176TIP3   OH242468   7.612   2.621   4.581
14176TIP3    H142469   7.584   2.531   4.592
14176TIP3    H242470   7.667   2.639   4.657
14177TIP3   OH242471   2.085   1.773   1.864
14177TIP3    H142472   2.032   1.765   1.944
14177TIP3    H242473   2.046   1.709   1.804
14178TIP3   OH242474   3.765   2.990   1.776
14178TIP3    H142475   3.681   3.034   1.779
14178TIP3    H242476   3.822   3.042   1.833
14179TIP3   OH242477   5.007   5.281   5.597
14179TIP3    H142478   5.054   5.316   5.673
14179TIP3    H242479   4.928   5.242   5.635
14180TIP3   OH242480   3.100   4.190   3.758
14180TIP3    H142481   3.071   4.164   3.670
14180TIP3    H242482   3.195   4.176   3.757
14181TIP3   OH242483   5.302   5.079   6.228
14181TIP3    H142484   5.263   5.165   6.244
14181TIP3    H242485   5.396   5.094   6.227
14182TIP3   OH242486   7.126   4.685   4.551
14182TIP3    H142487   7.210   4.730   4.564
14182TIP3    H242488   7.129   4.655   4.460
14183TIP3   OH242489   7.967   5.537   2.161
14183TIP3    H142490   7.960   5.601   2.090
14183TIP3    H242491   7.878   5.532   2.196
14184TIP3   OH242492   0.341   2.710   2.036
14184TIP3    H142493   0.394   2.643   2.080
14184TIP3    H242494   0.384   2.723   1.952
14185TIP3   OH242495   4.340   1.735   2.268
14185TIP3    H142496   4.287   1.729   2.348
14185TIP3    H242497   4.424   1.769   2.298
14186TIP3   OH242498   1.114   0.306   6.421
14186TIP3    H142499   1.074   0.247   6.485
14186TIP3    H242500   1.184   0.254   6.381
14187TIP3   OH242501   7.738   5.659   0.533
14187TIP3    H142502   7.698   5.623   0.611
14187TIP3    H242503   7.817   5.605   0.519
14188TIP3   OH242504   3.085   7.398   5.349
14188TIP3    H142505   3.008   7.348   5.322
14188TIP3    H242506   3.050   7.469   5.403
14189TIP3   OH242507   1.539   2.151   6.634
14189TIP3    H142508   1.490   2.192   6.563
14189TIP3    H242509   1.620   2.121   6.593
14190TIP3   OH242510   2.059   3.680   4.228
14190TIP3    H142511   2.101   3.633   4.300
14190TIP3    H242512   2.106   3.763   4.224
14191TIP3   OH242513   8.069   0.950   4.571
14191TIP3    H142514   8.006   0.926   4.503
14191TIP3    H242515   8.015   0.975   4.646
14192TIP3   OH242516   7.470   7.842   4.157
14192TIP3    H142517   7.489   7.800   4.073
14192TIP3    H242518   7.411   7.781   4.201
14193TIP3   OH242519   5.820   3.665   3.062
14193TIP3    H142520   5.902   3.700   3.028
14193TIP3    H242521   5.845   3.588   3.113
14194TIP3   OH242522   0.040   2.313   0.947
14194TIP3    H142523   0.029   2.235   1.000
14194TIP3    H242524   0.133   2.314   0.924
14195TIP3   OH242525   2.638   1.442   3.527
14195TIP3    H142526   2.612   1.486   3.446
14195TIP3    H242527   2.555   1.418   3.568
14196TIP3   OH242528   7.354   6.766   2.491
14196TIP3    H142529   7.299   6.808   2.558
14196TIP3    H242530   7.294   6.707   2.445
14197TIP3   OH242531   3.491   7.254   4.593
14197TIP3    H142532   3.482   7.227   4.502
14197TIP3    H242533   3.423   7.206   4.640
14198TIP3   OH242534   7.943   0.273   2.955
14198TIP3    H142535   8.008   0.219   3.000
14198TIP3    H242536   7.859   0.244   2.990
14199TIP3   OH242537   7.197   3.382   1.593
14199TIP3    H142538   7.198   3.340   1.507
14199TIP3    H242539   7.125   3.445   1.588
14200TIP3   OH242540   2.281   5.594   5.211
14200TIP3    H142541   2.249   5.522   5.156
14200TIP3    H242542   2.337   5.552   5.275
14201TIP3   OH242543   7.091   7.356   1.706
14201TIP3    H142544   7.154   7.344   1.634
14201TIP3    H242545   7.145   7.351   1.785
14202TIP3   OH242546   4.872   6.933   6.020
14202TIP3    H142547   4.879   6.935   6.116
14202TIP3    H242548   4.805   6.998   6.000
14203TIP3   OH242549   7.686   3.780   5.610
14203TIP3    H142550   7.699   3.828   5.528
14203TIP3    H242551   7.728   3.835   5.677
14204TIP3   OH242552   0.455   2.165   6.281
14204TIP3    H142553   0.522   2.112   6.237
14204TIP3    H242554   0.382   2.168   6.219
14205TIP3   OH242555   2.910   2.684   2.930
14205TIP3    H142556   2.817   2.705   2.940
14205TIP3    H242557   2.922   2.673   2.836
14206TIP3   OH242558   6.792   7.750   3.475
14206TIP3    H142559   6.742   7.738   3.555
14206TIP3    H242560   6.834   7.835   3.486
14207TIP3   OH242561   6.926   2.200   0.132
14207TIP3    H142562   6.898   2.112   0.104
14207TIP3    H242563   7.021   2.196   0.133
14208TIP3   OH242564   1.554   2.597   1.036
14208TIP3    H142565   1.557   2.600   0.941
14208TIP3    H242566   1.632   2.646   1.064
14209TIP3   OH242567   2.896   5.781   2.243
14209TIP3    H142568   2.982   5.814   2.215
14209TIP3    H242569   2.863   5.847   2.303
14210TIP3   OH242570   6.103   3.423   3.656
14210TIP3    H142571   6.065   3.510   3.665
14210TIP3    H242572   6.154   3.411   3.736
14211TIP3   OH242573   7.243   6.372   1.335
14211TIP3    H142574   7.172   6.394   1.274
14211TIP3    H242575   7.296   6.308   1.288
14212TIP3   OH242576   8.043   6.882   2.449
14212TIP3    H142577   8.137   6.866   2.460
14212TIP3    H242578   8.003   6.796   2.457
14213TIP3   OH242579   8.357   2.932   0.140
14213TIP3    H142580   8.431   2.983   0.107
14213TIP3    H242581   8.321   2.984   0.212
14214TIP3   OH242582   1.043   0.518   2.724
14214TIP3    H142583   1.017   0.431   2.754
14214TIP3    H242584   1.139   0.519   2.734
14215TIP3   OH242585   0.791   2.967   3.799
14215TIP3    H142586   0.812   2.877   3.822
14215TIP3    H242587   0.871   3.000   3.757
14216TIP3   OH242588   0.675   0.089   1.021
14216TIP3    H142589   0.663  -0.001   1.051
14216TIP3    H242590   0.599   0.107   0.966
14217TIP3   OH242591   7.105   0.142   2.513
14217TIP3    H142592   7.184   0.117   2.560
14217TIP3    H242593   7.119   0.234   2.489
14218TIP3   OH242594   5.197   1.852   6.362
14218TIP3    H142595   5.172   1.944   6.350
14218TIP3    H242596   5.117   1.803   6.345
14219TIP3   OH242597   7.672   6.847   0.751
14219TIP3    H142598   7.629   6.797   0.820
14219TIP3    H242599   7.666   6.938   0.780
14220TIP3   OH242600   3.369   0.253   3.036
14220TIP3    H142601   3.388   0.168   2.996
14220TIP3    H242602   3.297   0.235   3.097
14221TIP3   OH242603   0.530   3.639   0.153
14221TIP3    H142604   0.593   3.610   0.087
14221TIP3    H242605   0.445   3.636   0.109
14222TIP3   OH242606   0.470   3.178   6.652
14222TIP3    H142607   0.381   3.150   6.675
14222TIP3    H242608   0.521   3.162   6.731
14223TIP3   OH242609   2.728   1.173   3.551
14223TIP3    H142610   2.649   1.185   3.604
14223TIP3    H242611   2.722   1.239   3.482
14224TIP3   OH242612   4.197   6.126   3.092
14224TIP3    H142613   4.274   6.082   3.056
14224TIP3    H242614   4.231   6.182   3.161
14225TIP3   OH242615   2.036   3.710   5.755
14225TIP3    H142616   2.100   3.776   5.783
14225TIP3    H242617   2.048   3.638   5.817
14226TIP3   OH242618   1.635   6.005   1.796
14226TIP3    H142619   1.595   6.082   1.758
14226TIP3    H242620   1.567   5.938   1.792
14227TIP3   OH242621   1.301   3.773   2.337
14227TIP3    H142622   1.364   3.708   2.370
14227TIP3    H242623   1.352   3.829   2.279
14228TIP3   OH242624   7.732   3.994   4.504
14228TIP3    H142625   7.643   4.028   4.511
14228TIP3    H242626   7.739   3.963   4.413
14229TIP3   OH242627   6.594   0.009   2.298
14229TIP3    H142628   6.532   0.078   2.324
14229TIP3    H242629   6.643   0.047   2.225
14230TIP3   OH242630   6.907   5.683   1.515
14230TIP3    H142631   6.893   5.767   1.559
14230TIP3    H242632   6.974   5.703   1.449
14231TIP3   OH242633   1.765   0.254   1.180
14231TIP3    H142634   1.685   0.201   1.185
14231TIP3    H242635   1.804   0.247   1.267
14232TIP3   OH242636   6.139   4.614   0.277
14232TIP3    H142637   6.227   4.581   0.295
14232TIP3    H242638   6.150   4.667   0.198
14233TIP3   OH242639   3.686   3.836   3.905
14233TIP3    H142640   3.647   3.889   3.836
14233TIP3    H242641   3.634   3.756   3.906
14234TIP3   OH242642   2.730   3.084   4.805
14234TIP3    H142643   2.750   3.007   4.858
14234TIP3    H242644   2.807   3.140   4.813
14235TIP3   OH242645   2.576   5.192   0.593
14235TIP3    H142646   2.540   5.278   0.571
14235TIP3    H242647   2.633   5.170   0.519
14236TIP3   OH242648   2.216   7.845   3.575
14236TIP3    H142649   2.122   7.828   3.575
14236TIP3    H242650   2.232   7.894   3.656
14237TIP3   OH242651   4.449   6.433   3.220
14237TIP3    H142652   4.442   6.345   3.256
14237TIP3    H242653   4.489   6.484   3.290
14238TIP3   OH242654   7.162   1.514   3.799
14238TIP3    H142655   7.108   1.439   3.773
14238TIP3    H242656   7.247   1.476   3.822
14239TIP3   OH242657   1.413   6.974   5.066
14239TIP3    H142658   1.357   6.897   5.053
14239TIP3    H242659   1.479   6.945   5.130
14240TIP3   OH242660   7.164   0.593   2.737
14240TIP3    H142661   7.155   0.498   2.732
14240TIP3    H242662   7.256   0.609   2.715
14241TIP3   OH242663   4.191   4.787   5.604
14241TIP3    H142664   4.240   4.833   5.536
14241TIP3    H242665   4.100   4.789   5.573
14242TIP3   OH242666   6.359   7.547   6.036
14242TIP3    H142667   6.331   7.469   5.987
14242TIP3    H242668   6.347   7.619   5.974
14243TIP3   OH242669   1.122   0.566   3.237
14243TIP3    H142670   1.093   0.543   3.325
14243TIP3    H242671   1.197   0.509   3.221
14244TIP3   OH242672   7.027   2.672   3.611
14244TIP3    H142673   6.978   2.699   3.534
14244TIP3    H242674   7.063   2.586   3.588
14245TIP3   OH242675   0.567   2.720   2.672
14245TIP3    H142676   0.590   2.780   2.602
14245TIP3    H242677   0.649   2.676   2.694
14246TIP3   OH242678   1.217   5.617   0.941
14246TIP3    H142679   1.135   5.644   0.981
14246TIP3    H242680   1.205   5.634   0.848
14247TIP3   OH242681   6.544   0.987   4.012
14247TIP3    H142682   6.634   0.958   4.022
14247TIP3    H242683   6.528   1.044   4.087
14248TIP3   OH242684   0.224   6.522   6.711
14248TIP3    H142685   0.278   6.517   6.632
14248TIP3    H242686   0.287   6.533   6.782
14249TIP3   OH242687   1.487   3.606   4.286
14249TIP3    H142688   1.445   3.529   4.246
14249TIP3    H242689   1.580   3.595   4.266
14250TIP3   OH242690   0.731   4.311   3.474
14250TIP3    H142691   0.684   4.330   3.393
14250TIP3    H242692   0.777   4.229   3.457
14251TIP3   OH242693   5.066   1.268   0.426
14251TIP3    H142694   5.043   1.176   0.418
14251TIP3    H242695   5.021   1.310   0.353
14252TIP3   OH242696   3.471   6.776   1.405
14252TIP3    H142697   3.508   6.865   1.410
14252TIP3    H242698   3.376   6.789   1.412
14253TIP3   OH242699   1.087   7.146   4.892
14253TIP3    H142700   1.064   7.075   4.833
14253TIP3    H242701   1.056   7.225   4.848
14254TIP3   OH242702   4.421   4.664   4.214
14254TIP3    H142703   4.488   4.723   4.182
14254TIP3    H242704   4.467   4.604   4.273
14255TIP3   OH242705   4.929   1.281   3.882
14255TIP3    H142706   4.909   1.306   3.792
14255TIP3    H242707   5.002   1.220   3.874
14256TIP3   OH242708   0.087   2.041   2.693
14256TIP3    H142709   0.053   1.954   2.674
14256TIP3    H242710   0.170   2.045   2.647
14257TIP3   OH242711   2.285   1.326   5.005
14257TIP3    H142712   2.265   1.410   4.964
14257TIP3    H242713   2.329   1.349   5.087
14258TIP3   OH242714   6.108   6.263   5.564
14258TIP3    H142715   6.137   6.178   5.596
14258TIP3    H242716   6.059   6.244   5.484
14259TIP3   OH242717   1.867   2.739   0.199
14259TIP3    H142718   1.902   2.828   0.209
14259TIP3    H242719   1.944   2.683   0.198
14260TIP3   OH242720   3.182   4.318   4.351
14260TIP3    H142721   3.220   4.403   4.328
14260TIP3    H242722   3.196   4.263   4.274
14261TIP3   OH242723   8.019   3.453   6.771
14261TIP3    H142724   8.070   3.401   6.833
14261TIP3    H242725   8.018   3.541   6.808
14262TIP3   OH242726   7.867   5.684   4.362
14262TIP3    H142727   7.858   5.779   4.361
14262TIP3    H242728   7.848   5.657   4.272
14263TIP3   OH242729   5.017   1.884   0.245
14263TIP3    H142730   5.084   1.847   0.188
14263TIP3    H242731   4.942   1.824   0.237
14264TIP3   OH242732   5.747   6.438   4.180
14264TIP3    H142733   5.660   6.478   4.181
14264TIP3    H242734   5.806   6.511   4.162
14265TIP3   OH242735   6.429   5.615   4.328
14265TIP3    H142736   6.363   5.604   4.397
14265TIP3    H242737   6.510   5.633   4.376
14266TIP3   OH242738   0.869   1.444   4.151
14266TIP3    H142739   0.919   1.526   4.146
14266TIP3    H242740   0.932   1.380   4.184
14267TIP3   OH242741   6.713   5.279   5.105
14267TIP3    H142742   6.759   5.197   5.085
14267TIP3    H242743   6.662   5.259   5.184
14268TIP3   OH242744   5.826   3.890   5.405
14268TIP3    H142745   5.735   3.918   5.415
14268TIP3    H242746   5.873   3.969   5.380
14269TIP3   OH242747   0.422   3.231   3.684
14269TIP3    H142748   0.342   3.208   3.637
14269TIP3    H242749   0.488   3.169   3.652
14270TIP3   OH242750   2.457   2.067   6.194
14270TIP3    H142751   2.414   1.984   6.213
14270TIP3    H242752   2.548   2.043   6.178
14271TIP3   OH242753   6.997   5.594   6.279
14271TIP3    H142754   6.916   5.544   6.291
14271TIP3    H242755   6.971   5.685   6.289
14272TIP3   OH242756   5.850   5.574   1.569
14272TIP3    H142757   5.793   5.584   1.493
14272TIP3    H242758   5.934   5.545   1.534
14273TIP3   OH242759   0.114   0.275   4.813
14273TIP3    H142760   0.035   0.286   4.761
14273TIP3    H242761   0.125   0.359   4.857
14274TIP3   OH242762   3.470   4.209   4.020
14274TIP3    H142763   3.470   4.210   3.924
14274TIP3    H242764   3.456   4.117   4.043
14275TIP3   OH242765   6.438   5.837   1.206
14275TIP3    H142766   6.425   5.903   1.275
14275TIP3    H242767   6.481   5.764   1.250
14276TIP3   OH242768   1.975   7.175   3.438
14276TIP3    H142769   1.899   7.193   3.493
14276TIP3    H242770   1.950   7.205   3.350
14277TIP3   OH242771   7.621   1.936   5.450
14277TIP3    H142772   7.540   1.893   5.422
14277TIP3    H242773   7.599   2.029   5.452
14278TIP3   OH242774   4.397   7.797   6.499
14278TIP3    H142775   4.404   7.765   6.589
14278TIP3    H242776   4.308   7.831   6.492
14279TIP3   OH242777   0.346   3.287   0.395
14279TIP3    H142778   0.430   3.264   0.356
14279TIP3    H242779   0.369   3.331   0.477
14280TIP3   OH242780   2.100   6.386   1.196
14280TIP3    H142781   2.021   6.402   1.248
14280TIP3    H242782   2.074   6.317   1.135
14281TIP3   OH242783   7.613   1.948   2.241
14281TIP3    H142784   7.671   2.022   2.259
14281TIP3    H242785   7.531   1.989   2.214
14282TIP3   OH242786   5.535   4.141   3.478
14282TIP3    H142787   5.582   4.130   3.560
14282TIP3    H242788   5.454   4.186   3.503
14283TIP3   OH242789   7.103   3.421   5.323
14283TIP3    H142790   7.165   3.479   5.367
14283TIP3    H242791   7.046   3.390   5.392
14284TIP3   OH242792   4.238   7.199   1.524
14284TIP3    H142793   4.328   7.216   1.552
14284TIP3    H242794   4.242   7.113   1.483
14285TIP3   OH242795   0.897   7.693   6.693
14285TIP3    H142796   0.808   7.689   6.658
14285TIP3    H242797   0.953   7.685   6.616
14286TIP3   OH242798   2.548   0.514   4.471
14286TIP3    H142799   2.576   0.490   4.383
14286TIP3    H242800   2.460   0.477   4.479
14287TIP3   OH242801   5.460   1.401   2.373
14287TIP3    H142802   5.547   1.430   2.346
14287TIP3    H242803   5.476   1.325   2.429
14288TIP3   OH242804   3.464   1.268   2.829
14288TIP3    H142805   3.518   1.342   2.800
14288TIP3    H242806   3.497   1.248   2.917
14289TIP3   OH242807   3.893   4.956   3.804
14289TIP3    H142808   3.903   4.895   3.731
14289TIP3    H242809   3.891   5.042   3.763
14290TIP3   OH242810   0.417   7.550   2.557
14290TIP3    H142811   0.406   7.576   2.649
14290TIP3    H242812   0.328   7.533   2.526
14291TIP3   OH242813   6.002   6.604   5.744
14291TIP3    H142814   5.950   6.673   5.785
14291TIP3    H242815   6.053   6.650   5.677
14292TIP3   OH242816   0.095   3.005   2.783
14292TIP3    H142817   0.060   3.092   2.803
14292TIP3    H242818   0.031   2.966   2.724
14293TIP3   OH242819   1.278   4.227   6.090
14293TIP3    H142820   1.249   4.295   6.029
14293TIP3    H242821   1.250   4.257   6.176
14294TIP3   OH242822   8.101   7.450   5.278
14294TIP3    H142823   8.054   7.432   5.360
14294TIP3    H242824   8.044   7.510   5.230
14295TIP3   OH242825   5.237   4.492   3.988
14295TIP3    H142826   5.226   4.579   3.949
14295TIP3    H242827   5.269   4.438   3.917
14296TIP3   OH242828   6.609   3.979   5.394
14296TIP3    H142829   6.543   4.047   5.385
14296TIP3    H242830   6.670   3.995   5.322
14297TIP3   OH242831   2.400   0.404   2.396
14297TIP3    H142832   2.387   0.370   2.308
14297TIP3    H242833   2.453   0.482   2.385
14298TIP3   OH242834   7.109   3.434   6.429
14298TIP3    H142835   7.017   3.452   6.412
14298TIP3    H242836   7.115   3.426   6.524
14299TIP3   OH242837   2.048   7.012   0.248
14299TIP3    H142838   2.095   7.010   0.165
14299TIP3    H242839   2.110   7.051   0.310
14300TIP3   OH242840   2.726   0.913   5.342
14300TIP3    H142841   2.754   0.826   5.312
14300TIP3    H242842   2.798   0.943   5.397
14301TIP3   OH242843   1.201   2.042   2.391
14301TIP3    H142844   1.140   2.112   2.415
14301TIP3    H242845   1.258   2.082   2.325
14302TIP3   OH242846   7.300   6.754   0.286
14302TIP3    H142847   7.273   6.835   0.244
14302TIP3    H242848   7.218   6.714   0.316
14303TIP3   OH242849   4.108   5.212   6.395
14303TIP3    H142850   4.057   5.137   6.364
14303TIP3    H242851   4.135   5.257   6.315
14304TIP3   OH242852   5.096   2.792   4.695
14304TIP3    H142853   5.032   2.852   4.658
14304TIP3    H242854   5.174   2.845   4.710
14305TIP3   OH242855   0.394   5.522   1.506
14305TIP3    H142856   0.396   5.454   1.574
14305TIP3    H242857   0.301   5.537   1.491
14306TIP3   OH242858   4.681   6.097   3.480
14306TIP3    H142859   4.617   6.053   3.423
14306TIP3    H242860   4.703   6.031   3.545
14307TIP3   OH242861   5.674   5.806   5.810
14307TIP3    H142862   5.728   5.842   5.880
14307TIP3    H242863   5.734   5.755   5.756
14308TIP3   OH242864   6.422   0.407   0.563
14308TIP3    H142865   6.352   0.342   0.569
14308TIP3    H242866   6.395   0.466   0.493
14309TIP3   OH242867   7.202   0.677   4.644
14309TIP3    H142868   7.191   0.772   4.639
14309TIP3    H242869   7.130   0.648   4.701
14310TIP3   OH242870   6.624   0.145   4.050
14310TIP3    H142871   6.665   0.065   4.082
14310TIP3    H242872   6.601   0.194   4.130
14311TIP3   OH242873   4.783   0.864   4.198
14311TIP3    H142874   4.720   0.881   4.128
14311TIP3    H242875   4.865   0.901   4.164
14312TIP3   OH242876   4.957   3.374   6.316
14312TIP3    H142877   4.923   3.449   6.266
14312TIP3    H242878   4.995   3.414   6.395
14313TIP3   OH242879   3.465   1.458   1.188
14313TIP3    H142880   3.382   1.503   1.170
14313TIP3    H242881   3.439   1.373   1.223
14314TIP3   OH242882   5.642   5.733   6.352
14314TIP3    H142883   5.575   5.770   6.410
14314TIP3    H242884   5.638   5.788   6.274
14315TIP3   OH242885   2.959   2.765   5.147
14315TIP3    H142886   3.054   2.781   5.148
14315TIP3    H242887   2.949   2.679   5.188
14316TIP3   OH242888   3.815   6.339   2.070
14316TIP3    H142889   3.868   6.410   2.106
14316TIP3    H242890   3.827   6.266   2.131
14317TIP3   OH242891   5.769   1.205   1.295
14317TIP3    H142892   5.717   1.274   1.335
14317TIP3    H242893   5.715   1.172   1.224
14318TIP3   OH242894   6.323   1.599   4.569
14318TIP3    H142895   6.369   1.677   4.536
14318TIP3    H242896   6.254   1.635   4.626
14319TIP3   OH242897   2.143   4.772   2.566
14319TIP3    H142898   2.184   4.709   2.626
14319TIP3    H242899   2.207   4.782   2.495
14320TIP3   OH242900   5.929   3.495   0.395
14320TIP3    H142901   5.931   3.450   0.479
14320TIP3    H242902   6.012   3.473   0.353
14321TIP3   OH242903   6.768   6.693   3.756
14321TIP3    H142904   6.797   6.784   3.765
14321TIP3    H242905   6.788   6.653   3.841
14322TIP3   OH242906   0.473   3.061   0.927
14322TIP3    H142907   0.449   3.077   1.019
14322TIP3    H242908   0.541   2.993   0.932
14323TIP3   OH242909   7.273   1.435   0.219
14323TIP3    H142910   7.284   1.405   0.129
14323TIP3    H242911   7.321   1.517   0.224
14324TIP3   OH242912   0.576   4.434   0.269
14324TIP3    H142913   0.640   4.362   0.276
14324TIP3    H242914   0.565   4.464   0.359
14325TIP3   OH242915   2.395   3.933   0.948
14325TIP3    H142916   2.479   3.974   0.972
14325TIP3    H242917   2.391   3.942   0.853
14326TIP3   OH242918   0.674   1.248   2.985
14326TIP3    H142919   0.741   1.182   2.966
14326TIP3    H242920   0.631   1.215   3.064
14327TIP3   OH242921   7.355   6.531   1.791
14327TIP3    H142922   7.337   6.607   1.848
14327TIP3    H242923   7.285   6.469   1.811
14328TIP3   OH242924   5.148   5.205   0.980
14328TIP3    H142925   5.066   5.180   1.022
14328TIP3    H242926   5.144   5.300   0.974
14329TIP3   OH242927   6.896   0.785   4.562
14329TIP3    H142928   6.802   0.777   4.550
14329TIP3    H242929   6.907   0.864   4.615
14330TIP3   OH242930   2.890   7.748   2.501
14330TIP3    H142931   2.832   7.818   2.471
14330TIP3    H242932   2.952   7.792   2.560
14331TIP3   OH242933   4.423   3.857   3.557
14331TIP3    H142934   4.341   3.843   3.604
14331TIP3    H242935   4.401   3.920   3.489
14332TIP3   OH242936   4.094   2.839   3.720
14332TIP3    H142937   4.178   2.843   3.675
14332TIP3    H242938   4.043   2.775   3.671
14333TIP3   OH242939   3.505   0.459   1.308
14333TIP3    H142940   3.527   0.403   1.382
14333TIP3    H242941   3.421   0.499   1.333
14334TIP3   OH242942   3.251   6.318   2.885
14334TIP3    H142943   3.233   6.405   2.849
14334TIP3    H242944   3.347   6.313   2.889
14335TIP3   OH242945   7.236   4.295   5.989
14335TIP3    H142946   7.310   4.356   5.992
14335TIP3    H242947   7.166   4.339   6.037
14336TIP3   OH242948   0.462   1.525   4.787
14336TIP3    H142949   0.512   1.521   4.706
14336TIP3    H242950   0.505   1.463   4.845
14337TIP3   OH242951   3.983   3.045   5.751
14337TIP3    H142952   3.938   2.964   5.777
14337TIP3    H242953   4.076   3.026   5.764
14338TIP3   OH242954   3.035   7.150   0.431
14338TIP3    H142955   3.042   7.196   0.514
14338TIP3    H242956   2.993   7.067   0.454
14339TIP3   OH242957   3.480   5.841   5.738
14339TIP3    H142958   3.439   5.771   5.687
14339TIP3    H242959   3.572   5.840   5.711
14340TIP3   OH242960   3.243   1.675   0.635
14340TIP3    H142961   3.260   1.704   0.724
14340TIP3    H242962   3.155   1.638   0.638
14341TIP3   OH242963   4.610   5.949   5.073
14341TIP3    H142964   4.554   5.887   5.026
14341TIP3    H242965   4.684   5.896   5.104
14342TIP3   OH242966   3.460   2.514   1.567
14342TIP3    H142967   3.383   2.508   1.510
14342TIP3    H242968   3.430   2.478   1.650
14343TIP3   OH242969   4.245   7.822   1.058
14343TIP3    H142970   4.189   7.870   0.997
14343TIP3    H242971   4.236   7.730   1.032
14344TIP3   OH242972   4.661   6.828   5.633
14344TIP3    H142973   4.621   6.913   5.651
14344TIP3    H242974   4.595   6.779   5.584
14345TIP3   OH242975   5.876   0.468   2.032
14345TIP3    H142976   5.855   0.410   1.958
14345TIP3    H242977   5.878   0.410   2.108
14346TIP3   OH242978   6.341   4.589   2.627
14346TIP3    H142979   6.263   4.551   2.587
14346TIP3    H242980   6.333   4.683   2.610
14347TIP3   OH242981   0.198   5.303   4.655
14347TIP3    H142982   0.105   5.318   4.637
14347TIP3    H242983   0.200   5.282   4.749
14348TIP3   OH242984   4.488   4.497   4.444
14348TIP3    H142985   4.523   4.422   4.396
14348TIP3    H242986   4.395   4.477   4.454
14349TIP3   OH242987   2.456   6.883   0.266
14349TIP3    H142988   2.500   6.853   0.187
14349TIP3    H242989   2.517   6.862   0.337
14350TIP3   OH242990   1.121   3.670   3.700
14350TIP3    H142991   1.130   3.761   3.727
14350TIP3    H242992   1.127   3.620   3.782
14351TIP3   OH242993   6.798   6.221   1.472
14351TIP3    H142994   6.880   6.173   1.459
14351TIP3    H242995   6.733   6.153   1.490
14352TIP3   OH242996   5.410   4.039   5.896
14352TIP3    H142997   5.461   3.964   5.925
14352TIP3    H242998   5.320   4.018   5.921
14353TIP3   OH242999   5.288   0.331   6.094
14353TIP3    H143000   5.348   0.339   6.020
14353TIP3    H243001   5.215   0.279   6.060
14354TIP3   OH243002   3.008   2.977   4.653
14354TIP3    H143003   3.079   2.925   4.614
14354TIP3    H243004   2.947   2.911   4.687
14355TIP3   OH243005   0.774   7.245   3.425
14355TIP3    H143006   0.714   7.173   3.445
14355TIP3    H243007   0.721   7.324   3.437
14356TIP3   OH243008   6.637   6.994   6.352
14356TIP3    H143009   6.606   7.082   6.332
14356TIP3    H243010   6.708   7.007   6.415
14357TIP3   OH243011   1.784   4.585   2.631
14357TIP3    H143012   1.807   4.541   2.549
14357TIP3    H243013   1.859   4.641   2.650
14358TIP3   OH243014   0.292   6.893   5.906
14358TIP3    H143015   0.257   6.952   5.839
14358TIP3    H243016   0.248   6.918   5.987
14359TIP3   OH243017   0.594   1.089   0.817
14359TIP3    H143018   0.614   1.155   0.883
14359TIP3    H243019   0.537   1.134   0.754
14360TIP3   OH243020   1.081   2.870   6.818
14360TIP3    H143021   1.175   2.856   6.816
14360TIP3    H243022   1.064   2.925   6.741
14361TIP3   OH243023   6.229   4.046   5.881
14361TIP3    H143024   6.155   4.058   5.941
14361TIP3    H243025   6.280   4.126   5.889
14362TIP3   OH243026   2.922   4.116   4.285
14362TIP3    H143027   2.946   4.207   4.265
14362TIP3    H243028   2.826   4.116   4.286
14363TIP3   OH243029   2.863   3.036   0.615
14363TIP3    H143030   2.865   3.125   0.580
14363TIP3    H243031   2.784   2.997   0.577
14364TIP3   OH243032   3.640   3.763   5.009
14364TIP3    H143033   3.721   3.762   4.958
14364TIP3    H243034   3.639   3.850   5.050
14365TIP3   OH243035   2.316   0.925   3.742
14365TIP3    H143036   2.351   0.946   3.828
14365TIP3    H243037   2.391   0.896   3.691
14366TIP3   OH243038   8.279   4.448   3.915
14366TIP3    H143039   8.198   4.399   3.901
14366TIP3    H243040   8.327   4.399   3.981
14367TIP3   OH243041   0.585   2.468   5.486
14367TIP3    H143042   0.660   2.527   5.477
14367TIP3    H243043   0.624   2.385   5.514
14368TIP3   OH243044   0.667   4.040   3.684
14368TIP3    H143045   0.733   4.048   3.615
14368TIP3    H243046   0.696   4.101   3.752
14369TIP3   OH243047   3.127   4.590   0.453
14369TIP3    H143048   3.042   4.568   0.415
14369TIP3    H243049   3.116   4.678   0.488
14370TIP3   OH243050   1.217   7.774   2.771
14370TIP3    H143051   1.219   7.742   2.862
14370TIP3    H243052   1.184   7.700   2.721
14371TIP3   OH243053   3.083   4.117   4.520
14371TIP3    H143054   3.146   4.181   4.485
14371TIP3    H243055   3.025   4.098   4.447
14372TIP3   OH243056   7.927   4.208   1.325
14372TIP3    H143057   7.940   4.113   1.329
14372TIP3    H243058   7.835   4.221   1.344
14373TIP3   OH243059   2.547   6.350   1.341
14373TIP3    H143060   2.598   6.417   1.296
14373TIP3    H243061   2.561   6.367   1.434
14374TIP3   OH243062   7.543   6.528   2.478
14374TIP3    H143063   7.455   6.565   2.481
14374TIP3    H243064   7.581   6.548   2.564
14375TIP3   OH243065   5.061   3.454   4.604
14375TIP3    H143066   4.979   3.491   4.636
14375TIP3    H243067   5.051   3.359   4.616
14376TIP3   OH243068   6.888   3.593   1.151
14376TIP3    H143069   6.889   3.592   1.055
14376TIP3    H243070   6.980   3.586   1.176
14377TIP3   OH243071   8.240   4.980   4.868
14377TIP3    H143072   8.197   4.895   4.876
14377TIP3    H243073   8.214   5.011   4.780
14378TIP3   OH243074   7.418   4.488   1.097
14378TIP3    H143075   7.476   4.564   1.100
14378TIP3    H243076   7.472   4.418   1.060
14379TIP3   OH243077   6.072   6.373   2.041
14379TIP3    H143078   6.001   6.420   1.996
14379TIP3    H243079   6.102   6.309   1.976
14380TIP3   OH243080   7.284   5.586   2.981
14380TIP3    H143081   7.199   5.543   2.974
14380TIP3    H243082   7.304   5.586   3.074
14381TIP3   OH243083   5.444   4.962   6.467
14381TIP3    H143084   5.406   4.992   6.385
14381TIP3    H243085   5.499   4.888   6.441
14382TIP3   OH243086   3.075   3.461   0.677
14382TIP3    H143087   2.984   3.471   0.708
14382TIP3    H243088   3.071   3.480   0.584
14383TIP3   OH243089   2.777   4.730   0.641
14383TIP3    H143090   2.783   4.808   0.587
14383TIP3    H243091   2.738   4.664   0.583
14384TIP3   OH243092   7.943   6.634   2.498
14384TIP3    H143093   7.882   6.633   2.571
14384TIP3    H243094   7.887   6.639   2.420
14385TIP3   OH243095   6.184   3.677   1.338
14385TIP3    H143096   6.272   3.652   1.365
14385TIP3    H243097   6.178   3.650   1.246
14386TIP3   OH243098   4.520   4.340   6.858
14386TIP3    H143099   4.469   4.415   6.826
14386TIP3    H243100   4.514   4.275   6.788
14387TIP3   OH243101   8.326   3.979   1.147
14387TIP3    H143102   8.267   3.995   1.221
14387TIP3    H243103   8.311   3.887   1.124
14388TIP3   OH243104   1.583   1.283   3.292
14388TIP3    H143105   1.657   1.242   3.338
14388TIP3    H243106   1.580   1.238   3.207
14389TIP3   OH243107   6.230   3.160   1.691
14389TIP3    H143108   6.279   3.110   1.757
14389TIP3    H243109   6.184   3.227   1.742
14390TIP3   OH243110   4.313   0.948   0.776
14390TIP3    H143111   4.314   1.025   0.718
14390TIP3    H243112   4.235   0.961   0.830
14391TIP3   OH243113   1.073   6.620   6.326
14391TIP3    H143114   1.162   6.620   6.290
14391TIP3    H243115   1.061   6.709   6.359
14392TIP3   OH243116   1.143   3.514   2.167
14392TIP3    H143117   1.094   3.449   2.217
14392TIP3    H243118   1.113   3.598   2.203
14393TIP3   OH243119   6.998   6.352   3.142
14393TIP3    H143120   6.918   6.327   3.097
14393TIP3    H243121   6.990   6.315   3.230
14394TIP3   OH243122   5.984   2.639   1.142
14394TIP3    H143123   6.061   2.640   1.085
14394TIP3    H243124   6.010   2.687   1.220
14395TIP3   OH243125   2.267   5.426   2.193
14395TIP3    H143126   2.338   5.364   2.213
14395TIP3    H243127   2.190   5.390   2.237
14396TIP3   OH243128   5.743   6.826   3.687
14396TIP3    H143129   5.720   6.918   3.696
14396TIP3    H243130   5.799   6.808   3.762
14397TIP3   OH243131   3.654   7.252   6.216
14397TIP3    H143132   3.603   7.294   6.285
14397TIP3    H243133   3.590   7.228   6.149
14398TIP3   OH243134  -0.026   6.258   1.791
14398TIP3    H143135   0.044   6.244   1.727
14398TIP3    H243136   0.019   6.296   1.867
14399TIP3   OH243137   3.054   6.213   2.511
14399TIP3    H143138   3.131   6.172   2.550
14399TIP3    H243139   3.065   6.199   2.416
14400TIP3   OH243140   6.544   4.558   2.453
14400TIP3    H143141   6.482   4.557   2.526
14400TIP3    H243142   6.525   4.639   2.405
14401TIP3   OH243143   2.672   6.996   4.804
14401TIP3    H143144   2.639   7.086   4.800
14401TIP3    H243145   2.595   6.942   4.793
14402TIP3   OH243146   5.405   5.617   1.895
14402TIP3    H143147   5.469   5.562   1.851
14402TIP3    H243148   5.320   5.583   1.866
14403TIP3   OH243149   3.447   7.437   2.707
14403TIP3    H143150   3.514   7.502   2.686
14403TIP3    H243151   3.445   7.379   2.630
14404TIP3   OH243152   7.668   2.341   2.874
14404TIP3    H143153   7.737   2.330   2.809
14404TIP3    H243154   7.626   2.424   2.850
14405TIP3   OH243155   4.440   0.506   6.051
14405TIP3    H143156   4.447   0.509   5.955
14405TIP3    H243157   4.455   0.414   6.072
14406TIP3   OH243158   7.268   2.090   5.171
14406TIP3    H143159   7.330   2.160   5.147
14406TIP3    H243160   7.281   2.079   5.265
14407TIP3   OH243161   7.692   6.156   2.435
14407TIP3    H143162   7.742   6.147   2.354
14407TIP3    H243163   7.752   6.201   2.495
14408TIP3   OH243164   2.331   0.914   0.906
14408TIP3    H143165   2.376   0.999   0.908
14408TIP3    H243166   2.238   0.936   0.909
14409TIP3   OH243167   5.876   0.776   1.466
14409TIP3    H143168   5.911   0.768   1.555
14409TIP3    H243169   5.913   0.858   1.434
14410TIP3   OH243170   4.579   4.387   1.233
14410TIP3    H143171   4.507   4.339   1.273
14410TIP3    H243172   4.540   4.471   1.206
14411TIP3   OH243173   6.477   3.445   1.661
14411TIP3    H143174   6.426   3.405   1.731
14411TIP3    H243175   6.538   3.377   1.633
14412TIP3   OH243176   1.678   3.897   5.305
14412TIP3    H143177   1.770   3.881   5.288
14412TIP3    H243178   1.632   3.829   5.255
14413TIP3   OH243179   6.832   1.657   5.689
14413TIP3    H143180   6.831   1.747   5.723
14413TIP3    H243181   6.910   1.654   5.633
14414TIP3   OH243182   5.302   4.710   4.917
14414TIP3    H143183   5.276   4.690   5.007
14414TIP3    H243184   5.227   4.754   4.879
14415TIP3   OH243185   1.503   7.271   0.302
14415TIP3    H143186   1.408   7.281   0.305
14415TIP3    H243187   1.517   7.180   0.277
14416TIP3   OH243188   6.732   6.694   1.112
14416TIP3    H143189   6.760   6.755   1.044
14416TIP3    H243190   6.668   6.742   1.163
14417TIP3   OH243191   4.517   4.027   6.418
14417TIP3    H143192   4.434   3.997   6.382
14417TIP3    H243193   4.543   3.958   6.479
14418TIP3   OH243194   8.073   5.422   4.886
14418TIP3    H143195   8.025   5.360   4.940
14418TIP3    H243196   8.036   5.507   4.908
14419TIP3   OH243197   8.244   5.385   5.528
14419TIP3    H143198   8.329   5.384   5.485
14419TIP3    H243199   8.265   5.391   5.621
14420TIP3   OH243200   1.405   0.858   4.822
14420TIP3    H143201   1.389   0.931   4.763
14420TIP3    H243202   1.481   0.884   4.874
14421TIP3   OH243203   5.277   3.658   6.093
14421TIP3    H143204   5.345   3.674   6.158
14421TIP3    H243205   5.277   3.563   6.080
14422TIP3   OH243206   5.945   6.169   2.435
14422TIP3    H143207   5.879   6.234   2.461
14422TIP3    H243208   5.922   6.091   2.485
14423TIP3   OH243209   8.311   4.087   2.086
14423TIP3    H143210   8.384   4.026   2.084
14423TIP3    H243211   8.318   4.136   2.005
14424TIP3   OH243212   3.165   6.685   2.296
14424TIP3    H143213   3.077   6.705   2.265
14424TIP3    H243214   3.170   6.589   2.294
14425TIP3   OH243215   6.143   4.244   4.420
14425TIP3    H143216   6.181   4.331   4.430
14425TIP3    H243217   6.091   4.230   4.499
14426TIP3   OH243218   6.947   5.006   1.002
14426TIP3    H143219   6.924   5.074   1.066
14426TIP3    H243220   7.029   5.037   0.963
14427TIP3   OH243221   1.093   0.922   2.191
14427TIP3    H143222   1.184   0.894   2.192
14427TIP3    H243223   1.045   0.849   2.153
14428TIP3   OH243224   3.425   4.423   0.250
14428TIP3    H143225   3.460   4.478   0.320
14428TIP3    H243226   3.448   4.469   0.169
14429TIP3   OH243227   3.983   3.155   3.534
14429TIP3    H143228   3.971   3.245   3.504
14429TIP3    H243229   4.062   3.157   3.588
14430TIP3   OH243230   3.525   2.061   4.802
14430TIP3    H143231   3.591   1.994   4.782
14430TIP3    H243232   3.482   2.079   4.718
14431TIP3   OH243233   7.158   6.543   1.552
14431TIP3    H143234   7.150   6.507   1.640
14431TIP3    H243235   7.128   6.474   1.494
14432TIP3   OH243236   3.814   4.920   2.855
14432TIP3    H143237   3.798   4.874   2.937
14432TIP3    H243238   3.908   4.941   2.858
14433TIP3   OH243239   0.698   3.318   3.472
14433TIP3    H143240   0.661   3.395   3.430
14433TIP3    H243241   0.634   3.248   3.456
14434TIP3   OH243242   5.992   3.078   4.447
14434TIP3    H143243   5.992   2.987   4.418
14434TIP3    H243244   6.007   3.074   4.541
14435TIP3   OH243245   4.485   6.329   2.806
14435TIP3    H143246   4.558   6.274   2.780
14435TIP3    H243247   4.519   6.382   2.878
14436TIP3   OH243248   0.056   6.642   1.633
14436TIP3    H143249   0.120   6.632   1.703
14436TIP3    H243250   0.109   6.663   1.555
14437TIP3   OH243251   0.154   4.770   6.528
14437TIP3    H143252   0.249   4.771   6.542
14437TIP3    H243253   0.137   4.844   6.470
14438TIP3   OH243254   7.491   6.883   3.734
14438TIP3    H143255   7.545   6.816   3.776
14438TIP3    H243256   7.404   6.843   3.726
14439TIP3   OH243257   8.373   6.513   5.895
14439TIP3    H143258   8.379   6.604   5.925
14439TIP3    H243259   8.359   6.462   5.975
14440TIP3   OH243260   4.926   6.748   2.548
14440TIP3    H143261   4.931   6.802   2.469
14440TIP3    H243262   4.835   6.754   2.576
14441TIP3   OH243263   6.201   1.924   3.466
14441TIP3    H143264   6.214   2.000   3.522
14441TIP3    H243265   6.132   1.874   3.509
14442TIP3   OH243266   4.716   5.965   1.363
14442TIP3    H143267   4.796   5.917   1.385
14442TIP3    H243268   4.745   6.056   1.350
14443TIP3   OH243269   3.042   7.697   2.234
14443TIP3    H143270   3.016   7.610   2.204
14443TIP3    H243271   2.987   7.714   2.310
14444TIP3   OH243272   7.741   5.207   4.403
14444TIP3    H143273   7.716   5.268   4.334
14444TIP3    H243274   7.685   5.231   4.477
14445TIP3   OH243275   2.468   6.863   2.006
14445TIP3    H143276   2.553   6.822   2.024
14445TIP3    H243277   2.486   6.957   2.005
14446TIP3   OH243278   8.217   6.276   4.262
14446TIP3    H143279   8.148   6.315   4.315
14446TIP3    H243280   8.263   6.216   4.322
14447TIP3   OH243281   2.367   6.392   5.194
14447TIP3    H143282   2.339   6.464   5.137
14447TIP3    H243283   2.346   6.421   5.282
14448TIP3   OH243284   4.106   4.395   3.937
14448TIP3    H143285   4.107   4.379   4.031
14448TIP3    H243286   4.139   4.314   3.899
14449TIP3   OH243287   1.815   0.752   1.142
14449TIP3    H143288   1.838   0.670   1.098
14449TIP3    H243289   1.721   0.744   1.159
14450TIP3   OH243290   4.979   1.935   3.429
14450TIP3    H143291   4.949   1.964   3.343
14450TIP3    H243292   4.969   1.840   3.427
14451TIP3   OH243293   6.220   3.692   2.538
14451TIP3    H143294   6.131   3.677   2.570
14451TIP3    H243295   6.209   3.754   2.465
14452TIP3   OH243296   1.144   5.596   0.664
14452TIP3    H143297   1.130   5.595   0.570
14452TIP3    H243298   1.158   5.505   0.688
14453TIP3   OH243299   7.883   0.399   1.027
14453TIP3    H143300   7.898   0.434   0.940
14453TIP3    H243301   7.965   0.357   1.051
14454TIP3   OH243302   7.637   4.809   2.945
14454TIP3    H143303   7.722   4.765   2.945
14454TIP3    H243304   7.657   4.902   2.950
14455TIP3   OH243305   4.297   1.538   5.566
14455TIP3    H143306   4.310   1.633   5.560
14455TIP3    H243307   4.248   1.526   5.648
14456TIP3   OH243308   4.342  -0.036   4.097
14456TIP3    H143309   4.388   0.033   4.050
14456TIP3    H243310   4.395  -0.052   4.175
14457TIP3   OH243311   2.492   5.384   6.210
14457TIP3    H143312   2.574   5.422   6.180
14457TIP3    H243313   2.501   5.379   6.306
14458TIP3   OH243314   1.514   2.778   1.567
14458TIP3    H143315   1.596   2.753   1.524
14458TIP3    H243316   1.506   2.717   1.641
14459TIP3   OH243317   3.517   5.509   2.458
14459TIP3    H143318   3.549   5.599   2.466
14459TIP3    H243319   3.595   5.456   2.449
14460TIP3   OH243320   1.208   1.751   2.794
14460TIP3    H143321   1.256   1.832   2.779
14460TIP3    H243322   1.273   1.682   2.779
14461TIP3   OH243323   0.940   4.295   1.977
14461TIP3    H143324   0.905   4.230   1.916
14461TIP3    H243325   1.035   4.291   1.965
14462TIP3   OH243326   7.824   2.255   4.527
14462TIP3    H143327   7.852   2.235   4.438
14462TIP3    H243328   7.894   2.220   4.583
14463TIP3   OH243329   6.063   3.018   1.535
14463TIP3    H143330   6.014   2.975   1.605
14463TIP3    H243331   6.127   3.074   1.581
14464TIP3   OH243332   4.214   5.141   1.260
14464TIP3    H143333   4.197   5.234   1.275
14464TIP3    H243334   4.127   5.102   1.249
14465TIP3   OH243335   6.719   1.297   1.109
14465TIP3    H143336   6.675   1.224   1.152
14465TIP3    H243337   6.777   1.256   1.044
14466TIP3   OH243338   0.625   2.725   2.061
14466TIP3    H143339   0.717   2.736   2.034
14466TIP3    H243340   0.613   2.630   2.065
14467TIP3   OH243341   3.999   4.012   3.297
14467TIP3    H143342   4.065   4.040   3.361
14467TIP3    H243343   3.915   4.024   3.343
14468TIP3   OH243344   6.119   1.474   2.449
14468TIP3    H143345   6.085   1.551   2.493
14468TIP3    H243346   6.100   1.488   2.356
14469TIP3   OH243347   2.962   4.363   1.116
14469TIP3    H143348   2.956   4.322   1.202
14469TIP3    H243349   3.037   4.422   1.123
14470TIP3   OH243350   3.733   2.205   1.636
14470TIP3    H143351   3.691   2.259   1.568
14470TIP3    H243352   3.660   2.160   1.679
14471TIP3   OH243353   3.500   5.750   1.760
14471TIP3    H143354   3.511   5.844   1.742
14471TIP3    H243355   3.407   5.741   1.782
14472TIP3   OH243356   7.204   2.505   6.311
14472TIP3    H143357   7.219   2.583   6.258
14472TIP3    H243358   7.279   2.501   6.370
14473TIP3   OH243359   5.868   3.419   4.561
14473TIP3    H143360   5.802   3.485   4.540
14473TIP3    H243361   5.868   3.360   4.486
14474TIP3   OH243362   6.802   6.643   4.868
14474TIP3    H143363   6.813   6.732   4.834
14474TIP3    H243364   6.755   6.597   4.799
14475TIP3   OH243365   3.799   6.076   2.218
14475TIP3    H143366   3.816   5.982   2.206
14475TIP3    H243367   3.711   6.089   2.183
14476TIP3   OH243368   7.980   5.633   0.171
14476TIP3    H143369   7.889   5.664   0.175
14476TIP3    H243370   7.976   5.553   0.119
14477TIP3   OH243371   1.700   5.088   2.910
14477TIP3    H143372   1.725   5.134   2.990
14477TIP3    H243373   1.604   5.096   2.907
14478TIP3   OH243374   1.289   2.021   2.699
14478TIP3    H143375   1.238   2.050   2.624
14478TIP3    H243376   1.274   2.088   2.766
14479TIP3   OH243377   2.457   2.840   2.248
14479TIP3    H143378   2.499   2.882   2.324
14479TIP3    H243379   2.529   2.815   2.191
14480TIP3   OH243380   5.818   1.533   6.471
14480TIP3    H143381   5.781   1.485   6.545
14480TIP3    H243382   5.796   1.480   6.395
14481TIP3   OH243383   1.850   4.457   2.415
14481TIP3    H143384   1.807   4.375   2.393
14481TIP3    H243385   1.941   4.443   2.392
14482TIP3   OH243386   5.247   3.489   5.657
14482TIP3    H143387   5.318   3.513   5.716
14482TIP3    H243388   5.254   3.551   5.584
14483TIP3   OH243389   1.870   3.749   6.439
14483TIP3    H143390   1.955   3.791   6.426
14483TIP3    H243391   1.806   3.818   6.424
14484TIP3   OH243392   6.302   1.838   1.288
14484TIP3    H143393   6.283   1.932   1.295
14484TIP3    H243394   6.221   1.795   1.316
14485TIP3   OH243395   8.238   3.544   1.876
14485TIP3    H143396   8.278   3.460   1.897
14485TIP3    H243397   8.254   3.598   1.953
14486TIP3   OH243398   6.579   5.711   0.808
14486TIP3    H143399   6.489   5.679   0.811
14486TIP3    H243400   6.583   5.779   0.876
14487TIP3   OH243401   4.349   3.092   2.480
14487TIP3    H143402   4.437   3.129   2.485
14487TIP3    H243403   4.331   3.088   2.386
14488TIP3   OH243404   7.566   0.873   0.455
14488TIP3    H143405   7.484   0.868   0.406
14488TIP3    H243406   7.539   0.867   0.547
14489TIP3   OH243407   6.052   1.612   0.362
14489TIP3    H143408   6.141   1.583   0.341
14489TIP3    H243409   6.001   1.532   0.367
14490TIP3   OH243410   4.660   6.020   4.086
14490TIP3    H143411   4.620   5.938   4.115
14490TIP3    H243412   4.638   6.026   3.993
14491TIP3   OH243413   5.970   1.321   0.325
14491TIP3    H143414   5.886   1.348   0.287
14491TIP3    H243415   6.020   1.287   0.251
14492TIP3   OH243416   3.344   4.703   0.339
14492TIP3    H143417   3.293   4.631   0.378
14492TIP3    H243418   3.429   4.698   0.382
14493TIP3   OH243419   4.863   1.133   2.591
14493TIP3    H143420   4.879   1.167   2.679
14493TIP3    H243421   4.855   1.038   2.603
14494TIP3   OH243422   5.595   5.978   4.199
14494TIP3    H143423   5.534   6.050   4.213
14494TIP3    H243424   5.663   6.015   4.142
14495TIP3   OH243425   7.239   4.381   0.449
14495TIP3    H143426   7.191   4.319   0.503
14495TIP3    H243427   7.304   4.418   0.508
14496TIP3   OH243428   2.697   0.657   6.092
14496TIP3    H143429   2.731   0.573   6.121
14496TIP3    H243430   2.602   0.647   6.096
14497TIP3   OH243431   7.933   3.384   0.745
14497TIP3    H143432   7.912   3.417   0.832
14497TIP3    H243433   7.863   3.321   0.725
14498TIP3   OH243434   1.590   0.684   5.428
14498TIP3    H143435   1.672   0.715   5.389
14498TIP3    H243436   1.561   0.614   5.369
14499TIP3   OH243437   7.757   2.796   0.787
14499TIP3    H143438   7.687   2.843   0.741
14499TIP3    H243439   7.726   2.792   0.878
14500TIP3   OH243440   4.645   0.240   0.195
14500TIP3    H143441   4.613   0.329   0.212
14500TIP3    H243442   4.593   0.184   0.252
14501TIP3   OH243443   1.046   6.522   3.013
14501TIP3    H143444   1.124   6.556   2.968
14501TIP3    H243445   0.994   6.482   2.943
14502TIP3   OH243446   5.186   0.315   4.027
14502TIP3    H143447   5.186   0.220   4.021
14502TIP3    H243448   5.171   0.333   4.120
14503TIP3   OH243449   3.663   1.999   5.261
14503TIP3    H143450   3.585   2.054   5.268
14503TIP3    H243451   3.714   2.039   5.191
14504TIP3   OH243452   8.232   3.754   4.152
14504TIP3    H143453   8.187   3.837   4.136
14504TIP3    H243454   8.301   3.776   4.214
14505TIP3   OH243455   8.092   7.603   1.674
14505TIP3    H143456   8.146   7.627   1.598
14505TIP3    H243457   8.041   7.682   1.693
14506TIP3   OH243458   4.896   2.948   5.464
14506TIP3    H143459   4.847   3.023   5.433
14506TIP3    H243460   4.936   2.977   5.546
14507TIP3   OH243461   5.785   0.016   0.306
14507TIP3    H143462   5.750   0.080   0.368
14507TIP3    H243463   5.853   0.063   0.259
14508TIP3   OH243464   0.739   5.964   3.865
14508TIP3    H143465   0.675   5.981   3.934
14508TIP3    H243466   0.688   5.927   3.793
14509TIP3   OH243467   4.427   4.231   2.898
14509TIP3    H143468   4.470   4.216   2.982
14509TIP3    H243469   4.498   4.236   2.835
14510TIP3   OH243470   5.354   4.985   5.645
14510TIP3    H143471   5.343   4.891   5.631
14510TIP3    H243472   5.290   5.026   5.586
14511TIP3   OH243473   1.187   6.284   5.006
14511TIP3    H143474   1.194   6.285   4.910
14511TIP3    H243475   1.176   6.192   5.028
14512TIP3   OH243476   0.643   5.852   0.999
14512TIP3    H143477   0.562   5.802   0.990
14512TIP3    H243478   0.629   5.930   0.944
14513TIP3   OH243479   8.349   2.795   2.605
14513TIP3    H143480   8.283   2.854   2.567
14513TIP3    H243481   8.392   2.756   2.529
14514TIP3   OH243482   7.459   5.991   5.051
14514TIP3    H143483   7.513   6.007   4.974
14514TIP3    H243484   7.511   6.023   5.124
14515TIP3   OH243485   1.592   3.630   0.733
14515TIP3    H143486   1.538   3.709   0.744
14515TIP3    H243487   1.627   3.613   0.821
14516TIP3   OH243488   5.857   6.375   6.509
14516TIP3    H143489   5.864   6.305   6.575
14516TIP3    H243490   5.765   6.372   6.481
14517TIP3   OH243491   7.637   0.162   6.126
14517TIP3    H143492   7.644   0.070   6.101
14517TIP3    H243493   7.710   0.175   6.188
14518TIP3   OH243494   4.086   0.273   6.605
14518TIP3    H143495   3.996   0.297   6.582
14518TIP3    H243496   4.079   0.182   6.635
14519TIP3   OH243497   0.557   3.432   1.964
14519TIP3    H143498   0.591   3.368   2.027
14519TIP3    H243499   0.612   3.509   1.976
14520TIP3   OH243500   5.651   5.994   3.258
14520TIP3    H143501   5.739   5.958   3.266
14520TIP3    H243502   5.599   5.946   3.322
14521TIP3   OH243503   5.462   6.114   6.214
14521TIP3    H143504   5.461   6.039   6.156
14521TIP3    H243505   5.550   6.113   6.253
14522TIP3   OH243506   2.184   4.076   5.334
14522TIP3    H143507   2.278   4.085   5.317
14522TIP3    H243508   2.171   4.119   5.419
14523TIP3   OH243509   1.969   6.377   5.259
14523TIP3    H143510   1.988   6.446   5.322
14523TIP3    H243511   1.962   6.423   5.175
14524TIP3   OH243512   1.100   0.288   4.305
14524TIP3    H143513   1.146   0.272   4.223
14524TIP3    H243514   1.147   0.237   4.371
14525TIP3   OH243515   3.475   0.116   6.315
14525TIP3    H143516   3.405   0.104   6.251
14525TIP3    H243517   3.529   0.038   6.306
14526TIP3   OH243518   1.476   5.069   3.933
14526TIP3    H143519   1.550   5.008   3.930
14526TIP3    H243520   1.489   5.120   4.013
14527TIP3   OH243521   7.935   3.968   5.511
14527TIP3    H143522   8.021   4.009   5.519
14527TIP3    H243523   7.884   4.006   5.582
14528TIP3   OH243524   0.173   5.382   5.550
14528TIP3    H143525   0.140   5.472   5.546
14528TIP3    H243526   0.179   5.354   5.459
14529TIP3   OH243527   4.374   3.596   1.462
14529TIP3    H143528   4.324   3.592   1.543
14529TIP3    H243529   4.462   3.566   1.487
14530TIP3   OH243530   8.252   7.252   4.775
14530TIP3    H143531   8.228   7.338   4.810
14530TIP3    H243532   8.256   7.265   4.681
14531TIP3   OH243533   1.511   1.100   1.955
14531TIP3    H143534   1.605   1.083   1.962
14531TIP3    H243535   1.500   1.187   1.993
14532TIP3   OH243536   2.682   4.377   4.833
14532TIP3    H143537   2.617   4.311   4.855
14532TIP3    H243538   2.705   4.359   4.742
14533TIP3   OH243539   5.564   0.634   3.301
14533TIP3    H143540   5.567   0.637   3.397
14533TIP3    H243541   5.504   0.562   3.282
14534TIP3   OH243542   6.309   5.127   3.487
14534TIP3    H143543   6.395   5.148   3.524
14534TIP3    H243544   6.322   5.046   3.439
14535TIP3   OH243545   1.581   1.570   0.458
14535TIP3    H143546   1.503   1.604   0.503
14535TIP3    H243547   1.548   1.496   0.406
14536TIP3   OH243548   5.033   4.410   2.449
14536TIP3    H143549   4.945   4.373   2.452
14536TIP3    H243550   5.034   4.475   2.519
14537TIP3   OH243551   0.728   6.251   6.379
14537TIP3    H143552   0.635   6.234   6.365
14537TIP3    H243553   0.749   6.321   6.317
14538TIP3   OH243554   5.738   3.293   6.511
14538TIP3    H143555   5.693   3.291   6.596
14538TIP3    H243556   5.831   3.288   6.533
14539TIP3   OH243557   4.256   5.869   0.534
14539TIP3    H143558   4.171   5.868   0.579
14539TIP3    H243559   4.233   5.885   0.442
14540TIP3   OH243560   2.754   0.410   0.121
14540TIP3    H143561   2.786   0.320   0.125
14540TIP3    H243562   2.798   0.454   0.194
14541TIP3   OH243563   0.686   2.805   4.524
14541TIP3    H143564   0.747   2.753   4.473
14541TIP3    H243565   0.677   2.758   4.607
14542TIP3   OH243566   0.226   5.822   3.920
14542TIP3    H143567   0.267   5.760   3.981
14542TIP3    H243568   0.229   5.777   3.835
14543TIP3   OH243569   1.369   3.490   2.001
14543TIP3    H143570   1.418   3.413   2.030
14543TIP3    H243571   1.299   3.499   2.066
14544TIP3   OH243572   5.055   2.206   1.158
14544TIP3    H143573   5.020   2.118   1.175
14544TIP3    H243574   5.109   2.225   1.235
14545TIP3   OH243575   0.072   4.380   1.550
14545TIP3    H143576   0.127   4.302   1.564
14545TIP3    H243577   0.022   4.359   1.472
14546TIP3   OH243578   1.431   5.759   5.450
14546TIP3    H143579   1.469   5.763   5.362
14546TIP3    H243580   1.484   5.695   5.497
14547TIP3   OH243581   4.247   7.706   3.353
14547TIP3    H143582   4.171   7.710   3.412
14547TIP3    H243583   4.307   7.644   3.395
14548TIP3   OH243584   6.920   3.118   1.597
14548TIP3    H143585   6.912   3.024   1.580
14548TIP3    H243586   6.963   3.153   1.519
14549TIP3   OH243587   1.305   7.604   3.445
14549TIP3    H143588   1.213   7.616   3.423
14549TIP3    H243589   1.339   7.547   3.376
14550TIP3   OH243590   2.321   7.012   3.255
14550TIP3    H143591   2.343   6.936   3.309
14550TIP3    H243592   2.367   7.085   3.296
14551TIP3   OH243593   2.701   5.402   5.976
14551TIP3    H143594   2.736   5.406   5.887
14551TIP3    H243595   2.616   5.444   5.971
14552TIP3   OH243596   8.340   7.249   0.836
14552TIP3    H143597   8.256   7.236   0.793
14552TIP3    H243598   8.400   7.191   0.789
14553TIP3   OH243599   5.271   7.306   1.113
14553TIP3    H143600   5.179   7.292   1.091
14553TIP3    H243601   5.268   7.346   1.200
14554TIP3   OH243602   5.338   1.649   4.450
14554TIP3    H143603   5.404   1.655   4.381
14554TIP3    H243604   5.295   1.734   4.450
14555TIP3   OH243605   0.166   7.904   4.304
14555TIP3    H143606   0.257   7.880   4.319
14555TIP3    H243607   0.116   7.827   4.331
14556TIP3   OH243608   6.793   5.003   5.107
14556TIP3    H143609   6.860   4.969   5.165
14556TIP3    H243610   6.828   4.991   5.019
14557TIP3   OH243611   2.491   2.683   6.025
14557TIP3    H143612   2.561   2.670   6.089
14557TIP3    H243613   2.414   2.705   6.077
14558TIP3   OH243614   0.594   0.501   4.870
14558TIP3    H143615   0.644   0.537   4.943
14558TIP3    H243616   0.513   0.469   4.909
14559TIP3   OH243617   3.969   5.433   0.172
14559TIP3    H143618   3.898   5.440   0.235
14559TIP3    H243619   3.955   5.348   0.129
14560TIP3   OH243620   6.016   7.709   3.433
14560TIP3    H143621   6.021   7.803   3.449
14560TIP3    H243622   5.936   7.697   3.382
14561TIP3   OH243623   4.489   7.211   1.652
14561TIP3    H143624   4.435   7.214   1.731
14561TIP3    H243625   4.535   7.295   1.651
14562TIP3   OH243626   4.099   1.805   6.071
14562TIP3    H143627   4.054   1.887   6.051
14562TIP3    H243628   4.114   1.764   5.986
14563TIP3   OH243629   7.403   5.468   1.414
14563TIP3    H143630   7.364   5.472   1.501
14563TIP3    H243631   7.424   5.375   1.401
14564TIP3   OH243632   5.101   6.760   0.133
14564TIP3    H143633   5.103   6.846   0.090
14564TIP3    H243634   5.041   6.708   0.080
14565TIP3   OH243635   1.248   3.553   4.640
14565TIP3    H143636   1.196   3.633   4.638
14565TIP3    H243637   1.184   3.482   4.644
14566TIP3   OH243638   3.326   7.155   4.360
14566TIP3    H143639   3.300   7.105   4.437
14566TIP3    H243640   3.260   7.223   4.352
14567TIP3   OH243641   7.253   5.904   4.886
14567TIP3    H143642   7.315   5.930   4.955
14567TIP3    H243643   7.191   5.977   4.882
14568TIP3   OH243644   1.703   2.095   0.253
14568TIP3    H143645   1.755   2.110   0.332
14568TIP3    H243646   1.613   2.110   0.280
14569TIP3   OH243647   4.699   0.243   2.752
14569TIP3    H143648   4.733   0.297   2.824
14569TIP3    H243649   4.772   0.184   2.730
14570TIP3   OH243650   3.640   1.558   6.361
14570TIP3    H143651   3.608   1.469   6.346
14570TIP3    H243652   3.705   1.572   6.292
14571TIP3   OH243653   7.211   6.196   4.980
14571TIP3    H143654   7.253   6.161   5.058
14571TIP3    H243655   7.206   6.290   4.996
14572TIP3   OH243656   1.451   0.346   2.401
14572TIP3    H143657   1.458   0.278   2.468
14572TIP3    H243658   1.423   0.424   2.448
14573TIP3   OH243659   2.333   5.052   4.811
14573TIP3    H143660   2.359   4.963   4.786
14573TIP3    H243661   2.403   5.107   4.776
14574TIP3   OH243662   7.217   6.457   3.364
14574TIP3    H143663   7.126   6.433   3.379
14574TIP3    H243664   7.249   6.392   3.302
14575TIP3   OH243665   3.942   7.426   1.696
14575TIP3    H143666   3.940   7.388   1.783
14575TIP3    H243667   3.931   7.520   1.710
14576TIP3   OH243668   7.660   3.639   6.005
14576TIP3    H143669   7.568   3.625   6.027
14576TIP3    H243670   7.692   3.553   5.977
14577TIP3   OH243671   3.510   3.951   3.751
14577TIP3    H143672   3.424   3.934   3.791
14577TIP3    H243673   3.490   4.004   3.674
14578TIP3   OH243674   3.524   2.836   3.265
14578TIP3    H143675   3.572   2.809   3.343
14578TIP3    H243676   3.541   2.766   3.201
14579TIP3   OH243677   7.895   4.572   5.136
14579TIP3    H143678   7.960   4.629   5.177
14579TIP3    H243679   7.940   4.489   5.122
14580TIP3   OH243680   0.211   2.175   4.720
14580TIP3    H143681   0.276   2.139   4.780
14580TIP3    H243682   0.246   2.157   4.633
14581TIP3   OH243683   1.608   2.953   4.100
14581TIP3    H143684   1.683   3.002   4.065
14581TIP3    H243685   1.623   2.950   4.194
14582TIP3   OH243686   5.684   7.599   3.544
14582TIP3    H143687   5.740   7.521   3.551
14582TIP3    H243688   5.666   7.608   3.450
14583TIP3   OH243689   0.525   6.398   1.285
14583TIP3    H143690   0.492   6.379   1.197
14583TIP3    H243691   0.510   6.317   1.334
14584TIP3   OH243692   7.097   2.402   2.581
14584TIP3    H143693   7.087   2.339   2.652
14584TIP3    H243694   7.149   2.356   2.515
14585TIP3   OH243695   0.391   2.756   4.006
14585TIP3    H143696   0.327   2.789   3.943
14585TIP3    H243697   0.461   2.821   4.006
14586TIP3   OH243698   3.114   5.469   3.001
14586TIP3    H143699   3.032   5.464   2.951
14586TIP3    H243700   3.159   5.545   2.965
14587TIP3   OH243701   0.791   6.948   3.703
14587TIP3    H143702   0.746   7.001   3.768
14587TIP3    H243703   0.751   6.861   3.711
14588TIP3   OH243704   7.593   5.975   2.892
14588TIP3    H143705   7.626   6.042   2.953
14588TIP3    H243706   7.501   5.963   2.916
14589TIP3   OH243707   2.948   2.649   4.664
14589TIP3    H143708   2.954   2.569   4.715
14589TIP3    H243709   2.856   2.654   4.637
14590TIP3   OH243710   2.692   3.885   1.257
14590TIP3    H143711   2.617   3.853   1.307
14590TIP3    H243712   2.655   3.940   1.189
14591TIP3   OH243713   5.755   7.716   2.727
14591TIP3    H143714   5.679   7.753   2.772
14591TIP3    H243715   5.740   7.735   2.635
14592TIP3   OH243716   5.393   0.533   4.433
14592TIP3    H143717   5.485   0.550   4.454
14592TIP3    H243718   5.347   0.613   4.457
14593TIP3   OH243719   5.505   3.199   3.436
14593TIP3    H143720   5.455   3.280   3.431
14593TIP3    H243721   5.504   3.165   3.347
14594TIP3   OH243722   6.072   0.219   0.045
14594TIP3    H143723   6.000   0.214   0.109
14594TIP3    H243724   6.151   0.206   0.097
14595TIP3   OH243725   1.840   2.364   5.505
14595TIP3    H143726   1.930   2.359   5.536
14595TIP3    H243727   1.846   2.353   5.410
14596TIP3   OH243728   3.412   1.163   2.071
14596TIP3    H143729   3.475   1.144   2.140
14596TIP3    H243730   3.446   1.118   1.994
14597TIP3   OH243731   5.907   4.840   5.346
14597TIP3    H143732   5.912   4.759   5.294
14597TIP3    H243733   5.971   4.898   5.304
14598TIP3   OH243734   6.605   1.588   5.862
14598TIP3    H143735   6.556   1.551   5.789
14598TIP3    H243736   6.687   1.618   5.823
14599TIP3   OH243737   7.083   2.280   1.587
14599TIP3    H143738   7.034   2.218   1.534
14599TIP3    H243739   7.063   2.257   1.678
14600TIP3   OH243740   3.843   2.746   1.654
14600TIP3    H143741   3.936   2.732   1.640
14600TIP3    H243742   3.837   2.832   1.694
14601TIP3   OH243743   5.436   0.475   0.694
14601TIP3    H143744   5.364   0.510   0.746
14601TIP3    H243745   5.418   0.505   0.605
14602TIP3   OH243746   0.843   6.237   4.029
14602TIP3    H143747   0.844   6.183   4.108
14602TIP3    H243748   0.803   6.320   4.057
14603TIP3   OH243749   2.793   0.191   0.699
14603TIP3    H143750   2.836   0.175   0.614
14603TIP3    H243751   2.703   0.161   0.686
14604TIP3   OH243752   7.902   5.532   6.574
14604TIP3    H143753   7.905   5.477   6.653
14604TIP3    H243754   7.839   5.488   6.517
14605TIP3   OH243755   2.877   4.836   2.356
14605TIP3    H143756   2.792   4.792   2.360
14605TIP3    H243757   2.856   4.929   2.347
14606TIP3   OH243758   4.172   3.796   3.627
14606TIP3    H143759   4.125   3.788   3.711
14606TIP3    H243760   4.116   3.751   3.564
14607TIP3   OH243761   4.143   1.759   3.628
14607TIP3    H143762   4.072   1.694   3.625
14607TIP3    H243763   4.156   1.784   3.537
14608TIP3   OH243764   7.796   3.073   4.765
14608TIP3    H143765   7.788   3.121   4.682
14608TIP3    H243766   7.761   3.132   4.831
14609TIP3   OH243767   7.302   1.183   3.510
14609TIP3    H143768   7.380   1.136   3.479
14609TIP3    H243769   7.315   1.272   3.479
14610TIP3   OH243770   7.739   1.144   3.510
14610TIP3    H143771   7.739   1.234   3.476
14610TIP3    H243772   7.805   1.145   3.579
14611TIP3   OH243773   2.449   5.066   2.493
14611TIP3    H143774   2.476   5.151   2.526
14611TIP3    H243775   2.524   5.008   2.510
14612TIP3   OH243776   2.272   7.482   5.155
14612TIP3    H143777   2.336   7.420   5.122
14612TIP3    H243778   2.230   7.438   5.229
14613TIP3   OH243779   7.518   3.531   0.438
14613TIP3    H143780   7.606   3.539   0.474
14613TIP3    H243781   7.519   3.586   0.359
14614TIP3   OH243782   2.508   3.707   1.822
14614TIP3    H143783   2.451   3.635   1.797
14614TIP3    H243784   2.454   3.764   1.876
14615TIP3   OH243785   4.670   3.163   5.411
14615TIP3    H143786   4.667   3.124   5.324
14615TIP3    H243787   4.664   3.257   5.396
14616TIP3   OH243788   1.397   7.808   6.494
14616TIP3    H143789   1.320   7.828   6.440
14616TIP3    H243790   1.417   7.716   6.475
14617TIP3   OH243791   7.583   2.617   3.416
14617TIP3    H143792   7.505   2.595   3.468
14617TIP3    H243793   7.623   2.533   3.397
14618TIP3   OH243794   1.445   3.583   3.848
14618TIP3    H143795   1.517   3.571   3.787
14618TIP3    H243796   1.380   3.518   3.821
14619TIP3   OH243797   4.107   5.162   5.405
14619TIP3    H143798   4.017   5.154   5.435
14619TIP3    H243799   4.132   5.251   5.429
14620TIP3   OH243800   2.018   0.175   0.803
14620TIP3    H143801   2.010   0.176   0.708
14620TIP3    H243802   1.931   0.200   0.835
14621TIP3   OH243803   6.345   1.390   3.436
14621TIP3    H143804   6.264   1.441   3.432
14621TIP3    H243805   6.323   1.316   3.492
14622TIP3   OH243806   4.945   0.679   1.044
14622TIP3    H143807   4.988   0.617   0.986
14622TIP3    H243808   4.897   0.625   1.106
14623TIP3   OH243809   5.340   2.031   2.617
14623TIP3    H143810   5.332   1.965   2.686
14623TIP3    H243811   5.274   2.006   2.552
14624TIP3   OH243812   1.061   6.099   3.076
14624TIP3    H143813   0.971   6.102   3.108
14624TIP3    H243814   1.094   6.188   3.088
14625TIP3   OH243815   7.229   2.293   6.135
14625TIP3    H143816   7.218   2.375   6.182
14625TIP3    H243817   7.251   2.320   6.045
14626TIP3   OH243818   7.329   0.942   5.886
14626TIP3    H143819   7.245   0.912   5.851
14626TIP3    H243820   7.366   0.866   5.929
14627TIP3   OH243821   6.236   3.043   4.004
14627TIP3    H143822   6.198   3.063   4.090
14627TIP3    H243823   6.315   3.096   4.000
14628TIP3   OH243824   4.428   0.639   4.211
14628TIP3    H143825   4.394   0.714   4.258
14628TIP3    H243826   4.361   0.571   4.223
14629TIP3   OH243827   5.648   4.441   3.687
14629TIP3    H143828   5.646   4.352   3.721
14629TIP3    H243829   5.652   4.496   3.765
14630TIP3   OH243830   4.138   5.956   6.271
14630TIP3    H143831   4.219   6.006   6.261
14630TIP3    H243832   4.163   5.879   6.321
14631TIP3   OH243833   7.830   4.088   0.961
14631TIP3    H143834   7.816   4.160   1.023
14631TIP3    H243835   7.925   4.087   0.947
14632TIP3   OH243836   4.848   5.649   4.156
14632TIP3    H143837   4.897   5.630   4.236
14632TIP3    H243838   4.847   5.745   4.151
14633TIP3   OH243839   5.626   1.754   4.526
14633TIP3    H143840   5.597   1.725   4.440
14633TIP3    H243841   5.607   1.680   4.584
14634TIP3   OH243842   2.313   0.280   0.603
14634TIP3    H143843   2.258   0.357   0.614
14634TIP3    H243844   2.379   0.305   0.539
14635TIP3   OH243845   1.450   1.654   5.099
14635TIP3    H143846   1.395   1.681   5.174
14635TIP3    H243847   1.438   1.559   5.094
14636TIP3   OH243848   2.204   4.819   3.786
14636TIP3    H143849   2.153   4.893   3.820
14636TIP3    H243850   2.287   4.822   3.833
14637TIP3   OH243851   3.222   2.519   4.309
14637TIP3    H143852   3.260   2.460   4.374
14637TIP3    H243853   3.291   2.584   4.294
14638TIP3   OH243854   7.107   3.347   3.632
14638TIP3    H143855   7.079   3.421   3.685
14638TIP3    H243856   7.187   3.315   3.675
14639TIP3   OH243857   5.393   4.117   6.619
14639TIP3    H143858   5.471   4.065   6.642
14639TIP3    H243859   5.428   4.191   6.570
14640TIP3   OH243860   4.798   5.857   2.848
14640TIP3    H143861   4.776   5.765   2.860
14640TIP3    H243862   4.894   5.858   2.844
14641TIP3   OH243863   4.244   6.555   5.562
14641TIP3    H143864   4.180   6.515   5.503
14641TIP3    H243865   4.239   6.504   5.642
14642TIP3   OH243866   4.114   7.666   4.998
14642TIP3    H143867   4.074   7.610   4.932
14642TIP3    H243868   4.096   7.755   4.967
14643TIP3   OH243869   7.790   2.719   2.818
14643TIP3    H143870   7.796   2.666   2.897
14643TIP3    H243871   7.743   2.664   2.755
14644TIP3   OH243872   2.764   7.264   0.071
14644TIP3    H143873   2.780   7.260  -0.023
14644TIP3    H243874   2.792   7.352   0.097
14645TIP3   OH243875   3.049   6.197   2.244
14645TIP3    H143876   3.070   6.290   2.234
14645TIP3    H243877   3.116   6.152   2.192
14646TIP3   OH243878   4.486   5.334   0.153
14646TIP3    H143879   4.421   5.303   0.089
14646TIP3    H243880   4.437   5.340   0.235
14647TIP3   OH243881   7.964   7.008   6.469
14647TIP3    H143882   7.945   7.100   6.456
14647TIP3    H243883   7.956   6.969   6.382
14648TIP3   OH243884   3.651   3.158   0.922
14648TIP3    H143885   3.643   3.230   0.985
14648TIP3    H243886   3.681   3.200   0.842
14649TIP3   OH243887   7.322   1.087   3.867
14649TIP3    H143888   7.239   1.125   3.896
14649TIP3    H243889   7.333   1.010   3.923
14650TIP3   OH243890   7.745   6.934   3.019
14650TIP3    H143891   7.730   6.962   3.110
14650TIP3    H243892   7.727   7.012   2.967
14651TIP3   OH243893   4.649   4.466   2.387
14651TIP3    H143894   4.670   4.543   2.334
14651TIP3    H243895   4.597   4.500   2.460
14652TIP3   OH243896   1.943   2.959   3.236
14652TIP3    H143897   2.016   3.021   3.231
14652TIP3    H243898   1.967   2.900   3.308
14653TIP3   OH243899   7.277   2.741   6.198
14653TIP3    H143900   7.341   2.761   6.266
14653TIP3    H243901   7.254   2.827   6.161
14654TIP3   OH243902   8.284   1.693   3.826
14654TIP3    H143903   8.364   1.648   3.851
14654TIP3    H243904   8.295   1.713   3.733
14655TIP3   OH243905   1.382   7.676   0.037
14655TIP3    H143906   1.352   7.738  -0.029
14655TIP3    H243907   1.421   7.730   0.105
14656TIP3   OH243908   3.427   7.510   1.181
14656TIP3    H143909   3.452   7.418   1.175
14656TIP3    H243910   3.497   7.550   1.232
14657TIP3   OH243911   6.543   6.588   4.160
14657TIP3    H143912   6.533   6.496   4.135
14657TIP3    H243913   6.474   6.603   4.224
14658TIP3   OH243914   3.020   3.967   2.263
14658TIP3    H143915   3.028   3.927   2.349
14658TIP3    H243916   2.967   4.046   2.278
14659TIP3   OH243917   3.062   7.450   1.942
14659TIP3    H143918   3.098   7.436   1.855
14659TIP3    H243919   2.983   7.503   1.927
14660TIP3   OH243920   7.052   7.419   3.383
14660TIP3    H143921   7.085   7.509   3.390
14660TIP3    H243922   6.976   7.417   3.441
14661TIP3   OH243923   4.956   1.608   2.255
14661TIP3    H143924   4.996   1.661   2.323
14661TIP3    H243925   4.862   1.618   2.269
14662TIP3   OH243926   5.420   3.290   3.916
14662TIP3    H143927   5.422   3.338   3.834
14662TIP3    H243928   5.511   3.291   3.946
14663TIP3   OH243929   6.374   6.631   5.196
14663TIP3    H143930   6.439   6.637   5.266
14663TIP3    H243931   6.397   6.702   5.136
14664TIP3   OH243932   6.365   1.894   1.590
14664TIP3    H143933   6.333   1.976   1.626
14664TIP3    H243934   6.460   1.906   1.584
14665TIP3   OH243935   2.042   2.177   2.417
14665TIP3    H143936   2.071   2.184   2.508
14665TIP3    H243937   2.054   2.265   2.382
14666TIP3   OH243938   2.482   6.159   4.786
14666TIP3    H143939   2.471   6.232   4.724
14666TIP3    H243940   2.492   6.202   4.871
14667TIP3   OH243941   2.208   5.077   2.619
14667TIP3    H143942   2.146   5.058   2.549
14667TIP3    H243943   2.294   5.066   2.578
14668TIP3   OH243944   0.080   1.100   2.730
14668TIP3    H143945   0.118   1.032   2.786
14668TIP3    H243946   0.114   1.182   2.765
14669TIP3   OH243947   6.314   7.432   0.164
14669TIP3    H143948   6.230   7.392   0.140
14669TIP3    H243949   6.367   7.426   0.084
14670TIP3   OH243950   6.632   6.186   6.030
14670TIP3    H143951   6.537   6.181   6.037
14670TIP3    H243952   6.665   6.131   6.101
14671TIP3   OH243953   7.471   4.557   4.555
14671TIP3    H143954   7.559   4.591   4.542
14671TIP3    H243955   7.426   4.574   4.472
14672TIP3   OH243956   7.640   3.511   6.532
14672TIP3    H143957   7.603   3.443   6.587
14672TIP3    H243958   7.670   3.465   6.453
14673TIP3   OH243959   6.348   1.643   5.248
14673TIP3    H143960   6.291   1.567   5.260
14673TIP3    H243961   6.291   1.709   5.209
14674TIP3   OH243962   4.315   7.179   3.235
14674TIP3    H143963   4.327   7.253   3.175
14674TIP3    H243964   4.399   7.132   3.232
14675TIP3   OH243965   6.253   7.186   2.356
14675TIP3    H143966   6.222   7.259   2.302
14675TIP3    H243967   6.319   7.225   2.413
14676TIP3   OH243968   1.919   0.617   6.102
14676TIP3    H143969   1.884   0.677   6.036
14676TIP3    H243970   1.963   0.549   6.051
14677TIP3   OH243971   6.735   1.173   5.677
14677TIP3    H143972   6.799   1.244   5.677
14677TIP3    H243973   6.651   1.216   5.692
14678TIP3   OH243974   7.626   1.137   6.524
14678TIP3    H143975   7.711   1.119   6.483
14678TIP3    H243976   7.642   1.215   6.577
14679TIP3   OH243977   7.765   0.313   5.406
14679TIP3    H143978   7.695   0.367   5.371
14679TIP3    H243979   7.760   0.325   5.501
14680TIP3   OH243980   4.357   0.260   6.586
14680TIP3    H143981   4.288   0.195   6.574
14680TIP3    H243982   4.312   0.336   6.625
14681TIP3   OH243983   6.564   0.631   0.960
14681TIP3    H143984   6.482   0.650   1.007
14681TIP3    H243985   6.608   0.716   0.956
14682TIP3   OH243986   7.715   1.182   2.308
14682TIP3    H143987   7.644   1.241   2.333
14682TIP3    H243988   7.754   1.223   2.231
14683TIP3   OH243989   7.639   5.191   5.460
14683TIP3    H143990   7.691   5.112   5.453
14683TIP3    H243991   7.645   5.216   5.553
14684TIP3   OH243992   7.522   4.261  -0.002
14684TIP3    H143993   7.468   4.322   0.047
14684TIP3    H243994   7.612   4.280   0.027
14685TIP3   OH243995   1.363   6.599   4.149
14685TIP3    H143996   1.314   6.521   4.172
14685TIP3    H243997   1.324   6.628   4.066
14686TIP3   OH243998   4.128   6.477   3.267
14686TIP3    H143999   4.194   6.516   3.324
14686TIP3    H244000   4.161   6.491   3.178
14687TIP3   OH244001   6.223   1.433   5.735
14687TIP3    H144002   6.210   1.379   5.812
14687TIP3    H244003   6.141   1.426   5.686
14688TIP3   OH244004   5.232   1.954   5.799
14688TIP3    H144005   5.246   1.944   5.705
14688TIP3    H244006   5.319   1.968   5.835
14689TIP3   OH244007   3.399   1.059  -0.027
14689TIP3    H144008   3.390   1.088   0.064
14689TIP3    H244009   3.335   1.111  -0.075
14690TIP3   OH244010   8.075   7.541   6.046
14690TIP3    H144011   8.059   7.448   6.028
14690TIP3    H244012   8.170   7.548   6.056
14691TIP3   OH244013   7.039   5.175   6.117
14691TIP3    H144014   7.044   5.081   6.135
14691TIP3    H244015   7.006   5.213   6.198
14692TIP3   OH244016   3.743   5.896   5.715
14692TIP3    H144017   3.835   5.866   5.713
14692TIP3    H244018   3.739   5.966   5.651
14693TIP3   OH244019   1.177   5.566   2.682
14693TIP3    H144020   1.246   5.523   2.633
14693TIP3    H244021   1.147   5.500   2.745
14694TIP3   OH244022   5.851   7.505   5.806
14694TIP3    H144023   5.815   7.478   5.722
14694TIP3    H244024   5.837   7.430   5.864
14695TIP3   OH244025   1.125   6.288   2.625
14695TIP3    H144026   1.085   6.213   2.582
14695TIP3    H244027   1.158   6.343   2.554
14696TIP3   OH244028   5.895   0.233   2.760
14696TIP3    H144029   5.824   0.211   2.821
14696TIP3    H244030   5.915   0.324   2.777
14697TIP3   OH244031   4.640   7.165   2.330
14697TIP3    H144032   4.588   7.234   2.290
14697TIP3    H244033   4.727   7.175   2.292
14698TIP3   OH244034   0.801   7.346   0.508
14698TIP3    H144035   0.850   7.302   0.439
14698TIP3    H244036   0.801   7.284   0.581
14699TIP3   OH244037   6.316   7.261   2.998
14699TIP3    H144038   6.359   7.331   3.047
14699TIP3    H244039   6.372   7.249   2.921
14700TIP3   OH244040   4.823   7.167   3.988
14700TIP3    H144041   4.791   7.247   4.030
14700TIP3    H244042   4.782   7.096   4.037
14701TIP3   OH244043   2.642   4.770   2.113
14701TIP3    H144044   2.641   4.785   2.208
14701TIP3    H244045   2.570   4.708   2.098
14702TIP3   OH244046   5.263   4.266   2.486
14702TIP3    H144047   5.323   4.281   2.412
14702TIP3    H244048   5.182   4.308   2.459
14703TIP3   OH244049   2.485   1.678   3.835
14703TIP3    H144050   2.496   1.691   3.741
14703TIP3    H244051   2.562   1.629   3.862
14704TIP3   OH244052   6.332   5.577   0.753
14704TIP3    H144053   6.288   5.493   0.768
14704TIP3    H244054   6.395   5.558   0.684
14705TIP3   OH244055   3.649   7.224   5.546
14705TIP3    H144056   3.675   7.298   5.490
14705TIP3    H244057   3.555   7.213   5.529
14706TIP3   OH244058   3.009   1.691   4.960
14706TIP3    H144059   3.011   1.709   5.054
14706TIP3    H244060   3.025   1.776   4.919
14707TIP3   OH244061   2.991   3.239   0.868
14707TIP3    H144062   3.067   3.235   0.809
14707TIP3    H244063   2.935   3.306   0.830
14708TIP3   OH244064   4.523   3.373   5.034
14708TIP3    H144065   4.543   3.466   5.035
14708TIP3    H244066   4.472   3.358   5.113
14709TIP3   OH244067   8.272   1.648   5.131
14709TIP3    H144068   8.346   1.592   5.108
14709TIP3    H244069   8.204   1.588   5.160
14710TIP3   OH244070   6.402   4.799   3.081
14710TIP3    H144071   6.452   4.809   3.001
14710TIP3    H244072   6.391   4.704   3.091
14711TIP3   OH244073   8.249   2.586   0.419
14711TIP3    H144074   8.331   2.635   0.423
14711TIP3    H244075   8.274   2.496   0.436
14712TIP3   OH244076   3.631   7.472   0.880
14712TIP3    H144077   3.609   7.550   0.829
14712TIP3    H244078   3.713   7.494   0.923
14713TIP3   OH244079   1.369   0.269   1.716
14713TIP3    H144080   1.443   0.217   1.747
14713TIP3    H244081   1.328   0.213   1.650
14714TIP3   OH244082   3.107   6.571   0.813
14714TIP3    H144083   3.123   6.597   0.723
14714TIP3    H244084   3.192   6.584   0.857
14715TIP3   OH244085   2.992   3.886   5.321
14715TIP3    H144086   2.903   3.876   5.286
14715TIP3    H244087   2.981   3.872   5.416
14716TIP3   OH244088   7.998   3.475   2.397
14716TIP3    H144089   8.024   3.476   2.305
14716TIP3    H244090   7.933   3.545   2.405
14717TIP3   OH244091   6.633   2.834   2.660
14717TIP3    H144092   6.723   2.863   2.646
14717TIP3    H244093   6.603   2.885   2.735
14718TIP3   OH244094   8.207   5.688   5.712
14718TIP3    H144095   8.136   5.656   5.656
14718TIP3    H244096   8.208   5.628   5.786
14719TIP3   OH244097   5.584   7.054   6.428
14719TIP3    H144098   5.540   7.068   6.344
14719TIP3    H244099   5.578   7.139   6.472
14720TIP3   OH244100   4.236   4.444   1.884
14720TIP3    H144101   4.290   4.365   1.891
14720TIP3    H244102   4.168   4.421   1.821
14721TIP3   OH244103   6.841   7.211   4.145
14721TIP3    H144104   6.913   7.153   4.121
14721TIP3    H244105   6.866   7.296   4.107
14722TIP3   OH244106   7.400   0.236   0.044
14722TIP3    H144107   7.428   0.315   0.090
14722TIP3    H244108   7.396   0.261  -0.048
14723TIP3   OH244109   3.997   1.103   0.591
14723TIP3    H144110   3.932   1.056   0.642
14723TIP3    H244111   3.986   1.071   0.501
14724TIP3   OH244112   3.233   4.375   2.733
14724TIP3    H144113   3.228   4.358   2.639
14724TIP3    H244114   3.143   4.365   2.764
14725TIP3   OH244115   3.681   5.817   0.284
14725TIP3    H144116   3.662   5.744   0.343
14725TIP3    H244117   3.643   5.790   0.200
14726TIP3   OH244118   2.475   6.758   5.122
14726TIP3    H144119   2.410   6.689   5.131
14726TIP3    H244120   2.441   6.814   5.052
14727TIP3   OH244121   3.800   3.523   0.118
14727TIP3    H144122   3.765   3.548   0.204
14727TIP3    H244123   3.747   3.572   0.056
14728TIP3   OH244124   4.267   4.424   1.019
14728TIP3    H144125   4.339   4.365   1.040
14728TIP3    H244126   4.188   4.374   1.040
14729TIP3   OH244127   6.030   2.899   6.003
14729TIP3    H144128   5.994   2.857   6.080
14729TIP3    H244129   6.021   2.993   6.020
14730TIP3   OH244130   5.111   0.300   2.396
14730TIP3    H144131   5.027   0.342   2.376
14730TIP3    H244132   5.092   0.206   2.389
14731TIP3   OH244133   6.446   5.858   2.757
14731TIP3    H144134   6.360   5.818   2.750
14731TIP3    H244135   6.447   5.927   2.690
14732TIP3   OH244136   1.827   2.810   1.050
14732TIP3    H144137   1.770   2.872   1.005
14732TIP3    H244138   1.899   2.863   1.084
14733TIP3   OH244139   5.394   6.298   6.687
14733TIP3    H144140   5.350   6.220   6.654
14733TIP3    H244141   5.443   6.267   6.764
14734TIP3   OH244142   8.322   0.438   2.549
14734TIP3    H144143   8.376   0.376   2.597
14734TIP3    H244144   8.385   0.498   2.508
14735TIP3   OH244145   6.926   4.180   3.345
14735TIP3    H144146   6.916   4.214   3.434
14735TIP3    H244147   7.013   4.209   3.318
14736TIP3   OH244148   5.833   3.564   5.614
14736TIP3    H144149   5.884   3.526   5.543
14736TIP3    H244150   5.780   3.492   5.647
14737TIP3   OH244151   0.649   7.894   0.767
14737TIP3    H144152   0.568   7.904   0.816
14737TIP3    H244153   0.648   7.803   0.736
14738TIP3   OH244154   4.489   3.146   4.136
14738TIP3    H144155   4.471   3.067   4.085
14738TIP3    H244156   4.554   3.119   4.200
14739TIP3   OH244157   0.363   6.990   0.395
14739TIP3    H144158   0.345   6.978   0.488
14739TIP3    H244159   0.335   7.080   0.376
14740TIP3   OH244160   6.373   6.710   1.455
14740TIP3    H144161   6.423   6.792   1.446
14740TIP3    H244162   6.425   6.645   1.408
14741TIP3   OH244163   1.962   2.235   1.775
14741TIP3    H144164   2.028   2.303   1.758
14741TIP3    H244165   1.917   2.264   1.854
14742TIP3   OH244166   5.301   0.857   2.783
14742TIP3    H144167   5.215   0.815   2.784
14742TIP3    H244168   5.361   0.791   2.819
14743TIP3   OH244169   0.135   6.538   5.657
14743TIP3    H144170   0.146   6.457   5.607
14743TIP3    H244171   0.102   6.508   5.742
14744TIP3   OH244172   7.712   3.665   2.286
14744TIP3    H144173   7.722   3.574   2.259
14744TIP3    H244174   7.619   3.684   2.271
14745TIP3   OH244175   8.179   6.355   5.086
14745TIP3    H144176   8.180   6.316   5.173
14745TIP3    H244177   8.126   6.434   5.097
14746TIP3   OH244178   4.747   2.080   1.649
14746TIP3    H144179   4.790   1.995   1.652
14746TIP3    H244180   4.717   2.094   1.739
14747TIP3   OH244181   3.935   1.737   0.952
14747TIP3    H144182   3.934   1.808   0.888
14747TIP3    H244183   3.901   1.776   1.033
14748TIP3   OH244184   7.871   2.635   5.558
14748TIP3    H144185   7.814   2.576   5.607
14748TIP3    H244186   7.952   2.638   5.608
14749TIP3   OH244187   3.774   5.933   3.227
14749TIP3    H144188   3.842   5.973   3.172
14749TIP3    H244189   3.746   6.003   3.286
14750TIP3   OH244190   5.283   7.160   1.747
14750TIP3    H144191   5.341   7.156   1.823
14750TIP3    H244192   5.255   7.252   1.743
14751TIP3   OH244193   7.568   7.759   0.637
14751TIP3    H144194   7.545   7.843   0.597
14751TIP3    H244195   7.601   7.782   0.724
14752TIP3   OH244196   4.840   7.690   4.431
14752TIP3    H144197   4.896   7.760   4.465
14752TIP3    H244198   4.771   7.736   4.383
14753TIP3   OH244199   0.439   1.074   2.232
14753TIP3    H144200   0.366   1.016   2.255
14753TIP3    H244201   0.396   1.157   2.208
14754TIP3   OH244202   4.489   2.182   3.434
14754TIP3    H144203   4.405   2.183   3.388
14754TIP3    H244204   4.534   2.104   3.401
14755TIP3   OH244205   4.719   3.811   3.025
14755TIP3    H144206   4.677   3.729   2.999
14755TIP3    H244207   4.725   3.805   3.121
14756TIP3   OH244208   6.075   5.472   3.791
14756TIP3    H144209   6.001   5.465   3.853
14756TIP3    H244210   6.093   5.566   3.787
14757TIP3   OH244211   0.824   6.648   3.491
14757TIP3    H144212   0.847   6.565   3.533
14757TIP3    H244213   0.861   6.640   3.403
14758TIP3   OH244214   1.160   7.641   5.872
14758TIP3    H144215   1.088   7.690   5.913
14758TIP3    H244216   1.205   7.706   5.818
14759TIP3   OH244217   5.422   7.453   5.756
14759TIP3    H144218   5.483   7.482   5.824
14759TIP3    H244219   5.403   7.533   5.706
14760TIP3   OH244220   0.349   6.230   2.105
14760TIP3    H144221   0.394   6.223   2.190
14760TIP3    H244222   0.413   6.270   2.047
14761TIP3   OH244223   3.817   7.371   3.094
14761TIP3    H144224   3.902   7.414   3.105
14761TIP3    H244225   3.766   7.434   3.043
14762TIP3   OH244226   2.436   1.349   6.075
14762TIP3    H144227   2.393   1.423   6.032
14762TIP3    H244228   2.449   1.378   6.165
14763TIP3   OH244229   6.109   2.589   0.711
14763TIP3    H144230   6.159   2.635   0.644
14763TIP3    H244231   6.147   2.618   0.794
14764TIP3   OH244232   1.308   4.458   2.321
14764TIP3    H144233   1.294   4.506   2.402
14764TIP3    H244234   1.246   4.386   2.325
14765TIP3   OH244235   6.069   6.663   5.304
14765TIP3    H144236   6.029   6.582   5.272
14765TIP3    H244237   6.151   6.669   5.256
14766TIP3   OH244238   7.752   2.076   1.732
14766TIP3    H144239   7.722   2.116   1.650
14766TIP3    H244240   7.683   2.013   1.753
14767TIP3   OH244241   1.540   2.478   5.585
14767TIP3    H144242   1.578   2.521   5.661
14767TIP3    H244243   1.561   2.385   5.596
14768TIP3   OH244244   8.143   3.874   2.903
14768TIP3    H144245   8.216   3.823   2.936
14768TIP3    H244246   8.118   3.931   2.976
14769TIP3   OH244247   0.111   3.036   1.325
14769TIP3    H144248   0.068   2.961   1.284
14769TIP3    H244249   0.187   2.998   1.369
14770TIP3   OH244250   3.277   2.180   3.144
14770TIP3    H144251   3.337   2.205   3.074
14770TIP3    H244252   3.328   2.120   3.198
14771TIP3   OH244253   2.538   6.692   5.554
14771TIP3    H144254   2.616   6.721   5.506
14771TIP3    H244255   2.518   6.764   5.613
14772TIP3   OH244256   0.800   7.580   6.182
14772TIP3    H144257   0.712   7.569   6.219
14772TIP3    H244258   0.846   7.500   6.208
14773TIP3   OH244259   1.892   5.657   4.615
14773TIP3    H144260   1.914   5.735   4.563
14773TIP3    H244261   1.967   5.599   4.603
14774TIP3   OH244262   5.520   2.645   6.427
14774TIP3    H144263   5.531   2.679   6.338
14774TIP3    H244264   5.444   2.586   6.421
14775TIP3   OH244265   8.380   5.758   3.263
14775TIP3    H144266   8.360   5.852   3.258
14775TIP3    H244267   8.310   5.721   3.317
14776TIP3   OH244268   8.053   6.820   6.033
14776TIP3    H144269   8.145   6.843   6.043
14776TIP3    H244270   8.054   6.736   5.988
14777TIP3   OH244271   5.274   2.197   5.013
14777TIP3    H144272   5.195   2.158   4.975
14777TIP3    H244273   5.318   2.239   4.939
14778TIP3   OH244274   0.614   7.158   4.988
14778TIP3    H144275   0.682   7.094   4.969
14778TIP3    H244276   0.659   7.229   5.033
14779TIP3   OH244277   1.053   2.667   2.362
14779TIP3    H144278   1.096   2.655   2.277
14779TIP3    H244279   1.047   2.578   2.397
14780TIP3   OH244280   8.381   3.304   6.634
14780TIP3    H144281   8.428   3.252   6.568
14780TIP3    H244282   8.297   3.260   6.646
14781TIP3   OH244283   6.070   6.061   2.102
14781TIP3    H144284   6.066   6.117   2.025
14781TIP3    H244285   6.005   5.992   2.086
14782TIP3   OH244286   0.839   3.437   0.213
14782TIP3    H144287   0.889   3.376   0.269
14782TIP3    H244288   0.905   3.497   0.179
14783TIP3   OH244289   2.546   5.293   2.643
14783TIP3    H144290   2.611   5.324   2.706
14783TIP3    H244291   2.462   5.308   2.686
14784TIP3   OH244292   4.584   5.406   5.633
14784TIP3    H144293   4.649   5.337   5.618
14784TIP3    H244294   4.536   5.411   5.550
14785TIP3   OH244295   4.331   5.475   1.846
14785TIP3    H144296   4.280   5.396   1.831
14785TIP3    H244297   4.413   5.461   1.799
14786TIP3   OH244298   3.786   1.234   6.270
14786TIP3    H144299   3.851   1.286   6.317
14786TIP3    H244300   3.822   1.145   6.271
14787TIP3   OH244301   2.668   1.297   1.701
14787TIP3    H144302   2.617   1.335   1.630
14787TIP3    H244303   2.606   1.240   1.747
14788TIP3   OH244304   6.447   5.186   0.928
14788TIP3    H144305   6.540   5.210   0.921
14788TIP3    H244306   6.412   5.199   0.840
14789TIP3   OH244307   3.899   7.041   0.833
14789TIP3    H144308   3.896   7.000   0.747
14789TIP3    H244309   3.991   7.033   0.861
14790TIP3   OH244310   1.338   7.516   4.756
14790TIP3    H144311   1.312   7.600   4.719
14790TIP3    H244312   1.433   7.511   4.739
14791TIP3   OH244313   6.441   7.593   4.956
14791TIP3    H144314   6.465   7.672   4.908
14791TIP3    H244315   6.524   7.559   4.989
14792TIP3   OH244316   4.027   5.715   3.071
14792TIP3    H144317   4.033   5.762   3.154
14792TIP3    H244318   4.069   5.773   3.007
14793TIP3   OH244319   7.221   5.807   1.657
14793TIP3    H144320   7.256   5.832   1.572
14793TIP3    H244321   7.239   5.713   1.664
14794TIP3   OH244322   4.608   1.408   0.094
14794TIP3    H144323   4.669   1.471   0.055
14794TIP3    H244324   4.588   1.348   0.022
14795TIP3   OH244325   3.524   7.016   3.985
14795TIP3    H144326   3.502   7.107   4.003
14795TIP3    H244327   3.499   6.969   4.064
14796TIP3   OH244328   8.302   3.721   1.067
14796TIP3    H144329   8.329   3.754   0.982
14796TIP3    H244330   8.207   3.709   1.059
14797TIP3   OH244331   2.619   1.698   6.262
14797TIP3    H144332   2.672   1.619   6.266
14797TIP3    H244333   2.536   1.675   6.305
14798TIP3   OH244334   3.917   6.932   4.091
14798TIP3    H144335   3.837   6.971   4.126
14798TIP3    H244336   3.943   6.867   4.157
14799TIP3   OH244337   7.768   3.684   3.606
14799TIP3    H144338   7.858   3.669   3.578
14799TIP3    H244339   7.773   3.759   3.665
14800TIP3   OH244340   2.603   3.283   5.549
14800TIP3    H144341   2.604   3.281   5.644
14800TIP3    H244342   2.689   3.253   5.522
14801TIP3   OH244343   0.532   7.731   0.448
14801TIP3    H144344   0.605   7.774   0.491
14801TIP3    H244345   0.531   7.767   0.360
14802TIP3   OH244346   2.157   4.815   5.493
14802TIP3    H144347   2.104   4.738   5.514
14802TIP3    H244348   2.108   4.888   5.529
14803TIP3   OH244349   5.597   6.562   5.114
14803TIP3    H144350   5.501   6.569   5.113
14803TIP3    H244351   5.615   6.482   5.162
14804TIP3   OH244352   4.401   3.337   2.922
14804TIP3    H144353   4.393   3.290   2.839
14804TIP3    H244354   4.459   3.282   2.975
14805TIP3   OH244355   1.880   0.487   0.704
14805TIP3    H144356   1.970   0.498   0.674
14805TIP3    H244357   1.844   0.576   0.706
14806TIP3   OH244358   6.329   5.910   6.716
14806TIP3    H144359   6.252   5.949   6.756
14806TIP3    H244360   6.374   5.866   6.789
14807TIP3   OH244361   5.231   7.767   2.017
14807TIP3    H144362   5.290   7.691   2.022
14807TIP3    H244363   5.197   7.776   2.106
14808TIP3   OH244364   0.781   7.307   1.195
14808TIP3    H144365   0.755   7.279   1.283
14808TIP3    H244366   0.801   7.225   1.149
14809TIP3   OH244367   2.527   6.360   2.108
14809TIP3    H144368   2.555   6.269   2.096
14809TIP3    H244369   2.523   6.396   2.019
14810TIP3   OH244370   1.037   2.839   6.045
14810TIP3    H144371   0.955   2.797   6.018
14810TIP3    H244372   1.053   2.904   5.977
14811TIP3   OH244373   2.947   7.652   5.417
14811TIP3    H144374   2.908   7.603   5.490
14811TIP3    H244375   2.903   7.737   5.419
14812TIP3   OH244376   2.273   0.257   6.274
14812TIP3    H144377   2.187   0.298   6.287
14812TIP3    H244378   2.254   0.174   6.231
14813TIP3   OH244379   7.868   0.784   3.859
14813TIP3    H144380   7.789   0.834   3.841
14813TIP3    H244381   7.844   0.693   3.845
14814TIP3   OH244382   6.874   7.703   4.885
14814TIP3    H144383   6.963   7.671   4.900
14814TIP3    H244384   6.868   7.783   4.938
14815TIP3   OH244385   0.986   5.943   1.167
14815TIP3    H144386   1.015   6.021   1.214
14815TIP3    H244387   0.904   5.919   1.209
14816TIP3   OH244388   3.907   4.940   5.192
14816TIP3    H144389   3.836   4.896   5.145
14816TIP3    H244390   3.983   4.930   5.135
14817TIP3   OH244391   6.304   0.285   3.571
14817TIP3    H144392   6.264   0.369   3.592
14817TIP3    H244393   6.234   0.235   3.529
14818TIP3   OH244394   2.313   3.253   4.941
14818TIP3    H144395   2.262   3.327   4.973
14818TIP3    H244396   2.402   3.287   4.931
14819TIP3   OH244397   1.427   3.217   1.055
14819TIP3    H144398   1.374   3.138   1.054
14819TIP3    H244399   1.367   3.287   1.030
14820TIP3   OH244400   7.272   7.688   4.270
14820TIP3    H144401   7.199   7.746   4.250
14820TIP3    H244402   7.235   7.600   4.267
14821TIP3   OH244403   3.005   7.052   5.505
14821TIP3    H144404   2.909   7.058   5.511
14821TIP3    H244405   3.025   7.086   5.417
14822TIP3   OH244406   5.763   1.679   4.800
14822TIP3    H144407   5.756   1.585   4.783
14822TIP3    H244408   5.789   1.685   4.892
14823TIP3   OH244409   1.888   7.730   1.688
14823TIP3    H144410   1.866   7.722   1.595
14823TIP3    H244411   1.834   7.802   1.720
14824TIP3   OH244412   8.237   2.120   1.725
14824TIP3    H144413   8.321   2.076   1.709
14824TIP3    H244414   8.171   2.053   1.708
14825TIP3   OH244415   2.075   6.781   6.362
14825TIP3    H144416   2.153   6.789   6.416
14825TIP3    H244417   2.015   6.728   6.415
14826TIP3   OH244418   1.455   0.367   3.213
14826TIP3    H144419   1.455   0.441   3.274
14826TIP3    H244420   1.369   0.371   3.171
14827TIP3   OH244421   0.819   5.726   0.168
14827TIP3    H144422   0.835   5.706   0.260
14827TIP3    H244423   0.737   5.776   0.168
14828TIP3   OH244424   6.037   1.483   3.114
14828TIP3    H144425   5.959   1.481   3.169
14828TIP3    H244426   6.062   1.575   3.110
14829TIP3   OH244427   4.023   1.890   5.002
14829TIP3    H144428   4.101   1.859   4.956
14829TIP3    H244429   4.004   1.822   5.067
14830TIP3   OH244430   2.332   2.898   0.386
14830TIP3    H144431   2.298   2.986   0.369
14830TIP3    H244432   2.426   2.905   0.368
14831TIP3   OH244433   4.541   0.711   6.439
14831TIP3    H144434   4.600   0.647   6.478
14831TIP3    H244435   4.512   0.766   6.512
14832TIP3   OH244436   6.415   3.986   4.971
14832TIP3    H144437   6.485   3.964   4.909
14832TIP3    H244438   6.456   4.046   5.033
14833TIP3   OH244439   3.747   4.760   6.326
14833TIP3    H144440   3.683   4.724   6.388
14833TIP3    H244441   3.813   4.691   6.317
14834TIP3   OH244442   5.518   5.177   1.226
14834TIP3    H144443   5.587   5.123   1.265
14834TIP3    H244444   5.439   5.123   1.233
14835TIP3   OH244445   3.607   5.938   4.436
14835TIP3    H144446   3.597   5.851   4.396
14835TIP3    H244447   3.622   5.920   4.529
14836TIP3   OH244448   6.922   3.330   0.223
14836TIP3    H144449   6.867   3.331   0.301
14836TIP3    H244450   7.011   3.321   0.257
14837TIP3   OH244451   6.437   3.582   1.403
14837TIP3    H144452   6.529   3.600   1.384
14837TIP3    H244453   6.437   3.547   1.492
14838TIP3   OH244454   2.555   5.834   3.361
14838TIP3    H144455   2.559   5.830   3.265
14838TIP3    H244456   2.468   5.801   3.383
14839TIP3   OH244457   2.991   5.433   6.078
14839TIP3    H144458   2.898   5.452   6.062
14839TIP3    H244459   2.991   5.365   6.145
14840TIP3   OH244460   5.426   1.268   2.636
14840TIP3    H144461   5.374   1.196   2.601
14840TIP3    H244462   5.430   1.251   2.730
14841TIP3   OH244463   4.007   2.398   4.849
14841TIP3    H144464   3.997   2.490   4.823
14841TIP3    H244465   3.942   2.351   4.797
14842TIP3   OH244466   7.348   7.423   2.597
14842TIP3    H144467   7.348   7.515   2.623
14842TIP3    H244468   7.266   7.388   2.633
14843TIP3   OH244469   2.474   2.235   4.394
14843TIP3    H144470   2.456   2.176   4.321
14843TIP3    H244471   2.555   2.202   4.432
14844TIP3   OH244472   6.305   6.203   3.036
14844TIP3    H144473   6.303   6.216   2.942
14844TIP3    H244474   6.257   6.121   3.051
14845TIP3   OH244475   1.577   3.976   2.879
14845TIP3    H144476   1.577   4.043   2.811
14845TIP3    H244477   1.499   3.923   2.860
14846TIP3   OH244478   1.354   4.248   0.119
14846TIP3    H144479   1.272   4.284   0.087
14846TIP3    H244480   1.380   4.308   0.189
14847TIP3   OH244481   4.896   4.480   3.045
14847TIP3    H144482   4.990   4.462   3.048
14847TIP3    H244483   4.874   4.504   3.135
14848TIP3   OH244484   0.097   2.711   0.393
14848TIP3    H144485   0.176   2.674   0.353
14848TIP3    H244486   0.115   2.805   0.397
14849TIP3   OH244487   2.282   7.596   0.218
14849TIP3    H144488   2.309   7.522   0.164
14849TIP3    H244489   2.209   7.635   0.170
14850TIP3   OH244490   1.790   4.582   6.154
14850TIP3    H144491   1.706   4.542   6.135
14850TIP3    H244492   1.822   4.536   6.232
14851TIP3   OH244493   2.985   1.568   1.571
14851TIP3    H144494   3.032   1.562   1.655
14851TIP3    H244495   2.903   1.521   1.586
14852TIP3   OH244496   3.259   2.277   1.999
14852TIP3    H144497   3.229   2.298   2.088
14852TIP3    H244498   3.251   2.182   1.993
14853TIP3   OH244499   0.464   3.901   6.021
14853TIP3    H144500   0.400   3.937   6.084
14853TIP3    H244501   0.438   3.809   6.013
14854TIP3   OH244502   6.237   7.939   0.347
14854TIP3    H144503   6.308   7.904   0.401
14854TIP3    H244504   6.210   7.866   0.292
14855TIP3   OH244505   5.201   3.179   0.778
14855TIP3    H144506   5.154   3.190   0.696
14855TIP3    H244507   5.135   3.152   0.841
14856TIP3   OH244508   4.759   7.104   1.146
14856TIP3    H144509   4.751   7.035   1.212
14856TIP3    H244510   4.672   7.112   1.108
14857TIP3   OH244511   1.336   7.619   1.621
14857TIP3    H144512   1.381   7.652   1.544
14857TIP3    H244513   1.378   7.664   1.695
14858TIP3   OH244514   0.118   0.866   3.790
14858TIP3    H144515   0.199   0.821   3.818
14858TIP3    H244516   0.053   0.796   3.787
14859TIP3   OH244517   5.386   0.099   0.731
14859TIP3    H144518   5.463   0.097   0.788
14859TIP3    H244519   5.388   0.015   0.686
14860TIP3   OH244520   4.825   2.766   4.835
14860TIP3    H144521   4.808   2.850   4.792
14860TIP3    H244522   4.915   2.772   4.865
14861TIP3   OH244523   2.228   0.504   6.076
14861TIP3    H144524   2.202   0.454   5.999
14861TIP3    H244525   2.252   0.590   6.043
14862TIP3   OH244526   1.964   0.609   4.392
14862TIP3    H144527   2.053   0.577   4.377
14862TIP3    H244528   1.956   0.614   4.487
14863TIP3   OH244529   2.801   0.373   1.279
14863TIP3    H144530   2.867   0.432   1.241
14863TIP3    H244531   2.718   0.419   1.267
14864TIP3   OH244532   3.316   3.072   5.555
14864TIP3    H144533   3.280   3.003   5.612
14864TIP3    H244534   3.362   3.024   5.486
14865TIP3   OH244535   2.511   4.732   0.068
14865TIP3    H144536   2.450   4.805   0.053
14865TIP3    H244537   2.564   4.729  -0.012
14866TIP3   OH244538   3.516   2.669   5.048
14866TIP3    H144539   3.565   2.624   5.117
14866TIP3    H244540   3.576   2.669   4.973
14867TIP3   OH244541   5.769   0.637   5.807
14867TIP3    H144542   5.754   0.730   5.825
14867TIP3    H244543   5.864   0.628   5.804
14868TIP3   OH244544   7.710   0.333   5.677
14868TIP3    H144545   7.638   0.289   5.723
14868TIP3    H244546   7.706   0.424   5.709
14869TIP3   OH244547   3.632   6.383   0.896
14869TIP3    H144548   3.685   6.330   0.837
14869TIP3    H244549   3.648   6.344   0.983
14870TIP3   OH244550   6.877   2.274   2.166
14870TIP3    H144551   6.869   2.259   2.260
14870TIP3    H244552   6.958   2.326   2.157
14871TIP3   OH244553   6.830   1.937   5.750
14871TIP3    H144554   6.821   2.029   5.776
14871TIP3    H244555   6.894   1.939   5.679
14872TIP3   OH244556   2.647   2.601   3.223
14872TIP3    H144557   2.684   2.620   3.309
14872TIP3    H244558   2.620   2.687   3.189
14873TIP3   OH244559   3.257   5.659   3.246
14873TIP3    H144560   3.342   5.696   3.223
14873TIP3    H244561   3.278   5.572   3.281
14874TIP3   OH244562   1.982   2.822   3.754
14874TIP3    H144563   1.958   2.763   3.682
14874TIP3    H244564   1.975   2.767   3.832
14875TIP3   OH244565   5.921   6.998   2.744
14875TIP3    H144566   5.856   6.944   2.788
14875TIP3    H244567   6.005   6.970   2.781
14876TIP3   OH244568   7.307   1.976   1.421
14876TIP3    H144569   7.301   2.071   1.411
14876TIP3    H244570   7.228   1.942   1.380
14877TIP3   OH244571   2.106   1.287   1.490
14877TIP3    H144572   2.084   1.226   1.561
14877TIP3    H244573   2.185   1.332   1.520
14878TIP3   OH244574   5.840   3.008   2.167
14878TIP3    H144575   5.774   3.041   2.228
14878TIP3    H244576   5.920   3.000   2.219
14879TIP3   OH244577  -0.034   0.013   0.811
14879TIP3    H144578  -0.006   0.103   0.798
14879TIP3    H244579  -0.035  -0.025   0.723
14880TIP3   OH244580   5.848   4.235   5.100
14880TIP3    H144581   5.805   4.163   5.053
14880TIP3    H244582   5.873   4.297   5.030
14881TIP3   OH244583   3.244   7.125   4.618
14881TIP3    H144584   3.155   7.159   4.630
14881TIP3    H244585   3.237   7.032   4.642
14882TIP3   OH244586   6.596   5.964   6.226
14882TIP3    H144587   6.545   5.988   6.303
14882TIP3    H244588   6.650   5.891   6.255
14883TIP3   OH244589   7.071   6.913   0.131
14883TIP3    H144590   7.038   6.824   0.139
14883TIP3    H244591   6.993   6.969   0.137
14884TIP3   OH244592   5.613   0.079   3.709
14884TIP3    H144593   5.571   0.011   3.656
14884TIP3    H244594   5.599   0.051   3.799
14885TIP3   OH244595   3.797   2.586   0.281
14885TIP3    H144596   3.884   2.550   0.261
14885TIP3    H244597   3.758   2.522   0.341
14886TIP3   OH244598   0.041   2.170   3.432
14886TIP3    H144599   0.009   2.149   3.344
14886TIP3    H244600  -0.018   2.239   3.462
14887TIP3   OH244601   0.028   1.831   4.201
14887TIP3    H144602  -0.029   1.774   4.150
14887TIP3    H244603   0.087   1.771   4.247
14888TIP3   OH244604   2.531   2.490   5.368
14888TIP3    H144605   2.516   2.576   5.328
14888TIP3    H244606   2.582   2.508   5.446
14889TIP3   OH244607   3.663   0.262   0.195
14889TIP3    H144608   3.690   0.175   0.224
14889TIP3    H244609   3.726   0.321   0.236
14890TIP3   OH244610   0.965   4.655   3.939
14890TIP3    H144611   0.913   4.682   3.863
14890TIP3    H244612   0.906   4.666   4.013
14891TIP3   OH244613   3.363   2.186   3.503
14891TIP3    H144614   3.438   2.142   3.463
14891TIP3    H244615   3.352   2.141   3.587
14892TIP3   OH244616   0.119   6.305   2.653
14892TIP3    H144617   0.069   6.234   2.692
14892TIP3    H244618   0.211   6.283   2.670
14893TIP3   OH244619   7.139   4.505   2.430
14893TIP3    H144620   7.187   4.522   2.350
14893TIP3    H244621   7.120   4.592   2.466
14894TIP3   OH244622   6.053   5.401   4.739
14894TIP3    H144623   6.061   5.306   4.744
14894TIP3    H244624   5.996   5.417   4.664
14895TIP3   OH244625   6.009   4.214   6.610
14895TIP3    H144626   6.020   4.127   6.571
14895TIP3    H244627   6.098   4.249   6.615
14896TIP3   OH244628   4.310   1.558   6.626
14896TIP3    H144629   4.391   1.529   6.584
14896TIP3    H244630   4.326   1.545   6.719
14897TIP3   OH244631   0.019   7.821   5.485
14897TIP3    H144632   0.022   7.803   5.579
14897TIP3    H244633  -0.008   7.912   5.479
14898TIP3   OH244634   2.160   1.859   0.820
14898TIP3    H144635   2.071   1.847   0.786
14898TIP3    H244636   2.189   1.770   0.843
14899TIP3   OH244637   2.057   6.516   4.064
14899TIP3    H144638   2.036   6.502   4.156
14899TIP3    H244639   2.114   6.593   4.063
14900TIP3   OH244640   1.298   5.041   1.180
14900TIP3    H144641   1.329   5.127   1.151
14900TIP3    H244642   1.325   4.980   1.112
14901TIP3   OH244643   4.635   5.090   1.420
14901TIP3    H144644   4.619   5.023   1.353
14901TIP3    H244645   4.727   5.113   1.409
14902TIP3   OH244646   4.012   4.027   1.944
14902TIP3    H144647   4.103   4.003   1.925
14902TIP3    H244648   3.996   4.104   1.889
14903TIP3   OH244649   6.420   7.281   1.507
14903TIP3    H144650   6.400   7.337   1.582
14903TIP3    H244651   6.335   7.251   1.476
14904TIP3   OH244652   5.688   4.089   2.129
14904TIP3    H144653   5.770   4.139   2.121
14904TIP3    H244654   5.666   4.065   2.039
14905TIP3   OH244655   8.228   6.474   3.402
14905TIP3    H144656   8.197   6.546   3.347
14905TIP3    H244657   8.169   6.401   3.382
14906TIP3   OH244658   1.746   3.125   3.008
14906TIP3    H144659   1.780   3.111   3.096
14906TIP3    H244660   1.783   3.054   2.956
14907TIP3   OH244661   7.035   6.056   0.747
14907TIP3    H144662   6.972   6.125   0.767
14907TIP3    H244663   7.119   6.101   0.740
14908TIP3   OH244664   8.197   7.822   0.541
14908TIP3    H144665   8.151   7.894   0.583
14908TIP3    H244666   8.290   7.837   0.562
14909TIP3   OH244667   5.201   1.022   4.750
14909TIP3    H144668   5.165   1.077   4.820
14909TIP3    H244669   5.131   0.959   4.731
14910TIP3   OH244670   4.451   2.561   2.788
14910TIP3    H144671   4.537   2.562   2.746
14910TIP3    H244672   4.463   2.509   2.867
14911TIP3   OH244673   6.730   5.026   0.275
14911TIP3    H144674   6.691   5.006   0.190
14911TIP3    H244675   6.702   5.115   0.294
14912TIP3   OH244676   8.047   4.285   3.809
14912TIP3    H144677   8.041   4.329   3.724
14912TIP3    H244678   7.989   4.209   3.801
14913TIP3   OH244679   6.947   4.634   2.118
14913TIP3    H144680   6.953   4.617   2.024
14913TIP3    H244681   6.874   4.696   2.126
14914TIP3   OH244682   2.401   4.531   6.612
14914TIP3    H144683   2.325   4.473   6.605
14914TIP3    H244684   2.463   4.482   6.666
14915TIP3   OH244685   4.951   4.442   5.284
14915TIP3    H144686   4.948   4.487   5.369
14915TIP3    H244687   4.862   4.446   5.251
14916TIP3   OH244688   4.877   3.679   1.092
14916TIP3    H144689   4.916   3.763   1.068
14916TIP3    H244690   4.884   3.676   1.187
14917TIP3   OH244691   0.689   6.150   6.769
14917TIP3    H144692   0.764   6.091   6.769
14917TIP3    H244693   0.665   6.159   6.861
14918TIP3   OH244694   0.105   5.784   0.813
14918TIP3    H144695   0.057   5.823   0.886
14918TIP3    H244696   0.048   5.796   0.737
14919TIP3   OH244697   0.942   2.655   6.364
14919TIP3    H144698   1.011   2.686   6.305
14919TIP3    H244699   0.979   2.578   6.407
14920TIP3   OH244700   4.529   2.844   2.579
14920TIP3    H144701   4.470   2.808   2.512
14920TIP3    H244702   4.598   2.888   2.529
14921TIP3   OH244703   5.369   4.565   4.571
14921TIP3    H144704   5.361   4.515   4.490
14921TIP3    H244705   5.280   4.594   4.590
14922TIP3   OH244706   4.594   5.270   6.671
14922TIP3    H144707   4.637   5.312   6.597
14922TIP3    H244708   4.550   5.342   6.717
14923TIP3   OH244709   6.358   4.809   6.468
14923TIP3    H144710   6.324   4.736   6.417
14923TIP3    H244711   6.283   4.868   6.478
14924TIP3   OH244712   5.814   5.906   2.074
14924TIP3    H144713   5.803   5.931   1.982
14924TIP3    H244714   5.843   5.815   2.070
14925TIP3   OH244715   1.028   3.207   0.946
14925TIP3    H144716   1.070   3.245   0.868
14925TIP3    H244717   1.013   3.282   1.004
14926TIP3   OH244718   4.204   5.014   3.488
14926TIP3    H144719   4.156   4.964   3.422
14926TIP3    H244720   4.151   5.093   3.501
14927TIP3   OH244721   6.199   7.145   2.004
14927TIP3    H144722   6.165   7.159   1.915
14927TIP3    H244723   6.234   7.056   2.003
14928TIP3   OH244724   4.556   3.078   2.801
14928TIP3    H144725   4.531   3.016   2.732
14928TIP3    H244726   4.624   3.132   2.761
14929TIP3   OH244727   8.372   0.493   6.306
14929TIP3    H144728   8.282   0.516   6.328
14929TIP3    H244729   8.389   0.536   6.222
14930TIP3   OH244730   7.523   0.609   4.107
14930TIP3    H144731   7.504   0.536   4.167
14930TIP3    H244732   7.577   0.669   4.159
14931TIP3   OH244733   2.056   7.264   0.063
14931TIP3    H144734   2.057   7.320  -0.015
14931TIP3    H244735   2.104   7.186   0.037
14932TIP3   OH244736   0.782   4.144   3.913
14932TIP3    H144737   0.857   4.093   3.942
14932TIP3    H244738   0.816   4.233   3.900
14933TIP3   OH244739   2.092   4.012   6.691
14933TIP3    H144740   2.044   3.944   6.737
14933TIP3    H244741   2.131   3.968   6.615
14934TIP3   OH244742   0.994   4.803   5.773
14934TIP3    H144743   0.954   4.883   5.808
14934TIP3    H244744   1.059   4.779   5.839
14935TIP3   OH244745   2.797   0.320   5.693
14935TIP3    H144746   2.843   0.360   5.767
14935TIP3    H244747   2.865   0.306   5.628
14936TIP3   OH244748   0.763   2.468   2.495
14936TIP3    H144749   0.723   2.546   2.456
14936TIP3    H244750   0.826   2.503   2.558
14937TIP3   OH244751   7.486   3.031   4.970
14937TIP3    H144752   7.418   2.996   4.912
14937TIP3    H244753   7.536   3.092   4.916
14938TIP3   OH244754   5.392   7.783   1.666
14938TIP3    H144755   5.471   7.752   1.710
14938TIP3    H244756   5.350   7.840   1.731
14939TIP3   OH244757   1.360   5.875   3.528
14939TIP3    H144758   1.376   5.898   3.436
14939TIP3    H244759   1.339   5.958   3.570
14940TIP3   OH244760   1.349   1.123   1.739
14940TIP3    H144761   1.404   1.099   1.814
14940TIP3    H244762   1.338   1.218   1.747
14941TIP3   OH244763   7.324   1.845   2.379
14941TIP3    H144764   7.260   1.888   2.436
14941TIP3    H244765   7.398   1.906   2.375
14942TIP3   OH244766   4.971   4.565   0.200
14942TIP3    H144767   4.908   4.497   0.223
14942TIP3    H244768   4.916   4.641   0.177
14943TIP3   OH244769   8.362   1.303   5.363
14943TIP3    H144770   8.418   1.378   5.386
14943TIP3    H244771   8.393   1.232   5.419
14944TIP3   OH244772   2.771   1.841   3.833
14944TIP3    H144773   2.841   1.822   3.895
14944TIP3    H244774   2.704   1.886   3.885
14945TIP3   OH244775   3.924   7.143   4.853
14945TIP3    H144776   3.834   7.177   4.859
14945TIP3    H244777   3.925   7.067   4.910
14946TIP3   OH244778   0.857   5.543   4.163
14946TIP3    H144779   0.837   5.562   4.071
14946TIP3    H244780   0.944   5.502   4.160
14947TIP3   OH244781   0.366   6.024   1.108
14947TIP3    H144782   0.369   6.077   1.187
14947TIP3    H244783   0.418   6.072   1.044
14948TIP3   OH244784   1.207   1.862   2.117
14948TIP3    H144785   1.178   1.868   2.209
14948TIP3    H244786   1.147   1.799   2.077
14949TIP3   OH244787   1.374   2.996   1.661
14949TIP3    H144788   1.388   3.030   1.749
14949TIP3    H244789   1.428   2.917   1.656
14950TIP3   OH244790   4.897   6.827   2.128
14950TIP3    H144791   4.940   6.861   2.050
14950TIP3    H244792   4.804   6.848   2.115
14951TIP3   OH244793   7.652   3.265   4.918
14951TIP3    H144794   7.685   3.286   5.005
14951TIP3    H244795   7.627   3.349   4.881
14952TIP3   OH244796   0.104   4.647   3.437
14952TIP3    H144797   0.080   4.740   3.429
14952TIP3    H244798   0.188   4.641   3.391
14953TIP3   OH244799   0.502   3.506   5.514
14953TIP3    H144800   0.427   3.477   5.567
14953TIP3    H244801   0.563   3.543   5.578
14954TIP3   OH244802   3.118   5.305   4.457
14954TIP3    H144803   3.059   5.305   4.532
14954TIP3    H244804   3.066   5.342   4.385
14955TIP3   OH244805   2.073   5.012   1.819
14955TIP3    H144806   2.156   5.042   1.855
14955TIP3    H244807   2.009   5.033   1.887
14956TIP3   OH244808   1.642   5.347   4.656
14956TIP3    H144809   1.601   5.433   4.661
14956TIP3    H244810   1.718   5.352   4.714
14957TIP3   OH244811   1.488   3.991   5.504
14957TIP3    H144812   1.573   3.963   5.472
14957TIP3    H244813   1.437   4.008   5.425
14958TIP3   OH244814   1.399   6.488   0.953
14958TIP3    H144815   1.381   6.395   0.964
14958TIP3    H244816   1.411   6.521   1.042
14959TIP3   OH244817   7.144   0.959   4.038
14959TIP3    H144818   7.171   0.885   4.092
14959TIP3    H244819   7.060   0.933   4.001
14960TIP3   OH244820   2.224   5.487   4.884
14960TIP3    H144821   2.209   5.581   4.895
14960TIP3    H244822   2.319   5.477   4.888
14961TIP3   OH244823   1.953   1.356   6.176
14961TIP3    H144824   1.938   1.293   6.106
14961TIP3    H244825   2.031   1.404   6.149
14962TIP3   OH244826   7.172   2.267   6.473
14962TIP3    H144827   7.181   2.177   6.444
14962TIP3    H244828   7.161   2.317   6.392
14963TIP3   OH244829   4.587   0.434   6.550
14963TIP3    H144830   4.524   0.366   6.574
14963TIP3    H244831   4.643   0.392   6.484
14964TIP3   OH244832   6.275   0.569   0.334
14964TIP3    H144833   6.301   0.564   0.242
14964TIP3    H244834   6.256   0.661   0.349
14965TIP3   OH244835   1.860   1.883   3.560
14965TIP3    H144836   1.834   1.920   3.645
14965TIP3    H244837   1.815   1.799   3.555
14966TIP3   OH244838   4.693   2.559   2.116
14966TIP3    H144839   4.782   2.560   2.151
14966TIP3    H244840   4.638   2.593   2.186
14967TIP3   OH244841   6.069   7.743   6.423
14967TIP3    H144842   6.165   7.745   6.429
14967TIP3    H244843   6.041   7.710   6.508
14968TIP3   OH244844   0.078   1.153   1.599
14968TIP3    H144845   0.159   1.103   1.605
14968TIP3    H244846   0.093   1.229   1.655
14969TIP3   OH244847   6.022   5.665   4.566
14969TIP3    H144848   5.989   5.713   4.642
14969TIP3    H244849   6.021   5.729   4.495
14970TIP3   OH244850   7.912   6.813   4.558
14970TIP3    H144851   7.817   6.801   4.557
14970TIP3    H244852   7.936   6.805   4.650
14971TIP3   OH244853   4.431   7.447   4.909
14971TIP3    H144854   4.352   7.401   4.938
14971TIP3    H244855   4.421   7.455   4.814
14972TIP3   OH244856   5.999   3.134   2.747
14972TIP3    H144857   6.091   3.133   2.723
14972TIP3    H244858   5.954   3.168   2.669
14973TIP3   OH244859   0.217   1.178   3.310
14973TIP3    H144860   0.123   1.159   3.312
14973TIP3    H244861   0.236   1.196   3.218
14974TIP3   OH244862   5.264   0.959   1.283
14974TIP3    H144863   5.265   1.027   1.216
14974TIP3    H244864   5.266   0.877   1.235
14975TIP3   OH244865   3.067   1.288   1.228
14975TIP3    H144866   3.149   1.243   1.250
14975TIP3    H244867   3.040   1.250   1.144
14976TIP3   OH244868   1.575   7.081   4.041
14976TIP3    H144869   1.541   7.076   3.952
14976TIP3    H244870   1.657   7.031   4.038
14977TIP3   OH244871   5.828   1.699   4.092
14977TIP3    H144872   5.831   1.719   4.185
14977TIP3    H244873   5.887   1.623   4.082
14978TIP3   OH244874   4.492   6.018   0.887
14978TIP3    H144875   4.411   6.061   0.914
14978TIP3    H244876   4.477   5.992   0.797
14979TIP3   OH244877   6.693   6.055   5.782
14979TIP3    H144878   6.653   6.081   5.865
14979TIP3    H244879   6.688   6.132   5.727
14980TIP3   OH244880   1.263   7.103   2.896
14980TIP3    H144881   1.195   7.112   2.962
14980TIP3    H244882   1.255   7.014   2.864
14981TIP3   OH244883   0.828   5.712   0.424
14981TIP3    H144884   0.738   5.701   0.454
14981TIP3    H244885   0.878   5.726   0.504
14982TIP3   OH244886   2.268   0.094   2.697
14982TIP3    H144887   2.282   0.188   2.687
14982TIP3    H244888   2.201   0.087   2.765
14983TIP3   OH244889   6.313   3.096   4.912
14983TIP3    H144890   6.396   3.124   4.874
14983TIP3    H244891   6.291   3.016   4.864
14984TIP3   OH244892   1.986   5.252   0.127
14984TIP3    H144893   2.060   5.235   0.185
14984TIP3    H244894   2.025   5.294   0.050
14985TIP3   OH244895   4.677   4.279   4.600
14985TIP3    H144896   4.712   4.338   4.533
14985TIP3    H244897   4.741   4.208   4.605
14986TIP3   OH244898   2.073   7.720   0.077
14986TIP3    H144899   2.071   7.730  -0.019
14986TIP3    H244900   1.990   7.676   0.097
14987TIP3   OH244901   7.341   2.098   1.063
14987TIP3    H144902   7.301   2.081   0.977
14987TIP3    H244903   7.267   2.111   1.122
14988TIP3   OH244904   4.145   4.926   5.062
14988TIP3    H144905   4.218   4.880   5.105
14988TIP3    H244906   4.110   4.862   5.000
14989TIP3   OH244907   3.853   6.479   3.249
14989TIP3    H144908   3.830   6.567   3.223
14989TIP3    H244909   3.940   6.488   3.290
14990TIP3   OH244910   5.925   7.415   3.002
14990TIP3    H144911   6.020   7.403   2.991
14990TIP3    H244912   5.887   7.362   2.931
14991TIP3   OH244913   8.033   0.998   6.184
14991TIP3    H144914   8.065   1.070   6.238
14991TIP3    H244915   8.097   0.991   6.113
14992TIP3   OH244916   2.335   6.595   3.383
14992TIP3    H144917   2.299   6.511   3.413
14992TIP3    H244918   2.430   6.583   3.387
14993TIP3   OH244919   6.801   3.340   1.261
14993TIP3    H144920   6.743   3.282   1.212
14993TIP3    H244921   6.822   3.410   1.199
14994TIP3   OH244922   7.060   0.524   3.589
14994TIP3    H144923   7.103   0.576   3.656
14994TIP3    H244924   6.977   0.498   3.627
14995TIP3   OH244925   1.706   5.799   4.778
14995TIP3    H144926   1.712   5.887   4.739
14995TIP3    H244927   1.768   5.747   4.728
14996TIP3   OH244928   1.069   6.251   0.805
14996TIP3    H144929   1.018   6.170   0.798
14996TIP3    H244930   1.124   6.250   0.726
14997TIP3   OH244931   7.887   5.274   5.826
14997TIP3    H144932   7.902   5.314   5.912
14997TIP3    H244933   7.960   5.305   5.772
14998TIP3   OH244934   1.691   2.381   4.610
14998TIP3    H144935   1.671   2.375   4.517
14998TIP3    H244936   1.686   2.291   4.642
14999TIP3   OH244937   7.062   0.222   1.161
14999TIP3    H144938   7.144   0.260   1.194
14999TIP3    H244939   7.084   0.132   1.140
15000TIP3   OH244940   7.049   0.964   3.276
15000TIP3    H144941   6.997   1.036   3.311
15000TIP3    H244942   7.069   0.910   3.352
15001TIP3   OH244943   4.659   1.598   1.714
15001TIP3    H144944   4.596   1.580   1.784
15001TIP3    H244945   4.743   1.608   1.760
15002TIP3   OH244946   0.018   2.248   1.394
15002TIP3    H144947   0.058   2.168   1.428
15002TIP3    H244948   0.012   2.305   1.470
15003TIP3   OH244949   3.634   1.602   0.333
15003TIP3    H144950   3.596   1.548   0.264
15003TIP3    H244951   3.675   1.539   0.393
15004TIP3   OH244952   4.468   1.068   0.102
15004TIP3    H144953   4.388   1.120   0.106
15004TIP3    H244954   4.520   1.109   0.033
15005TIP3   OH244955   3.332   0.528   1.061
15005TIP3    H144956   3.311   0.441   1.096
15005TIP3    H244957   3.363   0.577   1.137
15006TIP3   OH244958   6.673   6.723   3.449
15006TIP3    H144959   6.593   6.745   3.497
15006TIP3    H244960   6.711   6.808   3.426
15007TIP3   OH244961   0.644   5.681   0.634
15007TIP3    H144962   0.704   5.691   0.709
15007TIP3    H244963   0.623   5.588   0.633
15008TIP3   OH244964   7.367   5.305   3.881
15008TIP3    H144965   7.445   5.252   3.864
15008TIP3    H244966   7.400   5.394   3.895
15009TIP3   OH244967   6.902   2.385   5.987
15009TIP3    H144968   6.997   2.374   5.999
15009TIP3    H244969   6.872   2.421   6.070
15010TIP3   OH244970   1.140   6.294   3.451
15010TIP3    H144971   1.189   6.216   3.425
15010TIP3    H244972   1.120   6.339   3.369
15011TIP3   OH244973   6.166   5.368   1.769
15011TIP3    H144974   6.252   5.400   1.744
15011TIP3    H244975   6.153   5.289   1.717
15012TIP3   OH244976   5.091   7.323   1.959
15012TIP3    H144977   5.169   7.364   1.996
15012TIP3    H244978   5.025   7.391   1.961
15013TIP3   OH244979   1.514   0.510   2.179
15013TIP3    H144980   1.558   0.573   2.237
15013TIP3    H244981   1.487   0.439   2.237
15014TIP3   OH244982   4.893   7.771   0.841
15014TIP3    H144983   4.971   7.821   0.817
15014TIP3    H244984   4.902   7.756   0.935
15015TIP3   OH244985   6.717   0.181   6.804
15015TIP3    H144986   6.769   0.217   6.732
15015TIP3    H244987   6.756   0.096   6.823
15016TIP3   OH244988   0.701   4.877   6.428
15016TIP3    H144989   0.723   4.844   6.515
15016TIP3    H244990   0.614   4.841   6.410
15017TIP3   OH244991   1.868   0.780   3.233
15017TIP3    H144992   1.833   0.797   3.146
15017TIP3    H244993   1.962   0.798   3.225
15018TIP3   OH244994   1.684   1.677   0.837
15018TIP3    H144995   1.657   1.694   0.747
15018TIP3    H244996   1.766   1.628   0.828
15019TIP3   OH244997   6.913   0.245   2.780
15019TIP3    H144998   6.853   0.227   2.707
15019TIP3    H244999   6.863   0.221   2.858
15020TIP3   OH245000   5.112   1.427  -0.002
15020TIP3    H145001   5.164   1.351  -0.030
15020TIP3    H245002   5.090   1.409   0.090
15021TIP3   OH245003   3.145   5.360   4.946
15021TIP3    H145004   3.111   5.325   4.863
15021TIP3    H245005   3.237   5.380   4.928
15022TIP3   OH245006   8.379   6.155   6.200
15022TIP3    H145007   8.345   6.065   6.196
15022TIP3    H245008   8.334   6.194   6.275
15023TIP3   OH245009   5.310   4.597   0.326
15023TIP3    H145010   5.264   4.516   0.345
15023TIP3    H245011   5.258   4.665   0.369
15024TIP3   OH245012   6.894   5.976   4.537
15024TIP3    H145013   6.895   5.881   4.543
15024TIP3    H245014   6.932   6.005   4.620
15025TIP3   OH245015   5.548   6.504   4.585
15025TIP3    H145016   5.602   6.462   4.518
15025TIP3    H245017   5.516   6.431   4.639
15026TIP3   OH245018   1.977   7.019   6.806
15026TIP3    H145019   1.937   6.980   6.884
15026TIP3    H245020   2.067   6.987   6.807
15027TIP3   OH245021   7.863   3.471   3.285
15027TIP3    H145022   7.838   3.548   3.234
15027TIP3    H245023   7.835   3.396   3.232
15028TIP3   OH245024   5.664   2.234   3.128
15028TIP3    H145025   5.734   2.223   3.063
15028TIP3    H245026   5.690   2.312   3.177
15029TIP3   OH245027   1.544   4.983   0.463
15029TIP3    H145028   1.459   5.001   0.501
15029TIP3    H245029   1.540   5.023   0.375
15030TIP3   OH245030   2.816   7.258   4.187
15030TIP3    H145031   2.838   7.191   4.121
15030TIP3    H245032   2.744   7.307   4.148
15031TIP3   OH245033   7.232   2.719   1.974
15031TIP3    H145034   7.256   2.801   1.931
15031TIP3    H245035   7.262   2.729   2.064
15032TIP3   OH245036   5.636   4.011   6.688
15032TIP3    H145037   5.609   3.920   6.701
15032TIP3    H245038   5.730   4.010   6.702
15033TIP3   OH245039   1.732   1.392   1.577
15033TIP3    H145040   1.662   1.449   1.610
15033TIP3    H245041   1.686   1.317   1.538
15034TIP3   OH245042   4.727   5.817   0.817
15034TIP3    H145043   4.649   5.768   0.789
15034TIP3    H245044   4.801   5.768   0.780
15035TIP3   OH245045   2.894   6.478   0.454
15035TIP3    H145046   2.819   6.426   0.485
15035TIP3    H245047   2.969   6.419   0.460
15036TIP3   OH245048   2.593   4.097   4.612
15036TIP3    H145049   2.562   4.155   4.681
15036TIP3    H245050   2.532   4.023   4.614
15037TIP3   OH245051   8.311   7.104   0.443
15037TIP3    H145052   8.259   7.174   0.404
15037TIP3    H245053   8.396   7.143   0.460
15038TIP3   OH245054   0.915   0.016   5.143
15038TIP3    H145055   0.964   0.079   5.197
15038TIP3    H245056   0.829   0.011   5.185
15039TIP3   OH245057   7.660   5.325   3.918
15039TIP3    H145058   7.616   5.305   4.001
15039TIP3    H245059   7.663   5.420   3.914
15040TIP3   OH245060   7.623   0.418   3.587
15040TIP3    H145061   7.571   0.414   3.506
15040TIP3    H245062   7.612   0.332   3.627
15041TIP3   OH245063   3.435   0.380   5.485
15041TIP3    H145064   3.518   0.414   5.519
15041TIP3    H245065   3.408   0.314   5.548
15042TIP3   OH245066   4.800   1.027   5.805
15042TIP3    H145067   4.711   1.001   5.784
15042TIP3    H245068   4.796   1.122   5.817
15043TIP3   OH245069   5.016   6.271   1.756
15043TIP3    H145070   4.952   6.220   1.806
15043TIP3    H245071   4.968   6.298   1.678
15044TIP3   OH245072   2.543   6.893   4.541
15044TIP3    H145073   2.475   6.842   4.586
15044TIP3    H245074   2.621   6.839   4.547
15045TIP3   OH245075   1.153   3.887   3.851
15045TIP3    H145076   1.129   3.977   3.871
15045TIP3    H245077   1.087   3.834   3.894
15046TIP3   OH245078   3.834   6.903   6.071
15046TIP3    H145079   3.742   6.909   6.045
15046TIP3    H245080   3.867   6.825   6.027
15047TIP3   OH245081   7.207   7.617   2.189
15047TIP3    H145082   7.222   7.606   2.095
15047TIP3    H245083   7.285   7.578   2.229
15048TIP3   OH245084   3.605   0.719   1.965
15048TIP3    H145085   3.681   0.699   2.020
15048TIP3    H245086   3.610   0.657   1.893
15049TIP3   OH245087   5.263   4.354   1.519
15049TIP3    H145088   5.321   4.304   1.576
15049TIP3    H245089   5.182   4.303   1.516
15050TIP3   OH245090   4.676   2.615   2.641
15050TIP3    H145091   4.679   2.578   2.552
15050TIP3    H245092   4.639   2.703   2.629
15051TIP3   OH245093   2.191   3.827   5.442
15051TIP3    H145094   2.187   3.898   5.378
15051TIP3    H245095   2.279   3.790   5.431
15052TIP3   OH245096   3.164   7.455   5.673
15052TIP3    H145097   3.160   7.368   5.712
15052TIP3    H245098   3.251   7.460   5.634
15053TIP3   OH245099   4.872   5.467   0.516
15053TIP3    H145100   4.784   5.494   0.490
15053TIP3    H245101   4.930   5.528   0.469
15054TIP3   OH245102   3.210   6.129   1.443
15054TIP3    H145103   3.146   6.065   1.412
15054TIP3    H245104   3.229   6.184   1.367
15055TIP3   OH245105   1.209   2.285   2.875
15055TIP3    H145106   1.167   2.353   2.927
15055TIP3    H245107   1.186   2.203   2.919
15056TIP3   OH245108   5.798   3.626   5.341
15056TIP3    H145109   5.704   3.622   5.357
15056TIP3    H245110   5.825   3.712   5.374
15057TIP3   OH245111   4.609   0.692   1.475
15057TIP3    H145112   4.574   0.722   1.559
15057TIP3    H245113   4.623   0.773   1.425
15058TIP3   OH245114   2.219   6.923   2.787
15058TIP3    H145115   2.167   7.003   2.788
15058TIP3    H245116   2.202   6.884   2.702
15059TIP3   OH245117   5.409   6.910   1.799
15059TIP3    H145118   5.326   6.932   1.841
15059TIP3    H245119   5.476   6.945   1.859
15060TIP3   OH245120   1.260   6.801   0.576
15060TIP3    H145121   1.219   6.716   0.556
15060TIP3    H245122   1.190   6.864   0.566
15061TIP3   OH245123   4.291   3.980   4.151
15061TIP3    H145124   4.284   3.952   4.242
15061TIP3    H245125   4.315   3.901   4.103
15062TIP3   OH245126   0.358   4.673   3.297
15062TIP3    H145127   0.394   4.753   3.336
15062TIP3    H245128   0.358   4.690   3.203
15063TIP3   OH245129   7.887   1.464   6.836
15063TIP3    H145130   7.934   1.442   6.917
15063TIP3    H245131   7.953   1.459   6.767
15064TIP3   OH245132   8.283   6.642   2.585
15064TIP3    H145133   8.250   6.729   2.563
15064TIP3    H245134   8.321   6.652   2.672
15065TIP3   OH245135   4.657   1.474   3.340
15065TIP3    H145136   4.735   1.526   3.323
15065TIP3    H245137   4.615   1.464   3.255
15066TIP3   OH245138   1.662   7.147   2.872
15066TIP3    H145139   1.616   7.146   2.957
15066TIP3    H245140   1.714   7.227   2.874
15067TIP3   OH245141   1.542   1.052   3.511
15067TIP3    H145142   1.525   1.144   3.533
15067TIP3    H245143   1.459   1.021   3.474
15068TIP3   OH245144   2.932   5.954   2.961
15068TIP3    H145145   3.013   5.967   2.912
15068TIP3    H245146   2.955   5.889   3.028
15069TIP3   OH245147   0.055   5.871   4.779
15069TIP3    H145148   0.011   5.954   4.765
15069TIP3    H245149   0.086   5.844   4.693
15070TIP3   OH245150   0.528   7.663   0.984
15070TIP3    H145151   0.594   7.657   0.915
15070TIP3    H245152   0.493   7.574   0.992
15071TIP3   OH245153   6.184   1.028   4.755
15071TIP3    H145154   6.170   1.092   4.685
15071TIP3    H245155   6.271   0.991   4.736
15072TIP3   OH245156   3.207   7.100   1.344
15072TIP3    H145157   3.185   7.186   1.308
15072TIP3    H245158   3.199   7.111   1.439
15073TIP3   OH245159   5.306   4.718   5.614
15073TIP3    H145160   5.377   4.669   5.571
15073TIP3    H245161   5.260   4.652   5.666
15074TIP3   OH245162   3.258   3.795   1.099
15074TIP3    H145163   3.180   3.816   1.150
15074TIP3    H245164   3.224   3.778   1.011
15075TIP3   OH245165   3.162   2.756   3.420
15075TIP3    H145166   3.197   2.804   3.496
15075TIP3    H245167   3.232   2.760   3.355
15076TIP3   OH245168   3.386   1.019   5.058
15076TIP3    H145169   3.311   0.959   5.057
15076TIP3    H245170   3.361   1.088   5.120
15077TIP3   OH245171   3.442   3.170   0.262
15077TIP3    H145172   3.365   3.225   0.277
15077TIP3    H245173   3.508   3.230   0.227
15078TIP3   OH245174   0.767   2.225   0.294
15078TIP3    H145175   0.795   2.216   0.203
15078TIP3    H245176   0.847   2.249   0.341
15079TIP3   OH245177   2.237   6.301   5.810
15079TIP3    H145178   2.143   6.296   5.824
15079TIP3    H245179   2.248   6.361   5.737
15080TIP3   OH245180   4.689   6.763   5.891
15080TIP3    H145181   4.741   6.821   5.947
15080TIP3    H245182   4.707   6.793   5.802
15081TIP3   OH245183   0.592   7.419   4.571
15081TIP3    H145184   0.579   7.514   4.565
15081TIP3    H245185   0.673   7.403   4.522
15082TIP3   OH245186   4.015   1.446   0.062
15082TIP3    H145187   3.988   1.423   0.151
15082TIP3    H245188   3.979   1.376   0.008
15083TIP3   OH245189   4.731   7.172   5.904
15083TIP3    H145190   4.698   7.203   5.820
15083TIP3    H245191   4.813   7.220   5.917
15084TIP3   OH245192   6.440   6.227   5.062
15084TIP3    H145193   6.348   6.246   5.042
15084TIP3    H245194   6.488   6.300   5.023
15085TIP3   OH245195   7.798   3.850   1.129
15085TIP3    H145196   7.797   3.921   1.065
15085TIP3    H245197   7.881   3.860   1.174
15086TIP3   OH245198   8.085   4.814   5.543
15086TIP3    H145199   8.002   4.767   5.547
15086TIP3    H245200   8.079   4.880   5.613
15087TIP3   OH245201   8.278   5.342   3.817
15087TIP3    H145202   8.259   5.267   3.761
15087TIP3    H245203   8.279   5.305   3.906
15088TIP3   OH245204   2.772   0.059   1.058
15088TIP3    H145205   2.804   0.065   0.967
15088TIP3    H245206   2.746  -0.033   1.068
15089TIP3   OH245207   3.980   0.537   1.852
15089TIP3    H145208   4.039   0.503   1.919
15089TIP3    H245209   3.897   0.493   1.869
15090TIP3   OH245210   0.036   3.824   4.321
15090TIP3    H145211   0.123   3.848   4.353
15090TIP3    H245212  -0.022   3.846   4.393
15091TIP3   OH245213   6.361   1.655   0.517
15091TIP3    H145214   6.434   1.625   0.571
15091TIP3    H245215   6.313   1.574   0.496
15092TIP3   OH245216   6.348   3.109   6.312
15092TIP3    H145217   6.357   3.099   6.217
15092TIP3    H245218   6.382   3.197   6.330
15093TIP3   OH245219   5.707   2.101   5.590
15093TIP3    H145220   5.786   2.155   5.592
15093TIP3    H245221   5.727   2.031   5.528
15094TIP3   OH245222   4.055   7.544   5.439
15094TIP3    H145223   4.039   7.614   5.503
15094TIP3    H245224   3.996   7.473   5.466
15095TIP3   OH245225   1.050   5.851   5.254
15095TIP3    H145226   0.994   5.924   5.228
15095TIP3    H245227   0.989   5.779   5.270
15096TIP3   OH245228   4.364   7.068   1.192
15096TIP3    H145229   4.424   7.139   1.215
15096TIP3    H245230   4.325   7.042   1.275
15097TIP3   OH245231   4.512   6.468   4.246
15097TIP3    H145232   4.483   6.380   4.220
15097TIP3    H245233   4.546   6.506   4.165
15098TIP3   OH245234   6.792   4.298   3.709
15098TIP3    H145235   6.780   4.363   3.640
15098TIP3    H245236   6.878   4.260   3.692
15099TIP3   OH245237   3.023   1.193   4.515
15099TIP3    H145238   2.949   1.220   4.569
15099TIP3    H245239   3.012   1.098   4.506
15100TIP3   OH245240   3.413   2.385   1.804
15100TIP3    H145241   3.438   2.301   1.767
15100TIP3    H245242   3.345   2.363   1.869
15101TIP3   OH245243   4.436   7.058   0.483
15101TIP3    H145244   4.485   7.074   0.564
15101TIP3    H245245   4.479   6.981   0.444
15102TIP3   OH245246   1.172   7.460   5.508
15102TIP3    H145247   1.157   7.455   5.414
15102TIP3    H245248   1.265   7.440   5.519
15103TIP3   OH245249   0.893   1.086   2.994
15103TIP3    H145250   0.839   1.008   2.983
15103TIP3    H245251   0.883   1.109   3.087
15104TIP3   OH245252   2.063   2.484   2.068
15104TIP3    H145253   1.974   2.451   2.075
15104TIP3    H245254   2.052   2.575   2.037
15105TIP3   OH245255   3.352   4.241   6.051
15105TIP3    H145256   3.445   4.225   6.035
15105TIP3    H245257   3.307   4.172   6.002
15106TIP3   OH245258   3.628   7.513   2.939
15106TIP3    H145259   3.625   7.498   2.844
15106TIP3    H245260   3.667   7.600   2.948
15107TIP3   OH245261   4.113   3.351   0.582
15107TIP3    H145262   4.070   3.391   0.507
15107TIP3    H245263   4.195   3.316   0.547
15108TIP3   OH245264   4.332   2.713   1.241
15108TIP3    H145265   4.386   2.635   1.244
15108TIP3    H245266   4.391   2.785   1.264
15109TIP3   OH245267   0.377   1.308   0.941
15109TIP3    H145268   0.432   1.355   1.004
15109TIP3    H245269   0.356   1.372   0.874
15110TIP3   OH245270   0.303   3.601   0.017
15110TIP3    H145271   0.272   3.554  -0.060
15110TIP3    H245272   0.230   3.596   0.079
15111TIP3   OH245273   1.068   1.284   5.580
15111TIP3    H145274   1.076   1.295   5.486
15111TIP3    H245275   1.039   1.369   5.613
15112TIP3   OH245276   4.753   1.095   5.438
15112TIP3    H145277   4.719   1.169   5.488
15112TIP3    H245278   4.678   1.065   5.387
15113TIP3   OH245279   6.119   5.439   5.373
15113TIP3    H145280   6.063   5.366   5.398
15113TIP3    H245281   6.152   5.415   5.286
15114TIP3   OH245282   0.884   2.122   0.836
15114TIP3    H145283   0.826   2.046   0.829
15114TIP3    H245284   0.832   2.188   0.881
15115TIP3   OH245285   4.527   1.925   2.410
15115TIP3    H145286   4.567   1.856   2.463
15115TIP3    H245287   4.543   2.005   2.459
15116TIP3   OH245288   1.535   2.929   1.174
15116TIP3    H145289   1.573   2.909   1.089
15116TIP3    H245290   1.468   2.862   1.187
15117TIP3   OH245291   3.972   4.487   2.956
15117TIP3    H145292   3.979   4.583   2.962
15117TIP3    H245293   3.934   4.471   2.869
15118TIP3   OH245294   7.536   3.246   1.175
15118TIP3    H145295   7.556   3.294   1.255
15118TIP3    H245296   7.589   3.167   1.179
15119TIP3   OH245297   5.588   6.066   2.833
15119TIP3    H145298   5.623   5.989   2.878
15119TIP3    H245299   5.536   6.111   2.900
15120TIP3   OH245300   4.160   6.965   0.915
15120TIP3    H145301   4.238   6.992   0.964
15120TIP3    H245302   4.173   6.872   0.898
15121TIP3   OH245303   0.043   7.327   3.480
15121TIP3    H145304   0.104   7.343   3.408
15121TIP3    H245305  -0.022   7.397   3.471
15122TIP3   OH245306   5.695   3.008   5.205
15122TIP3    H145307   5.744   3.024   5.123
15122TIP3    H245308   5.725   2.922   5.234
15123TIP3   OH245309   3.771   4.746   3.102
15123TIP3    H145310   3.855   4.716   3.136
15123TIP3    H245311   3.755   4.830   3.146
15124TIP3   OH245312   1.749   7.929   4.663
15124TIP3    H145313   1.754   7.911   4.569
15124TIP3    H245314   1.668   7.886   4.690
15125TIP3   OH245315   0.253   2.874   3.801
15125TIP3    H145316   0.281   2.955   3.843
15125TIP3    H245317   0.158   2.881   3.796
15126TIP3   OH245318   7.151   1.134   0.159
15126TIP3    H145319   7.131   1.046   0.190
15126TIP3    H245320   7.184   1.122   0.070
15127TIP3   OH245321   7.035   0.242   0.786
15127TIP3    H145322   6.967   0.278   0.844
15127TIP3    H245323   7.037   0.302   0.712
15128TIP3   OH245324   1.387   3.981   5.260
15128TIP3    H145325   1.473   3.990   5.218
15128TIP3    H245326   1.330   4.039   5.210
15129TIP3   OH245327   4.294   7.593   4.695
15129TIP3    H145328   4.257   7.560   4.613
15129TIP3    H245329   4.218   7.625   4.744
15130TIP3   OH245330   6.420   3.549   2.432
15130TIP3    H145331   6.498   3.604   2.427
15130TIP3    H245332   6.357   3.600   2.482
15131TIP3   OH245333   6.041   4.140   0.825
15131TIP3    H145334   6.110   4.166   0.886
15131TIP3    H245335   6.058   4.191   0.746
15132TIP3   OH245336   6.616   2.564   2.122
15132TIP3    H145337   6.609   2.601   2.034
15132TIP3    H245338   6.571   2.480   2.117
15133TIP3   OH245339   0.489   6.814   0.024
15133TIP3    H145340   0.541   6.797   0.103
15133TIP3    H245341   0.420   6.873   0.054
15134TIP3   OH245342   4.258   7.657   6.169
15134TIP3    H145343   4.190   7.624   6.228
15134TIP3    H245344   4.341   7.631   6.211
15135TIP3   OH245345   7.360   4.019   6.610
15135TIP3    H145346   7.268   4.044   6.600
15135TIP3    H245347   7.358   3.944   6.670
15136TIP3   OH245348   1.851   6.917   3.588
15136TIP3    H145349   1.822   6.959   3.507
15136TIP3    H245350   1.848   6.823   3.570
15137TIP3   OH245351   6.953   4.100   3.950
15137TIP3    H145352   6.948   4.194   3.964
15137TIP3    H245353   7.041   4.076   3.979
15138TIP3   OH245354   4.531   1.294   1.342
15138TIP3    H145355   4.463   1.226   1.332
15138TIP3    H245356   4.528   1.317   1.435
15139TIP3   OH245357   5.286   7.617   6.163
15139TIP3    H145358   5.276   7.712   6.163
15139TIP3    H245359   5.207   7.584   6.204
15140TIP3   OH245360   7.043   1.207   2.246
15140TIP3    H145361   7.057   1.239   2.157
15140TIP3    H245362   6.989   1.129   2.235
15141TIP3   OH245363   4.563   2.935   5.856
15141TIP3    H145364   4.615   2.964   5.781
15141TIP3    H245365   4.545   2.843   5.839
15142TIP3   OH245366   1.016   6.027   1.802
15142TIP3    H145367   1.104   6.064   1.802
15142TIP3    H245368   1.010   5.980   1.885
15143TIP3   OH245369   5.974   0.898   6.385
15143TIP3    H145370   5.925   0.977   6.406
15143TIP3    H245371   5.944   0.875   6.297
15144TIP3   OH245372   2.824   3.759   0.652
15144TIP3    H145373   2.752   3.806   0.610
15144TIP3    H245374   2.854   3.697   0.586
15145TIP3   OH245375   4.558   3.138   3.067
15145TIP3    H145376   4.540   3.098   2.982
15145TIP3    H245377   4.650   3.119   3.085
15146TIP3   OH245378   2.169   5.912   1.746
15146TIP3    H145379   2.098   5.961   1.705
15146TIP3    H245380   2.161   5.931   1.839
15147TIP3   OH245381   2.007   0.498   1.249
15147TIP3    H145382   1.956   0.499   1.168
15147TIP3    H245383   1.942   0.498   1.319
15148TIP3   OH245384   1.776   2.018   4.815
15148TIP3    H145385   1.776   2.015   4.720
15148TIP3    H245386   1.696   2.066   4.838
15149TIP3   OH245387   2.965   1.913   6.727
15149TIP3    H145388   2.931   1.824   6.718
15149TIP3    H245389   2.932   1.959   6.650
15150TIP3   OH245390   5.118   3.144   3.332
15150TIP3    H145391   5.189   3.198   3.298
15150TIP3    H245392   5.104   3.077   3.265
15151TIP3   OH245393   4.008   2.512   3.916
15151TIP3    H145394   4.064   2.542   3.845
15151TIP3    H245395   3.964   2.591   3.947
15152TIP3   OH245396   3.533   5.703   3.288
15152TIP3    H145397   3.505   5.708   3.379
15152TIP3    H245398   3.568   5.615   3.278
15153TIP3   OH245399   3.915   0.986   1.664
15153TIP3    H145400   3.976   1.023   1.601
15153TIP3    H245401   3.924   0.891   1.654
15154TIP3   OH245402   5.360   4.449   4.822
15154TIP3    H145403   5.389   4.463   4.732
15154TIP3    H245404   5.344   4.537   4.856
15155TIP3   OH245405   0.976   3.566   4.449
15155TIP3    H145406   1.025   3.643   4.477
15155TIP3    H245407   0.961   3.580   4.355
15156TIP3   OH245408   6.151   6.480   3.478
15156TIP3    H145409   6.059   6.452   3.476
15156TIP3    H245410   6.177   6.469   3.570
15157TIP3   OH245411   3.578   6.544   5.296
15157TIP3    H145412   3.639   6.495   5.240
15157TIP3    H245413   3.634   6.583   5.363
15158TIP3   OH245414   6.926   2.311   1.105
15158TIP3    H145415   6.875   2.236   1.135
15158TIP3    H245416   7.000   2.317   1.165
15159TIP3   OH245417   5.525   2.404   5.239
15159TIP3    H145418   5.524   2.429   5.147
15159TIP3    H245419   5.447   2.443   5.276
15160TIP3   OH245420   4.709   4.070   1.230
15160TIP3    H145421   4.725   3.975   1.228
15160TIP3    H245422   4.699   4.095   1.138
15161TIP3   OH245423   3.145   1.342   3.721
15161TIP3    H145424   3.145   1.333   3.816
15161TIP3    H245425   3.082   1.278   3.690
15162TIP3   OH245426   8.348   2.798   1.240
15162TIP3    H145427   8.364   2.812   1.147
15162TIP3    H245428   8.399   2.721   1.262
15163TIP3   OH245429   1.517   4.156   2.186
15163TIP3    H145430   1.452   4.136   2.118
15163TIP3    H245431   1.543   4.070   2.219
15164TIP3   OH245432   5.377   5.116   1.937
15164TIP3    H145433   5.378   5.140   1.844
15164TIP3    H245434   5.363   5.021   1.937
15165TIP3   OH245435   7.066   3.727   4.502
15165TIP3    H145436   7.157   3.741   4.527
15165TIP3    H245437   7.063   3.752   4.410
15166TIP3   OH245438   7.110   4.803   4.901
15166TIP3    H145439   7.158   4.870   4.950
15166TIP3    H245440   7.167   4.779   4.829
15167TIP3   OH245441   5.396   5.291   3.392
15167TIP3    H145442   5.350   5.225   3.340
15167TIP3    H245443   5.478   5.307   3.346
15168TIP3   OH245444   2.017   1.502   2.009
15168TIP3    H145445   1.927   1.494   2.039
15168TIP3    H245446   2.058   1.562   2.071
15169TIP3   OH245447   6.885   1.491   3.975
15169TIP3    H145448   6.800   1.477   4.017
15169TIP3    H245449   6.865   1.547   3.900
15170TIP3   OH245450   1.554   5.605   4.654
15170TIP3    H145451   1.473   5.648   4.625
15170TIP3    H245452   1.608   5.676   4.688
15171TIP3   OH245453   7.898   7.317   0.031
15171TIP3    H145454   7.879   7.410   0.021
15171TIP3    H245455   7.935   7.291  -0.054
15172TIP3   OH245456   0.642   6.651   1.266
15172TIP3    H145457   0.579   6.579   1.264
15172TIP3    H245458   0.601   6.719   1.211
15173TIP3   OH245459   2.552   6.156   2.822
15173TIP3    H145460   2.494   6.117   2.887
15173TIP3    H245461   2.497   6.170   2.745
15174TIP3   OH245462   3.238   0.087   5.666
15174TIP3    H145463   3.213   0.013   5.721
15174TIP3    H245464   3.192   0.073   5.583
15175TIP3   OH245465   0.365   4.307   3.186
15175TIP3    H145466   0.411   4.361   3.251
15175TIP3    H245467   0.349   4.366   3.112
15176TIP3   OH245468   7.551   4.339   0.790
15176TIP3    H145469   7.544   4.244   0.793
15176TIP3    H245470   7.614   4.357   0.720
15177TIP3   OH245471   5.091   4.679   6.637
15177TIP3    H145472   5.083   4.747   6.704
15177TIP3    H245473   5.110   4.599   6.687
15178TIP3   OH245474   1.327   5.731   4.552
15178TIP3    H145475   1.233   5.727   4.534
15178TIP3    H245476   1.344   5.823   4.573
15179TIP3   OH245477   6.564   4.955   1.002
15179TIP3    H145478   6.555   4.985   1.093
15179TIP3    H245479   6.536   5.030   0.950
15180TIP3   OH245480   3.457   0.577   4.745
15180TIP3    H145481   3.527   0.564   4.681
15180TIP3    H245482   3.502   0.582   4.829
15181TIP3   OH245483   3.324   2.958   3.612
15181TIP3    H145484   3.395   2.965   3.676
15181TIP3    H245485   3.331   3.038   3.559
15182TIP3   OH245486   8.238   5.380   1.283
15182TIP3    H145487   8.221   5.453   1.343
15182TIP3    H245488   8.151   5.356   1.250
15183TIP3   OH245489   4.520   0.261   3.126
15183TIP3    H145490   4.616   0.266   3.129
15183TIP3    H245491   4.499   0.248   3.033
15184TIP3   OH245492   4.032   0.602   1.141
15184TIP3    H145493   4.085   0.642   1.073
15184TIP3    H245494   3.978   0.674   1.176
15185TIP3   OH245495   2.697   0.143   5.450
15185TIP3    H145496   2.720   0.235   5.460
15185TIP3    H245497   2.661   0.117   5.535
15186TIP3   OH245498   5.961   3.548   2.291
15186TIP3    H145499   5.965   3.595   2.375
15186TIP3    H245500   6.021   3.474   2.302
15187TIP3   OH245501   4.037   3.133   2.436
15187TIP3    H145502   4.071   3.223   2.433
15187TIP3    H245503   4.101   3.082   2.386
15188TIP3   OH245504   3.229   7.766   6.024
15188TIP3    H145505   3.175   7.709   5.969
15188TIP3    H245506   3.319   7.744   6.002
15189TIP3   OH245507   3.013   1.363   4.004
15189TIP3    H145508   3.042   1.343   4.093
15189TIP3    H245509   2.917   1.356   4.007
15190TIP3   OH245510   3.092   1.830   1.553
15190TIP3    H145511   3.063   1.739   1.548
15190TIP3    H245512   3.148   1.832   1.630
15191TIP3   OH245513   7.183   4.961   3.997
15191TIP3    H145514   7.108   4.967   4.057
15191TIP3    H245515   7.201   5.052   3.972
15192TIP3   OH245516   3.299   3.981   5.315
15192TIP3    H145517   3.212   3.941   5.316
15192TIP3    H245518   3.336   3.955   5.230
15193TIP3   OH245519   1.570   0.630   1.153
15193TIP3    H145520   1.560   0.578   1.233
15193TIP3    H245521   1.571   0.565   1.082
15194TIP3   OH245522   1.985   1.386   3.969
15194TIP3    H145523   1.968   1.476   3.941
15194TIP3    H245524   1.898   1.350   3.987
15195TIP3   OH245525   1.657   2.919   2.618
15195TIP3    H145526   1.633   3.000   2.663
15195TIP3    H245527   1.576   2.892   2.572
15196TIP3   OH245528   6.309   2.946   2.162
15196TIP3    H145529   6.396   2.913   2.144
15196TIP3    H245530   6.256   2.868   2.179
15197TIP3   OH245531   6.330   6.948   2.273
15197TIP3    H145532   6.284   6.910   2.198
15197TIP3    H245533   6.292   7.035   2.283
15198TIP3   OH245534   7.581   3.334   5.445
15198TIP3    H145535   7.533   3.356   5.524
15198TIP3    H245536   7.647   3.403   5.438
15199TIP3   OH245537   6.760   5.912   1.721
15199TIP3    H145538   6.844   5.953   1.743
15199TIP3    H245539   6.725   5.881   1.804
15200TIP3   OH245540   3.593   0.458   0.018
15200TIP3    H145541   3.590   0.431  -0.073
15200TIP3    H245542   3.599   0.376   0.067
15201TIP3   OH245543   1.474   5.980   2.091
15201TIP3    H145544   1.419   5.959   2.016
15201TIP3    H245545   1.487   6.075   2.086
15202TIP3   OH245546   8.025   5.030   3.131
15202TIP3    H145547   7.948   5.062   3.178
15202TIP3    H245548   8.053   4.952   3.180
15203TIP3   OH245549   5.234   4.754   5.912
15203TIP3    H145550   5.312   4.804   5.890
15203TIP3    H245551   5.168   4.820   5.934
15204TIP3   OH245552   3.623   5.133   1.991
15204TIP3    H145553   3.581   5.090   1.917
15204TIP3    H245554   3.717   5.119   1.977
15205TIP3   OH245555   7.668   0.685   4.515
15205TIP3    H145556   7.600   0.617   4.521
15205TIP3    H245557   7.664   0.715   4.424
15206TIP3   OH245558   0.674   3.314   2.491
15206TIP3    H145559   0.706   3.390   2.540
15206TIP3    H245560   0.750   3.255   2.487
15207TIP3   OH245561   1.892   1.318   5.911
15207TIP3    H145562   1.896   1.374   5.834
15207TIP3    H245563   1.821   1.257   5.892
15208TIP3   OH245564   2.063   0.401   2.728
15208TIP3    H145565   1.968   0.403   2.725
15208TIP3    H245566   2.090   0.385   2.637
15209TIP3   OH245567   2.285   5.965   4.213
15209TIP3    H145568   2.217   5.898   4.218
15209TIP3    H245569   2.357   5.930   4.265
15210TIP3   OH245570   2.158   0.762   4.865
15210TIP3    H145571   2.162   0.694   4.932
15210TIP3    H245572   2.248   0.791   4.854
15211TIP3   OH245573   6.200   7.279   3.352
15211TIP3    H145574   6.218   7.363   3.395
15211TIP3    H245575   6.106   7.265   3.364
15212TIP3   OH245576   7.714   5.540   2.848
15212TIP3    H145577   7.671   5.520   2.764
15212TIP3    H245578   7.656   5.603   2.890
15213TIP3   OH245579   7.687   2.985   1.177
15213TIP3    H145580   7.752   2.950   1.116
15213TIP3    H245581   7.638   2.908   1.206
15214TIP3   OH245582   0.218   4.723   5.223
15214TIP3    H145583   0.216   4.812   5.189
15214TIP3    H245584   0.204   4.667   5.146
15215TIP3   OH245585   3.846   1.271   2.432
15215TIP3    H145586   3.774   1.324   2.467
15215TIP3    H245587   3.862   1.308   2.345
15216TIP3   OH245588   0.527   1.888   6.786
15216TIP3    H145589   0.504   1.960   6.728
15216TIP3    H245590   0.443   1.848   6.809
15217TIP3   OH245591   6.349   3.417   5.808
15217TIP3    H145592   6.378   3.375   5.727
15217TIP3    H245593   6.371   3.509   5.797
15218TIP3   OH245594   2.321   6.588   5.402
15218TIP3    H145595   2.308   6.518   5.467
15218TIP3    H245596   2.412   6.615   5.415
15219TIP3   OH245597   5.851   5.175   1.722
15219TIP3    H145598   5.922   5.130   1.676
15219TIP3    H245599   5.782   5.184   1.656
15220TIP3   OH245600   0.238   2.198   2.032
15220TIP3    H145601   0.192   2.278   2.007
15220TIP3    H245602   0.248   2.204   2.127
15221TIP3   OH245603   0.473   0.431   6.320
15221TIP3    H145604   0.491   0.525   6.324
15221TIP3    H245605   0.428   0.411   6.403
15222TIP3   OH245606   5.050   3.906   5.329
15222TIP3    H145607   5.011   3.918   5.415
15222TIP3    H245608   5.046   3.992   5.288
15223TIP3   OH245609   2.749   4.098   0.735
15223TIP3    H145610   2.787   4.174   0.779
15223TIP3    H245611   2.825   4.052   0.698
15224TIP3   OH245612   8.391   3.755   3.267
15224TIP3    H145613   8.378   3.841   3.305
15224TIP3    H245614   8.370   3.694   3.338
15225TIP3   OH245615   2.072   5.874   1.074
15225TIP3    H145616   2.104   5.822   1.000
15225TIP3    H245617   2.141   5.865   1.140
15226TIP3   OH245618   7.339   0.528   1.791
15226TIP3    H145619   7.377   0.478   1.718
15226TIP3    H245620   7.287   0.464   1.838
15227TIP3   OH245621   5.552   4.742   4.378
15227TIP3    H145622   5.502   4.797   4.318
15227TIP3    H245623   5.544   4.786   4.463
15228TIP3   OH245624   7.673   7.399   0.729
15228TIP3    H145625   7.700   7.339   0.659
15228TIP3    H245626   7.577   7.401   0.722
15229TIP3   OH245627   5.046   2.486   3.603
15229TIP3    H145628   5.080   2.569   3.636
15229TIP3    H245629   5.035   2.500   3.508
15230TIP3   OH245630   7.804   2.297   6.698
15230TIP3    H145631   7.788   2.204   6.716
15230TIP3    H245632   7.878   2.297   6.638
15231TIP3   OH245633   3.541   1.774   2.641
15231TIP3    H145634   3.506   1.718   2.571
15231TIP3    H245635   3.492   1.856   2.632
15232TIP3   OH245636   4.809   0.706   4.922
15232TIP3    H145637   4.804   0.722   5.016
15232TIP3    H245638   4.888   0.653   4.911
15233TIP3   OH245639   0.161   3.420   4.837
15233TIP3    H145640   0.110   3.341   4.822
15233TIP3    H245641   0.200   3.408   4.923
15234TIP3   OH245642   1.427   2.076   1.324
15234TIP3    H145643   1.337   2.076   1.356
15234TIP3    H245644   1.430   2.150   1.262
15235TIP3   OH245645   6.200   4.445   5.242
15235TIP3    H145646   6.258   4.372   5.221
15235TIP3    H245647   6.183   4.486   5.157
15236TIP3   OH245648   2.815   5.246   1.938
15236TIP3    H145649   2.891   5.188   1.944
15236TIP3    H245650   2.847   5.325   1.895
15237TIP3   OH245651   2.534   1.933   3.329
15237TIP3    H145652   2.498   2.000   3.387
15237TIP3    H245653   2.555   1.860   3.387
15238TIP3   OH245654   4.780   6.976   6.295
15238TIP3    H145655   4.827   6.974   6.379
15238TIP3    H245656   4.773   7.069   6.274
15239TIP3   OH245657   1.830   7.798   2.619
15239TIP3    H145658   1.833   7.844   2.535
15239TIP3    H245659   1.884   7.851   2.678
15240TIP3   OH245660   0.316   2.499   1.427
15240TIP3    H145661   0.372   2.440   1.478
15240TIP3    H245662   0.285   2.447   1.354
15241TIP3   OH245663   7.584   0.502   6.270
15241TIP3    H145664   7.568   0.596   6.271
15241TIP3    H245665   7.635   0.487   6.190
15242TIP3   OH245666   4.963   1.936   1.991
15242TIP3    H145667   4.959   1.922   2.086
15242TIP3    H245668   4.940   2.028   1.979
15243TIP3   OH245669   5.910   7.268   2.479
15243TIP3    H145670   5.972   7.197   2.496
15243TIP3    H245671   5.891   7.261   2.386
15244TIP3   OH245672   8.102   4.039   6.429
15244TIP3    H145673   8.182   4.033   6.481
15244TIP3    H245674   8.121   3.988   6.350
15245TIP3   OH245675   6.212   7.031   6.027
15245TIP3    H145676   6.221   6.962   5.962
15245TIP3    H245677   6.125   7.068   6.012
15246TIP3   OH245678   8.273   1.802   1.354
15246TIP3    H145679   8.339   1.764   1.296
15246TIP3    H245680   8.233   1.873   1.302
15247TIP3   OH245681   2.980   2.459   5.863
15247TIP3    H145682   2.922   2.383   5.859
15247TIP3    H245683   3.048   2.440   5.798
15248TIP3   OH245684   2.256   1.400   1.915
15248TIP3    H145685   2.298   1.437   1.992
15248TIP3    H245686   2.163   1.407   1.932
15249TIP3   OH245687   2.054   7.095   1.293
15249TIP3    H145688   2.036   7.088   1.199
15249TIP3    H245689   2.117   7.166   1.300
15250TIP3   OH245690   0.233   3.665   0.688
15250TIP3    H145691   0.288   3.603   0.640
15250TIP3    H245692   0.249   3.646   0.780
15251TIP3   OH245693   1.114   0.437   1.275
15251TIP3    H145694   1.171   0.477   1.209
15251TIP3    H245695   1.054   0.507   1.300
15252TIP3   OH245696   7.136   3.853   2.939
15252TIP3    H145697   7.109   3.938   2.905
15252TIP3    H245698   7.093   3.790   2.882
15253TIP3   OH245699   7.385   6.496   3.626
15253TIP3    H145700   7.333   6.478   3.704
15253TIP3    H245701   7.452   6.428   3.625
15254TIP3   OH245702   3.237   7.315   3.151
15254TIP3    H145703   3.289   7.355   3.081
15254TIP3    H245704   3.300   7.301   3.222
15255TIP3   OH245705   5.460   4.248   2.262
15255TIP3    H145706   5.543   4.237   2.216
15255TIP3    H245707   5.419   4.161   2.258
15256TIP3   OH245708   4.062   3.096   5.182
15256TIP3    H145709   3.993   3.124   5.122
15256TIP3    H245710   4.040   3.138   5.266
15257TIP3   OH245711   5.772   0.152   4.152
15257TIP3    H145712   5.857   0.109   4.148
15257TIP3    H245713   5.749   0.149   4.245
15258TIP3   OH245714   3.645   4.281   5.825
15258TIP3    H145715   3.710   4.256   5.759
15258TIP3    H245716   3.614   4.197   5.860
15259TIP3   OH245717   4.616   6.760   3.798
15259TIP3    H145718   4.542   6.801   3.842
15259TIP3    H245719   4.625   6.809   3.716
15260TIP3   OH245720   3.948   2.863   2.205
15260TIP3    H145721   3.943   2.775   2.242
15260TIP3    H245722   3.861   2.879   2.168
15261TIP3   OH245723   3.894   6.118   3.065
15261TIP3    H145724   3.985   6.148   3.070
15261TIP3    H245725   3.895   6.050   2.999
15262TIP3   OH245726   1.799   6.860   1.515
15262TIP3    H145727   1.809   6.782   1.570
15262TIP3    H245728   1.887   6.899   1.514
15263TIP3   OH245729   7.238   5.845   1.159
15263TIP3    H145730   7.165   5.786   1.179
15263TIP3    H245731   7.196   5.930   1.146
15264TIP3   OH245732   1.496   2.613   2.965
15264TIP3    H145733   1.541   2.581   3.043
15264TIP3    H245734   1.556   2.676   2.926
15265TIP3   OH245735   7.974   0.558   4.131
15265TIP3    H145736   8.033   0.488   4.104
15265TIP3    H245737   7.903   0.556   4.067
15266TIP3   OH245738   6.426   5.021   6.210
15266TIP3    H145739   6.395   5.061   6.291
15266TIP3    H245740   6.370   4.944   6.198
15267TIP3   OH245741   3.671   6.077   5.538
15267TIP3    H145742   3.639   6.102   5.452
15267TIP3    H245743   3.734   6.146   5.561
15268TIP3   OH245744   2.944   2.140   0.535
15268TIP3    H145745   2.903   2.225   0.516
15268TIP3    H245746   3.013   2.132   0.469
15269TIP3   OH245747   5.236   0.245   0.508
15269TIP3    H145748   5.323   0.232   0.470
15269TIP3    H245749   5.234   0.189   0.585
15270TIP3   OH245750   0.031   0.485   0.055
15270TIP3    H145751  -0.046   0.469   0.000
15270TIP3    H245752   0.085   0.407   0.044
15271TIP3   OH245753   5.098   1.987   3.913
15271TIP3    H145754   5.006   1.959   3.916
15271TIP3    H245755   5.147   1.913   3.947
15272TIP3   OH245756   7.010   5.453   6.585
15272TIP3    H145757   7.064   5.454   6.664
15272TIP3    H245758   6.980   5.543   6.576
15273TIP3   OH245759   3.948   7.366   5.222
15273TIP3    H145760   3.899   7.286   5.206
15273TIP3    H245761   3.897   7.414   5.286
15274TIP3   OH245762   0.618   1.490   1.773
15274TIP3    H145763   0.546   1.532   1.725
15274TIP3    H245764   0.574   1.436   1.839
15275TIP3   OH245765   2.724   4.495   0.437
15275TIP3    H145766   2.642   4.508   0.390
15275TIP3    H245767   2.791   4.490   0.369
15276TIP3   OH245768   4.295   4.088   2.536
15276TIP3    H145769   4.386   4.064   2.516
15276TIP3    H245770   4.293   4.183   2.529
15277TIP3   OH245771   0.920   6.167   5.733
15277TIP3    H145772   0.891   6.200   5.818
15277TIP3    H245773   0.840   6.160   5.681
15278TIP3   OH245774   3.848   1.127   2.873
15278TIP3    H145775   3.941   1.118   2.855
15278TIP3    H245776   3.808   1.050   2.832
15279TIP3   OH245777   5.252   4.562   6.411
15279TIP3    H145778   5.230   4.586   6.501
15279TIP3    H245779   5.246   4.644   6.361
15280TIP3   OH245780   7.549   2.919   0.207
15280TIP3    H145781   7.511   2.906   0.293
15280TIP3    H245782   7.638   2.951   0.225
15281TIP3   OH245783   6.375   7.768   1.296
15281TIP3    H145784   6.327   7.741   1.375
15281TIP3    H245785   6.366   7.695   1.236
15282TIP3   OH245786   3.136   3.739   0.228
15282TIP3    H145787   3.197   3.692   0.172
15282TIP3    H245788   3.051   3.731   0.185
15283TIP3   OH245789   7.353   1.101   2.109
15283TIP3    H145790   7.324   1.183   2.069
15283TIP3    H245791   7.295   1.088   2.184
15284TIP3   OH245792   8.107   0.224   0.020
15284TIP3    H145793   8.033   0.184   0.066
15284TIP3    H245794   8.156   0.150  -0.016
15285TIP3   OH245795   3.795   1.196   5.419
15285TIP3    H145796   3.735   1.261   5.383
15285TIP3    H245797   3.787   1.205   5.514
15286TIP3   OH245798   3.499   2.609   0.151
15286TIP3    H145799   3.474   2.652   0.069
15286TIP3    H245800   3.594   2.619   0.155
15287TIP3   OH245801   2.184   6.345   3.834
15287TIP3    H145802   2.176   6.378   3.923
15287TIP3    H245803   2.181   6.250   3.842
15288TIP3   OH245804   7.281   3.805   5.334
15288TIP3    H145805   7.364   3.841   5.303
15288TIP3    H245806   7.304   3.718   5.368
15289TIP3   OH245807   5.406   4.905   3.775
15289TIP3    H145808   5.442   4.993   3.769
15289TIP3    H245809   5.476   4.848   3.742
15290TIP3   OH245810   4.245   4.369   4.479
15290TIP3    H145811   4.166   4.406   4.519
15290TIP3    H245812   4.227   4.275   4.477
15291TIP3   OH245813   2.595   3.067   3.279
15291TIP3    H145814   2.660   3.002   3.251
15291TIP3    H245815   2.513   3.018   3.284
15292TIP3   OH245816   2.492   5.835   1.772
15292TIP3    H145817   2.475   5.822   1.865
15292TIP3    H245818   2.426   5.899   1.744
15293TIP3   OH245819   4.179   4.833   4.106
15293TIP3    H145820   4.233   4.756   4.088
15293TIP3    H245821   4.242   4.902   4.124
15294TIP3   OH245822   4.493   5.231   2.043
15294TIP3    H145823   4.501   5.200   2.133
15294TIP3    H245824   4.549   5.308   2.039
15295TIP3   OH245825   2.071   7.055   3.794
15295TIP3    H145826   1.976   7.049   3.782
15295TIP3    H245827   2.099   6.966   3.812
15296TIP3   OH245828   7.988   7.121   2.522
15296TIP3    H145829   7.976   7.028   2.505
15296TIP3    H245830   7.903   7.160   2.499
15297TIP3   OH245831   4.213   4.925   2.417
15297TIP3    H145832   4.225   4.835   2.444
15297TIP3    H245833   4.242   4.977   2.492
15298TIP3   OH245834   7.643   4.272   1.471
15298TIP3    H145835   7.565   4.324   1.455
15298TIP3    H245836   7.639   4.251   1.565
15299TIP3   OH245837   5.155   5.023   3.672
15299TIP3    H145838   5.138   5.018   3.578
15299TIP3    H245839   5.246   4.996   3.682
15300TIP3   OH245840   2.738   2.150   4.262
15300TIP3    H145841   2.817   2.115   4.222
15300TIP3    H245842   2.737   2.112   4.350
15301TIP3   OH245843   1.050   6.281   6.185
15301TIP3    H145844   1.068   6.375   6.180
15301TIP3    H245845   1.123   6.247   6.238
15302TIP3   OH245846   2.362   5.010   0.088
15302TIP3    H145847   2.294   5.063   0.128
15302TIP3    H245848   2.401   4.962   0.161
15303TIP3   OH245849   0.784   5.675   6.625
15303TIP3    H145850   0.711   5.623   6.593
15303TIP3    H245851   0.746   5.731   6.693
15304TIP3   OH245852   2.965   1.257   5.274
15304TIP3    H145853   2.875   1.263   5.243
15304TIP3    H245854   2.959   1.262   5.369
15305TIP3   OH245855   4.921   1.050   3.150
15305TIP3    H145856   4.882   0.964   3.132
15305TIP3    H245857   5.016   1.033   3.152
15306TIP3   OH245858   4.458   0.305   5.241
15306TIP3    H145859   4.486   0.217   5.217
15306TIP3    H245860   4.514   0.363   5.188
15307TIP3   OH245861   0.095   1.923   0.113
15307TIP3    H145862   0.142   1.842   0.094
15307TIP3    H245863   0.026   1.926   0.046
15308TIP3   OH245864   4.597   4.611   1.958
15308TIP3    H145865   4.627   4.697   1.988
15308TIP3    H245866   4.630   4.549   2.022
15309TIP3   OH245867   1.097   3.132   5.869
15309TIP3    H145868   1.043   3.162   5.942
15309TIP3    H245869   1.132   3.212   5.830
15310TIP3   OH245870   1.465   1.726   6.683
15310TIP3    H145871   1.555   1.747   6.706
15310TIP3    H245872   1.412   1.771   6.749
15311TIP3   OH245873   1.330   2.921   4.471
15311TIP3    H145874   1.276   2.843   4.484
15311TIP3    H245875   1.281   2.991   4.514
15312TIP3   OH245876   5.810   7.115   3.025
15312TIP3    H145877   5.904   7.136   3.022
15312TIP3    H245878   5.796   7.084   3.115
15313TIP3   OH245879   6.139   5.962   2.996
15313TIP3    H145880   6.066   5.996   3.049
15313TIP3    H245881   6.102   5.955   2.907
15314TIP3   OH245882   2.664   3.445   2.692
15314TIP3    H145883   2.758   3.435   2.707
15314TIP3    H245884   2.656   3.464   2.599
15315TIP3   OH245885   0.739   3.878   6.806
15315TIP3    H145886   0.752   3.945   6.873
15315TIP3    H245887   0.644   3.871   6.798
15316TIP3   OH245888   7.209   5.395   4.101
15316TIP3    H145889   7.190   5.387   4.008
15316TIP3    H245890   7.303   5.380   4.108
15317TIP3   OH245891   3.891   5.958   0.239
15317TIP3    H145892   3.827   5.891   0.261
15317TIP3    H245893   3.856   6.000   0.161
15318TIP3   OH245894   0.923   0.856   5.950
15318TIP3    H145895   0.840   0.888   5.915
15318TIP3    H245896   0.990   0.892   5.891
15319TIP3   OH245897   7.790   0.638   1.770
15319TIP3    H145898   7.759   0.721   1.808
15319TIP3    H245899   7.821   0.663   1.683
15320TIP3   OH245900   5.617   1.658   3.913
15320TIP3    H145901   5.691   1.695   3.962
15320TIP3    H245902   5.562   1.618   3.980
15321TIP3   OH245903   2.912   7.099   4.939
15321TIP3    H145904   2.958   7.016   4.957
15321TIP3    H245905   2.855   7.078   4.865
15322TIP3   OH245906   4.153   7.548   3.823
15322TIP3    H145907   4.223   7.599   3.783
15322TIP3    H245908   4.085   7.544   3.756
15323TIP3   OH245909   1.449   5.921   6.309
15323TIP3    H145910   1.354   5.913   6.319
15323TIP3    H245911   1.463   6.010   6.278
15324TIP3   OH245912   6.624   5.065   2.224
15324TIP3    H145913   6.583   5.100   2.144
15324TIP3    H245914   6.558   5.078   2.292
15325TIP3   OH245915   1.194   4.497   3.881
15325TIP3    H145916   1.198   4.419   3.936
15325TIP3    H245917   1.120   4.547   3.915
15326TIP3   OH245918   1.476   3.552   3.478
15326TIP3    H145919   1.549   3.493   3.497
15326TIP3    H245920   1.398   3.500   3.496
15327TIP3   OH245921   4.904   4.817   0.392
15327TIP3    H145922   4.873   4.805   0.302
15327TIP3    H245923   4.987   4.769   0.395
15328TIP3   OH245924   4.106   3.387   3.432
15328TIP3    H145925   4.172   3.318   3.446
15328TIP3    H245926   4.098   3.392   3.337
15329TIP3   OH245927   4.887   3.845   5.954
15329TIP3    H145928   4.850   3.931   5.939
15329TIP3    H245929   4.833   3.806   6.023
15330TIP3   OH245930   6.392   4.823   0.660
15330TIP3    H145931   6.404   4.769   0.738
15330TIP3    H245932   6.468   4.882   0.659
15331TIP3   OH245933   7.619   6.659   3.817
15331TIP3    H145934   7.687   6.617   3.869
15331TIP3    H245935   7.612   6.605   3.738
15332TIP3   OH245936   1.717   1.795   6.038
15332TIP3    H145937   1.758   1.711   6.017
15332TIP3    H245938   1.731   1.849   5.961
15333TIP3   OH245939   4.813   7.440   5.579
15333TIP3    H145940   4.848   7.476   5.660
15333TIP3    H245941   4.758   7.367   5.606
15334TIP3   OH245942   4.823   5.630   1.582
15334TIP3    H145943   4.860   5.557   1.532
15334TIP3    H245944   4.798   5.591   1.666
15335TIP3   OH245945   4.715   1.715   6.177
15335TIP3    H145946   4.628   1.714   6.217
15335TIP3    H245947   4.748   1.626   6.191
15336TIP3   OH245948   0.321   7.353   2.084
15336TIP3    H145949   0.358   7.305   2.009
15336TIP3    H245950   0.264   7.289   2.126
15337TIP3   OH245951   1.603   0.735   2.392
15337TIP3    H145952   1.630   0.680   2.466
15337TIP3    H245953   1.528   0.785   2.425
15338TIP3   OH245954   2.738   2.486   4.042
15338TIP3    H145955   2.703   2.569   4.073
15338TIP3    H245956   2.833   2.496   4.044
15339TIP3   OH245957   8.035   1.417   0.833
15339TIP3    H145958   8.013   1.367   0.912
15339TIP3    H245959   7.996   1.367   0.761
15340TIP3   OH245960   0.354   3.088   3.931
15340TIP3    H145961   0.447   3.067   3.940
15340TIP3    H245962   0.324   3.102   4.020
15341TIP3   OH245963   3.968   1.829   3.909
15341TIP3    H145964   4.024   1.902   3.883
15341TIP3    H245965   3.966   1.773   3.831
15342TIP3   OH245966   2.645   3.156   6.102
15342TIP3    H145967   2.729   3.195   6.079
15342TIP3    H245968   2.614   3.206   6.177
15343TIP3   OH245969   7.833   5.975   4.276
15343TIP3    H145970   7.776   5.939   4.344
15343TIP3    H245971   7.870   6.054   4.315
15344TIP3   OH245972   0.047   5.404   4.356
15344TIP3    H145973   0.030   5.310   4.351
15344TIP3    H245974  -0.031   5.440   4.398
15345TIP3   OH245975   2.160   1.985   4.538
15345TIP3    H145976   2.116   1.909   4.577
15345TIP3    H245977   2.251   1.976   4.564
15346TIP3   OH245978   3.417   2.526   0.440
15346TIP3    H145979   3.503   2.547   0.478
15346TIP3    H245980   3.419   2.564   0.353
15347TIP3   OH245981   4.462   3.054   2.225
15347TIP3    H145982   4.552   3.042   2.253
15347TIP3    H245983   4.468   3.071   2.131
15348TIP3   OH245984   8.092   5.420   0.343
15348TIP3    H145985   8.017   5.439   0.287
15348TIP3    H245986   8.168   5.432   0.286
15349TIP3   OH245987   0.735   7.567   1.887
15349TIP3    H145988   0.803   7.627   1.917
15349TIP3    H245989   0.665   7.624   1.856
15350TIP3   OH245990   4.480   4.866   0.664
15350TIP3    H145991   4.475   4.824   0.578
15350TIP3    H245992   4.568   4.906   0.666
15351TIP3   OH245993   3.937   5.200   1.047
15351TIP3    H145994   3.990   5.271   1.011
15351TIP3    H245995   3.970   5.121   1.003
15352TIP3   OH245996   8.173   2.725   0.938
15352TIP3    H145997   8.250   2.756   0.985
15352TIP3    H245998   8.205   2.698   0.852
15353TIP3   OH245999   1.705   5.468   0.308
15353TIP3    H146000   1.731   5.523   0.234
15353TIP3    H246001   1.728   5.519   0.386
15354TIP3   OH246002   6.228   0.832   2.268
15354TIP3    H146003   6.169   0.789   2.205
15354TIP3    H246004   6.270   0.759   2.314
15355TIP3   OH246005   6.825   0.963   4.060
15355TIP3    H146006   6.817   1.046   4.013
15355TIP3    H246007   6.827   0.988   4.152
15356TIP3   OH246008   7.654   1.349   6.704
15356TIP3    H146009   7.595   1.413   6.666
15356TIP3    H246010   7.739   1.393   6.707
15357TIP3   OH246011   5.473   5.156   3.727
15357TIP3    H146012   5.474   5.243   3.767
15357TIP3    H246013   5.553   5.152   3.675
15358TIP3   OH246014   4.525   2.882   1.354
15358TIP3    H146015   4.554   2.838   1.434
15358TIP3    H246016   4.494   2.967   1.383
15359TIP3   OH246017   7.671   5.501   4.169
15359TIP3    H146018   7.764   5.517   4.154
15359TIP3    H246019   7.627   5.542   4.094
15360TIP3   OH246020   4.194   2.486   4.333
15360TIP3    H146021   4.238   2.477   4.248
15360TIP3    H246022   4.259   2.529   4.389
15361TIP3   OH246023   6.296   3.308   3.453
15361TIP3    H146024   6.380   3.310   3.498
15361TIP3    H246025   6.231   3.305   3.523
15362TIP3   OH246026   6.397   6.197   3.768
15362TIP3    H146027   6.422   6.121   3.822
15362TIP3    H246028   6.458   6.194   3.694
15363TIP3   OH246029   4.562   5.232   1.758
15363TIP3    H146030   4.549   5.145   1.721
15363TIP3    H246031   4.532   5.225   1.849
15364TIP3   OH246032   2.693   2.279   1.359
15364TIP3    H146033   2.660   2.326   1.283
15364TIP3    H246034   2.670   2.334   1.434
15365TIP3   OH246035   1.394   4.454   3.454
15365TIP3    H146036   1.355   4.384   3.507
15365TIP3    H246037   1.457   4.409   3.397
15366TIP3   OH246038   7.241   6.690   5.278
15366TIP3    H146039   7.281   6.749   5.342
15366TIP3    H246040   7.239   6.605   5.323
15367TIP3   OH246041   0.569   1.069   6.103
15367TIP3    H146042   0.515   0.990   6.107
15367TIP3    H246043   0.552   1.114   6.185
15368TIP3   OH246044   2.157   2.557   4.098
15368TIP3    H146045   2.139   2.476   4.050
15368TIP3    H246046   2.200   2.528   4.178
15369TIP3   OH246047   1.937   7.337   4.931
15369TIP3    H146048   1.884   7.386   4.868
15369TIP3    H246049   1.932   7.246   4.900
15370TIP3   OH246050   4.431   5.483   4.804
15370TIP3    H146051   4.367   5.416   4.827
15370TIP3    H246052   4.399   5.518   4.720
15371TIP3   OH246053   2.195   5.209   3.323
15371TIP3    H146054   2.128   5.147   3.352
15371TIP3    H246055   2.195   5.277   3.391
   8.39113   7.91123   6.85133   0.00000   0.00000  -2.79704   0.00000  -2.79704  -3.95562
