Title t= 330.00000 step= 165000
29212
    1ASP      N    1   1.818   2.733   4.926
    1ASP    HT1    2   1.725   2.720   4.972
    1ASP    HT2    3   1.876   2.648   4.936
    1ASP    HT3    4   1.802   2.754   4.826
    1ASP     CA    5   1.869   2.856   5.000
    1ASP     HA    6   1.793   2.932   4.992
    1ASP     CB    7   1.892   2.823   5.149
    1ASP    HB1    8   1.953   2.907   5.189
    1ASP    HB2    9   1.950   2.729   5.157
    1ASP     CG   10   1.762   2.787   5.222
    1ASP    OD1   11   1.657   2.767   5.148
    1ASP    OD2   12   1.763   2.773   5.348
    1ASP      C   13   1.997   2.915   4.941
    1ASP      O   14   2.000   3.031   4.898
    2GLY      N   15   2.104   2.841   4.938
    2GLY     HN   16   2.110   2.747   4.971
    2GLY     CA   17   2.231   2.893   4.886
    2GLY    HA1   18   2.304   2.816   4.908
    2GLY    HA2   19   2.245   2.989   4.933
    2GLY      C   20   2.233   2.923   4.738
    2GLY      O   21   2.138   2.906   4.660
    3ASP      N   22   2.350   2.973   4.694
    3ASP     HN   23   2.416   3.003   4.762
    3ASP     CA   24   2.372   3.032   4.560
    3ASP     HA   25   2.305   3.115   4.575
    3ASP     CB   26   2.521   3.063   4.547
    3ASP    HB1   27   2.538   3.111   4.448
    3ASP    HB2   28   2.585   2.972   4.544
    3ASP     CG   29   2.572   3.163   4.648
    3ASP    OD1   30   2.511   3.274   4.664
    3ASP    OD2   31   2.687   3.152   4.697
    3ASP      C   32   2.312   2.965   4.435
    3ASP      O   33   2.312   2.840   4.410
    4GLY      N   34   2.253   3.050   4.349
    4GLY     HN   35   2.247   3.144   4.382
    4GLY     CA   36   2.197   3.015   4.217
    4GLY    HA1   37   2.131   3.099   4.198
    4GLY    HA2   38   2.144   2.922   4.227
    4GLY      C   39   2.304   3.006   4.112
    4GLY      O   40   2.413   2.964   4.145
    5PRO      N   41   2.286   3.042   3.987
    5PRO     CD   42   2.144   3.046   3.933
    5PRO    HD1   43   2.089   3.131   3.979
    5PRO    HD2   44   2.096   2.948   3.956
    5PRO     CA   45   2.384   3.057   3.881
    5PRO     HA   46   2.433   2.961   3.870
    5PRO     CB   47   2.303   3.110   3.755
    5PRO    HB1   48   2.348   3.080   3.658
    5PRO    HB2   49   2.303   3.221   3.759
    5PRO     CG   50   2.164   3.044   3.781
    5PRO    HG1   51   2.075   3.094   3.737
    5PRO    HG2   52   2.172   2.940   3.745
    5PRO      C   53   2.491   3.155   3.915
    5PRO      O   54   2.473   3.231   4.012
    6GLY      N   55   2.601   3.166   3.840
    6GLY     HN   56   2.631   3.091   3.781
    6GLY     CA   57   2.694   3.274   3.855
    6GLY    HA1   58   2.785   3.256   3.800
    6GLY    HA2   59   2.725   3.278   3.958
    6GLY      C   60   2.648   3.409   3.816
    6GLY      O   61   2.528   3.434   3.804
    7ASP      N   62   2.742   3.497   3.776
    7ASP     HN   63   2.834   3.472   3.804
    7ASP     CA   64   2.715   3.638   3.731
    7ASP     HA   65   2.635   3.674   3.794
    7ASP     CB   66   2.848   3.715   3.737
    7ASP    HB1   67   2.843   3.818   3.696
    7ASP    HB2   68   2.922   3.661   3.674
    7ASP     CG   69   2.890   3.727   3.876
    7ASP    OD1   70   3.012   3.727   3.910
    7ASP    OD2   71   2.806   3.759   3.969
    7ASP      C   72   2.662   3.638   3.592
    7ASP      O   73   2.728   3.580   3.506
    8PRO      N   74   2.559   3.711   3.555
    8PRO     CD   75   2.472   3.793   3.648
    8PRO    HD1   76   2.508   3.892   3.684
    8PRO    HD2   77   2.441   3.741   3.741
    8PRO     CA   78   2.512   3.736   3.418
    8PRO     HA   79   2.472   3.644   3.380
    8PRO     CB   80   2.396   3.838   3.434
    8PRO    HB1   81   2.317   3.813   3.359
    8PRO    HB2   82   2.441   3.939   3.424
    8PRO     CG   83   2.338   3.822   3.574
    8PRO    HG1   84   2.285   3.914   3.606
    8PRO    HG2   85   2.273   3.732   3.575
    8PRO      C   86   2.609   3.766   3.316
    8PRO      O   87   2.713   3.824   3.337
    9GLY      N   88   2.580   3.725   3.193
    9GLY     HN   89   2.489   3.684   3.190
    9GLY     CA   90   2.664   3.721   3.079
    9GLY    HA1   91   2.641   3.639   3.013
    9GLY    HA2   92   2.765   3.712   3.115
    9GLY      C   93   2.663   3.839   2.995
    9GLY      O   94   2.649   3.951   3.043
   10ASP      N   95   2.693   3.833   2.863
   10ASP     HN   96   2.702   3.739   2.830
   10ASP     CA   97   2.693   3.941   2.765
   10ASP     HA   98   2.676   4.036   2.814
   10ASP     CB   99   2.813   3.943   2.672
   10ASP    HB1  100   2.816   4.045   2.628
   10ASP    HB2  101   2.803   3.878   2.582
   10ASP     CG  102   2.944   3.910   2.738
   10ASP    OD1  103   2.969   3.953   2.853
   10ASP    OD2  104   3.029   3.840   2.670
   10ASP      C  105   2.566   3.920   2.690
   10ASP      O  106   2.528   3.804   2.666
   11GLY      N  107   2.505   4.025   2.648
   11GLY     HN  108   2.528   4.121   2.666
   11GLY     CA  109   2.396   4.013   2.553
   11GLY    HA1  110   2.339   3.922   2.569
   11GLY    HA2  111   2.438   4.014   2.454
   11GLY      C  112   2.293   4.130   2.571
   11GLY    OT1  113   2.181   4.112   2.615
   11GLY    OT2  114   2.321   4.249   2.540
   12SOD    SOD  115   5.158   1.267   1.371
   13SOD    SOD  116   0.905   0.163   0.877
   14SOD    SOD  117   0.156   6.609   2.305
   15SOD    SOD  118   0.502   0.988   3.529
   16SOD    SOD  119   3.949   1.061   4.198
   17SOD    SOD  120   1.870   3.455   4.309
   18SOD    SOD  121   6.298   1.454   0.435
   19SOD    SOD  122   3.257   6.725   4.375
   20SOD    SOD  123   6.058   1.969   4.822
   21SOD    SOD  124   6.710   2.485   0.298
   22SOD    SOD  125   6.302   0.354   4.217
   23SOD    SOD  126   3.781   1.072   2.670
   24SOD    SOD  127   1.398   2.017   5.599
   25SOD    SOD  128   1.735   3.262   1.146
   26SOD    SOD  129   3.530   5.966   3.481
   27SOD    SOD  130   3.466   3.613   3.041
   28SOD    SOD  131   5.465   2.683   3.497
   29SOD    SOD  132   0.740   1.407   2.501
   30SOD    SOD  133   1.476   6.483   4.903
   31SOD    SOD  134   0.411   6.652   3.115
   32SOD    SOD  135   2.827   4.109   1.125
   33SOD    SOD  136   0.353   2.598   1.317
   34SOD    SOD  137   5.280   6.274   2.958
   35SOD    SOD  138   3.432   3.852   1.423
   36SOD    SOD  139   6.010   2.299   4.240
   37SOD    SOD  140   4.126   3.655   0.593
   38SOD    SOD  141   1.062   5.109   4.482
   39SOD    SOD  142   0.746   4.314   2.602
   40SOD    SOD  143   4.667   1.593   1.088
   41SOD    SOD  144   7.192   3.163   1.905
   42SOD    SOD  145   6.136   4.525   4.683
   43CLA    CLA  146   2.307   5.483   4.912
   44CLA    CLA  147   6.186   5.181   0.364
   45CLA    CLA  148   3.205   3.848   0.599
   46CLA    CLA  149   6.155   3.728   4.720
   47CLA    CLA  150   2.567   0.284   0.870
   48CLA    CLA  151   3.349   0.433   3.082
   49CLA    CLA  152   1.124   2.556   4.692
   50CLA    CLA  153   5.197   0.247   3.558
   51CLA    CLA  154   5.324   4.434   4.856
   52CLA    CLA  155   1.861   3.034   3.046
   53CLA    CLA  156   0.237   3.602   0.698
   54CLA    CLA  157   3.174   3.468   2.055
   55CLA    CLA  158   1.402   0.494   2.030
   56CLA    CLA  159   1.097   6.051   5.531
   57CLA    CLA  160   2.564   3.556   0.290
   58CLA    CLA  161   3.605   2.402   3.344
   59CLA    CLA  162   0.324   4.334   2.770
   60CLA    CLA  163   3.315   0.845   4.548
   61CLA    CLA  164   5.809   3.269   1.512
   62CLA    CLA  165   6.949   2.523   2.498
   63CLA    CLA  166   0.816   1.690   3.308
   64CLA    CLA  167   3.845   6.253   1.859
   65CLA    CLA  168   4.677   0.660   4.501
   66CLA    CLA  169   0.082   6.593   2.779
   67CLA    CLA  170   0.222   1.051   1.516
   68CLA    CLA  171   6.056   1.270   1.810
   69CLA    CLA  172   4.841   1.442   1.627
   70TIP3   OH2  173   3.690   4.709   5.335
   70TIP3    H1  174   3.738   4.647   5.390
   70TIP3    H2  175   3.628   4.655   5.285
   71TIP3   OH2  176   2.174   6.258   0.796
   71TIP3    H1  177   2.194   6.351   0.790
   71TIP3    H2  178   2.159   6.231   0.705
   72TIP3   OH2  179   1.307   1.410   0.586
   72TIP3    H1  180   1.325   1.380   0.497
   72TIP3    H2  181   1.213   1.428   0.587
   73TIP3   OH2  182   6.787   0.810   3.495
   73TIP3    H1  183   6.842   0.763   3.558
   73TIP3    H2  184   6.697   0.794   3.525
   74TIP3   OH2  185   3.133   4.990   3.722
   74TIP3    H1  186   3.170   4.910   3.758
   74TIP3    H2  187   3.063   4.961   3.664
   75TIP3   OH2  188   0.510   1.395   4.450
   75TIP3    H1  189   0.545   1.430   4.368
   75TIP3    H2  190   0.576   1.333   4.480
   76TIP3   OH2  191   6.523   4.320   0.889
   76TIP3    H1  192   6.604   4.315   0.940
   76TIP3    H2  193   6.546   4.286   0.803
   77TIP3   OH2  194   5.243   2.444   5.387
   77TIP3    H1  195   5.236   2.441   5.482
   77TIP3    H2  196   5.334   2.418   5.369
   78TIP3   OH2  197   6.752   3.571   5.677
   78TIP3    H1  198   6.733   3.544   5.767
   78TIP3    H2  199   6.677   3.542   5.626
   79TIP3   OH2  200   3.978   2.233   5.785
   79TIP3    H1  201   3.933   2.293   5.844
   79TIP3    H2  202   3.979   2.150   5.832
   80TIP3   OH2  203   2.130   1.628   2.209
   80TIP3    H1  204   2.167   1.547   2.173
   80TIP3    H2  205   2.075   1.600   2.281
   81TIP3   OH2  206   6.272   3.671   0.960
   81TIP3    H1  207   6.220   3.664   1.040
   81TIP3    H2  208   6.360   3.645   0.986
   82TIP3   OH2  209   1.194   1.153   4.636
   82TIP3    H1  210   1.179   1.239   4.596
   82TIP3    H2  211   1.122   1.144   4.699
   83TIP3   OH2  212   2.476   5.619   1.573
   83TIP3    H1  213   2.411   5.608   1.505
   83TIP3    H2  214   2.528   5.695   1.545
   84TIP3   OH2  215   1.458   3.343   1.870
   84TIP3    H1  216   1.503   3.321   1.952
   84TIP3    H2  217   1.488   3.432   1.850
   85TIP3   OH2  218   1.826   0.413   4.236
   85TIP3    H1  219   1.883   0.488   4.221
   85TIP3    H2  220   1.769   0.410   4.159
   86TIP3   OH2  221   1.355   1.809   5.530
   86TIP3    H1  222   1.435   1.763   5.506
   86TIP3    H2  223   1.301   1.742   5.572
   87TIP3   OH2  224   3.822   0.298   5.664
   87TIP3    H1  225   3.774   0.351   5.601
   87TIP3    H2  226   3.770   0.302   5.744
   88TIP3   OH2  227   5.853   0.739   0.418
   88TIP3    H1  228   5.896   0.655   0.402
   88TIP3    H2  229   5.920   0.804   0.395
   89TIP3   OH2  230   4.455   1.232   0.193
   89TIP3    H1  231   4.450   1.226   0.289
   89TIP3    H2  232   4.424   1.147   0.162
   90TIP3   OH2  233   0.363   0.045   1.891
   90TIP3    H1  234   0.414   0.052   1.972
   90TIP3    H2  235   0.412   0.096   1.827
   91TIP3   OH2  236   1.374   1.725   2.550
   91TIP3    H1  237   1.352   1.632   2.560
   91TIP3    H2  238   1.468   1.729   2.568
   92TIP3   OH2  239   5.435   5.166   5.783
   92TIP3    H1  240   5.525   5.142   5.806
   92TIP3    H2  241   5.419   5.246   5.832
   93TIP3   OH2  242   1.410   6.108   5.493
   93TIP3    H1  243   1.456   6.040   5.542
   93TIP3    H2  244   1.318   6.096   5.515
   94TIP3   OH2  245   4.564   0.628   2.037
   94TIP3    H1  246   4.637   0.658   1.983
   94TIP3    H2  247   4.605   0.601   2.119
   95TIP3   OH2  248   3.696   2.212   3.882
   95TIP3    H1  249   3.715   2.214   3.788
   95TIP3    H2  250   3.605   2.184   3.888
   96TIP3   OH2  251   1.608   4.177   1.073
   96TIP3    H1  252   1.528   4.191   1.123
   96TIP3    H2  253   1.635   4.088   1.094
   97TIP3   OH2  254   1.089   2.117   0.521
   97TIP3    H1  255   1.108   2.046   0.460
   97TIP3    H2  256   1.005   2.093   0.561
   98TIP3   OH2  257   3.640   3.672   2.865
   98TIP3    H1  258   3.677   3.702   2.781
   98TIP3    H2  259   3.698   3.709   2.931
   99TIP3   OH2  260   2.304   5.823   0.751
   99TIP3    H1  261   2.369   5.792   0.688
   99TIP3    H2  262   2.332   5.912   0.772
  100TIP3   OH2  263   5.891   1.737   5.231
  100TIP3    H1  264   5.812   1.791   5.238
  100TIP3    H2  265   5.903   1.700   5.318
  101TIP3   OH2  266   1.728   1.012   0.105
  101TIP3    H1  267   1.634   1.028   0.110
  101TIP3    H2  268   1.746   1.008   0.011
  102TIP3   OH2  269   2.106   0.594   1.015
  102TIP3    H1  270   2.164   0.545   0.956
  102TIP3    H2  271   2.070   0.664   0.960
  103TIP3   OH2  272   2.798   5.906   0.720
  103TIP3    H1  273   2.892   5.923   0.722
  103TIP3    H2  274   2.758   5.990   0.743
  104TIP3   OH2  275   5.578   1.931   1.773
  104TIP3    H1  276   5.635   1.878   1.829
  104TIP3    H2  277   5.607   1.911   1.684
  105TIP3   OH2  278   5.483   2.061   1.098
  105TIP3    H1  279   5.475   1.981   1.149
  105TIP3    H2  280   5.573   2.090   1.112
  106TIP3   OH2  281   4.067   5.508   2.060
  106TIP3    H1  282   4.094   5.435   2.005
  106TIP3    H2  283   3.995   5.549   2.012
  107TIP3   OH2  284   1.897   5.373   4.057
  107TIP3    H1  285   1.837   5.318   4.008
  107TIP3    H2  286   1.854   5.387   4.142
  108TIP3   OH2  287   1.569   5.830   4.364
  108TIP3    H1  288   1.649   5.866   4.401
  108TIP3    H2  289   1.508   5.826   4.437
  109TIP3   OH2  290   6.091   2.677   1.817
  109TIP3    H1  291   6.003   2.709   1.796
  109TIP3    H2  292   6.134   2.752   1.858
  110TIP3   OH2  293   0.470   6.043   5.907
  110TIP3    H1  294   0.411   5.990   5.854
  110TIP3    H2  295   0.445   6.134   5.889
  111TIP3   OH2  296   3.780   0.765   3.313
  111TIP3    H1  297   3.780   0.693   3.250
  111TIP3    H2  298   3.758   0.725   3.397
  112TIP3   OH2  299   0.235   1.433   1.804
  112TIP3    H1  300   0.328   1.422   1.786
  112TIP3    H2  301   0.193   1.360   1.759
  113TIP3   OH2  302   1.881   1.937   4.965
  113TIP3    H1  303   1.927   1.979   5.038
  113TIP3    H2  304   1.925   1.970   4.887
  114TIP3   OH2  305   4.306   3.869   3.211
  114TIP3    H1  306   4.392   3.897   3.179
  114TIP3    H2  307   4.289   3.925   3.286
  115TIP3   OH2  308   2.940   1.472   3.530
  115TIP3    H1  309   2.903   1.480   3.442
  115TIP3    H2  310   3.033   1.490   3.518
  116TIP3   OH2  311   5.960   2.235   4.018
  116TIP3    H1  312   5.915   2.151   4.018
  116TIP3    H2  313   5.908   2.291   3.960
  117TIP3   OH2  314   0.306   2.220   5.461
  117TIP3    H1  315   0.229   2.243   5.513
  117TIP3    H2  316   0.350   2.303   5.444
  118TIP3   OH2  317   2.347   4.898   4.632
  118TIP3    H1  318   2.418   4.962   4.631
  118TIP3    H2  319   2.371   4.837   4.701
  119TIP3   OH2  320   3.268   2.343   3.442
  119TIP3    H1  321   3.362   2.353   3.457
  119TIP3    H2  322   3.227   2.392   3.513
  120TIP3   OH2  323   3.326   0.120   5.376
  120TIP3    H1  324   3.326   0.071   5.458
  120TIP3    H2  325   3.253   0.182   5.385
  121TIP3   OH2  326   4.218   4.903   1.210
  121TIP3    H1  327   4.279   4.976   1.214
  121TIP3    H2  328   4.221   4.874   1.119
  122TIP3   OH2  329   6.173   4.118   1.060
  122TIP3    H1  330   6.091   4.136   1.106
  122TIP3    H2  331   6.226   4.069   1.124
  123TIP3   OH2  332   6.784   6.138   0.519
  123TIP3    H1  333   6.744   6.217   0.556
  123TIP3    H2  334   6.710   6.083   0.494
  124TIP3   OH2  335   3.895   3.788   2.922
  124TIP3    H1  336   3.968   3.786   2.984
  124TIP3    H2  337   3.859   3.876   2.931
  125TIP3   OH2  338   4.127   5.471   5.519
  125TIP3    H1  339   4.216   5.448   5.545
  125TIP3    H2  340   4.138   5.530   5.445
  126TIP3   OH2  341   0.468   3.123   5.295
  126TIP3    H1  342   0.406   3.081   5.355
  126TIP3    H2  343   0.544   3.065   5.296
  127TIP3   OH2  344   2.747   2.432   3.160
  127TIP3    H1  345   2.804   2.362   3.192
  127TIP3    H2  346   2.806   2.494   3.116
  128TIP3   OH2  347   2.718   0.034   3.025
  128TIP3    H1  348   2.677   0.105   3.075
  128TIP3    H2  349   2.693   0.050   2.934
  129TIP3   OH2  350   2.464   3.898   1.073
  129TIP3    H1  351   2.412   3.818   1.071
  129TIP3    H2  352   2.409   3.965   1.032
  130TIP3   OH2  353   0.730   1.849   1.074
  130TIP3    H1  354   0.803   1.890   1.119
  130TIP3    H2  355   0.688   1.921   1.026
  131TIP3   OH2  356   4.925   4.900   4.637
  131TIP3    H1  357   4.841   4.927   4.599
  131TIP3    H2  358   4.969   4.852   4.567
  132TIP3   OH2  359   4.023   5.114   0.446
  132TIP3    H1  360   4.110   5.109   0.484
  132TIP3    H2  361   4.037   5.099   0.352
  133TIP3   OH2  362   7.143   3.240   1.418
  133TIP3    H1  363   7.159   3.255   1.325
  133TIP3    H2  364   7.085   3.311   1.445
  134TIP3   OH2  365   3.587   4.655   3.359
  134TIP3    H1  366   3.610   4.724   3.296
  134TIP3    H2  367   3.499   4.627   3.332
  135TIP3   OH2  368   2.470   4.851   4.879
  135TIP3    H1  369   2.533   4.784   4.853
  135TIP3    H2  370   2.524   4.921   4.918
  136TIP3   OH2  371   1.104   3.260   1.621
  136TIP3    H1  372   1.053   3.260   1.703
  136TIP3    H2  373   1.180   3.205   1.640
  137TIP3   OH2  374   3.074   5.479   2.204
  137TIP3    H1  375   2.988   5.517   2.183
  137TIP3    H2  376   3.131   5.510   2.134
  138TIP3   OH2  377   6.854   3.834   3.588
  138TIP3    H1  378   6.830   3.825   3.681
  138TIP3    H2  379   6.928   3.775   3.576
  139TIP3   OH2  380   5.247   4.305   0.824
  139TIP3    H1  381   5.301   4.291   0.746
  139TIP3    H2  382   5.291   4.374   0.872
  140TIP3   OH2  383   5.241   1.739   2.378
  140TIP3    H1  384   5.254   1.647   2.400
  140TIP3    H2  385   5.174   1.770   2.438
  141TIP3   OH2  386   1.867   2.974   4.208
  141TIP3    H1  387   1.851   2.923   4.129
  141TIP3    H2  388   1.800   2.946   4.270
  142TIP3   OH2  389   6.763   2.325   2.843
  142TIP3    H1  390   6.854   2.352   2.855
  142TIP3    H2  391   6.761   2.284   2.756
  143TIP3   OH2  392   3.196   6.119   2.128
  143TIP3    H1  393   3.285   6.116   2.164
  143TIP3    H2  394   3.163   6.029   2.139
  144TIP3   OH2  395   7.161   5.800   0.309
  144TIP3    H1  396   7.098   5.864   0.342
  144TIP3    H2  397   7.112   5.718   0.302
  145TIP3   OH2  398   5.442   2.776   1.958
  145TIP3    H1  399   5.419   2.862   1.991
  145TIP3    H2  400   5.407   2.773   1.870
  146TIP3   OH2  401   1.836   1.395   1.275
  146TIP3    H1  402   1.864   1.486   1.266
  146TIP3    H2  403   1.756   1.400   1.328
  147TIP3   OH2  404   6.530   6.556   2.762
  147TIP3    H1  405   6.581   6.619   2.813
  147TIP3    H2  406   6.575   6.552   2.677
  148TIP3   OH2  407   1.351   0.231   0.142
  148TIP3    H1  408   1.407   0.155   0.127
  148TIP3    H2  409   1.301   0.241   0.061
  149TIP3   OH2  410   6.101   3.680   3.465
  149TIP3    H1  411   6.117   3.771   3.491
  149TIP3    H2  412   6.038   3.647   3.529
  150TIP3   OH2  413   1.418   4.580   5.607
  150TIP3    H1  414   1.382   4.549   5.690
  150TIP3    H2  415   1.495   4.525   5.593
  151TIP3   OH2  416   2.327   1.771   2.006
  151TIP3    H1  417   2.337   1.852   1.956
  151TIP3    H2  418   2.260   1.721   1.958
  152TIP3   OH2  419   2.162   5.024   5.857
  152TIP3    H1  420   2.201   5.077   5.927
  152TIP3    H2  421   2.074   5.005   5.888
  153TIP3   OH2  422   0.241   3.129   2.858
  153TIP3    H1  423   0.320   3.079   2.835
  153TIP3    H2  424   0.179   3.108   2.788
  154TIP3   OH2  425   7.222   5.511  -0.026
  154TIP3    H1  426   7.204   5.426   0.015
  154TIP3    H2  427   7.260   5.564   0.044
  155TIP3   OH2  428   1.404   0.963   1.716
  155TIP3    H1  429   1.420   1.050   1.678
  155TIP3    H2  430   1.471   0.953   1.783
  156TIP3   OH2  431   2.606   3.983   1.694
  156TIP3    H1  432   2.699   3.965   1.686
  156TIP3    H2  433   2.582   4.021   1.610
  157TIP3   OH2  434   0.314   3.317   0.408
  157TIP3    H1  435   0.341   3.409   0.398
  157TIP3    H2  436   0.224   3.322   0.440
  158TIP3   OH2  437   0.325   1.709   0.445
  158TIP3    H1  438   0.235   1.677   0.455
  158TIP3    H2  439   0.359   1.713   0.534
  159TIP3   OH2  440   6.630   4.646   0.597
  159TIP3    H1  441   6.687   4.579   0.559
  159TIP3    H2  442   6.542   4.610   0.587
  160TIP3   OH2  443   2.967   6.400   3.404
  160TIP3    H1  444   2.987   6.493   3.408
  160TIP3    H2  445   2.981   6.376   3.312
  161TIP3   OH2  446   7.097   1.710   5.520
  161TIP3    H1  447   7.047   1.650   5.465
  161TIP3    H2  448   7.169   1.657   5.554
  162TIP3   OH2  449   1.138   5.481   0.556
  162TIP3    H1  450   1.105   5.511   0.640
  162TIP3    H2  451   1.199   5.410   0.578
  163TIP3   OH2  452   4.573   2.555   3.265
  163TIP3    H1  453   4.479   2.550   3.286
  163TIP3    H2  454   4.588   2.481   3.206
  164TIP3   OH2  455   1.274   6.311   2.628
  164TIP3    H1  456   1.202   6.334   2.569
  164TIP3    H2  457   1.310   6.231   2.591
  165TIP3   OH2  458   6.874   0.904   1.243
  165TIP3    H1  459   6.920   0.861   1.171
  165TIP3    H2  460   6.790   0.858   1.249
  166TIP3   OH2  461   5.333   2.720   4.507
  166TIP3    H1  462   5.358   2.812   4.501
  166TIP3    H2  463   5.280   2.716   4.587
  167TIP3   OH2  464   1.808   0.571   2.571
  167TIP3    H1  465   1.867   0.641   2.545
  167TIP3    H2  466   1.726   0.615   2.593
  168TIP3   OH2  467   6.016   4.777   1.564
  168TIP3    H1  468   6.055   4.821   1.640
  168TIP3    H2  469   5.947   4.837   1.536
  169TIP3   OH2  470   0.185   5.385   3.251
  169TIP3    H1  471   0.241   5.319   3.293
  169TIP3    H2  472   0.151   5.341   3.173
  170TIP3   OH2  473   1.869   6.389   4.892
  170TIP3    H1  474   1.871   6.306   4.939
  170TIP3    H2  475   1.777   6.401   4.868
  171TIP3   OH2  476   0.951   5.652   0.084
  171TIP3    H1  477   1.023   5.673   0.143
  171TIP3    H2  478   0.899   5.587   0.132
  172TIP3   OH2  479   5.020   0.370   2.498
  172TIP3    H1  480   5.114   0.386   2.494
  172TIP3    H2  481   5.010   0.306   2.568
  173TIP3   OH2  482   4.119   2.010   5.221
  173TIP3    H1  483   4.033   1.977   5.193
  173TIP3    H2  484   4.101   2.057   5.302
  174TIP3   OH2  485   5.651   2.830   2.684
  174TIP3    H1  486   5.583   2.763   2.690
  174TIP3    H2  487   5.695   2.813   2.601
  175TIP3   OH2  488   5.458   4.266   4.186
  175TIP3    H1  489   5.436   4.229   4.271
  175TIP3    H2  490   5.467   4.360   4.202
  176TIP3   OH2  491   1.251   0.416   2.397
  176TIP3    H1  492   1.316   0.360   2.355
  176TIP3    H2  493   1.285   0.431   2.485
  177TIP3   OH2  494   0.158   2.241   3.333
  177TIP3    H1  495   0.147   2.175   3.400
  177TIP3    H2  496   0.241   2.284   3.354
  178TIP3   OH2  497   6.157   4.427   3.530
  178TIP3    H1  498   6.198   4.381   3.603
  178TIP3    H2  499   6.065   4.401   3.534
  179TIP3   OH2  500   6.402   1.498   0.659
  179TIP3    H1  501   6.483   1.466   0.699
  179TIP3    H2  502   6.403   1.592   0.676
  180TIP3   OH2  503   1.981   1.132   0.410
  180TIP3    H1  504   2.075   1.118   0.395
  180TIP3    H2  505   1.974   1.224   0.437
  181TIP3   OH2  506   4.302   4.055   4.934
  181TIP3    H1  507   4.324   3.994   5.004
  181TIP3    H2  508   4.332   4.012   4.854
  182TIP3   OH2  509   5.174   4.964   3.568
  182TIP3    H1  510   5.207   4.997   3.651
  182TIP3    H2  511   5.097   4.913   3.591
  183TIP3   OH2  512   5.687   1.871   3.208
  183TIP3    H1  513   5.772   1.827   3.215
  183TIP3    H2  514   5.623   1.803   3.229
  184TIP3   OH2  515   2.900   5.250   5.354
  184TIP3    H1  516   2.994   5.250   5.370
  184TIP3    H2  517   2.878   5.341   5.335
  185TIP3   OH2  518   0.236   2.994   5.069
  185TIP3    H1  519   0.243   3.000   5.165
  185TIP3    H2  520   0.265   2.905   5.049
  186TIP3   OH2  521   1.436   0.858   0.495
  186TIP3    H1  522   1.393   0.895   0.573
  186TIP3    H2  523   1.432   0.764   0.508
  187TIP3   OH2  524   4.441   1.993   1.997
  187TIP3    H1  525   4.416   1.967   2.086
  187TIP3    H2  526   4.501   2.066   2.010
  188TIP3   OH2  527   4.201   6.530   3.341
  188TIP3    H1  528   4.143   6.544   3.416
  188TIP3    H2  529   4.142   6.501   3.271
  189TIP3   OH2  530   2.919   2.530   2.317
  189TIP3    H1  531   2.918   2.448   2.267
  189TIP3    H2  532   2.837   2.574   2.293
  190TIP3   OH2  533   0.416   0.509   4.566
  190TIP3    H1  534   0.386   0.592   4.528
  190TIP3    H2  535   0.383   0.510   4.656
  191TIP3   OH2  536   4.855   1.790   5.269
  191TIP3    H1  537   4.773   1.742   5.254
  191TIP3    H2  538   4.826   1.879   5.291
  192TIP3   OH2  539   2.308   6.427   0.603
  192TIP3    H1  540   2.325   6.473   0.521
  192TIP3    H2  541   2.286   6.496   0.665
  193TIP3   OH2  542   1.909   1.619   4.466
  193TIP3    H1  543   1.839   1.676   4.434
  193TIP3    H2  544   1.943   1.665   4.543
  194TIP3   OH2  545   3.429   3.898   3.741
  194TIP3    H1  546   3.444   3.904   3.835
  194TIP3    H2  547   3.505   3.851   3.707
  195TIP3   OH2  548   3.272   5.505   5.400
  195TIP3    H1  549   3.332   5.541   5.465
  195TIP3    H2  550   3.216   5.578   5.375
  196TIP3   OH2  551   5.435   5.527   0.771
  196TIP3    H1  552   5.468   5.527   0.861
  196TIP3    H2  553   5.437   5.435   0.744
  197TIP3   OH2  554   0.260   6.520   1.667
  197TIP3    H1  555   0.207   6.440   1.666
  197TIP3    H2  556   0.197   6.590   1.653
  198TIP3   OH2  557   2.166   4.892   0.480
  198TIP3    H1  558   2.230   4.824   0.499
  198TIP3    H2  559   2.087   4.844   0.453
  199TIP3   OH2  560   3.106   2.028   3.039
  199TIP3    H1  561   3.126   1.937   3.062
  199TIP3    H2  562   3.140   2.079   3.113
  200TIP3   OH2  563   6.246   6.352   2.326
  200TIP3    H1  564   6.293   6.303   2.394
  200TIP3    H2  565   6.208   6.286   2.269
  201TIP3   OH2  566   6.116   2.075   2.967
  201TIP3    H1  567   6.116   2.167   2.995
  201TIP3    H2  568   6.044   2.069   2.904
  202TIP3   OH2  569   2.757   4.697   2.263
  202TIP3    H1  570   2.806   4.753   2.324
  202TIP3    H2  571   2.666   4.713   2.285
  203TIP3   OH2  572   2.198   6.369   3.808
  203TIP3    H1  573   2.238   6.336   3.728
  203TIP3    H2  574   2.223   6.306   3.875
  204TIP3   OH2  575   1.801   3.502   3.249
  204TIP3    H1  576   1.831   3.427   3.198
  204TIP3    H2  577   1.879   3.530   3.298
  205TIP3   OH2  578   0.380   3.970   5.737
  205TIP3    H1  579   0.360   3.919   5.658
  205TIP3    H2  580   0.315   4.040   5.737
  206TIP3   OH2  581   0.870   2.825   4.311
  206TIP3    H1  582   0.914   2.775   4.242
  206TIP3    H2  583   0.830   2.759   4.367
  207TIP3   OH2  584   0.530   3.001   3.421
  207TIP3    H1  585   0.436   3.001   3.436
  207TIP3    H2  586   0.558   3.091   3.439
  208TIP3   OH2  587   2.848   1.108   2.234
  208TIP3    H1  588   2.811   1.093   2.321
  208TIP3    H2  589   2.939   1.131   2.250
  209TIP3   OH2  590   4.735   3.315   0.615
  209TIP3    H1  591   4.729   3.390   0.674
  209TIP3    H2  592   4.693   3.244   0.663
  210TIP3   OH2  593   4.599   0.901   5.705
  210TIP3    H1  594   4.531   0.938   5.649
  210TIP3    H2  595   4.556   0.829   5.750
  211TIP3   OH2  596   6.976   3.803   0.678
  211TIP3    H1  597   6.914   3.808   0.750
  211TIP3    H2  598   7.004   3.711   0.676
  212TIP3   OH2  599   4.929   4.545   3.415
  212TIP3    H1  600   4.961   4.615   3.358
  212TIP3    H2  601   4.989   4.472   3.400
  213TIP3   OH2  602   1.552   5.907   1.241
  213TIP3    H1  603   1.513   5.989   1.271
  213TIP3    H2  604   1.589   5.928   1.155
  214TIP3   OH2  605   3.749   1.682   0.725
  214TIP3    H1  606   3.838   1.676   0.690
  214TIP3    H2  607   3.746   1.614   0.793
  215TIP3   OH2  608   6.608   3.475   3.028
  215TIP3    H1  609   6.654   3.391   3.036
  215TIP3    H2  610   6.569   3.473   2.941
  216TIP3   OH2  611   6.892   0.881   3.888
  216TIP3    H1  612   6.935   0.895   3.973
  216TIP3    H2  613   6.955   0.912   3.823
  217TIP3   OH2  614   7.213   6.580   0.819
  217TIP3    H1  615   7.136   6.524   0.825
  217TIP3    H2  616   7.185   6.654   0.765
  218TIP3   OH2  617   2.429   4.530   5.623
  218TIP3    H1  618   2.474   4.478   5.690
  218TIP3    H2  619   2.499   4.563   5.566
  219TIP3   OH2  620   6.503   2.546   4.841
  219TIP3    H1  621   6.442   2.487   4.884
  219TIP3    H2  622   6.450   2.591   4.774
  220TIP3   OH2  623   0.580   4.549   2.213
  220TIP3    H1  624   0.503   4.552   2.270
  220TIP3    H2  625   0.573   4.465   2.168
  221TIP3   OH2  626   0.369   6.147   0.835
  221TIP3    H1  627   0.376   6.108   0.923
  221TIP3    H2  628   0.435   6.215   0.834
  222TIP3   OH2  629   3.954   0.912   3.591
  222TIP3    H1  630   4.046   0.922   3.567
  222TIP3    H2  631   3.948   0.826   3.632
  223TIP3   OH2  632   4.472   5.688   5.583
  223TIP3    H1  633   4.553   5.739   5.580
  223TIP3    H2  634   4.491   5.609   5.533
  224TIP3   OH2  635   0.242   3.857   2.864
  224TIP3    H1  636   0.187   3.817   2.931
  224TIP3    H2  637   0.272   3.783   2.811
  225TIP3   OH2  638   2.207   0.875   2.334
  225TIP3    H1  639   2.258   0.803   2.372
  225TIP3    H2  640   2.190   0.933   2.408
  226TIP3   OH2  641   2.791   4.785   2.653
  226TIP3    H1  642   2.879   4.753   2.632
  226TIP3    H2  643   2.732   4.723   2.609
  227TIP3   OH2  644   1.726   0.331   5.094
  227TIP3    H1  645   1.734   0.381   5.012
  227TIP3    H2  646   1.759   0.244   5.072
  228TIP3   OH2  647   4.599   5.518   4.996
  228TIP3    H1  648   4.563   5.444   4.948
  228TIP3    H2  649   4.609   5.587   4.931
  229TIP3   OH2  650   3.459   5.980   0.679
  229TIP3    H1  651   3.487   5.889   0.688
  229TIP3    H2  652   3.479   6.020   0.763
  230TIP3   OH2  653   5.376   2.872   3.376
  230TIP3    H1  654   5.327   2.951   3.401
  230TIP3    H2  655   5.448   2.905   3.322
  231TIP3   OH2  656   4.873   2.455   4.692
  231TIP3    H1  657   4.964   2.462   4.663
  231TIP3    H2  658   4.859   2.536   4.742
  232TIP3   OH2  659   6.290   5.645   0.424
  232TIP3    H1  660   6.232   5.708   0.382
  232TIP3    H2  661   6.334   5.695   0.493
  233TIP3   OH2  662   2.104   0.120   3.869
  233TIP3    H1  663   2.060   0.101   3.951
  233TIP3    H2  664   2.089   0.214   3.855
  234TIP3   OH2  665   4.603   3.769   0.086
  234TIP3    H1  666   4.633   3.690   0.131
  234TIP3    H2  667   4.564   3.822   0.155
  235TIP3   OH2  668   4.217   5.287   0.944
  235TIP3    H1  669   4.229   5.382   0.932
  235TIP3    H2  670   4.136   5.280   0.996
  236TIP3   OH2  671   3.761   4.614   3.924
  236TIP3    H1  672   3.781   4.701   3.890
  236TIP3    H2  673   3.731   4.630   4.014
  237TIP3   OH2  674   7.096   2.566   1.421
  237TIP3    H1  675   7.174   2.558   1.365
  237TIP3    H2  676   7.080   2.477   1.452
  238TIP3   OH2  677   1.998   2.030   3.844
  238TIP3    H1  678   1.972   2.053   3.755
  238TIP3    H2  679   1.932   1.967   3.873
  239TIP3   OH2  680   3.581   2.028   0.381
  239TIP3    H1  681   3.494   2.067   0.379
  239TIP3    H2  682   3.587   1.987   0.467
  240TIP3   OH2  683   4.796   5.253   0.146
  240TIP3    H1  684   4.885   5.252   0.183
  240TIP3    H2  685   4.756   5.331   0.182
  241TIP3   OH2  686   3.777   0.221   2.389
  241TIP3    H1  687   3.744   0.302   2.352
  241TIP3    H2  688   3.766   0.156   2.319
  242TIP3   OH2  689   5.234   3.544   2.674
  242TIP3    H1  690   5.171   3.499   2.618
  242TIP3    H2  691   5.316   3.539   2.625
  243TIP3   OH2  692   3.452   4.994   0.948
  243TIP3    H1  693   3.476   5.048   0.873
  243TIP3    H2  694   3.379   5.040   0.988
  244TIP3   OH2  695   0.800   3.174   0.276
  244TIP3    H1  696   0.869   3.167   0.342
  244TIP3    H2  697   0.719   3.152   0.323
  245TIP3   OH2  698   4.948   6.113   3.328
  245TIP3    H1  699   4.861   6.075   3.332
  245TIP3    H2  700   5.007   6.039   3.342
  246TIP3   OH2  701   5.929   4.575   0.488
  246TIP3    H1  702   5.851   4.615   0.528
  246TIP3    H2  703   5.972   4.530   0.560
  247TIP3   OH2  704   0.701   5.035   4.631
  247TIP3    H1  705   0.736   5.120   4.658
  247TIP3    H2  706   0.606   5.046   4.631
  248TIP3   OH2  707   3.940   4.620   0.577
  248TIP3    H1  708   3.884   4.545   0.556
  248TIP3    H2  709   4.018   4.581   0.617
  249TIP3   OH2  710   0.865   3.947   4.996
  249TIP3    H1  711   0.957   3.927   4.981
  249TIP3    H2  712   0.838   3.885   5.064
  250TIP3   OH2  713   2.760   6.471   1.704
  250TIP3    H1  714   2.695   6.404   1.683
  250TIP3    H2  715   2.838   6.446   1.654
  251TIP3   OH2  716   5.517   2.372   5.402
  251TIP3    H1  717   5.515   2.299   5.463
  251TIP3    H2  718   5.565   2.441   5.448
  252TIP3   OH2  719   7.045   3.379   1.878
  252TIP3    H1  720   7.029   3.426   1.960
  252TIP3    H2  721   7.124   3.418   1.842
  253TIP3   OH2  722   1.987   4.298   5.450
  253TIP3    H1  723   2.031   4.379   5.473
  253TIP3    H2  724   2.002   4.240   5.524
  254TIP3   OH2  725   4.168   0.958   2.460
  254TIP3    H1  726   4.154   0.962   2.366
  254TIP3    H2  727   4.262   0.944   2.470
  255TIP3   OH2  728   0.717   1.209   1.340
  255TIP3    H1  729   0.743   1.282   1.396
  255TIP3    H2  730   0.651   1.246   1.281
  256TIP3   OH2  731   2.706   1.977   5.432
  256TIP3    H1  732   2.790   1.939   5.455
  256TIP3    H2  733   2.646   1.903   5.427
  257TIP3   OH2  734   4.156   6.059   0.936
  257TIP3    H1  735   4.135   6.065   1.029
  257TIP3    H2  736   4.090   6.114   0.893
  258TIP3   OH2  737   1.966   5.767   3.408
  258TIP3    H1  738   2.015   5.836   3.453
  258TIP3    H2  739   2.034   5.710   3.371
  259TIP3   OH2  740   2.825   2.172   4.296
  259TIP3    H1  741   2.826   2.080   4.269
  259TIP3    H2  742   2.851   2.221   4.218
  260TIP3   OH2  743   6.832   3.006   5.716
  260TIP3    H1  744   6.783   2.925   5.725
  260TIP3    H2  745   6.924   2.978   5.716
  261TIP3   OH2  746   4.643   5.038   5.852
  261TIP3    H1  747   4.663   4.958   5.803
  261TIP3    H2  748   4.548   5.044   5.852
  262TIP3   OH2  749   0.375   3.265   1.426
  262TIP3    H1  750   0.303   3.324   1.449
  262TIP3    H2  751   0.436   3.320   1.376
  263TIP3   OH2  752   5.724   6.380   4.645
  263TIP3    H1  753   5.700   6.290   4.667
  263TIP3    H2  754   5.753   6.375   4.554
  264TIP3   OH2  755   5.973   6.444   5.850
  264TIP3    H1  756   6.012   6.453   5.763
  264TIP3    H2  757   5.896   6.388   5.836
  265TIP3   OH2  758   2.866   5.062   0.135
  265TIP3    H1  759   2.860   5.045   0.041
  265TIP3    H2  760   2.902   5.151   0.142
  266TIP3   OH2  761   6.450   5.284   0.242
  266TIP3    H1  762   6.501   5.316   0.316
  266TIP3    H2  763   6.372   5.244   0.282
  267TIP3   OH2  764   2.201   4.183   2.917
  267TIP3    H1  765   2.297   4.175   2.915
  267TIP3    H2  766   2.180   4.233   2.839
  268TIP3   OH2  767   5.329   0.226   3.849
  268TIP3    H1  768   5.268   0.158   3.877
  268TIP3    H2  769   5.308   0.239   3.756
  269TIP3   OH2  770   2.012   3.474   3.542
  269TIP3    H1  771   2.004   3.394   3.491
  269TIP3    H2  772   2.080   3.524   3.498
  270TIP3   OH2  773   5.280   4.682   2.702
  270TIP3    H1  774   5.265   4.608   2.762
  270TIP3    H2  775   5.211   4.744   2.723
  271TIP3   OH2  776   4.343   2.947   3.825
  271TIP3    H1  777   4.331   2.944   3.730
  271TIP3    H2  778   4.408   2.880   3.844
  272TIP3   OH2  779   2.751   2.111   1.728
  272TIP3    H1  780   2.707   2.029   1.748
  272TIP3    H2  781   2.838   2.086   1.699
  273TIP3   OH2  782   3.723   0.320   1.003
  273TIP3    H1  783   3.815   0.333   0.977
  273TIP3    H2  784   3.693   0.406   1.030
  274TIP3   OH2  785   3.979   4.932   2.823
  274TIP3    H1  786   3.904   4.883   2.855
  274TIP3    H2  787   3.943   5.018   2.800
  275TIP3   OH2  788   6.162   4.443   4.468
  275TIP3    H1  789   6.153   4.494   4.388
  275TIP3    H2  790   6.216   4.369   4.443
  276TIP3   OH2  791   0.625   2.201   0.582
  276TIP3    H1  792   0.640   2.273   0.520
  276TIP3    H2  793   0.712   2.164   0.597
  277TIP3   OH2  794   6.781   6.428   4.834
  277TIP3    H1  795   6.815   6.339   4.835
  277TIP3    H2  796   6.700   6.424   4.885
  278TIP3   OH2  797   2.806   2.806   1.578
  278TIP3    H1  798   2.794   2.730   1.635
  278TIP3    H2  799   2.897   2.800   1.549
  279TIP3   OH2  800   0.652   3.161   3.711
  279TIP3    H1  801   0.655   3.162   3.806
  279TIP3    H2  802   0.733   3.119   3.683
  280TIP3   OH2  803   1.083   2.774   0.644
  280TIP3    H1  804   1.086   2.856   0.693
  280TIP3    H2  805   0.991   2.747   0.649
  281TIP3   OH2  806   3.661   5.029   2.473
  281TIP3    H1  807   3.637   5.122   2.482
  281TIP3    H2  808   3.756   5.029   2.469
  282TIP3   OH2  809   0.765   3.182   2.672
  282TIP3    H1  810   0.764   3.278   2.675
  282TIP3    H2  811   0.850   3.157   2.707
  283TIP3   OH2  812   2.432   0.477   5.022
  283TIP3    H1  813   2.432   0.441   4.933
  283TIP3    H2  814   2.482   0.413   5.074
  284TIP3   OH2  815   4.510   3.110   2.404
  284TIP3    H1  816   4.460   3.141   2.328
  284TIP3    H2  817   4.569   3.183   2.425
  285TIP3   OH2  818   7.112   1.991   3.407
  285TIP3    H1  819   7.205   1.991   3.432
  285TIP3    H2  820   7.096   2.080   3.374
  286TIP3   OH2  821   0.991   2.347   3.787
  286TIP3    H1  822   1.043   2.417   3.748
  286TIP3    H2  823   1.055   2.284   3.818
  287TIP3   OH2  824   3.106   4.016   1.645
  287TIP3    H1  825   3.151   3.971   1.717
  287TIP3    H2  826   3.159   4.094   1.630
  288TIP3   OH2  827   4.571   3.067   1.186
  288TIP3    H1  828   4.640   3.105   1.240
  288TIP3    H2  829   4.533   2.998   1.240
  289TIP3   OH2  830   1.536   5.634   3.136
  289TIP3    H1  831   1.604   5.668   3.079
  289TIP3    H2  832   1.457   5.681   3.111
  290TIP3   OH2  833   4.123   5.100   4.380
  290TIP3    H1  834   4.185   5.074   4.312
  290TIP3    H2  835   4.125   5.027   4.442
  291TIP3   OH2  836   0.826   2.665   4.542
  291TIP3    H1  837   0.905   2.659   4.596
  291TIP3    H2  838   0.804   2.574   4.523
  292TIP3   OH2  839   6.102   4.981   2.961
  292TIP3    H1  840   6.048   5.060   2.953
  292TIP3    H2  841   6.192   5.013   2.966
  293TIP3   OH2  842   1.004   3.052   3.951
  293TIP3    H1  843   1.022   2.964   3.983
  293TIP3    H2  844   1.058   3.109   4.005
  294TIP3   OH2  845   4.343   2.237   3.946
  294TIP3    H1  846   4.346   2.252   3.852
  294TIP3    H2  847   4.327   2.323   3.984
  295TIP3   OH2  848   3.766   4.765   2.772
  295TIP3    H1  849   3.739   4.681   2.734
  295TIP3    H2  850   3.685   4.817   2.774
  296TIP3   OH2  851   3.547   2.927   4.177
  296TIP3    H1  852   3.573   2.842   4.140
  296TIP3    H2  853   3.548   2.987   4.102
  297TIP3   OH2  854   3.869   4.882   0.569
  297TIP3    H1  855   3.940   4.937   0.535
  297TIP3    H2  856   3.909   4.796   0.582
  298TIP3   OH2  857   0.712   3.260   2.328
  298TIP3    H1  858   0.741   3.284   2.240
  298TIP3    H2  859   0.787   3.280   2.384
  299TIP3   OH2  860   3.807   6.521   4.830
  299TIP3    H1  861   3.830   6.440   4.876
  299TIP3    H2  862   3.857   6.589   4.875
  300TIP3   OH2  863   5.138   0.304   5.131
  300TIP3    H1  864   5.146   0.209   5.140
  300TIP3    H2  865   5.129   0.318   5.036
  301TIP3   OH2  866   6.000   6.421   4.108
  301TIP3    H1  867   6.044   6.426   4.023
  301TIP3    H2  868   5.937   6.350   4.098
  302TIP3   OH2  869   4.565   3.833   4.860
  302TIP3    H1  870   4.620   3.755   4.868
  302TIP3    H2  871   4.482   3.800   4.824
  303TIP3   OH2  872   6.284   3.669   2.904
  303TIP3    H1  873   6.255   3.739   2.962
  303TIP3    H2  874   6.235   3.592   2.933
  304TIP3   OH2  875   3.178   4.506   4.173
  304TIP3    H1  876   3.089   4.472   4.164
  304TIP3    H2  877   3.222   4.480   4.092
  305TIP3   OH2  878   5.609   1.772   4.831
  305TIP3    H1  879   5.591   1.720   4.910
  305TIP3    H2  880   5.523   1.789   4.794
  306TIP3   OH2  881   4.239   1.411   5.193
  306TIP3    H1  882   4.299   1.429   5.266
  306TIP3    H2  883   4.290   1.356   5.134
  307TIP3   OH2  884   6.406   6.192   1.635
  307TIP3    H1  885   6.383   6.266   1.578
  307TIP3    H2  886   6.496   6.171   1.611
  308TIP3   OH2  887   6.952   2.209   0.751
  308TIP3    H1  888   6.879   2.268   0.769
  308TIP3    H2  889   7.030   2.259   0.773
  309TIP3   OH2  890   5.043   2.529   3.597
  309TIP3    H1  891   5.052   2.614   3.554
  309TIP3    H2  892   4.958   2.535   3.642
  310TIP3   OH2  893   0.042   4.931   2.148
  310TIP3    H1  894   0.020   5.022   2.166
  310TIP3    H2  895   0.117   4.936   2.089
  311TIP3   OH2  896   1.030   6.792   4.934
  311TIP3    H1  897   1.009   6.711   4.981
  311TIP3    H2  898   0.986   6.783   4.850
  312TIP3   OH2  899   3.510   4.522   5.219
  312TIP3    H1  900   3.418   4.538   5.199
  312TIP3    H2  901   3.550   4.500   5.135
  313TIP3   OH2  902   6.405   2.078   2.506
  313TIP3    H1  903   6.500   2.070   2.512
  313TIP3    H2  904   6.385   2.059   2.414
  314TIP3   OH2  905   2.137   0.459   1.814
  314TIP3    H1  906   2.145   0.374   1.856
  314TIP3    H2  907   2.170   0.444   1.725
  315TIP3   OH2  908   6.041   1.709   3.016
  315TIP3    H1  909   6.109   1.753   3.066
  315TIP3    H2  910   6.005   1.776   2.959
  316TIP3   OH2  911   5.373   1.103   2.261
  316TIP3    H1  912   5.331   1.040   2.319
  316TIP3    H2  913   5.415   1.166   2.319
  317TIP3   OH2  914   1.493   1.127   2.935
  317TIP3    H1  915   1.569   1.077   2.963
  317TIP3    H2  916   1.441   1.139   3.014
  318TIP3   OH2  917   5.433   4.157   3.019
  318TIP3    H1  918   5.352   4.154   3.069
  318TIP3    H2  919   5.471   4.243   3.039
  319TIP3   OH2  920   3.075   4.417   1.938
  319TIP3    H1  921   3.000   4.397   1.883
  319TIP3    H2  922   3.085   4.512   1.930
  320TIP3   OH2  923   3.187   0.598   3.296
  320TIP3    H1  924   3.160   0.539   3.366
  320TIP3    H2  925   3.239   0.543   3.237
  321TIP3   OH2  926   3.237   1.646   2.203
  321TIP3    H1  927   3.199   1.726   2.166
  321TIP3    H2  928   3.163   1.603   2.246
  322TIP3   OH2  929   3.897   2.270   5.142
  322TIP3    H1  930   3.850   2.216   5.205
  322TIP3    H2  931   3.830   2.328   5.105
  323TIP3   OH2  932   3.803   4.452   5.443
  323TIP3    H1  933   3.883   4.413   5.407
  323TIP3    H2  934   3.733   4.417   5.389
  324TIP3   OH2  935   5.458   0.959   4.211
  324TIP3    H1  936   5.414   1.042   4.226
  324TIP3    H2  937   5.541   0.967   4.256
  325TIP3   OH2  938   1.363   0.729   0.876
  325TIP3    H1  939   1.403   0.778   0.948
  325TIP3    H2  940   1.436   0.680   0.838
  326TIP3   OH2  941   3.021   0.078   4.123
  326TIP3    H1  942   3.092   0.031   4.080
  326TIP3    H2  943   2.960   0.100   4.052
  327TIP3   OH2  944   4.740   4.345   4.846
  327TIP3    H1  945   4.754   4.251   4.832
  327TIP3    H2  946   4.785   4.387   4.774
  328TIP3   OH2  947   3.434   6.279   5.158
  328TIP3    H1  948   3.463   6.279   5.067
  328TIP3    H2  949   3.453   6.190   5.189
  329TIP3   OH2  950   2.526   0.306   0.563
  329TIP3    H1  951   2.536   0.298   0.658
  329TIP3    H2  952   2.586   0.241   0.527
  330TIP3   OH2  953   4.514   5.967   2.138
  330TIP3    H1  954   4.422   5.968   2.162
  330TIP3    H2  955   4.533   6.056   2.109
  331TIP3   OH2  956   1.894   3.895   0.410
  331TIP3    H1  957   1.831   3.966   0.422
  331TIP3    H2  958   1.932   3.883   0.497
  332TIP3   OH2  959   3.986   2.061   3.533
  332TIP3    H1  960   3.991   2.047   3.627
  332TIP3    H2  961   3.895   2.044   3.510
  333TIP3   OH2  962   0.216   6.693   5.428
  333TIP3    H1  963   0.227   6.775   5.476
  333TIP3    H2  964   0.133   6.658   5.460
  334TIP3   OH2  965   0.918   2.828   2.137
  334TIP3    H1  966   0.963   2.780   2.067
  334TIP3    H2  967   0.901   2.762   2.204
  335TIP3   OH2  968   1.661   3.182   4.600
  335TIP3    H1  969   1.717   3.207   4.674
  335TIP3    H2  970   1.688   3.093   4.579
  336TIP3   OH2  971   7.232   1.994   2.987
  336TIP3    H1  972   7.229   1.909   2.944
  336TIP3    H2  973   7.264   2.054   2.919
  337TIP3   OH2  974   2.678   0.574   3.917
  337TIP3    H1  975   2.664   0.498   3.860
  337TIP3    H2  976   2.703   0.644   3.857
  338TIP3   OH2  977   7.016   6.632   4.825
  338TIP3    H1  978   6.964   6.583   4.761
  338TIP3    H2  979   7.072   6.566   4.866
  339TIP3   OH2  980   1.987   1.041   5.158
  339TIP3    H1  981   1.990   1.052   5.253
  339TIP3    H2  982   2.002   1.129   5.123
  340TIP3   OH2  983   2.542   4.049   4.014
  340TIP3    H1  984   2.480   4.074   4.083
  340TIP3    H2  985   2.516   4.101   3.938
  341TIP3   OH2  986   3.631   4.190   2.724
  341TIP3    H1  987   3.629   4.280   2.755
  341TIP3    H2  988   3.659   4.139   2.801
  342TIP3   OH2  989   0.794   4.398   0.583
  342TIP3    H1  990   0.880   4.430   0.608
  342TIP3    H2  991   0.810   4.310   0.549
  343TIP3   OH2  992   6.899   5.157   4.994
  343TIP3    H1  993   6.884   5.151   4.899
  343TIP3    H2  994   6.813   5.141   5.033
  344TIP3   OH2  995   1.201   5.383   2.826
  344TIP3    H1  996   1.208   5.300   2.779
  344TIP3    H2  997   1.170   5.359   2.913
  345TIP3   OH2  998   4.478   4.935   3.568
  345TIP3    H1  999   4.523   4.903   3.646
  345TIP3    H2 1000   4.472   4.859   3.511
  346TIP3   OH2 1001   4.116   3.793   2.737
  346TIP3    H1 1002   4.033   3.814   2.780
  346TIP3    H2 1003   4.169   3.752   2.805
  347TIP3   OH2 1004   5.217   5.029   4.399
  347TIP3    H1 1005   5.139   4.974   4.393
  347TIP3    H2 1006   5.201   5.100   4.337
  348TIP3   OH2 1007   2.402   5.745   5.402
  348TIP3    H1 1008   2.496   5.757   5.418
  348TIP3    H2 1009   2.392   5.760   5.308
  349TIP3   OH2 1010   3.975   2.325   3.372
  349TIP3    H1 1011   4.031   2.273   3.430
  349TIP3    H2 1012   4.023   2.331   3.290
  350TIP3   OH2 1013   5.669   2.903   0.025
  350TIP3    H1 1014   5.646   2.831   0.084
  350TIP3    H2 1015   5.739   2.867  -0.030
  351TIP3   OH2 1016   5.661   6.266   2.259
  351TIP3    H1 1017   5.727   6.282   2.326
  351TIP3    H2 1018   5.686   6.323   2.186
  352TIP3   OH2 1019   4.306   1.079   1.544
  352TIP3    H1 1020   4.231   1.137   1.531
  352TIP3    H2 1021   4.279   0.995   1.509
  353TIP3   OH2 1022   2.598   6.037   5.579
  353TIP3    H1 1023   2.552   6.034   5.662
  353TIP3    H2 1024   2.687   6.009   5.600
  354TIP3   OH2 1025   7.105   4.102   0.071
  354TIP3    H1 1026   7.072   4.184   0.107
  354TIP3    H2 1027   7.042   4.036   0.099
  355TIP3   OH2 1028   4.772   1.489   3.915
  355TIP3    H1 1029   4.686   1.471   3.878
  355TIP3    H2 1030   4.829   1.502   3.839
  356TIP3   OH2 1031   4.887   0.804   4.346
  356TIP3    H1 1032   4.836   0.751   4.407
  356TIP3    H2 1033   4.969   0.820   4.391
  357TIP3   OH2 1034   3.870   0.306   5.033
  357TIP3    H1 1035   3.854   0.295   5.127
  357TIP3    H2 1036   3.881   0.401   5.021
  358TIP3   OH2 1037   2.477   1.402   3.382
  358TIP3    H1 1038   2.489   1.325   3.438
  358TIP3    H2 1039   2.427   1.463   3.436
  359TIP3   OH2 1040   2.476   5.286   3.174
  359TIP3    H1 1041   2.463   5.249   3.261
  359TIP3    H2 1042   2.531   5.222   3.128
  360TIP3   OH2 1043   1.719   5.572   3.959
  360TIP3    H1 1044   1.793   5.543   4.011
  360TIP3    H2 1045   1.742   5.549   3.869
  361TIP3   OH2 1046   6.666   6.168   2.497
  361TIP3    H1 1047   6.747   6.189   2.544
  361TIP3    H2 1048   6.641   6.082   2.530
  362TIP3   OH2 1049   5.721   2.644   0.094
  362TIP3    H1 1050   5.642   2.594   0.073
  362TIP3    H2 1051   5.742   2.618   0.184
  363TIP3   OH2 1052   6.726   3.242   3.028
  363TIP3    H1 1053   6.688   3.187   2.959
  363TIP3    H2 1054   6.817   3.215   3.033
  364TIP3   OH2 1055   6.763   4.290   0.703
  364TIP3    H1 1056   6.721   4.309   0.619
  364TIP3    H2 1057   6.765   4.194   0.707
  365TIP3   OH2 1058   6.712   3.794   4.369
  365TIP3    H1 1059   6.748   3.857   4.307
  365TIP3    H2 1060   6.721   3.709   4.326
  366TIP3   OH2 1061   5.257   2.353   3.007
  366TIP3    H1 1062   5.315   2.332   2.933
  366TIP3    H2 1063   5.260   2.448   3.014
  367TIP3   OH2 1064   5.262   5.881   0.869
  367TIP3    H1 1065   5.218   5.965   0.863
  367TIP3    H2 1066   5.327   5.892   0.938
  368TIP3   OH2 1067   1.112   1.945   1.821
  368TIP3    H1 1068   1.118   1.884   1.748
  368TIP3    H2 1069   1.137   2.029   1.784
  369TIP3   OH2 1070   5.472   5.253   0.668
  369TIP3    H1 1071   5.538   5.204   0.717
  369TIP3    H2 1072   5.460   5.204   0.587
  370TIP3   OH2 1073   1.488   5.538   0.032
  370TIP3    H1 1074   1.483   5.617  -0.022
  370TIP3    H2 1075   1.567   5.493   0.002
  371TIP3   OH2 1076   7.193   5.987   1.609
  371TIP3    H1 1077   7.278   5.946   1.625
  371TIP3    H2 1078   7.140   5.919   1.567
  372TIP3   OH2 1079   5.183   6.471   1.134
  372TIP3    H1 1080   5.103   6.464   1.081
  372TIP3    H2 1081   5.243   6.522   1.079
  373TIP3   OH2 1082   3.451   3.892   5.288
  373TIP3    H1 1083   3.445   3.823   5.354
  373TIP3    H2 1084   3.421   3.971   5.333
  374TIP3   OH2 1085   0.165   6.459   1.338
  374TIP3    H1 1086   0.104   6.480   1.268
  374TIP3    H2 1087   0.117   6.397   1.394
  375TIP3   OH2 1088   1.406   3.112   3.859
  375TIP3    H1 1089   1.480   3.052   3.846
  375TIP3    H2 1090   1.385   3.105   3.952
  376TIP3   OH2 1091   3.985   5.375   5.150
  376TIP3    H1 1092   3.988   5.455   5.202
  376TIP3    H2 1093   4.033   5.397   5.070
  377TIP3   OH2 1094   2.496   1.383   3.856
  377TIP3    H1 1095   2.458   1.469   3.836
  377TIP3    H2 1096   2.582   1.404   3.894
  378TIP3   OH2 1097   6.100   6.550   4.501
  378TIP3    H1 1098   6.108   6.459   4.528
  378TIP3    H2 1099   6.021   6.582   4.545
  379TIP3   OH2 1100   5.644   3.354   0.062
  379TIP3    H1 1101   5.719   3.370   0.005
  379TIP3    H2 1102   5.680   3.361   0.151
  380TIP3   OH2 1103   3.829   1.278   0.318
  380TIP3    H1 1104   3.832   1.325   0.235
  380TIP3    H2 1105   3.911   1.302   0.363
  381TIP3   OH2 1106   6.123   2.922   1.157
  381TIP3    H1 1107   6.105   2.971   1.077
  381TIP3    H2 1108   6.090   2.834   1.139
  382TIP3   OH2 1109   0.705   1.832   4.267
  382TIP3    H1 1110   0.720   1.908   4.210
  382TIP3    H2 1111   0.615   1.843   4.297
  383TIP3   OH2 1112   5.441   0.947   1.584
  383TIP3    H1 1113   5.429   0.865   1.536
  383TIP3    H2 1114   5.536   0.953   1.598
  384TIP3   OH2 1115   4.217   5.892   4.584
  384TIP3    H1 1116   4.281   5.885   4.513
  384TIP3    H2 1117   4.199   5.986   4.590
  385TIP3   OH2 1118   3.541   1.310   5.734
  385TIP3    H1 1119   3.593   1.264   5.668
  385TIP3    H2 1120   3.452   1.277   5.722
  386TIP3   OH2 1121   1.775   3.844   4.829
  386TIP3    H1 1122   1.817   3.759   4.844
  386TIP3    H2 1123   1.848   3.907   4.829
  387TIP3   OH2 1124   5.196   0.647   3.389
  387TIP3    H1 1125   5.175   0.660   3.482
  387TIP3    H2 1126   5.110   0.643   3.346
  388TIP3   OH2 1127   3.017   1.319   2.553
  388TIP3    H1 1128   3.096   1.269   2.531
  388TIP3    H2 1129   3.024   1.335   2.648
  389TIP3   OH2 1130   1.277   1.470   3.987
  389TIP3    H1 1131   1.196   1.441   3.947
  389TIP3    H2 1132   1.323   1.517   3.917
  390TIP3   OH2 1133   0.932   6.015   4.921
  390TIP3    H1 1134   0.992   6.006   4.994
  390TIP3    H2 1135   0.937   5.932   4.875
  391TIP3   OH2 1136   7.053   1.957   0.584
  391TIP3    H1 1137   7.017   2.027   0.639
  391TIP3    H2 1138   7.148   1.973   0.585
  392TIP3   OH2 1139   4.265   4.804   0.154
  392TIP3    H1 1140   4.295   4.864   0.086
  392TIP3    H2 1141   4.200   4.749   0.111
  393TIP3   OH2 1142   7.166   5.259   1.799
  393TIP3    H1 1143   7.117   5.212   1.866
  393TIP3    H2 1144   7.195   5.340   1.842
  394TIP3   OH2 1145   1.825   3.184   3.827
  394TIP3    H1 1146   1.867   3.241   3.892
  394TIP3    H2 1147   1.782   3.244   3.766
  395TIP3   OH2 1148   0.618   3.981   0.414
  395TIP3    H1 1149   0.527   3.968   0.439
  395TIP3    H2 1150   0.618   3.972   0.319
  396TIP3   OH2 1151   2.058   0.756   3.651
  396TIP3    H1 1152   2.126   0.781   3.588
  396TIP3    H2 1153   2.061   0.825   3.717
  397TIP3   OH2 1154   6.121   2.517   1.435
  397TIP3    H1 1155   6.120   2.512   1.531
  397TIP3    H2 1156   6.090   2.606   1.416
  398TIP3   OH2 1157   4.086   1.265   5.369
  398TIP3    H1 1158   4.177   1.237   5.385
  398TIP3    H2 1159   4.092   1.321   5.291
  399TIP3   OH2 1160   3.373   6.335   4.615
  399TIP3    H1 1161   3.370   6.267   4.547
  399TIP3    H2 1162   3.453   6.384   4.596
  400TIP3   OH2 1163   0.904   3.338   4.229
  400TIP3    H1 1164   0.867   3.250   4.232
  400TIP3    H2 1165   0.870   3.381   4.307
  401TIP3   OH2 1166   0.411   3.496   5.528
  401TIP3    H1 1167   0.364   3.448   5.460
  401TIP3    H2 1168   0.347   3.559   5.561
  402TIP3   OH2 1169   4.861   0.714   3.856
  402TIP3    H1 1170   4.883   0.758   3.938
  402TIP3    H2 1171   4.904   0.765   3.789
  403TIP3   OH2 1172   0.356   4.195   5.480
  403TIP3    H1 1173   0.265   4.210   5.504
  403TIP3    H2 1174   0.361   4.101   5.462
  404TIP3   OH2 1175   6.327   3.364   3.251
  404TIP3    H1 1176   6.360   3.403   3.170
  404TIP3    H2 1177   6.242   3.404   3.264
  405TIP3   OH2 1178   1.579   1.737   0.875
  405TIP3    H1 1179   1.526   1.669   0.835
  405TIP3    H2 1180   1.638   1.690   0.934
  406TIP3   OH2 1181   2.493   1.651   3.173
  406TIP3    H1 1182   2.496   1.558   3.194
  406TIP3    H2 1183   2.516   1.695   3.256
  407TIP3   OH2 1184   6.789   5.457   1.577
  407TIP3    H1 1185   6.753   5.430   1.493
  407TIP3    H2 1186   6.790   5.553   1.574
  408TIP3   OH2 1187   3.240   4.587   1.563
  408TIP3    H1 1188   3.306   4.518   1.571
  408TIP3    H2 1189   3.188   4.580   1.644
  409TIP3   OH2 1190   1.228   0.824   0.141
  409TIP3    H1 1191   1.226   0.914   0.172
  409TIP3    H2 1192   1.136   0.800   0.130
  410TIP3   OH2 1193   2.620   5.084   2.087
  410TIP3    H1 1194   2.611   5.084   2.182
  410TIP3    H2 1195   2.590   5.171   2.060
  411TIP3   OH2 1196   1.141   2.318   5.458
  411TIP3    H1 1197   1.152   2.271   5.375
  411TIP3    H2 1198   1.206   2.389   5.454
  412TIP3   OH2 1199   3.869   6.819   4.613
  412TIP3    H1 1200   3.897   6.730   4.633
  412TIP3    H2 1201   3.837   6.854   4.696
  413TIP3   OH2 1202   1.676   2.591   5.868
  413TIP3    H1 1203   1.644   2.605   5.957
  413TIP3    H2 1204   1.622   2.650   5.814
  414TIP3   OH2 1205   5.497   4.414   0.364
  414TIP3    H1 1206   5.591   4.421   0.378
  414TIP3    H2 1207   5.488   4.359   0.286
  415TIP3   OH2 1208   1.817   3.822   2.769
  415TIP3    H1 1209   1.836   3.748   2.825
  415TIP3    H2 1210   1.901   3.865   2.754
  416TIP3   OH2 1211   2.076   4.644   1.500
  416TIP3    H1 1212   2.043   4.676   1.584
  416TIP3    H2 1213   2.130   4.568   1.521
  417TIP3   OH2 1214   7.091   2.249   2.484
  417TIP3    H1 1215   7.090   2.227   2.577
  417TIP3    H2 1216   7.057   2.339   2.481
  418TIP3   OH2 1217   2.462   4.952   0.991
  418TIP3    H1 1218   2.538   5.010   0.984
  418TIP3    H2 1219   2.387   5.011   0.986
  419TIP3   OH2 1220   5.991   5.008   2.705
  419TIP3    H1 1221   5.903   4.987   2.672
  419TIP3    H2 1222   6.002   4.950   2.780
  420TIP3   OH2 1223   3.554   4.916   2.691
  420TIP3    H1 1224   3.502   4.987   2.729
  420TIP3    H2 1225   3.583   4.950   2.606
  421TIP3   OH2 1226   0.073   2.661   5.744
  421TIP3    H1 1227   0.168   2.671   5.751
  421TIP3    H2 1228   0.046   2.635   5.832
  422TIP3   OH2 1229   0.786   0.652   1.695
  422TIP3    H1 1230   0.814   0.734   1.654
  422TIP3    H2 1231   0.763   0.595   1.621
  423TIP3   OH2 1232   3.249   1.282   5.802
  423TIP3    H1 1233   3.244   1.351   5.869
  423TIP3    H2 1234   3.161   1.277   5.766
  424TIP3   OH2 1235   1.182   3.246   4.076
  424TIP3    H1 1236   1.270   3.274   4.100
  424TIP3    H2 1237   1.125   3.283   4.143
  425TIP3   OH2 1238   0.029   3.552   4.533
  425TIP3    H1 1239   0.089   3.577   4.603
  425TIP3    H2 1240   0.000   3.636   4.496
  426TIP3   OH2 1241   2.323   0.702   0.006
  426TIP3    H1 1242   2.278   0.618   0.001
  426TIP3    H2 1243   2.298   0.737   0.092
  427TIP3   OH2 1244   3.535   1.163   0.764
  427TIP3    H1 1245   3.491   1.078   0.754
  427TIP3    H2 1246   3.566   1.184   0.676
  428TIP3   OH2 1247   5.716   0.479   5.296
  428TIP3    H1 1248   5.724   0.547   5.229
  428TIP3    H2 1249   5.654   0.516   5.360
  429TIP3   OH2 1250   1.223   1.151   5.114
  429TIP3    H1 1251   1.153   1.210   5.088
  429TIP3    H2 1252   1.179   1.082   5.164
  430TIP3   OH2 1253   5.095   0.725   0.402
  430TIP3    H1 1254   5.185   0.758   0.402
  430TIP3    H2 1255   5.104   0.631   0.392
  431TIP3   OH2 1256   6.310   5.253   3.256
  431TIP3    H1 1257   6.264   5.201   3.321
  431TIP3    H2 1258   6.296   5.206   3.173
  432TIP3   OH2 1259   4.062   6.559   5.425
  432TIP3    H1 1260   4.028   6.495   5.487
  432TIP3    H2 1261   3.995   6.628   5.423
  433TIP3   OH2 1262   5.072   2.794   3.485
  433TIP3    H1 1263   5.127   2.871   3.496
  433TIP3    H2 1264   4.984   2.825   3.504
  434TIP3   OH2 1265   1.882   0.843   3.073
  434TIP3    H1 1266   1.885   0.753   3.039
  434TIP3    H2 1267   1.881   0.833   3.168
  435TIP3   OH2 1268   1.119   4.299   4.866
  435TIP3    H1 1269   1.095   4.240   4.795
  435TIP3    H2 1270   1.160   4.374   4.823
  436TIP3   OH2 1271   0.017   5.938   4.283
  436TIP3    H1 1272   0.072   5.865   4.255
  436TIP3    H2 1273   0.049   6.013   4.234
  437TIP3   OH2 1274   6.310   3.322   0.486
  437TIP3    H1 1275   6.353   3.406   0.471
  437TIP3    H2 1276   6.304   3.282   0.399
  438TIP3   OH2 1277   1.980   2.911   0.986
  438TIP3    H1 1278   1.998   2.820   0.965
  438TIP3    H2 1279   1.897   2.908   1.035
  439TIP3   OH2 1280   1.241   3.248   5.901
  439TIP3    H1 1281   1.182   3.199   5.844
  439TIP3    H2 1282   1.281   3.313   5.843
  440TIP3   OH2 1283   0.924   0.755   0.095
  440TIP3    H1 1284   0.835   0.743   0.061
  440TIP3    H2 1285   0.936   0.850   0.097
  441TIP3   OH2 1286   0.302   6.493   2.980
  441TIP3    H1 1287   0.368   6.498   2.911
  441TIP3    H2 1288   0.218   6.505   2.935
  442TIP3   OH2 1289   5.316   1.199   4.283
  442TIP3    H1 1290   5.353   1.287   4.276
  442TIP3    H2 1291   5.230   1.206   4.241
  443TIP3   OH2 1292   5.232   1.498   4.840
  443TIP3    H1 1293   5.288   1.563   4.798
  443TIP3    H2 1294   5.191   1.451   4.767
  444TIP3   OH2 1295   1.564   4.161   3.662
  444TIP3    H1 1296   1.580   4.070   3.690
  444TIP3    H2 1297   1.634   4.180   3.600
  445TIP3   OH2 1298   3.480   1.874   2.224
  445TIP3    H1 1299   3.453   1.792   2.265
  445TIP3    H2 1300   3.526   1.846   2.144
  446TIP3   OH2 1301   6.733   1.724   3.203
  446TIP3    H1 1302   6.781   1.675   3.137
  446TIP3    H2 1303   6.641   1.703   3.186
  447TIP3   OH2 1304   5.057   6.726   3.405
  447TIP3    H1 1305   5.132   6.675   3.375
  447TIP3    H2 1306   5.004   6.664   3.455
  448TIP3   OH2 1307   2.928   0.375   3.892
  448TIP3    H1 1308   2.977   0.369   3.975
  448TIP3    H2 1309   2.837   0.361   3.917
  449TIP3   OH2 1310   3.478   6.294   3.249
  449TIP3    H1 1311   3.453   6.295   3.157
  449TIP3    H2 1312   3.454   6.206   3.280
  450TIP3   OH2 1313   3.623   5.299   4.984
  450TIP3    H1 1314   3.646   5.300   4.891
  450TIP3    H2 1315   3.588   5.212   5.000
  451TIP3   OH2 1316   1.534   3.603   1.168
  451TIP3    H1 1317   1.577   3.546   1.104
  451TIP3    H2 1318   1.549   3.560   1.253
  452TIP3   OH2 1319   6.082   0.111   4.454
  452TIP3    H1 1320   6.128   0.060   4.521
  452TIP3    H2 1321   6.107   0.202   4.472
  453TIP3   OH2 1322   2.364   2.574   3.671
  453TIP3    H1 1323   2.305   2.535   3.735
  453TIP3    H2 1324   2.321   2.558   3.587
  454TIP3   OH2 1325   6.829   0.291   5.019
  454TIP3    H1 1326   6.775   0.275   5.097
  454TIP3    H2 1327   6.796   0.229   4.954
  455TIP3   OH2 1328   0.221   4.753   3.495
  455TIP3    H1 1329   0.178   4.738   3.411
  455TIP3    H2 1330   0.312   4.728   3.481
  456TIP3   OH2 1331   3.864   4.388   3.350
  456TIP3    H1 1332   3.800   4.360   3.415
  456TIP3    H2 1333   3.949   4.374   3.391
  457TIP3   OH2 1334   3.560   4.813   1.985
  457TIP3    H1 1335   3.558   4.908   1.982
  457TIP3    H2 1336   3.571   4.792   2.077
  458TIP3   OH2 1337   4.476   6.583   5.219
  458TIP3    H1 1338   4.458   6.596   5.313
  458TIP3    H2 1339   4.565   6.617   5.207
  459TIP3   OH2 1340   1.259   2.553   1.488
  459TIP3    H1 1341   1.166   2.569   1.503
  459TIP3    H2 1342   1.261   2.500   1.408
  460TIP3   OH2 1343   5.722   2.187   3.559
  460TIP3    H1 1344   5.729   2.256   3.492
  460TIP3    H2 1345   5.798   2.201   3.615
  461TIP3   OH2 1346   4.052   0.867   2.697
  461TIP3    H1 1347   4.097   0.904   2.621
  461TIP3    H2 1348   4.003   0.793   2.662
  462TIP3   OH2 1349   1.234   0.486   2.904
  462TIP3    H1 1350   1.179   0.551   2.948
  462TIP3    H2 1351   1.172   0.419   2.875
  463TIP3   OH2 1352   2.002   2.853   3.498
  463TIP3    H1 1353   2.028   2.904   3.421
  463TIP3    H2 1354   2.083   2.814   3.530
  464TIP3   OH2 1355   0.605   4.852   3.333
  464TIP3    H1 1356   0.541   4.880   3.268
  464TIP3    H2 1357   0.690   4.861   3.290
  465TIP3   OH2 1358   6.140   2.890   5.738
  465TIP3    H1 1359   6.101   2.903   5.824
  465TIP3    H2 1360   6.221   2.941   5.740
  466TIP3   OH2 1361   1.891   1.758   1.015
  466TIP3    H1 1362   1.876   1.831   1.074
  466TIP3    H2 1363   1.829   1.691   1.044
  467TIP3   OH2 1364   6.489   5.897   5.743
  467TIP3    H1 1365   6.424   5.949   5.790
  467TIP3    H2 1366   6.459   5.807   5.753
  468TIP3   OH2 1367   2.443   3.363   5.646
  468TIP3    H1 1368   2.454   3.456   5.627
  468TIP3    H2 1369   2.406   3.326   5.566
  469TIP3   OH2 1370   2.701   2.073   3.028
  469TIP3    H1 1371   2.638   2.144   3.016
  469TIP3    H2 1372   2.775   2.114   3.074
  470TIP3   OH2 1373   6.892   4.795   5.850
  470TIP3    H1 1374   6.844   4.871   5.884
  470TIP3    H2 1375   6.868   4.723   5.908
  471TIP3   OH2 1376   3.791   4.665   5.629
  471TIP3    H1 1377   3.875   4.698   5.661
  471TIP3    H2 1378   3.815   4.594   5.569
  472TIP3   OH2 1379   6.677   4.537   2.733
  472TIP3    H1 1380   6.611   4.579   2.678
  472TIP3    H2 1381   6.665   4.443   2.718
  473TIP3   OH2 1382   2.646   5.320   4.552
  473TIP3    H1 1383   2.627   5.370   4.632
  473TIP3    H2 1384   2.703   5.378   4.501
  474TIP3   OH2 1385   6.296   6.040   4.793
  474TIP3    H1 1386   6.231   6.034   4.723
  474TIP3    H2 1387   6.352   6.113   4.768
  475TIP3   OH2 1388   5.774   2.015   4.021
  475TIP3    H1 1389   5.693   2.022   4.071
  475TIP3    H2 1390   5.749   2.030   3.930
  476TIP3   OH2 1391   3.676   6.656   5.190
  476TIP3    H1 1392   3.698   6.749   5.187
  476TIP3    H2 1393   3.581   6.654   5.192
  477TIP3   OH2 1394   3.864   3.670   4.403
  477TIP3    H1 1395   3.787   3.727   4.400
  477TIP3    H2 1396   3.859   3.628   4.488
  478TIP3   OH2 1397   6.542   2.406   0.432
  478TIP3    H1 1398   6.520   2.313   0.428
  478TIP3    H2 1399   6.459   2.451   0.415
  479TIP3   OH2 1400   7.003   3.476   1.473
  479TIP3    H1 1401   6.954   3.535   1.530
  479TIP3    H2 1402   7.077   3.528   1.442
  480TIP3   OH2 1403   0.489   5.692   3.963
  480TIP3    H1 1404   0.422   5.759   3.977
  480TIP3    H2 1405   0.571   5.732   3.993
  481TIP3   OH2 1406   4.673   1.163   5.017
  481TIP3    H1 1407   4.669   1.086   4.960
  481TIP3    H2 1408   4.747   1.145   5.076
  482TIP3   OH2 1409   1.388   0.587   4.158
  482TIP3    H1 1410   1.453   0.637   4.107
  482TIP3    H2 1411   1.340   0.654   4.206
  483TIP3   OH2 1412   5.053   5.051   0.157
  483TIP3    H1 1413   5.108   5.043   0.235
  483TIP3    H2 1414   5.076   4.975   0.103
  484TIP3   OH2 1415   5.628   0.609   0.386
  484TIP3    H1 1416   5.697   0.673   0.403
  484TIP3    H2 1417   5.631   0.594   0.292
  485TIP3   OH2 1418   2.207   4.979   3.426
  485TIP3    H1 1419   2.153   4.984   3.505
  485TIP3    H2 1420   2.287   5.028   3.448
  486TIP3   OH2 1421   0.795   1.685   1.871
  486TIP3    H1 1422   0.699   1.686   1.863
  486TIP3    H2 1423   0.820   1.778   1.870
  487TIP3   OH2 1424   3.588   3.100   2.435
  487TIP3    H1 1425   3.523   3.167   2.413
  487TIP3    H2 1426   3.667   3.128   2.389
  488TIP3   OH2 1427   3.447   4.194   5.669
  488TIP3    H1 1428   3.401   4.214   5.751
  488TIP3    H2 1429   3.533   4.161   5.698
  489TIP3   OH2 1430   7.004   3.311   0.049
  489TIP3    H1 1431   6.944   3.383   0.030
  489TIP3    H2 1432   7.085   3.354   0.079
  490TIP3   OH2 1433   1.024   1.483   0.567
  490TIP3    H1 1434   1.048   1.527   0.485
  490TIP3    H2 1435   0.993   1.553   0.624
  491TIP3   OH2 1436   4.633   1.870   0.559
  491TIP3    H1 1437   4.718   1.877   0.602
  491TIP3    H2 1438   4.569   1.890   0.628
  492TIP3   OH2 1439   1.644   5.383   5.492
  492TIP3    H1 1440   1.722   5.435   5.511
  492TIP3    H2 1441   1.661   5.299   5.534
  493TIP3   OH2 1442   2.348   3.446   3.621
  493TIP3    H1 1443   2.261   3.465   3.657
  493TIP3    H2 1444   2.403   3.431   3.697
  494TIP3   OH2 1445   0.364  -0.001   0.530
  494TIP3    H1 1446   0.347   0.078   0.479
  494TIP3    H2 1447   0.338   0.022   0.620
  495TIP3   OH2 1448   6.328   4.957   1.949
  495TIP3    H1 1449   6.381   5.033   1.923
  495TIP3    H2 1450   6.336   4.897   1.875
  496TIP3   OH2 1451   5.402   2.955   5.046
  496TIP3    H1 1452   5.358   2.870   5.046
  496TIP3    H2 1453   5.495   2.933   5.039
  497TIP3   OH2 1454   1.934   0.291   1.194
  497TIP3    H1 1455   1.886   0.372   1.181
  497TIP3    H2 1456   1.920   0.268   1.286
  498TIP3   OH2 1457   2.155   5.007   3.155
  498TIP3    H1 1458   2.170   4.935   3.093
  498TIP3    H2 1459   2.153   4.965   3.241
  499TIP3   OH2 1460   5.484   5.672   1.220
  499TIP3    H1 1461   5.574   5.673   1.254
  499TIP3    H2 1462   5.484   5.741   1.153
  500TIP3   OH2 1463   4.591   3.453   5.242
  500TIP3    H1 1464   4.617   3.463   5.333
  500TIP3    H2 1465   4.498   3.476   5.241
  501TIP3   OH2 1466   1.738   6.305   0.015
  501TIP3    H1 1467   1.692   6.245   0.073
  501TIP3    H2 1468   1.724   6.391   0.053
  502TIP3   OH2 1469   3.298   2.828   1.160
  502TIP3    H1 1470   3.361   2.849   1.230
  502TIP3    H2 1471   3.352   2.794   1.089
  503TIP3   OH2 1472   2.447   2.455   5.358
  503TIP3    H1 1473   2.501   2.459   5.278
  503TIP3    H2 1474   2.415   2.365   5.361
  504TIP3   OH2 1475   4.538   2.743   2.792
  504TIP3    H1 1476   4.609   2.689   2.828
  504TIP3    H2 1477   4.579   2.791   2.720
  505TIP3   OH2 1478   3.414   2.904   0.402
  505TIP3    H1 1479   3.359   2.930   0.476
  505TIP3    H2 1480   3.503   2.905   0.437
  506TIP3   OH2 1481   4.089   5.733   1.073
  506TIP3    H1 1482   4.030   5.791   1.121
  506TIP3    H2 1483   4.153   5.791   1.033
  507TIP3   OH2 1484   1.321   1.004   0.712
  507TIP3    H1 1485   1.227   1.011   0.729
  507TIP3    H2 1486   1.362   1.053   0.784
  508TIP3   OH2 1487   4.489   6.196   4.012
  508TIP3    H1 1488   4.434   6.267   4.045
  508TIP3    H2 1489   4.506   6.141   4.089
  509TIP3   OH2 1490   3.347   2.300   0.775
  509TIP3    H1 1491   3.275   2.310   0.838
  509TIP3    H2 1492   3.351   2.206   0.758
  510TIP3   OH2 1493   5.740   1.764   2.342
  510TIP3    H1 1494   5.681   1.734   2.411
  510TIP3    H2 1495   5.716   1.712   2.265
  511TIP3   OH2 1496   4.732   2.044   3.715
  511TIP3    H1 1497   4.802   2.090   3.669
  511TIP3    H2 1498   4.660   2.108   3.720
  512TIP3   OH2 1499   2.343   0.351   4.071
  512TIP3    H1 1500   2.343   0.338   3.976
  512TIP3    H2 1501   2.255   0.325   4.098
  513TIP3   OH2 1502   1.291   5.682   5.289
  513TIP3    H1 1503   1.331   5.605   5.330
  513TIP3    H2 1504   1.200   5.680   5.319
  514TIP3   OH2 1505   3.796   3.471   3.236
  514TIP3    H1 1506   3.843   3.546   3.271
  514TIP3    H2 1507   3.728   3.509   3.180
  515TIP3   OH2 1508   3.247   3.085   5.777
  515TIP3    H1 1509   3.207   3.144   5.714
  515TIP3    H2 1510   3.188   3.010   5.781
  516TIP3   OH2 1511   0.521   4.840   2.255
  516TIP3    H1 1512   0.434   4.866   2.285
  516TIP3    H2 1513   0.552   4.780   2.324
  517TIP3   OH2 1514   6.133   4.719   0.676
  517TIP3    H1 1515   6.149   4.791   0.615
  517TIP3    H2 1516   6.153   4.756   0.762
  518TIP3   OH2 1517   5.593   0.267   5.115
  518TIP3    H1 1518   5.630   0.325   5.182
  518TIP3    H2 1519   5.504   0.301   5.101
  519TIP3   OH2 1520   6.957   0.161   3.915
  519TIP3    H1 1521   6.976   0.195   3.827
  519TIP3    H2 1522   6.890   0.094   3.900
  520TIP3   OH2 1523   3.158   3.371   1.200
  520TIP3    H1 1524   3.081   3.405   1.154
  520TIP3    H2 1525   3.137   3.381   1.293
  521TIP3   OH2 1526   0.620   2.843   1.789
  521TIP3    H1 1527   0.629   2.911   1.722
  521TIP3    H2 1528   0.663   2.766   1.752
  522TIP3   OH2 1529   3.365   4.396   3.944
  522TIP3    H1 1530   3.458   4.380   3.960
  522TIP3    H2 1531   3.328   4.309   3.932
  523TIP3   OH2 1532   3.183   0.094   2.341
  523TIP3    H1 1533   3.246   0.163   2.363
  523TIP3    H2 1534   3.225   0.045   2.270
  524TIP3   OH2 1535   6.597   6.076   4.491
  524TIP3    H1 1536   6.649   6.132   4.435
  524TIP3    H2 1537   6.577   6.129   4.568
  525TIP3   OH2 1538   5.381   3.700   3.129
  525TIP3    H1 1539   5.456   3.729   3.181
  525TIP3    H2 1540   5.379   3.605   3.140
  526TIP3   OH2 1541   7.073   5.377   4.410
  526TIP3    H1 1542   7.078   5.466   4.374
  526TIP3    H2 1543   7.095   5.387   4.502
  527TIP3   OH2 1544   3.332   4.247   3.678
  527TIP3    H1 1545   3.427   4.235   3.684
  527TIP3    H2 1546   3.320   4.307   3.604
  528TIP3   OH2 1547   0.022   2.621   1.687
  528TIP3    H1 1548   0.053   2.696   1.739
  528TIP3    H2 1549  -0.073   2.631   1.685
  529TIP3   OH2 1550   4.974   0.541   1.714
  529TIP3    H1 1551   5.023   0.538   1.632
  529TIP3    H2 1552   5.010   0.468   1.766
  530TIP3   OH2 1553   5.191   3.497   1.261
  530TIP3    H1 1554   5.237   3.566   1.213
  530TIP3    H2 1555   5.249   3.421   1.254
  531TIP3   OH2 1556   5.767   1.483   0.068
  531TIP3    H1 1557   5.745   1.532  -0.011
  531TIP3    H2 1558   5.732   1.536   0.140
  532TIP3   OH2 1559   5.436   1.927   2.463
  532TIP3    H1 1560   5.380   1.852   2.444
  532TIP3    H2 1561   5.419   1.947   2.555
  533TIP3   OH2 1562   5.514   1.813   4.057
  533TIP3    H1 1563   5.468   1.837   4.137
  533TIP3    H2 1564   5.503   1.889   3.999
  534TIP3   OH2 1565   0.678   3.105   3.123
  534TIP3    H1 1566   0.636   3.131   3.204
  534TIP3    H2 1567   0.652   3.171   3.059
  535TIP3   OH2 1568   5.299   5.558   3.983
  535TIP3    H1 1569   5.235   5.537   3.915
  535TIP3    H2 1570   5.375   5.590   3.936
  536TIP3   OH2 1571   4.479   3.922   2.404
  536TIP3    H1 1572   4.442   3.959   2.323
  536TIP3    H2 1573   4.540   3.989   2.435
  537TIP3   OH2 1574   3.558   0.113   0.895
  537TIP3    H1 1575   3.501   0.076   0.963
  537TIP3    H2 1576   3.597   0.190   0.935
  538TIP3   OH2 1577   7.262   2.559   4.797
  538TIP3    H1 1578   7.201   2.599   4.735
  538TIP3    H2 1579   7.206   2.509   4.857
  539TIP3   OH2 1580   5.358   4.821   5.220
  539TIP3    H1 1581   5.320   4.815   5.132
  539TIP3    H2 1582   5.411   4.742   5.229
  540TIP3   OH2 1583   0.749   4.582   1.253
  540TIP3    H1 1584   0.839   4.613   1.244
  540TIP3    H2 1585   0.752   4.490   1.230
  541TIP3   OH2 1586   5.634   3.117   5.547
  541TIP3    H1 1587   5.672   3.200   5.576
  541TIP3    H2 1588   5.561   3.143   5.490
  542TIP3   OH2 1589   2.954   0.723   0.413
  542TIP3    H1 1590   2.895   0.714   0.489
  542TIP3    H2 1591   2.921   0.800   0.367
  543TIP3   OH2 1592   3.917   2.126   1.210
  543TIP3    H1 1593   3.888   2.200   1.156
  543TIP3    H2 1594   3.839   2.101   1.259
  544TIP3   OH2 1595   5.157   5.183   5.281
  544TIP3    H1 1596   5.124   5.093   5.278
  544TIP3    H2 1597   5.191   5.193   5.370
  545TIP3   OH2 1598   1.145   3.937   3.921
  545TIP3    H1 1599   1.186   3.851   3.912
  545TIP3    H2 1600   1.080   3.940   3.850
  546TIP3   OH2 1601   3.916   1.469   0.116
  546TIP3    H1 1602   3.963   1.467   0.033
  546TIP3    H2 1603   3.874   1.555   0.118
  547TIP3   OH2 1604   5.917   0.602   1.409
  547TIP3    H1 1605   5.885   0.552   1.485
  547TIP3    H2 1606   5.926   0.692   1.442
  548TIP3   OH2 1607   6.259   4.928   0.536
  548TIP3    H1 1608   6.256   5.000   0.472
  548TIP3    H2 1609   6.341   4.942   0.583
  549TIP3   OH2 1610   5.735   3.163   0.768
  549TIP3    H1 1611   5.817   3.206   0.744
  549TIP3    H2 1612   5.667   3.214   0.724
  550TIP3   OH2 1613   3.439   5.037   3.919
  550TIP3    H1 1614   3.443   5.003   3.830
  550TIP3    H2 1615   3.514   4.997   3.963
  551TIP3   OH2 1616   5.302   3.265   1.159
  551TIP3    H1 1617   5.273   3.247   1.069
  551TIP3    H2 1618   5.303   3.178   1.200
  552TIP3   OH2 1619   1.357   4.969   3.741
  552TIP3    H1 1620   1.341   5.032   3.671
  552TIP3    H2 1621   1.446   4.938   3.727
  553TIP3   OH2 1622   0.862   3.027   3.707
  553TIP3    H1 1623   0.878   3.011   3.800
  553TIP3    H2 1624   0.928   2.973   3.662
  554TIP3   OH2 1625   0.134   4.821   5.109
  554TIP3    H1 1626   0.200   4.886   5.133
  554TIP3    H2 1627   0.130   4.824   5.014
  555TIP3   OH2 1628   3.943   3.002   0.496
  555TIP3    H1 1629   3.894   3.020   0.416
  555TIP3    H2 1630   3.900   2.926   0.535
  556TIP3   OH2 1631   5.435   1.627   1.790
  556TIP3    H1 1632   5.441   1.623   1.694
  556TIP3    H2 1633   5.525   1.615   1.820
  557TIP3   OH2 1634   2.862   0.729   2.955
  557TIP3    H1 1635   2.930   0.696   3.014
  557TIP3    H2 1636   2.907   0.742   2.872
  558TIP3   OH2 1637   5.740   0.050   4.801
  558TIP3    H1 1638   5.802  -0.016   4.770
  558TIP3    H2 1639   5.794   0.120   4.837
  559TIP3   OH2 1640   3.723   1.978   4.450
  559TIP3    H1 1641   3.679   2.052   4.493
  559TIP3    H2 1642   3.723   1.909   4.516
  560TIP3   OH2 1643   4.449   5.627   5.198
  560TIP3    H1 1644   4.488   5.573   5.130
  560TIP3    H2 1645   4.523   5.670   5.240
  561TIP3   OH2 1646   0.078   3.361   2.060
  561TIP3    H1 1647   0.163   3.377   2.019
  561TIP3    H2 1648   0.057   3.443   2.105
  562TIP3   OH2 1649   1.358   5.304   0.272
  562TIP3    H1 1650   1.426   5.354   0.226
  562TIP3    H2 1651   1.383   5.309   0.364
  563TIP3   OH2 1652   2.457   3.318   2.013
  563TIP3    H1 1653   2.476   3.411   2.017
  563TIP3    H2 1654   2.419   3.297   2.099
  564TIP3   OH2 1655   7.144   2.647   5.084
  564TIP3    H1 1656   7.228   2.602   5.074
  564TIP3    H2 1657   7.080   2.589   5.044
  565TIP3   OH2 1658   2.628   5.441   5.801
  565TIP3    H1 1659   2.713   5.482   5.784
  565TIP3    H2 1660   2.564   5.505   5.769
  566TIP3   OH2 1661   7.167   1.209   4.592
  566TIP3    H1 1662   7.097   1.269   4.568
  566TIP3    H2 1663   7.128   1.122   4.586
  567TIP3   OH2 1664   4.544   1.254   5.785
  567TIP3    H1 1665   4.471   1.305   5.820
  567TIP3    H2 1666   4.504   1.191   5.726
  568TIP3   OH2 1667   1.874   4.873   4.687
  568TIP3    H1 1668   1.921   4.789   4.686
  568TIP3    H2 1669   1.815   4.866   4.762
  569TIP3   OH2 1670   0.219   1.179   0.825
  569TIP3    H1 1671   0.251   1.149   0.740
  569TIP3    H2 1672   0.260   1.119   0.889
  570TIP3   OH2 1673   4.466   5.592   1.917
  570TIP3    H1 1674   4.552   5.590   1.876
  570TIP3    H2 1675   4.406   5.568   1.847
  571TIP3   OH2 1676   2.185   1.330   3.230
  571TIP3    H1 1677   2.131   1.257   3.259
  571TIP3    H2 1678   2.181   1.392   3.303
  572TIP3   OH2 1679   6.411   6.136   1.341
  572TIP3    H1 1680   6.501   6.117   1.366
  572TIP3    H2 1681   6.357   6.087   1.403
  573TIP3   OH2 1682   4.592   4.312   3.582
  573TIP3    H1 1683   4.550   4.299   3.667
  573TIP3    H2 1684   4.628   4.226   3.560
  574TIP3   OH2 1685   2.550   2.879   1.494
  574TIP3    H1 1686   2.570   2.948   1.430
  574TIP3    H2 1687   2.636   2.844   1.519
  575TIP3   OH2 1688   1.842   0.937   3.574
  575TIP3    H1 1689   1.906   0.901   3.635
  575TIP3    H2 1690   1.761   0.890   3.593
  576TIP3   OH2 1691   3.880   5.869   1.682
  576TIP3    H1 1692   3.948   5.930   1.651
  576TIP3    H2 1693   3.798   5.918   1.673
  577TIP3   OH2 1694   1.604   2.406   4.057
  577TIP3    H1 1695   1.646   2.319   4.063
  577TIP3    H2 1696   1.528   2.400   4.114
  578TIP3   OH2 1697   3.404   2.373   3.079
  578TIP3    H1 1698   3.455   2.369   3.160
  578TIP3    H2 1699   3.461   2.420   3.018
  579TIP3   OH2 1700   5.153   6.349   4.735
  579TIP3    H1 1701   5.202   6.295   4.674
  579TIP3    H2 1702   5.164   6.305   4.820
  580TIP3   OH2 1703   3.676   2.968   4.763
  580TIP3    H1 1704   3.585   2.944   4.749
  580TIP3    H2 1705   3.681   2.990   4.856
  581TIP3   OH2 1706   6.732   5.697   2.381
  581TIP3    H1 1707   6.668   5.762   2.411
  581TIP3    H2 1708   6.815   5.744   2.380
  582TIP3   OH2 1709   4.110   3.179   4.211
  582TIP3    H1 1710   4.017   3.154   4.217
  582TIP3    H2 1711   4.151   3.106   4.164
  583TIP3   OH2 1712   1.326   5.802   2.510
  583TIP3    H1 1713   1.300   5.710   2.503
  583TIP3    H2 1714   1.271   5.837   2.580
  584TIP3   OH2 1715   6.721   1.751   5.781
  584TIP3    H1 1716   6.707   1.659   5.803
  584TIP3    H2 1717   6.797   1.776   5.833
  585TIP3   OH2 1718   4.452   6.365   1.485
  585TIP3    H1 1719   4.527   6.329   1.438
  585TIP3    H2 1720   4.422   6.292   1.539
  586TIP3   OH2 1721   2.233   1.127   0.011
  586TIP3    H1 1722   2.150   1.175   0.002
  586TIP3    H2 1723   2.218   1.044  -0.035
  587TIP3   OH2 1724   4.169   0.218   2.627
  587TIP3    H1 1725   4.209   0.244   2.544
  587TIP3    H2 1726   4.089   0.171   2.602
  588TIP3   OH2 1727   0.561   2.641   1.211
  588TIP3    H1 1728   0.547   2.583   1.136
  588TIP3    H2 1729   0.641   2.689   1.189
  589TIP3   OH2 1730   1.848   2.385   3.768
  589TIP3    H1 1731   1.780   2.421   3.825
  589TIP3    H2 1732   1.807   2.383   3.682
  590TIP3   OH2 1733   0.129   0.592   4.190
  590TIP3    H1 1734   0.047   0.616   4.148
  590TIP3    H2 1735   0.156   0.512   4.145
  591TIP3   OH2 1736   6.916   1.968   2.784
  591TIP3    H1 1737   6.949   2.056   2.767
  591TIP3    H2 1738   6.891   1.969   2.876
  592TIP3   OH2 1739   3.694   5.700   3.245
  592TIP3    H1 1740   3.677   5.653   3.327
  592TIP3    H2 1741   3.676   5.792   3.266
  593TIP3   OH2 1742   5.234   1.919   3.234
  593TIP3    H1 1743   5.315   1.950   3.193
  593TIP3    H2 1744   5.186   1.999   3.254
  594TIP3   OH2 1745   0.753   4.747   4.918
  594TIP3    H1 1746   0.754   4.732   4.823
  594TIP3    H2 1747   0.662   4.736   4.943
  595TIP3   OH2 1748   3.950   0.971   4.424
  595TIP3    H1 1749   4.034   0.999   4.462
  595TIP3    H2 1750   3.894   0.955   4.499
  596TIP3   OH2 1751   7.268   4.632   4.540
  596TIP3    H1 1752   7.251   4.612   4.447
  596TIP3    H2 1753   7.182   4.628   4.581
  597TIP3   OH2 1754   3.807   0.237   2.660
  597TIP3    H1 1755   3.734   0.180   2.685
  597TIP3    H2 1756   3.808   0.234   2.564
  598TIP3   OH2 1757   1.025   2.007   3.021
  598TIP3    H1 1758   1.007   2.093   3.058
  598TIP3    H2 1759   1.097   1.972   3.073
  599TIP3   OH2 1760   1.521   1.341   0.895
  599TIP3    H1 1761   1.464   1.271   0.928
  599TIP3    H2 1762   1.608   1.301   0.894
  600TIP3   OH2 1763   3.732   3.797   2.617
  600TIP3    H1 1764   3.734   3.890   2.596
  600TIP3    H2 1765   3.672   3.760   2.553
  601TIP3   OH2 1766   1.980   0.682   1.780
  601TIP3    H1 1767   1.941   0.669   1.866
  601TIP3    H2 1768   2.030   0.601   1.764
  602TIP3   OH2 1769   3.964   6.732   1.858
  602TIP3    H1 1770   3.942   6.659   1.917
  602TIP3    H2 1771   4.022   6.693   1.792
  603TIP3   OH2 1772   3.546   1.861   2.701
  603TIP3    H1 1773   3.521   1.949   2.729
  603TIP3    H2 1774   3.479   1.836   2.637
  604TIP3   OH2 1775   6.109   3.924   2.465
  604TIP3    H1 1776   6.179   3.863   2.446
  604TIP3    H2 1777   6.096   3.917   2.560
  605TIP3   OH2 1778   6.922   4.677   3.534
  605TIP3    H1 1779   7.015   4.684   3.553
  605TIP3    H2 1780   6.883   4.755   3.573
  606TIP3   OH2 1781   3.800   1.055   2.110
  606TIP3    H1 1782   3.792   1.092   2.022
  606TIP3    H2 1783   3.862   1.112   2.155
  607TIP3   OH2 1784   2.991   0.858   0.015
  607TIP3    H1 1785   2.946   0.816   0.088
  607TIP3    H2 1786   3.071   0.894   0.054
  608TIP3   OH2 1787   1.363   1.329   1.348
  608TIP3    H1 1788   1.271   1.321   1.324
  608TIP3    H2 1789   1.410   1.284   1.278
  609TIP3   OH2 1790   0.464   4.001   2.132
  609TIP3    H1 1791   0.539   4.004   2.072
  609TIP3    H2 1792   0.497   4.036   2.214
  610TIP3   OH2 1793   2.416   1.378   3.077
  610TIP3    H1 1794   2.345   1.404   3.136
  610TIP3    H2 1795   2.394   1.419   2.993
  611TIP3   OH2 1796   1.238   6.334   0.101
  611TIP3    H1 1797   1.176   6.354   0.171
  611TIP3    H2 1798   1.321   6.317   0.146
  612TIP3   OH2 1799   2.864   3.986   0.093
  612TIP3    H1 1800   2.910   3.902   0.105
  612TIP3    H2 1801   2.777   3.970   0.128
  613TIP3   OH2 1802   0.613   5.997   1.459
  613TIP3    H1 1803   0.671   6.005   1.535
  613TIP3    H2 1804   0.630   6.076   1.408
  614TIP3   OH2 1805   3.189   5.652   0.226
  614TIP3    H1 1806   3.144   5.586   0.174
  614TIP3    H2 1807   3.119   5.703   0.267
  615TIP3   OH2 1808   2.006   2.628   4.696
  615TIP3    H1 1809   1.982   2.599   4.608
  615TIP3    H2 1810   2.051   2.711   4.682
  616TIP3   OH2 1811   1.012   0.880   5.186
  616TIP3    H1 1812   0.992   0.787   5.196
  616TIP3    H2 1813   0.927   0.923   5.189
  617TIP3   OH2 1814   4.743   1.644   2.317
  617TIP3    H1 1815   4.807   1.714   2.327
  617TIP3    H2 1816   4.660   1.683   2.342
  618TIP3   OH2 1817   2.562   3.141   1.798
  618TIP3    H1 1818   2.548   3.171   1.888
  618TIP3    H2 1819   2.482   3.166   1.751
  619TIP3   OH2 1820   3.699   3.012   2.040
  619TIP3    H1 1821   3.643   3.089   2.031
  619TIP3    H2 1822   3.772   3.042   2.094
  620TIP3   OH2 1823   1.666   5.767   0.537
  620TIP3    H1 1824   1.712   5.839   0.580
  620TIP3    H2 1825   1.728   5.694   0.539
  621TIP3   OH2 1826   5.821   1.517   2.587
  621TIP3    H1 1827   5.829   1.452   2.517
  621TIP3    H2 1828   5.754   1.578   2.555
  622TIP3   OH2 1829   3.982   2.253   4.651
  622TIP3    H1 1830   4.055   2.261   4.591
  622TIP3    H2 1831   3.946   2.341   4.659
  623TIP3   OH2 1832   3.729   4.569   1.809
  623TIP3    H1 1833   3.759   4.657   1.832
  623TIP3    H2 1834   3.721   4.571   1.713
  624TIP3   OH2 1835   1.138   2.097   1.324
  624TIP3    H1 1836   1.224   2.063   1.299
  624TIP3    H2 1837   1.133   2.181   1.279
  625TIP3   OH2 1838   0.769   3.079   4.250
  625TIP3    H1 1839   0.679   3.052   4.268
  625TIP3    H2 1840   0.823   3.006   4.281
  626TIP3   OH2 1841   6.963   1.280   3.681
  626TIP3    H1 1842   6.930   1.207   3.628
  626TIP3    H2 1843   6.993   1.238   3.762
  627TIP3   OH2 1844   0.298   2.379   1.255
  627TIP3    H1 1845   0.330   2.296   1.291
  627TIP3    H2 1846   0.203   2.368   1.251
  628TIP3   OH2 1847   4.077   4.693   1.983
  628TIP3    H1 1848   4.129   4.698   1.903
  628TIP3    H2 1849   4.009   4.760   1.971
  629TIP3   OH2 1850   3.563   6.585   2.987
  629TIP3    H1 1851   3.550   6.668   2.942
  629TIP3    H2 1852   3.508   6.523   2.939
  630TIP3   OH2 1853   1.578   1.764   5.819
  630TIP3    H1 1854   1.580   1.838   5.759
  630TIP3    H2 1855   1.632   1.697   5.778
  631TIP3   OH2 1856   1.731   2.142   4.202
  631TIP3    H1 1857   1.801   2.083   4.230
  631TIP3    H2 1858   1.759   2.174   4.116
  632TIP3   OH2 1859   3.143   2.576   0.180
  632TIP3    H1 1860   3.076   2.537   0.235
  632TIP3    H2 1861   3.095   2.610   0.104
  633TIP3   OH2 1862   4.333   4.580   4.217
  633TIP3    H1 1863   4.332   4.612   4.127
  633TIP3    H2 1864   4.308   4.488   4.211
  634TIP3   OH2 1865   0.096   4.808   2.746
  634TIP3    H1 1866   0.053   4.770   2.823
  634TIP3    H2 1867   0.053   4.764   2.672
  635TIP3   OH2 1868   6.606   1.381   0.815
  635TIP3    H1 1869   6.609   1.287   0.794
  635TIP3    H2 1870   6.694   1.400   0.850
  636TIP3   OH2 1871   5.333   2.087   5.179
  636TIP3    H1 1872   5.248   2.056   5.209
  636TIP3    H2 1873   5.395   2.057   5.245
  637TIP3   OH2 1874   6.142   4.998   0.870
  637TIP3    H1 1875   6.080   4.970   0.937
  637TIP3    H2 1876   6.220   4.946   0.886
  638TIP3   OH2 1877   1.413   4.565   5.018
  638TIP3    H1 1878   1.457   4.554   4.933
  638TIP3    H2 1879   1.454   4.643   5.056
  639TIP3   OH2 1880   6.069   0.169   1.624
  639TIP3    H1 1881   5.975   0.179   1.636
  639TIP3    H2 1882   6.088   0.079   1.649
  640TIP3   OH2 1883   3.760   6.547   5.731
  640TIP3    H1 1884   3.816   6.502   5.667
  640TIP3    H2 1885   3.673   6.512   5.715
  641TIP3   OH2 1886   6.835   2.618   3.690
  641TIP3    H1 1887   6.867   2.707   3.680
  641TIP3    H2 1888   6.851   2.577   3.605
  642TIP3   OH2 1889   2.429   5.010   1.840
  642TIP3    H1 1890   2.443   5.100   1.869
  642TIP3    H2 1891   2.512   4.966   1.858
  643TIP3   OH2 1892   2.875   2.724   4.084
  643TIP3    H1 1893   2.942   2.697   4.147
  643TIP3    H2 1894   2.858   2.816   4.104
  644TIP3   OH2 1895   6.027   2.025   1.662
  644TIP3    H1 1896   5.941   2.006   1.626
  644TIP3    H2 1897   6.046   2.115   1.635
  645TIP3   OH2 1898   0.282   1.563   3.814
  645TIP3    H1 1899   0.280   1.525   3.726
  645TIP3    H2 1900   0.355   1.624   3.813
  646TIP3   OH2 1901   4.554   5.734   5.843
  646TIP3    H1 1902   4.511   5.715   5.759
  646TIP3    H2 1903   4.567   5.829   5.842
  647TIP3   OH2 1904   1.594   5.228   0.060
  647TIP3    H1 1905   1.603   5.323   0.055
  647TIP3    H2 1906   1.652   5.202   0.132
  648TIP3   OH2 1907   0.177   4.459   1.672
  648TIP3    H1 1908   0.155   4.466   1.765
  648TIP3    H2 1909   0.188   4.365   1.657
  649TIP3   OH2 1910   0.544   6.038   0.319
  649TIP3    H1 1911   0.614   6.100   0.296
  649TIP3    H2 1912   0.479   6.092   0.364
  650TIP3   OH2 1913   0.466   3.825   0.679
  650TIP3    H1 1914   0.410   3.750   0.698
  650TIP3    H2 1915   0.410   3.884   0.629
  651TIP3   OH2 1916   1.160   1.018   2.636
  651TIP3    H1 1917   1.157   1.026   2.732
  651TIP3    H2 1918   1.236   1.070   2.610
  652TIP3   OH2 1919   4.823   2.650   4.858
  652TIP3    H1 1920   4.875   2.718   4.900
  652TIP3    H2 1921   4.780   2.605   4.931
  653TIP3   OH2 1922   3.916   2.957   1.749
  653TIP3    H1 1923   3.888   3.029   1.693
  653TIP3    H2 1924   3.835   2.925   1.790
  654TIP3   OH2 1925   3.635   2.773   3.949
  654TIP3    H1 1926   3.721   2.815   3.957
  654TIP3    H2 1927   3.655   2.681   3.934
  655TIP3   OH2 1928   6.071   1.546   1.534
  655TIP3    H1 1929   6.122   1.495   1.596
  655TIP3    H2 1930   6.020   1.607   1.588
  656TIP3   OH2 1931   0.153   4.687   1.902
  656TIP3    H1 1932   0.081   4.663   1.844
  656TIP3    H2 1933   0.139   4.634   1.980
  657TIP3   OH2 1934   2.067   6.414   1.192
  657TIP3    H1 1935   2.143   6.450   1.147
  657TIP3    H2 1936   2.028   6.489   1.237
  658TIP3   OH2 1937   4.043   6.054   2.837
  658TIP3    H1 1938   4.094   5.974   2.846
  658TIP3    H2 1939   4.068   6.090   2.752
  659TIP3   OH2 1940   7.152   6.746   4.577
  659TIP3    H1 1941   7.120   6.755   4.667
  659TIP3    H2 1942   7.119   6.660   4.549
  660TIP3   OH2 1943   4.327   5.869   5.397
  660TIP3    H1 1944   4.331   5.874   5.302
  660TIP3    H2 1945   4.392   5.802   5.420
  661TIP3   OH2 1946   0.395   4.923   4.844
  661TIP3    H1 1947   0.464   4.988   4.846
  661TIP3    H2 1948   0.425   4.858   4.781
  662TIP3   OH2 1949   1.646   6.165   0.443
  662TIP3    H1 1950   1.728   6.154   0.491
  662TIP3    H2 1951   1.612   6.076   0.433
  663TIP3   OH2 1952   0.935   4.392   3.997
  663TIP3    H1 1953   0.891   4.345   4.068
  663TIP3    H2 1954   0.974   4.324   3.942
  664TIP3   OH2 1955   1.556   2.666   5.468
  664TIP3    H1 1956   1.477   2.718   5.453
  664TIP3    H2 1957   1.627   2.719   5.434
  665TIP3   OH2 1958   1.961   4.345   0.406
  665TIP3    H1 1959   1.912   4.347   0.324
  665TIP3    H2 1960   1.896   4.361   0.474
  666TIP3   OH2 1961   5.430   0.508   2.342
  666TIP3    H1 1962   5.505   0.564   2.364
  666TIP3    H2 1963   5.466   0.420   2.337
  667TIP3   OH2 1964   4.971   4.540  -0.012
  667TIP3    H1 1965   5.026   4.464  -0.031
  667TIP3    H2 1966   4.967   4.542   0.084
  668TIP3   OH2 1967   3.747   5.624   5.571
  668TIP3    H1 1968   3.841   5.625   5.589
  668TIP3    H2 1969   3.738   5.669   5.487
  669TIP3   OH2 1970   6.639   3.643   3.426
  669TIP3    H1 1971   6.669   3.732   3.413
  669TIP3    H2 1972   6.713   3.598   3.467
  670TIP3   OH2 1973   3.660   2.900   1.168
  670TIP3    H1 1974   3.606   2.961   1.219
  670TIP3    H2 1975   3.615   2.893   1.084
  671TIP3   OH2 1976   5.066   2.634   5.263
  671TIP3    H1 1977   5.130   2.645   5.194
  671TIP3    H2 1978   5.110   2.579   5.328
  672TIP3   OH2 1979   1.277   3.136   2.617
  672TIP3    H1 1980   1.203   3.078   2.601
  672TIP3    H2 1981   1.318   3.148   2.531
  673TIP3   OH2 1982   5.404   4.687   3.512
  673TIP3    H1 1983   5.492   4.717   3.534
  673TIP3    H2 1984   5.398   4.697   3.417
  674TIP3   OH2 1985   5.593   4.896   5.745
  674TIP3    H1 1986   5.511   4.945   5.744
  674TIP3    H2 1987   5.647   4.937   5.677
  675TIP3   OH2 1988   5.659   6.664   2.034
  675TIP3    H1 1989   5.631   6.679   1.944
  675TIP3    H2 1990   5.677   6.752   2.068
  676TIP3   OH2 1991   6.353   5.870   5.207
  676TIP3    H1 1992   6.323   5.910   5.289
  676TIP3    H2 1993   6.412   5.934   5.169
  677TIP3   OH2 1994   1.557   4.473   5.389
  677TIP3    H1 1995   1.527   4.421   5.314
  677TIP3    H2 1996   1.530   4.562   5.368
  678TIP3   OH2 1997   3.740   4.032   1.023
  678TIP3    H1 1998   3.645   4.034   1.036
  678TIP3    H2 1999   3.758   4.111   0.971
  679TIP3   OH2 2000   5.350   1.806   2.696
  679TIP3    H1 2001   5.354   1.839   2.786
  679TIP3    H2 2002   5.257   1.806   2.674
  680TIP3   OH2 2003   1.189   6.531   5.180
  680TIP3    H1 2004   1.114   6.548   5.124
  680TIP3    H2 2005   1.163   6.458   5.235
  681TIP3   OH2 2006   6.079   5.881   0.373
  681TIP3    H1 2007   6.017   5.831   0.321
  681TIP3    H2 2008   6.050   5.870   0.464
  682TIP3   OH2 2009   2.573   0.246   3.110
  682TIP3    H1 2010   2.512   0.226   3.181
  682TIP3    H2 2011   2.524   0.307   3.053
  683TIP3   OH2 2012   6.817   2.976   1.454
  683TIP3    H1 2013   6.758   2.901   1.460
  683TIP3    H2 2014   6.894   2.951   1.505
  684TIP3   OH2 2015   5.081   1.820   5.791
  684TIP3    H1 2016   5.044   1.749   5.738
  684TIP3    H2 2017   5.172   1.827   5.760
  685TIP3   OH2 2018   3.699   6.443   2.049
  685TIP3    H1 2019   3.733   6.368   2.000
  685TIP3    H2 2020   3.763   6.456   2.119
  686TIP3   OH2 2021   1.247   1.810   0.288
  686TIP3    H1 2022   1.216   1.894   0.255
  686TIP3    H2 2023   1.326   1.792   0.238
  687TIP3   OH2 2024   0.673   6.840   3.310
  687TIP3    H1 2025   0.723   6.764   3.280
  687TIP3    H2 2026   0.738   6.910   3.316
  688TIP3   OH2 2027   5.117   5.559   1.191
  688TIP3    H1 2028   5.096   5.485   1.249
  688TIP3    H2 2029   5.176   5.614   1.243
  689TIP3   OH2 2030   6.346   6.250   3.961
  689TIP3    H1 2031   6.375   6.283   4.046
  689TIP3    H2 2032   6.351   6.155   3.969
  690TIP3   OH2 2033   0.376   0.595   0.258
  690TIP3    H1 2034   0.411   0.566   0.173
  690TIP3    H2 2035   0.327   0.674   0.238
  691TIP3   OH2 2036   2.812   1.122   2.503
  691TIP3    H1 2037   2.840   1.214   2.509
  691TIP3    H2 2038   2.864   1.077   2.570
  692TIP3   OH2 2039   3.604   2.830   2.267
  692TIP3    H1 2040   3.622   2.893   2.197
  692TIP3    H2 2041   3.551   2.880   2.330
  693TIP3   OH2 2042   0.814   5.471   0.385
  693TIP3    H1 2043   0.903   5.442   0.368
  693TIP3    H2 2044   0.821   5.522   0.466
  694TIP3   OH2 2045   3.613   4.687   4.150
  694TIP3    H1 2046   3.518   4.693   4.140
  694TIP3    H2 2047   3.627   4.670   4.243
  695TIP3   OH2 2048   4.837   2.642   1.704
  695TIP3    H1 2049   4.757   2.694   1.698
  695TIP3    H2 2050   4.809   2.558   1.740
  696TIP3   OH2 2051   0.356   0.968   1.027
  696TIP3    H1 2052   0.438   0.920   1.033
  696TIP3    H2 2053   0.290   0.901   1.009
  697TIP3   OH2 2054   3.571   0.768   5.331
  697TIP3    H1 2055   3.652   0.779   5.282
  697TIP3    H2 2056   3.530   0.855   5.330
  698TIP3   OH2 2057   2.272   2.084   4.962
  698TIP3    H1 2058   2.363   2.085   4.936
  698TIP3    H2 2059   2.255   1.995   4.991
  699TIP3   OH2 2060   4.655   2.637   0.122
  699TIP3    H1 2061   4.650   2.644   0.026
  699TIP3    H2 2062   4.609   2.714   0.154
  700TIP3   OH2 2063   4.260   5.895   1.374
  700TIP3    H1 2064   4.326   5.850   1.426
  700TIP3    H2 2065   4.182   5.840   1.381
  701TIP3   OH2 2066   4.670   1.128   2.706
  701TIP3    H1 2067   4.657   1.137   2.611
  701TIP3    H2 2068   4.613   1.195   2.743
  702TIP3   OH2 2069   3.603   3.685   3.210
  702TIP3    H1 2070   3.657   3.764   3.205
  702TIP3    H2 2071   3.568   3.685   3.299
  703TIP3   OH2 2072   2.281   5.494   4.613
  703TIP3    H1 2073   2.291   5.520   4.705
  703TIP3    H2 2074   2.284   5.398   4.615
  704TIP3   OH2 2075   5.600   3.616   0.789
  704TIP3    H1 2076   5.539   3.585   0.722
  704TIP3    H2 2077   5.551   3.609   0.871
  705TIP3   OH2 2078   6.179   6.765   4.840
  705TIP3    H1 2079   6.200   6.765   4.746
  705TIP3    H2 2080   6.215   6.848   4.872
  706TIP3   OH2 2081   1.723   0.177   0.361
  706TIP3    H1 2082   1.770   0.099   0.392
  706TIP3    H2 2083   1.644   0.143   0.320
  707TIP3   OH2 2084   4.178   5.894   0.697
  707TIP3    H1 2085   4.195   5.942   0.777
  707TIP3    H2 2086   4.099   5.932   0.661
  708TIP3   OH2 2087   6.328   0.700   3.474
  708TIP3    H1 2088   6.259   0.759   3.444
  708TIP3    H2 2089   6.389   0.757   3.522
  709TIP3   OH2 2090   4.871   2.943   0.313
  709TIP3    H1 2091   4.909   2.993   0.386
  709TIP3    H2 2092   4.945   2.897   0.274
  710TIP3   OH2 2093   5.978   5.299   3.950
  710TIP3    H1 2094   5.994   5.275   4.042
  710TIP3    H2 2095   6.028   5.235   3.900
  711TIP3   OH2 2096   6.079   3.355   0.244
  711TIP3    H1 2097   6.120   3.328   0.162
  711TIP3    H2 2098   5.995   3.391   0.217
  712TIP3   OH2 2099   3.021   4.049   2.347
  712TIP3    H1 2100   3.033   4.097   2.265
  712TIP3    H2 2101   2.947   4.092   2.389
  713TIP3   OH2 2102   1.612   4.060   4.078
  713TIP3    H1 2103   1.549   4.108   4.025
  713TIP3    H2 2104   1.570   3.976   4.096
  714TIP3   OH2 2105   2.742   3.424   4.679
  714TIP3    H1 2106   2.832   3.392   4.676
  714TIP3    H2 2107   2.688   3.345   4.669
  715TIP3   OH2 2108   6.748   4.518   5.121
  715TIP3    H1 2109   6.781   4.458   5.054
  715TIP3    H2 2110   6.669   4.475   5.154
  716TIP3   OH2 2111   7.036   3.815   5.179
  716TIP3    H1 2112   7.056   3.902   5.145
  716TIP3    H2 2113   6.954   3.791   5.136
  717TIP3   OH2 2114   1.822   5.943   4.458
  717TIP3    H1 2115   1.850   6.027   4.421
  717TIP3    H2 2116   1.901   5.906   4.496
  718TIP3   OH2 2117   0.038   6.220   5.231
  718TIP3    H1 2118  -0.029   6.227   5.300
  718TIP3    H2 2119   0.115   6.262   5.268
  719TIP3   OH2 2120   0.714   2.494   3.262
  719TIP3    H1 2121   0.648   2.554   3.298
  719TIP3    H2 2122   0.665   2.441   3.198
  720TIP3   OH2 2123   3.794   3.665   1.336
  720TIP3    H1 2124   3.886   3.648   1.354
  720TIP3    H2 2125   3.787   3.666   1.241
  721TIP3   OH2 2126   6.586   4.779   5.486
  721TIP3    H1 2127   6.620   4.721   5.418
  721TIP3    H2 2128   6.646   4.854   5.486
  722TIP3   OH2 2129   6.875   3.785   1.194
  722TIP3    H1 2130   6.957   3.749   1.228
  722TIP3    H2 2131   6.840   3.837   1.267
  723TIP3   OH2 2132   2.998   3.742   0.113
  723TIP3    H1 2133   2.942   3.668   0.137
  723TIP3    H2 2134   3.020   3.783   0.197
  724TIP3   OH2 2135   3.526   2.124   2.784
  724TIP3    H1 2136   3.509   2.199   2.840
  724TIP3    H2 2137   3.619   2.129   2.763
  725TIP3   OH2 2138   0.605   5.190   4.320
  725TIP3    H1 2139   0.606   5.154   4.231
  725TIP3    H2 2140   0.633   5.117   4.376
  726TIP3   OH2 2141   5.032   6.164   0.926
  726TIP3    H1 2142   5.019   6.079   0.967
  726TIP3    H2 2143   4.977   6.224   0.976
  727TIP3   OH2 2144   1.770   1.684   5.616
  727TIP3    H1 2145   1.703   1.662   5.552
  727TIP3    H2 2146   1.853   1.662   5.572
  728TIP3   OH2 2147   1.279   0.021   2.727
  728TIP3    H1 2148   1.367  -0.009   2.703
  728TIP3    H2 2149   1.255   0.082   2.657
  729TIP3   OH2 2150   2.723   2.704   2.218
  729TIP3    H1 2151   2.661   2.733   2.285
  729TIP3    H2 2152   2.741   2.783   2.167
  730TIP3   OH2 2153   6.163   5.856   4.955
  730TIP3    H1 2154   6.216   5.927   4.920
  730TIP3    H2 2155   6.210   5.776   4.930
  731TIP3   OH2 2156   5.351   3.946   5.022
  731TIP3    H1 2157   5.317   3.995   5.097
  731TIP3    H2 2158   5.446   3.960   5.026
  732TIP3   OH2 2159   1.880   4.364   0.675
  732TIP3    H1 2160   1.907   4.372   0.766
  732TIP3    H2 2161   1.813   4.432   0.664
  733TIP3   OH2 2162   2.942   3.226   1.403
  733TIP3    H1 2163   2.888   3.219   1.481
  733TIP3    H2 2164   2.881   3.219   1.330
  734TIP3   OH2 2165   3.132   6.535   5.359
  734TIP3    H1 2166   3.124   6.629   5.372
  734TIP3    H2 2167   3.143   6.524   5.265
  735TIP3   OH2 2168   5.493   6.114   4.904
  735TIP3    H1 2169   5.543   6.091   4.826
  735TIP3    H2 2170   5.468   6.029   4.943
  736TIP3   OH2 2171   0.697   6.594   0.847
  736TIP3    H1 2172   0.687   6.688   0.863
  736TIP3    H2 2173   0.786   6.574   0.877
  737TIP3   OH2 2174   2.940   6.168   3.560
  737TIP3    H1 2175   2.916   6.246   3.610
  737TIP3    H2 2176   2.976   6.202   3.478
  738TIP3   OH2 2177   2.970   0.452   2.736
  738TIP3    H1 2178   2.995   0.453   2.644
  738TIP3    H2 2179   3.035   0.395   2.778
  739TIP3   OH2 2180   2.365   4.524   3.151
  739TIP3    H1 2181   2.456   4.547   3.132
  739TIP3    H2 2182   2.325   4.606   3.179
  740TIP3   OH2 2183   3.892   3.413   2.322
  740TIP3    H1 2184   3.934   3.385   2.404
  740TIP3    H2 2185   3.911   3.506   2.317
  741TIP3   OH2 2186   1.249   6.538   4.838
  741TIP3    H1 2187   1.220   6.577   4.756
  741TIP3    H2 2188   1.179   6.476   4.861
  742TIP3   OH2 2189   6.116   5.274   1.927
  742TIP3    H1 2190   6.085   5.361   1.952
  742TIP3    H2 2191   6.149   5.236   2.009
  743TIP3   OH2 2192   4.818   3.781   2.726
  743TIP3    H1 2193   4.827   3.791   2.632
  743TIP3    H2 2194   4.837   3.868   2.762
  744TIP3   OH2 2195   6.461   0.195   1.930
  744TIP3    H1 2196   6.407   0.117   1.916
  744TIP3    H2 2197   6.541   0.162   1.969
  745TIP3   OH2 2198   7.045   5.853   2.728
  745TIP3    H1 2199   7.109   5.904   2.777
  745TIP3    H2 2200   7.097   5.791   2.677
  746TIP3   OH2 2201   0.900   1.758   3.029
  746TIP3    H1 2202   0.936   1.845   3.017
  746TIP3    H2 2203   0.884   1.751   3.123
  747TIP3   OH2 2204   2.888   5.817   1.176
  747TIP3    H1 2205   2.981   5.814   1.153
  747TIP3    H2 2206   2.860   5.905   1.150
  748TIP3   OH2 2207   6.071   5.197   4.985
  748TIP3    H1 2208   6.095   5.114   5.025
  748TIP3    H2 2209   6.096   5.188   4.893
  749TIP3   OH2 2210   5.441   3.145   3.922
  749TIP3    H1 2211   5.382   3.208   3.962
  749TIP3    H2 2212   5.404   3.059   3.944
  750TIP3   OH2 2213   6.541   6.301   3.157
  750TIP3    H1 2214   6.568   6.222   3.204
  750TIP3    H2 2215   6.579   6.291   3.070
  751TIP3   OH2 2216   5.244   1.432   1.856
  751TIP3    H1 2217   5.320   1.375   1.872
  751TIP3    H2 2218   5.282   1.518   1.841
  752TIP3   OH2 2219   2.127   2.382   3.764
  752TIP3    H1 2220   2.152   2.393   3.855
  752TIP3    H2 2221   2.031   2.373   3.766
  753TIP3   OH2 2222   1.184   4.535   4.737
  753TIP3    H1 2223   1.252   4.544   4.670
  753TIP3    H2 2224   1.193   4.614   4.791
  754TIP3   OH2 2225   2.400   1.390   4.379
  754TIP3    H1 2226   2.383   1.404   4.285
  754TIP3    H2 2227   2.478   1.442   4.397
  755TIP3   OH2 2228   1.968   1.019   2.889
  755TIP3    H1 2229   1.969   0.941   2.834
  755TIP3    H2 2230   1.928   0.991   2.971
  756TIP3   OH2 2231   3.574   6.683   4.768
  756TIP3    H1 2232   3.641   6.615   4.775
  756TIP3    H2 2233   3.623   6.766   4.774
  757TIP3   OH2 2234   5.715   4.500   1.472
  757TIP3    H1 2235   5.658   4.562   1.427
  757TIP3    H2 2236   5.668   4.477   1.552
  758TIP3   OH2 2237   1.637   1.354   5.912
  758TIP3    H1 2238   1.626   1.367   5.817
  758TIP3    H2 2239   1.548   1.358   5.947
  759TIP3   OH2 2240   6.872   1.383   3.281
  759TIP3    H1 2241   6.876   1.289   3.266
  759TIP3    H2 2242   6.814   1.416   3.212
  760TIP3   OH2 2243   0.691   0.032   4.121
  760TIP3    H1 2244   0.780   0.037   4.156
  760TIP3    H2 2245   0.702   0.032   4.026
  761TIP3   OH2 2246   3.262   0.433   4.052
  761TIP3    H1 2247   3.203   0.459   3.981
  761TIP3    H2 2248   3.203   0.401   4.121
  762TIP3   OH2 2249   4.851   3.696   0.825
  762TIP3    H1 2250   4.853   3.658   0.913
  762TIP3    H2 2251   4.845   3.790   0.839
  763TIP3   OH2 2252   2.720   2.399   4.431
  763TIP3    H1 2253   2.752   2.315   4.397
  763TIP3    H2 2254   2.728   2.459   4.357
  764TIP3   OH2 2255   4.542   1.777   1.170
  764TIP3    H1 2256   4.594   1.837   1.223
  764TIP3    H2 2257   4.487   1.833   1.115
  765TIP3   OH2 2258   3.595   6.185   3.472
  765TIP3    H1 2259   3.580   6.238   3.394
  765TIP3    H2 2260   3.618   6.248   3.540
  766TIP3   OH2 2261   3.749   3.563   4.916
  766TIP3    H1 2262   3.750   3.658   4.902
  766TIP3    H2 2263   3.840   3.540   4.932
  767TIP3   OH2 2264   0.165   5.983   5.042
  767TIP3    H1 2265   0.111   5.906   5.054
  767TIP3    H2 2266   0.148   6.037   5.119
  768TIP3   OH2 2267   5.335   5.175   5.531
  768TIP3    H1 2268   5.355   5.158   5.623
  768TIP3    H2 2269   5.315   5.088   5.494
  769TIP3   OH2 2270   0.087   4.451   0.407
  769TIP3    H1 2271   0.103   4.533   0.360
  769TIP3    H2 2272   0.173   4.421   0.434
  770TIP3   OH2 2273   3.001   4.984   5.320
  770TIP3    H1 2274   2.966   5.069   5.350
  770TIP3    H2 2275   3.066   5.007   5.254
  771TIP3   OH2 2276   1.575   0.835   4.571
  771TIP3    H1 2277   1.659   0.843   4.526
  771TIP3    H2 2278   1.580   0.751   4.616
  772TIP3   OH2 2279   1.070   4.295   2.387
  772TIP3    H1 2280   0.975   4.281   2.391
  772TIP3    H2 2281   1.108   4.210   2.406
  773TIP3   OH2 2282   5.848   5.879   3.146
  773TIP3    H1 2283   5.837   5.974   3.145
  773TIP3    H2 2284   5.843   5.853   3.054
  774TIP3   OH2 2285   5.113   4.477   1.254
  774TIP3    H1 2286   5.166   4.555   1.275
  774TIP3    H2 2287   5.137   4.413   1.321
  775TIP3   OH2 2288   6.339   4.946   5.414
  775TIP3    H1 2289   6.432   4.935   5.395
  775TIP3    H2 2290   6.294   4.901   5.343
  776TIP3   OH2 2291   2.269   1.155   1.627
  776TIP3    H1 2292   2.305   1.234   1.588
  776TIP3    H2 2293   2.235   1.105   1.553
  777TIP3   OH2 2294   2.655   3.536   2.788
  777TIP3    H1 2295   2.719   3.467   2.800
  777TIP3    H2 2296   2.635   3.535   2.694
  778TIP3   OH2 2297   2.266   2.811   2.648
  778TIP3    H1 2298   2.350   2.832   2.606
  778TIP3    H2 2299   2.202   2.815   2.577
  779TIP3   OH2 2300   2.645   1.395   4.097
  779TIP3    H1 2301   2.740   1.391   4.083
  779TIP3    H2 2302   2.623   1.308   4.131
  780TIP3   OH2 2303   3.156   1.570   3.992
  780TIP3    H1 2304   3.183   1.533   4.076
  780TIP3    H2 2305   3.203   1.653   3.987
  781TIP3   OH2 2306   1.436   2.771   2.541
  781TIP3    H1 2307   1.479   2.710   2.602
  781TIP3    H2 2308   1.438   2.855   2.586
  782TIP3   OH2 2309   4.007   4.716   3.467
  782TIP3    H1 2310   4.008   4.789   3.405
  782TIP3    H2 2311   3.915   4.705   3.488
  783TIP3   OH2 2312   3.481   0.589   0.496
  783TIP3    H1 2313   3.548   0.531   0.459
  783TIP3    H2 2314   3.530   0.666   0.527
  784TIP3   OH2 2315   5.490   6.693   1.830
  784TIP3    H1 2316   5.503   6.764   1.766
  784TIP3    H2 2317   5.493   6.613   1.777
  785TIP3   OH2 2318   3.815   0.509   4.403
  785TIP3    H1 2319   3.725   0.537   4.414
  785TIP3    H2 2320   3.808   0.415   4.384
  786TIP3   OH2 2321   2.620   5.769   3.002
  786TIP3    H1 2322   2.526   5.751   2.999
  786TIP3    H2 2323   2.660   5.696   2.956
  787TIP3   OH2 2324   0.416   4.504   4.101
  787TIP3    H1 2325   0.422   4.430   4.160
  787TIP3    H2 2326   0.360   4.473   4.029
  788TIP3   OH2 2327   5.389   1.333   5.789
  788TIP3    H1 2328   5.404   1.313   5.882
  788TIP3    H2 2329   5.453   1.279   5.743
  789TIP3   OH2 2330   5.032   3.634   4.082
  789TIP3    H1 2331   4.947   3.667   4.113
  789TIP3    H2 2332   5.069   3.588   4.157
  790TIP3   OH2 2333   2.023   1.341   4.544
  790TIP3    H1 2334   2.053   1.334   4.635
  790TIP3    H2 2335   1.973   1.423   4.543
  791TIP3   OH2 2336   0.571   0.844   5.258
  791TIP3    H1 2337   0.499   0.783   5.239
  791TIP3    H2 2338   0.537   0.900   5.328
  792TIP3   OH2 2339   3.182   0.324   5.427
  792TIP3    H1 2340   3.235   0.388   5.379
  792TIP3    H2 2341   3.094   0.361   5.429
  793TIP3   OH2 2342   4.823   4.870   0.197
  793TIP3    H1 2343   4.849   4.799   0.255
  793TIP3    H2 2344   4.888   4.939   0.213
  794TIP3   OH2 2345   6.454   4.339   5.707
  794TIP3    H1 2346   6.361   4.357   5.718
  794TIP3    H2 2347   6.461   4.243   5.709
  795TIP3   OH2 2348   6.401   5.601   5.155
  795TIP3    H1 2349   6.496   5.601   5.169
  795TIP3    H2 2350   6.370   5.681   5.196
  796TIP3   OH2 2351   0.689   0.734   4.211
  796TIP3    H1 2352   0.733   0.650   4.226
  796TIP3    H2 2353   0.665   0.764   4.299
  797TIP3   OH2 2354   1.562   5.210   3.621
  797TIP3    H1 2355   1.544   5.223   3.714
  797TIP3    H2 2356   1.617   5.285   3.597
  798TIP3   OH2 2357   0.281   3.941   1.374
  798TIP3    H1 2358   0.244   3.925   1.461
  798TIP3    H2 2359   0.238   3.877   1.317
  799TIP3   OH2 2360   6.414   6.407   4.183
  799TIP3    H1 2361   6.356   6.482   4.171
  799TIP3    H2 2362   6.447   6.416   4.273
  800TIP3   OH2 2363   4.623   6.292   0.572
  800TIP3    H1 2364   4.655   6.207   0.600
  800TIP3    H2 2365   4.602   6.280   0.479
  801TIP3   OH2 2366   5.732   4.950   5.121
  801TIP3    H1 2367   5.670   5.018   5.150
  801TIP3    H2 2368   5.817   4.982   5.149
  802TIP3   OH2 2369   3.677   1.861   0.983
  802TIP3    H1 2370   3.697   1.854   0.889
  802TIP3    H2 2371   3.669   1.771   1.013
  803TIP3   OH2 2372   2.344   5.225   4.635
  803TIP3    H1 2373   2.321   5.201   4.725
  803TIP3    H2 2374   2.422   5.173   4.616
  804TIP3   OH2 2375   6.115   5.789   2.913
  804TIP3    H1 2376   6.093   5.855   2.848
  804TIP3    H2 2377   6.063   5.713   2.888
  805TIP3   OH2 2378   6.182   5.175   1.184
  805TIP3    H1 2379   6.241   5.100   1.173
  805TIP3    H2 2380   6.128   5.175   1.105
  806TIP3   OH2 2381   1.175   4.781   3.398
  806TIP3    H1 2382   1.224   4.733   3.331
  806TIP3    H2 2383   1.105   4.720   3.424
  807TIP3   OH2 2384   1.451   0.283   1.134
  807TIP3    H1 2385   1.363   0.251   1.157
  807TIP3    H2 2386   1.471   0.240   1.051
  808TIP3   OH2 2387   5.967   5.004   2.426
  808TIP3    H1 2388   6.037   5.023   2.489
  808TIP3    H2 2389   5.898   5.066   2.447
  809TIP3   OH2 2390   4.012   4.254   5.320
  809TIP3    H1 2391   4.020   4.159   5.316
  809TIP3    H2 2392   4.098   4.287   5.294
  810TIP3   OH2 2393   5.980   4.750   3.007
  810TIP3    H1 2394   6.047   4.815   2.986
  810TIP3    H2 2395   5.918   4.797   3.063
  811TIP3   OH2 2396   6.737   4.366   5.788
  811TIP3    H1 2397   6.645   4.348   5.767
  811TIP3    H2 2398   6.749   4.458   5.765
  812TIP3   OH2 2399   1.125   1.764   0.556
  812TIP3    H1 2400   1.172   1.840   0.591
  812TIP3    H2 2401   1.147   1.764   0.463
  813TIP3   OH2 2402   2.544   2.033   5.771
  813TIP3    H1 2403   2.581   2.096   5.709
  813TIP3    H2 2404   2.517   2.086   5.846
  814TIP3   OH2 2405   3.020   5.735   2.461
  814TIP3    H1 2406   3.093   5.716   2.402
  814TIP3    H2 2407   2.944   5.747   2.404
  815TIP3   OH2 2408   1.252   1.754   5.270
  815TIP3    H1 2409   1.283   1.783   5.356
  815TIP3    H2 2410   1.297   1.671   5.255
  816TIP3   OH2 2411   5.961   0.918   5.180
  816TIP3    H1 2412   6.035   0.878   5.227
  816TIP3    H2 2413   5.979   0.901   5.088
  817TIP3   OH2 2414   4.445   3.599   1.446
  817TIP3    H1 2415   4.463   3.542   1.520
  817TIP3    H2 2416   4.530   3.635   1.422
  818TIP3   OH2 2417   6.766   2.845   3.907
  818TIP3    H1 2418   6.802   2.876   3.824
  818TIP3    H2 2419   6.685   2.800   3.882
  819TIP3   OH2 2420   7.100   0.104   4.882
  819TIP3    H1 2421   7.114   0.195   4.856
  819TIP3    H2 2422   7.015   0.081   4.846
  820TIP3   OH2 2423   6.658   0.415   2.220
  820TIP3    H1 2424   6.622   0.397   2.307
  820TIP3    H2 2425   6.608   0.490   2.189
  821TIP3   OH2 2426   0.530   2.121   2.878
  821TIP3    H1 2427   0.615   2.086   2.853
  821TIP3    H2 2428   0.469   2.083   2.815
  822TIP3   OH2 2429   3.990   1.470   3.218
  822TIP3    H1 2430   4.009   1.381   3.188
  822TIP3    H2 2431   4.061   1.524   3.181
  823TIP3   OH2 2432   5.246   0.956   0.731
  823TIP3    H1 2433   5.278   0.867   0.741
  823TIP3    H2 2434   5.300   1.008   0.791
  824TIP3   OH2 2435   2.060   3.060   0.548
  824TIP3    H1 2436   2.023   3.028   0.465
  824TIP3    H2 2437   2.028   3.150   0.555
  825TIP3   OH2 2438   5.058   3.053   3.602
  825TIP3    H1 2439   5.046   3.142   3.636
  825TIP3    H2 2440   4.972   3.013   3.612
  826TIP3   OH2 2441   2.735   4.419   5.243
  826TIP3    H1 2442   2.708   4.433   5.152
  826TIP3    H2 2443   2.806   4.355   5.237
  827TIP3   OH2 2444   6.788   5.752   2.075
  827TIP3    H1 2445   6.727   5.799   2.133
  827TIP3    H2 2446   6.737   5.680   2.040
  828TIP3   OH2 2447   5.504   4.715   2.904
  828TIP3    H1 2448   5.446   4.777   2.859
  828TIP3    H2 2449   5.508   4.747   2.994
  829TIP3   OH2 2450   4.174   2.853   5.694
  829TIP3    H1 2451   4.166   2.805   5.612
  829TIP3    H2 2452   4.268   2.852   5.714
  830TIP3   OH2 2453   6.488   1.654   1.459
  830TIP3    H1 2454   6.511   1.636   1.550
  830TIP3    H2 2455   6.469   1.747   1.457
  831TIP3   OH2 2456   1.648   0.870   1.539
  831TIP3    H1 2457   1.635   0.880   1.633
  831TIP3    H2 2458   1.656   0.775   1.526
  832TIP3   OH2 2459   5.678   5.741   4.172
  832TIP3    H1 2460   5.723   5.728   4.256
  832TIP3    H2 2461   5.730   5.808   4.128
  833TIP3   OH2 2462   3.880   1.435   5.435
  833TIP3    H1 2463   3.927   1.506   5.480
  833TIP3    H2 2464   3.949   1.376   5.406
  834TIP3   OH2 2465   5.929   5.182   1.735
  834TIP3    H1 2466   5.905   5.248   1.669
  834TIP3    H2 2467   5.996   5.225   1.789
  835TIP3   OH2 2468   4.389   0.392   0.321
  835TIP3    H1 2469   4.412   0.429   0.235
  835TIP3    H2 2470   4.435   0.447   0.384
  836TIP3   OH2 2471   4.678   1.610   3.308
  836TIP3    H1 2472   4.632   1.669   3.366
  836TIP3    H2 2473   4.617   1.538   3.293
  837TIP3   OH2 2474   2.910   1.050   0.590
  837TIP3    H1 2475   2.929   0.957   0.602
  837TIP3    H2 2476   2.907   1.086   0.678
  838TIP3   OH2 2477   2.124   5.824   5.269
  838TIP3    H1 2478   2.205   5.777   5.252
  838TIP3    H2 2479   2.092   5.789   5.352
  839TIP3   OH2 2480   0.419   1.868   1.706
  839TIP3    H1 2481   0.357   1.858   1.779
  839TIP3    H2 2482   0.363   1.873   1.628
  840TIP3   OH2 2483   4.229   3.256   5.281
  840TIP3    H1 2484   4.315   3.286   5.307
  840TIP3    H2 2485   4.185   3.234   5.363
  841TIP3   OH2 2486   0.220   3.758   3.196
  841TIP3    H1 2487   0.201   3.850   3.177
  841TIP3    H2 2488   0.150   3.710   3.150
  842TIP3   OH2 2489   1.478   3.652   0.298
  842TIP3    H1 2490   1.470   3.591   0.225
  842TIP3    H2 2491   1.571   3.677   0.299
  843TIP3   OH2 2492   2.631   2.232   5.595
  843TIP3    H1 2493   2.638   2.314   5.548
  843TIP3    H2 2494   2.591   2.171   5.533
  844TIP3   OH2 2495   3.976   3.744   2.091
  844TIP3    H1 2496   4.061   3.733   2.133
  844TIP3    H2 2497   3.913   3.745   2.163
  845TIP3   OH2 2498   6.612   3.642   1.438
  845TIP3    H1 2499   6.587   3.711   1.500
  845TIP3    H2 2500   6.593   3.561   1.485
  846TIP3   OH2 2501   4.168   0.655   2.390
  846TIP3    H1 2502   4.248   0.604   2.376
  846TIP3    H2 2503   4.190   0.714   2.463
  847TIP3   OH2 2504   1.275   4.873   4.856
  847TIP3    H1 2505   1.200   4.883   4.914
  847TIP3    H2 2506   1.344   4.925   4.898
  848TIP3   OH2 2507   2.285   5.326   4.332
  848TIP3    H1 2508   2.217   5.261   4.314
  848TIP3    H2 2509   2.286   5.335   4.427
  849TIP3   OH2 2510   0.516   5.412   4.972
  849TIP3    H1 2511   0.505   5.356   5.050
  849TIP3    H2 2512   0.445   5.386   4.914
  850TIP3   OH2 2513   5.378   3.220   2.686
  850TIP3    H1 2514   5.378   3.222   2.590
  850TIP3    H2 2515   5.287   3.237   2.711
  851TIP3   OH2 2516   7.126   4.568   1.822
  851TIP3    H1 2517   7.114   4.549   1.729
  851TIP3    H2 2518   7.089   4.656   1.832
  852TIP3   OH2 2519   2.302   1.496   5.127
  852TIP3    H1 2520   2.337   1.507   5.039
  852TIP3    H2 2521   2.373   1.453   5.176
  853TIP3   OH2 2522   5.338   6.614   0.240
  853TIP3    H1 2523   5.247   6.612   0.271
  853TIP3    H2 2524   5.346   6.536   0.186
  854TIP3   OH2 2525   2.464   5.191   0.729
  854TIP3    H1 2526   2.494   5.140   0.654
  854TIP3    H2 2527   2.469   5.130   0.803
  855TIP3   OH2 2528   5.388   2.013   3.662
  855TIP3    H1 2529   5.293   2.003   3.650
  855TIP3    H2 2530   5.421   2.032   3.574
  856TIP3   OH2 2531   5.894   6.666   2.845
  856TIP3    H1 2532   5.955   6.716   2.791
  856TIP3    H2 2533   5.948   6.622   2.910
  857TIP3   OH2 2534   0.319   5.895   5.735
  857TIP3    H1 2535   0.291   5.808   5.764
  857TIP3    H2 2536   0.238   5.941   5.716
  858TIP3   OH2 2537   0.007   4.830   0.625
  858TIP3    H1 2538   0.002   4.815   0.719
  858TIP3    H2 2539   0.098   4.812   0.602
  859TIP3   OH2 2540   1.740   5.777   3.001
  859TIP3    H1 2541   1.795   5.736   2.934
  859TIP3    H2 2542   1.687   5.841   2.953
  860TIP3   OH2 2543   4.237   0.137   4.112
  860TIP3    H1 2544   4.288   0.218   4.110
  860TIP3    H2 2545   4.223   0.120   4.205
  861TIP3   OH2 2546   1.617   3.727   3.166
  861TIP3    H1 2547   1.707   3.721   3.132
  861TIP3    H2 2548   1.586   3.637   3.168
  862TIP3   OH2 2549   1.174   6.544   4.456
  862TIP3    H1 2550   1.199   6.621   4.507
  862TIP3    H2 2551   1.094   6.513   4.497
  863TIP3   OH2 2552   5.145   0.024   3.946
  863TIP3    H1 2553   5.066   0.059   3.906
  863TIP3    H2 2554   5.120   0.002   4.036
  864TIP3   OH2 2555   3.273   1.284   2.434
  864TIP3    H1 2556   3.288   1.193   2.459
  864TIP3    H2 2557   3.351   1.309   2.385
  865TIP3   OH2 2558   2.215   4.325   1.216
  865TIP3    H1 2559   2.199   4.419   1.227
  865TIP3    H2 2560   2.267   4.301   1.293
  866TIP3   OH2 2561   0.545   5.751   0.314
  866TIP3    H1 2562   0.529   5.841   0.340
  866TIP3    H2 2563   0.458   5.718   0.288
  867TIP3   OH2 2564   2.368   3.558   3.135
  867TIP3    H1 2565   2.362   3.515   3.049
  867TIP3    H2 2566   2.395   3.488   3.194
  868TIP3   OH2 2567   2.268   4.023   2.082
  868TIP3    H1 2568   2.353   4.064   2.065
  868TIP3    H2 2569   2.281   3.975   2.164
  869TIP3   OH2 2570   1.602   1.341   2.794
  869TIP3    H1 2571   1.532   1.404   2.813
  869TIP3    H2 2572   1.569   1.258   2.827
  870TIP3   OH2 2573   5.682   2.062   2.376
  870TIP3    H1 2574   5.751   1.995   2.376
  870TIP3    H2 2575   5.607   2.019   2.417
  871TIP3   OH2 2576   3.012   1.528   0.409
  871TIP3    H1 2577   2.989   1.543   0.317
  871TIP3    H2 2578   3.079   1.593   0.428
  872TIP3   OH2 2579   2.854   5.602   2.129
  872TIP3    H1 2580   2.816   5.653   2.201
  872TIP3    H2 2581   2.819   5.641   2.050
  873TIP3   OH2 2582   4.351   5.538   4.834
  873TIP3    H1 2583   4.417   5.530   4.765
  873TIP3    H2 2584   4.346   5.632   4.852
  874TIP3   OH2 2585   4.401   5.251   4.487
  874TIP3    H1 2586   4.364   5.340   4.484
  874TIP3    H2 2587   4.392   5.219   4.397
  875TIP3   OH2 2588   2.218   4.735   3.308
  875TIP3    H1 2589   2.143   4.682   3.333
  875TIP3    H2 2590   2.213   4.812   3.364
  876TIP3   OH2 2591   3.907   1.018   3.350
  876TIP3    H1 2592   3.930   1.012   3.443
  876TIP3    H2 2593   3.845   0.946   3.336
  877TIP3   OH2 2594   6.898   2.807   1.879
  877TIP3    H1 2595   6.940   2.761   1.806
  877TIP3    H2 2596   6.872   2.738   1.939
  878TIP3   OH2 2597   0.362   5.368   0.844
  878TIP3    H1 2598   0.415   5.328   0.775
  878TIP3    H2 2599   0.381   5.461   0.838
  879TIP3   OH2 2600   6.711   0.546   5.008
  879TIP3    H1 2601   6.766   0.468   5.007
  879TIP3    H2 2602   6.772   0.620   5.014
  880TIP3   OH2 2603   5.546   0.803   1.942
  880TIP3    H1 2604   5.639   0.818   1.924
  880TIP3    H2 2605   5.513   0.889   1.968
  881TIP3   OH2 2606   1.847   0.925   4.514
  881TIP3    H1 2607   1.937   0.950   4.490
  881TIP3    H2 2608   1.798   1.007   4.511
  882TIP3   OH2 2609   1.173   6.108   2.332
  882TIP3    H1 2610   1.195   6.043   2.400
  882TIP3    H2 2611   1.120   6.060   2.269
  883TIP3   OH2 2612   0.021   4.544   4.273
  883TIP3    H1 2613   0.010   4.594   4.191
  883TIP3    H2 2614   0.073   4.468   4.248
  884TIP3   OH2 2615   4.653   4.560   3.430
  884TIP3    H1 2616   4.608   4.476   3.440
  884TIP3    H2 2617   4.745   4.537   3.418
  885TIP3   OH2 2618   6.413   0.792   1.375
  885TIP3    H1 2619   6.453   0.876   1.354
  885TIP3    H2 2620   6.441   0.773   1.464
  886TIP3   OH2 2621   6.879   2.167   2.161
  886TIP3    H1 2622   6.849   2.155   2.070
  886TIP3    H2 2623   6.946   2.100   2.173
  887TIP3   OH2 2624   6.244   2.432   3.619
  887TIP3    H1 2625   6.259   2.467   3.531
  887TIP3    H2 2626   6.230   2.508   3.674
  888TIP3   OH2 2627   6.022   3.139   5.144
  888TIP3    H1 2628   6.034   3.085   5.222
  888TIP3    H2 2629   6.073   3.219   5.163
  889TIP3   OH2 2630   6.590   5.502   1.110
  889TIP3    H1 2631   6.651   5.469   1.176
  889TIP3    H2 2632   6.509   5.454   1.128
  890TIP3   OH2 2633   1.411   3.336   3.681
  890TIP3    H1 2634   1.366   3.385   3.750
  890TIP3    H2 2635   1.428   3.250   3.720
  891TIP3   OH2 2636   2.167   1.581   4.722
  891TIP3    H1 2637   2.259   1.579   4.698
  891TIP3    H2 2638   2.138   1.670   4.704
  892TIP3   OH2 2639   1.746   0.148   3.001
  892TIP3    H1 2640   1.651   0.153   2.996
  892TIP3    H2 2641   1.768   0.193   3.083
  893TIP3   OH2 2642   0.138   3.441   4.818
  893TIP3    H1 2643   0.196   3.366   4.804
  893TIP3    H2 2644   0.050   3.402   4.823
  894TIP3   OH2 2645   6.791   1.529   2.739
  894TIP3    H1 2646   6.696   1.522   2.750
  894TIP3    H2 2647   6.808   1.490   2.653
  895TIP3   OH2 2648   4.387   5.128   5.843
  895TIP3    H1 2649   4.441   5.170   5.776
  895TIP3    H2 2650   4.415   5.169   5.925
  896TIP3   OH2 2651   0.432   0.320   3.210
  896TIP3    H1 2652   0.342   0.293   3.191
  896TIP3    H2 2653   0.479   0.238   3.226
  897TIP3   OH2 2654   2.755   4.811   3.396
  897TIP3    H1 2655   2.701   4.791   3.319
  897TIP3    H2 2656   2.692   4.819   3.468
  898TIP3   OH2 2657   4.537   0.136   1.970
  898TIP3    H1 2658   4.629   0.160   1.983
  898TIP3    H2 2659   4.538   0.040   1.962
  899TIP3   OH2 2660   6.119   1.988   0.784
  899TIP3    H1 2661   6.092   2.080   0.782
  899TIP3    H2 2662   6.172   1.980   0.863
  900TIP3   OH2 2663   6.866   5.379   2.084
  900TIP3    H1 2664   6.837   5.399   1.996
  900TIP3    H2 2665   6.943   5.434   2.098
  901TIP3   OH2 2666   5.027   0.513   0.881
  901TIP3    H1 2667   4.967   0.492   0.953
  901TIP3    H2 2668   5.099   0.450   0.892
  902TIP3   OH2 2669   5.938   3.067   0.128
  902TIP3    H1 2670   5.953   3.158   0.153
  902TIP3    H2 2671   5.893   3.072   0.043
  903TIP3   OH2 2672   0.433   5.732   5.002
  903TIP3    H1 2673   0.398   5.754   4.916
  903TIP3    H2 2674   0.434   5.636   5.004
  904TIP3   OH2 2675   4.517   0.843   5.014
  904TIP3    H1 2676   4.509   0.803   4.927
  904TIP3    H2 2677   4.429   0.838   5.050
  905TIP3   OH2 2678   3.441   3.527   1.869
  905TIP3    H1 2679   3.373   3.505   1.933
  905TIP3    H2 2680   3.402   3.508   1.784
  906TIP3   OH2 2681   0.558   0.513   2.155
  906TIP3    H1 2682   0.577   0.556   2.072
  906TIP3    H2 2683   0.504   0.438   2.132
  907TIP3   OH2 2684   2.575   3.886   1.952
  907TIP3    H1 2685   2.660   3.892   1.996
  907TIP3    H2 2686   2.593   3.909   1.861
  908TIP3   OH2 2687   6.827   2.984   3.328
  908TIP3    H1 2688   6.906   2.931   3.338
  908TIP3    H2 2689   6.759   2.921   3.305
  909TIP3   OH2 2690   6.089   3.623   3.871
  909TIP3    H1 2691   6.082   3.699   3.930
  909TIP3    H2 2692   6.103   3.549   3.930
  910TIP3   OH2 2693   1.572   6.620   3.886
  910TIP3    H1 2694   1.635   6.692   3.876
  910TIP3    H2 2695   1.492   6.663   3.918
  911TIP3   OH2 2696   4.787   5.785   4.473
  911TIP3    H1 2697   4.847   5.719   4.508
  911TIP3    H2 2698   4.707   5.773   4.523
  912TIP3   OH2 2699   2.827   0.076   2.683
  912TIP3    H1 2700   2.860  -0.014   2.689
  912TIP3    H2 2701   2.906   0.130   2.676
  913TIP3   OH2 2702   5.155   6.093   3.076
  913TIP3    H1 2703   5.208   6.046   3.140
  913TIP3    H2 2704   5.069   6.051   3.080
  914TIP3   OH2 2705   6.755   3.301   2.410
  914TIP3    H1 2706   6.692   3.295   2.338
  914TIP3    H2 2707   6.830   3.250   2.380
  915TIP3   OH2 2708   2.490   4.740   0.434
  915TIP3    H1 2709   2.554   4.689   0.384
  915TIP3    H2 2710   2.424   4.676   0.460
  916TIP3   OH2 2711   0.750   3.903   5.779
  916TIP3    H1 2712   0.712   3.820   5.751
  916TIP3    H2 2713   0.809   3.928   5.709
  917TIP3   OH2 2714   4.391   4.654   3.475
  917TIP3    H1 2715   4.476   4.621   3.447
  917TIP3    H2 2716   4.334   4.644   3.399
  918TIP3   OH2 2717   0.970   6.345   0.263
  918TIP3    H1 2718   0.883   6.385   0.264
  918TIP3    H2 2719   0.962   6.271   0.202
  919TIP3   OH2 2720   1.748   4.107   0.576
  919TIP3    H1 2721   1.688   4.107   0.650
  919TIP3    H2 2722   1.811   4.176   0.596
  920TIP3   OH2 2723   6.505   0.302   4.680
  920TIP3    H1 2724   6.451   0.283   4.756
  920TIP3    H2 2725   6.595   0.291   4.711
  921TIP3   OH2 2726   6.506   3.676   3.168
  921TIP3    H1 2727   6.552   3.663   3.251
  921TIP3    H2 2728   6.519   3.593   3.121
  922TIP3   OH2 2729   4.120   4.164   3.641
  922TIP3    H1 2730   4.130   4.201   3.728
  922TIP3    H2 2731   4.049   4.101   3.649
  923TIP3   OH2 2732   4.178   3.119   1.438
  923TIP3    H1 2733   4.171   3.195   1.496
  923TIP3    H2 2734   4.225   3.151   1.361
  924TIP3   OH2 2735   3.379   3.520   1.341
  924TIP3    H1 2736   3.298   3.547   1.384
  924TIP3    H2 2737   3.415   3.600   1.304
  925TIP3   OH2 2738   0.692   2.105   5.089
  925TIP3    H1 2739   0.771   2.117   5.142
  925TIP3    H2 2740   0.716   2.141   5.003
  926TIP3   OH2 2741   6.366   6.730   2.623
  926TIP3    H1 2742   6.405   6.669   2.686
  926TIP3    H2 2743   6.390   6.817   2.656
  927TIP3   OH2 2744   1.714   6.132   4.017
  927TIP3    H1 2745   1.738   6.132   4.110
  927TIP3    H2 2746   1.724   6.041   3.989
  928TIP3   OH2 2747   5.894   4.066   3.095
  928TIP3    H1 2748   5.822   4.004   3.087
  928TIP3    H2 2749   5.862   4.146   3.054
  929TIP3   OH2 2750   6.545   5.539   4.054
  929TIP3    H1 2751   6.585   5.584   3.980
  929TIP3    H2 2752   6.493   5.606   4.098
  930TIP3   OH2 2753   5.695   5.696   1.017
  930TIP3    H1 2754   5.650   5.612   1.011
  930TIP3    H2 2755   5.718   5.718   0.926
  931TIP3   OH2 2756   3.994   6.545   0.661
  931TIP3    H1 2757   3.914   6.593   0.682
  931TIP3    H2 2758   3.980   6.514   0.571
  932TIP3   OH2 2759   6.194   5.803   5.637
  932TIP3    H1 2760   6.264   5.738   5.648
  932TIP3    H2 2761   6.187   5.846   5.722
  933TIP3   OH2 2762   2.012   5.802   0.149
  933TIP3    H1 2763   1.980   5.713   0.129
  933TIP3    H2 2764   1.991   5.852   0.070
  934TIP3   OH2 2765   5.080   6.098   5.494
  934TIP3    H1 2766   5.105   6.185   5.463
  934TIP3    H2 2767   5.051   6.113   5.585
  935TIP3   OH2 2768   6.259   5.321   1.621
  935TIP3    H1 2769   6.191   5.386   1.637
  935TIP3    H2 2770   6.332   5.348   1.678
  936TIP3   OH2 2771   1.843   1.743   1.661
  936TIP3    H1 2772   1.820   1.820   1.713
  936TIP3    H2 2773   1.872   1.678   1.725
  937TIP3   OH2 2774   2.731   2.316   3.656
  937TIP3    H1 2775   2.750   2.401   3.696
  937TIP3    H2 2776   2.669   2.336   3.586
  938TIP3   OH2 2777   0.795   0.357   0.805
  938TIP3    H1 2778   0.706   0.393   0.796
  938TIP3    H2 2779   0.852   0.434   0.808
  939TIP3   OH2 2780   3.106   0.037   0.958
  939TIP3    H1 2781   3.148   0.101   0.901
  939TIP3    H2 2782   3.026   0.080   0.988
  940TIP3   OH2 2783   4.594   1.760   5.161
  940TIP3    H1 2784   4.621   1.739   5.071
  940TIP3    H2 2785   4.510   1.804   5.150
  941TIP3   OH2 2786   0.663   3.637   5.500
  941TIP3    H1 2787   0.659   3.675   5.412
  941TIP3    H2 2788   0.581   3.589   5.510
  942TIP3   OH2 2789   6.765   6.646   5.244
  942TIP3    H1 2790   6.706   6.715   5.214
  942TIP3    H2 2791   6.849   6.669   5.205
  943TIP3   OH2 2792   0.705   3.367   5.216
  943TIP3    H1 2793   0.721   3.371   5.121
  943TIP3    H2 2794   0.687   3.458   5.240
  944TIP3   OH2 2795   1.184   3.089   5.397
  944TIP3    H1 2796   1.158   3.169   5.351
  944TIP3    H2 2797   1.199   3.025   5.327
  945TIP3   OH2 2798   4.721   4.521   3.739
  945TIP3    H1 2799   4.653   4.458   3.711
  945TIP3    H2 2800   4.775   4.533   3.661
  946TIP3   OH2 2801   4.709   5.093   3.481
  946TIP3    H1 2802   4.752   5.010   3.460
  946TIP3    H2 2803   4.629   5.067   3.527
  947TIP3   OH2 2804   2.457   3.008   1.209
  947TIP3    H1 2805   2.386   2.955   1.245
  947TIP3    H2 2806   2.525   2.944   1.186
  948TIP3   OH2 2807   3.446   4.401   1.501
  948TIP3    H1 2808   3.435   4.466   1.432
  948TIP3    H2 2809   3.539   4.403   1.523
  949TIP3   OH2 2810   0.145   6.345   2.625
  949TIP3    H1 2811   0.054   6.320   2.609
  949TIP3    H2 2812   0.140   6.414   2.691
  950TIP3   OH2 2813   4.263   1.460   1.487
  950TIP3    H1 2814   4.314   1.518   1.430
  950TIP3    H2 2815   4.319   1.446   1.563
  951TIP3   OH2 2816   2.198   3.337   1.839
  951TIP3    H1 2817   2.235   3.276   1.902
  951TIP3    H2 2818   2.240   3.421   1.859
  952TIP3   OH2 2819   0.303   5.736   0.067
  952TIP3    H1 2820   0.296   5.642   0.079
  952TIP3    H2 2821   0.215   5.765   0.045
  953TIP3   OH2 2822   0.210   0.279   5.464
  953TIP3    H1 2823   0.224   0.372   5.447
  953TIP3    H2 2824   0.261   0.234   5.396
  954TIP3   OH2 2825   0.789   0.490   4.264
  954TIP3    H1 2826   0.864   0.485   4.324
  954TIP3    H2 2827   0.733   0.417   4.290
  955TIP3   OH2 2828   6.058   6.052   1.538
  955TIP3    H1 2829   6.016   6.113   1.478
  955TIP3    H2 2830   6.060   6.098   1.622
  956TIP3   OH2 2831   0.984   2.368   3.478
  956TIP3    H1 2832   0.938   2.446   3.510
  956TIP3    H2 2833   0.931   2.295   3.508
  957TIP3   OH2 2834   4.301   1.468   4.009
  957TIP3    H1 2835   4.312   1.396   4.071
  957TIP3    H2 2836   4.327   1.546   4.059
  958TIP3   OH2 2837   3.962   0.631   4.175
  958TIP3    H1 2838   3.923   0.590   4.251
  958TIP3    H2 2839   3.889   0.645   4.115
  959TIP3   OH2 2840   1.348   5.473   4.639
  959TIP3    H1 2841   1.348   5.555   4.689
  959TIP3    H2 2842   1.437   5.439   4.650
  960TIP3   OH2 2843   2.007   3.085   2.251
  960TIP3    H1 2844   2.032   3.163   2.202
  960TIP3    H2 2845   2.017   3.111   2.343
  961TIP3   OH2 2846   3.220   4.809   3.308
  961TIP3    H1 2847   3.288   4.760   3.261
  961TIP3    H2 2848   3.208   4.759   3.389
  962TIP3   OH2 2849   0.516   0.703   2.338
  962TIP3    H1 2850   0.540   0.654   2.259
  962TIP3    H2 2851   0.593   0.698   2.394
  963TIP3   OH2 2852   2.194   5.596   0.572
  963TIP3    H1 2853   2.247   5.527   0.612
  963TIP3    H2 2854   2.128   5.616   0.637
  964TIP3   OH2 2855   6.436   5.314   1.295
  964TIP3    H1 2856   6.358   5.291   1.245
  964TIP3    H2 2857   6.402   5.358   1.373
  965TIP3   OH2 2858   6.211   4.816   5.227
  965TIP3    H1 2859   6.124   4.789   5.199
  965TIP3    H2 2860   6.270   4.756   5.181
  966TIP3   OH2 2861   3.468   0.188   2.300
  966TIP3    H1 2862   3.456   0.093   2.305
  966TIP3    H2 2863   3.436   0.221   2.383
  967TIP3   OH2 2864   5.233   0.064   4.896
  967TIP3    H1 2865   5.318   0.021   4.903
  967TIP3    H2 2866   5.209   0.084   4.986
  968TIP3   OH2 2867   1.667   4.990   4.571
  968TIP3    H1 2868   1.737   4.951   4.623
  968TIP3    H2 2869   1.710   5.018   4.490
  969TIP3   OH2 2870   2.902   0.121   2.263
  969TIP3    H1 2871   2.864   0.167   2.337
  969TIP3    H2 2872   2.995   0.113   2.284
  970TIP3   OH2 2873   0.878   0.945   3.905
  970TIP3    H1 2874   0.911   0.947   3.815
  970TIP3    H2 2875   0.884   0.853   3.929
  971TIP3   OH2 2876   0.890   1.168   4.044
  971TIP3    H1 2877   0.879   1.088   3.992
  971TIP3    H2 2878   0.852   1.147   4.129
  972TIP3   OH2 2879   1.597   1.942   2.323
  972TIP3    H1 2880   1.552   2.013   2.277
  972TIP3    H2 2881   1.536   1.869   2.321
  973TIP3   OH2 2882   6.455   5.600   1.803
  973TIP3    H1 2883   6.376   5.638   1.764
  973TIP3    H2 2884   6.438   5.601   1.897
  974TIP3   OH2 2885   3.698   5.505   0.983
  974TIP3    H1 2886   3.732   5.461   0.905
  974TIP3    H2 2887   3.659   5.435   1.035
  975TIP3   OH2 2888   1.369   3.821   1.258
  975TIP3    H1 2889   1.349   3.815   1.164
  975TIP3    H2 2890   1.421   3.742   1.275
  976TIP3   OH2 2891   3.431   0.065   0.158
  976TIP3    H1 2892   3.390   0.048   0.243
  976TIP3    H2 2893   3.487  -0.012   0.144
  977TIP3   OH2 2894   2.684   5.809   1.508
  977TIP3    H1 2895   2.625   5.870   1.463
  977TIP3    H2 2896   2.768   5.822   1.465
  978TIP3   OH2 2897   4.939   4.335   1.661
  978TIP3    H1 2898   5.010   4.351   1.723
  978TIP3    H2 2899   4.872   4.290   1.713
  979TIP3   OH2 2900   4.384   5.809   1.614
  979TIP3    H1 2901   4.473   5.781   1.594
  979TIP3    H2 2902   4.341   5.731   1.649
  980TIP3   OH2 2903   4.564   0.554   5.624
  980TIP3    H1 2904   4.566   0.492   5.551
  980TIP3    H2 2905   4.625   0.623   5.598
  981TIP3   OH2 2906   3.237   4.314   4.369
  981TIP3    H1 2907   3.222   4.382   4.304
  981TIP3    H2 2908   3.173   4.332   4.438
  982TIP3   OH2 2909   0.003   1.059   3.387
  982TIP3    H1 2910  -0.057   0.991   3.358
  982TIP3    H2 2911   0.072   1.012   3.434
  983TIP3   OH2 2912   2.340   4.883   2.142
  983TIP3    H1 2913   2.427   4.923   2.147
  983TIP3    H2 2914   2.289   4.943   2.087
  984TIP3   OH2 2915   3.924   1.387   3.815
  984TIP3    H1 2916   3.988   1.457   3.802
  984TIP3    H2 2917   3.861   1.399   3.744
  985TIP3   OH2 2918   3.276   6.485   4.378
  985TIP3    H1 2919   3.312   6.482   4.467
  985TIP3    H2 2920   3.200   6.428   4.380
  986TIP3   OH2 2921   1.479   5.903   2.287
  986TIP3    H1 2922   1.567   5.905   2.323
  986TIP3    H2 2923   1.426   5.859   2.354
  987TIP3   OH2 2924   2.585   2.358   4.698
  987TIP3    H1 2925   2.588   2.262   4.698
  987TIP3    H2 2926   2.623   2.383   4.614
  988TIP3   OH2 2927   6.965   4.143   3.971
  988TIP3    H1 2928   6.988   4.151   3.879
  988TIP3    H2 2929   7.005   4.219   4.013
  989TIP3   OH2 2930   6.158   3.861   1.381
  989TIP3    H1 2931   6.173   3.915   1.459
  989TIP3    H2 2932   6.063   3.858   1.371
  990TIP3   OH2 2933   4.331   4.635   5.332
  990TIP3    H1 2934   4.371   4.718   5.306
  990TIP3    H2 2935   4.403   4.571   5.326
  991TIP3   OH2 2936   4.802   0.128   2.919
  991TIP3    H1 2937   4.775   0.070   2.990
  991TIP3    H2 2938   4.852   0.197   2.962
  992TIP3   OH2 2939   1.931   3.089   1.888
  992TIP3    H1 2940   1.944   3.177   1.924
  992TIP3    H2 2941   2.019   3.060   1.864
  993TIP3   OH2 2942   3.434   5.542   3.313
  993TIP3    H1 2943   3.495   5.476   3.346
  993TIP3    H2 2944   3.351   5.494   3.302
  994TIP3   OH2 2945   2.174   4.935   1.843
  994TIP3    H1 2946   2.134   4.954   1.928
  994TIP3    H2 2947   2.268   4.948   1.857
  995TIP3   OH2 2948   5.801   0.077   1.058
  995TIP3    H1 2949   5.876   0.103   1.112
  995TIP3    H2 2950   5.840   0.052   0.974
  996TIP3   OH2 2951   1.128   4.345   3.282
  996TIP3    H1 2952   1.159   4.259   3.312
  996TIP3    H2 2953   1.192   4.373   3.218
  997TIP3   OH2 2954   0.519   5.926   0.067
  997TIP3    H1 2955   0.516   5.951   0.159
  997TIP3    H2 2956   0.432   5.888   0.049
  998TIP3   OH2 2957   5.472   2.117   5.556
  998TIP3    H1 2958   5.528   2.107   5.633
  998TIP3    H2 2959   5.385   2.137   5.592
  999TIP3   OH2 2960   4.145   0.822   0.473
  999TIP3    H1 2961   4.090   0.760   0.425
  999TIP3    H2 2962   4.235   0.796   0.451
 1000TIP3   OH2 2963   2.670   0.002   0.812
 1000TIP3    H1 2964   2.627   0.073   0.858
 1000TIP3    H2 2965   2.741   0.044   0.763
 1001TIP3   OH2 2966   5.947   1.173   0.436
 1001TIP3    H1 2967   5.928   1.250   0.382
 1001TIP3    H2 2968   5.862   1.131   0.447
 1002TIP3   OH2 2969   0.099   3.244   4.076
 1002TIP3    H1 2970   0.042   3.168   4.068
 1002TIP3    H2 2971   0.057   3.301   4.140
 1003TIP3   OH2 2972   4.058   3.694   4.825
 1003TIP3    H1 2973   3.995   3.758   4.859
 1003TIP3    H2 2974   4.038   3.613   4.872
 1004TIP3   OH2 2975   3.523   5.197   0.369
 1004TIP3    H1 2976   3.547   5.153   0.450
 1004TIP3    H2 2977   3.443   5.153   0.340
 1005TIP3   OH2 2978   4.133   1.804   3.672
 1005TIP3    H1 2979   4.090   1.809   3.586
 1005TIP3    H2 2980   4.096   1.877   3.722
 1006TIP3   OH2 2981   1.487   6.294   0.626
 1006TIP3    H1 2982   1.543   6.338   0.689
 1006TIP3    H2 2983   1.545   6.233   0.580
 1007TIP3   OH2 2984   2.656   1.902   4.291
 1007TIP3    H1 2985   2.589   1.866   4.349
 1007TIP3    H2 2986   2.637   1.863   4.205
 1008TIP3   OH2 2987   3.568   3.602   0.641
 1008TIP3    H1 2988   3.532   3.520   0.605
 1008TIP3    H2 2989   3.568   3.589   0.735
 1009TIP3   OH2 2990   0.545   4.288   2.071
 1009TIP3    H1 2991   0.487   4.214   2.052
 1009TIP3    H2 2992   0.631   4.260   2.038
 1010TIP3   OH2 2993   4.683   6.252   1.358
 1010TIP3    H1 2994   4.661   6.236   1.266
 1010TIP3    H2 2995   4.689   6.165   1.397
 1011TIP3   OH2 2996   2.282   2.276   3.542
 1011TIP3    H1 2997   2.214   2.300   3.604
 1011TIP3    H2 2998   2.250   2.306   3.457
 1012TIP3   OH2 2999   5.934   1.374   4.430
 1012TIP3    H1 3000   6.025   1.347   4.444
 1012TIP3    H2 3001   5.941   1.453   4.377
 1013TIP3   OH2 3002   4.457   0.253   4.648
 1013TIP3    H1 3003   4.422   0.338   4.625
 1013TIP3    H2 3004   4.527   0.237   4.585
 1014TIP3   OH2 3005   5.083   0.827   1.208
 1014TIP3    H1 3006   5.052   0.806   1.120
 1014TIP3    H2 3007   5.081   0.743   1.254
 1015TIP3   OH2 3008   6.705   3.590   0.683
 1015TIP3    H1 3009   6.667   3.537   0.613
 1015TIP3    H2 3010   6.716   3.677   0.644
 1016TIP3   OH2 3011   1.942   3.316   3.104
 1016TIP3    H1 3012   2.033   3.293   3.119
 1016TIP3    H2 3013   1.904   3.237   3.065
 1017TIP3   OH2 3014   4.577   0.223   2.534
 1017TIP3    H1 3015   4.505   0.198   2.477
 1017TIP3    H2 3016   4.641   0.266   2.477
 1018TIP3   OH2 3017   3.195   3.944   1.894
 1018TIP3    H1 3018   3.161   3.906   1.976
 1018TIP3    H2 3019   3.210   4.036   1.915
 1019TIP3   OH2 3020   3.315   0.268   1.301
 1019TIP3    H1 3021   3.278   0.275   1.213
 1019TIP3    H2 3022   3.314   0.357   1.335
 1020TIP3   OH2 3023   2.793   5.805   2.293
 1020TIP3    H1 3024   2.824   5.876   2.237
 1020TIP3    H2 3025   2.716   5.842   2.337
 1021TIP3   OH2 3026   2.304   5.470   3.577
 1021TIP3    H1 3027   2.245   5.447   3.649
 1021TIP3    H2 3028   2.267   5.426   3.501
 1022TIP3   OH2 3029   4.708   2.389   4.150
 1022TIP3    H1 3030   4.639   2.375   4.214
 1022TIP3    H2 3031   4.733   2.481   4.161
 1023TIP3   OH2 3032   1.009   2.617   1.651
 1023TIP3    H1 3033   1.038   2.612   1.742
 1023TIP3    H2 3034   1.005   2.526   1.621
 1024TIP3   OH2 3035   1.594   6.744   0.734
 1024TIP3    H1 3036   1.588   6.794   0.816
 1024TIP3    H2 3037   1.548   6.662   0.752
 1025TIP3   OH2 3038   4.022   1.732   1.977
 1025TIP3    H1 3039   4.107   1.688   1.975
 1025TIP3    H2 3040   4.043   1.825   1.973
 1026TIP3   OH2 3041   6.246   4.326   0.908
 1026TIP3    H1 3042   6.338   4.304   0.921
 1026TIP3    H2 3043   6.200   4.242   0.914
 1027TIP3   OH2 3044   4.425   3.409   1.787
 1027TIP3    H1 3045   4.387   3.479   1.841
 1027TIP3    H2 3046   4.491   3.369   1.844
 1028TIP3   OH2 3047   3.821   2.384   1.363
 1028TIP3    H1 3048   3.857   2.382   1.274
 1028TIP3    H2 3049   3.756   2.454   1.360
 1029TIP3   OH2 3050   1.832   6.115   4.964
 1029TIP3    H1 3051   1.861   6.118   4.873
 1029TIP3    H2 3052   1.888   6.048   5.004
 1030TIP3   OH2 3053   3.546   5.562   2.279
 1030TIP3    H1 3054   3.489   5.495   2.243
 1030TIP3    H2 3055   3.543   5.634   2.215
 1031TIP3   OH2 3056   0.879   5.584   2.351
 1031TIP3    H1 3057   0.793   5.590   2.309
 1031TIP3    H2 3058   0.924   5.514   2.304
 1032TIP3   OH2 3059   3.132   5.668   5.659
 1032TIP3    H1 3060   3.222   5.639   5.667
 1032TIP3    H2 3061   3.128   5.750   5.707
 1033TIP3   OH2 3062   5.521   6.272   3.356
 1033TIP3    H1 3063   5.592   6.227   3.402
 1033TIP3    H2 3064   5.519   6.359   3.396
 1034TIP3   OH2 3065   0.352   5.536   1.169
 1034TIP3    H1 3066   0.353   5.612   1.110
 1034TIP3    H2 3067   0.271   5.491   1.148
 1035TIP3   OH2 3068   4.596   4.237   0.391
 1035TIP3    H1 3069   4.507   4.253   0.360
 1035TIP3    H2 3070   4.598   4.277   0.478
 1036TIP3   OH2 3071   1.824   4.541   1.684
 1036TIP3    H1 3072   1.861   4.611   1.738
 1036TIP3    H2 3073   1.755   4.504   1.738
 1037TIP3   OH2 3074   4.189   3.460   0.502
 1037TIP3    H1 3075   4.149   3.383   0.463
 1037TIP3    H2 3076   4.271   3.472   0.454
 1038TIP3   OH2 3077   4.883   3.874   1.375
 1038TIP3    H1 3078   4.833   3.930   1.316
 1038TIP3    H2 3079   4.963   3.854   1.328
 1039TIP3   OH2 3080   1.239   3.383   1.419
 1039TIP3    H1 3081   1.262   3.474   1.435
 1039TIP3    H2 3082   1.181   3.360   1.491
 1040TIP3   OH2 3083   2.210   4.221   4.276
 1040TIP3    H1 3084   2.159   4.301   4.288
 1040TIP3    H2 3085   2.161   4.172   4.209
 1041TIP3   OH2 3086   6.317   4.937   1.196
 1041TIP3    H1 3087   6.251   4.894   1.251
 1041TIP3    H2 3088   6.305   4.899   1.109
 1042TIP3   OH2 3089   7.141   4.316   1.316
 1042TIP3    H1 3090   7.078   4.341   1.249
 1042TIP3    H2 3091   7.182   4.398   1.342
 1043TIP3   OH2 3092   4.670   6.140   5.713
 1043TIP3    H1 3093   4.603   6.206   5.697
 1043TIP3    H2 3094   4.752   6.182   5.685
 1044TIP3   OH2 3095   2.351   0.954   2.028
 1044TIP3    H1 3096   2.299   1.020   1.981
 1044TIP3    H2 3097   2.295   0.876   2.027
 1045TIP3   OH2 3098   5.461   0.946   0.424
 1045TIP3    H1 3099   5.426   0.927   0.337
 1045TIP3    H2 3100   5.435   0.871   0.477
 1046TIP3   OH2 3101   2.455   4.906   2.881
 1046TIP3    H1 3102   2.410   4.989   2.897
 1046TIP3    H2 3103   2.460   4.864   2.967
 1047TIP3   OH2 3104   7.172   6.704   3.932
 1047TIP3    H1 3105   7.264   6.726   3.921
 1047TIP3    H2 3106   7.172   6.615   3.967
 1048TIP3   OH2 3107   0.023   3.163   2.355
 1048TIP3    H1 3108   0.118   3.157   2.354
 1048TIP3    H2 3109   0.004   3.254   2.375
 1049TIP3   OH2 3110   3.486   5.433   5.199
 1049TIP3    H1 3111   3.540   5.386   5.136
 1049TIP3    H2 3112   3.518   5.404   5.284
 1050TIP3   OH2 3113   1.370   3.633   3.812
 1050TIP3    H1 3114   1.396   3.690   3.884
 1050TIP3    H2 3115   1.297   3.582   3.847
 1051TIP3   OH2 3116   4.523   6.783   2.788
 1051TIP3    H1 3117   4.535   6.688   2.784
 1051TIP3    H2 3118   4.538   6.805   2.880
 1052TIP3   OH2 3119   4.551   3.048   4.261
 1052TIP3    H1 3120   4.604   2.986   4.311
 1052TIP3    H2 3121   4.533   3.119   4.323
 1053TIP3   OH2 3122   2.173   0.185   1.102
 1053TIP3    H1 3123   2.091   0.214   1.143
 1053TIP3    H2 3124   2.232   0.260   1.113
 1054TIP3   OH2 3125   3.922   2.921   3.700
 1054TIP3    H1 3126   3.938   2.836   3.741
 1054TIP3    H2 3127   3.828   2.935   3.707
 1055TIP3   OH2 3128   1.713   6.283   5.279
 1055TIP3    H1 3129   1.727   6.375   5.258
 1055TIP3    H2 3130   1.621   6.266   5.257
 1056TIP3   OH2 3131   2.515   5.489   3.744
 1056TIP3    H1 3132   2.471   5.430   3.805
 1056TIP3    H2 3133   2.462   5.483   3.664
 1057TIP3   OH2 3134   1.718   0.709   5.661
 1057TIP3    H1 3135   1.805   0.693   5.698
 1057TIP3    H2 3136   1.663   0.730   5.737
 1058TIP3   OH2 3137   3.845   3.083   2.615
 1058TIP3    H1 3138   3.881   3.169   2.595
 1058TIP3    H2 3139   3.752   3.090   2.593
 1059TIP3   OH2 3140   7.200   5.814   4.540
 1059TIP3    H1 3141   7.228   5.889   4.592
 1059TIP3    H2 3142   7.196   5.848   4.450
 1060TIP3   OH2 3143   2.910   0.006   0.288
 1060TIP3    H1 3144   2.970   0.052   0.346
 1060TIP3    H2 3145   2.961  -0.012   0.210
 1061TIP3   OH2 3146   5.439   1.266   4.617
 1061TIP3    H1 3147   5.520   1.249   4.569
 1061TIP3    H2 3148   5.381   1.194   4.592
 1062TIP3   OH2 3149   3.267   5.712   2.290
 1062TIP3    H1 3150   3.342   5.772   2.285
 1062TIP3    H2 3151   3.296   5.633   2.245
 1063TIP3   OH2 3152   4.131   3.119   3.754
 1063TIP3    H1 3153   4.055   3.061   3.765
 1063TIP3    H2 3154   4.205   3.068   3.786
 1064TIP3   OH2 3155   1.445   1.506   2.308
 1064TIP3    H1 3156   1.489   1.578   2.262
 1064TIP3    H2 3157   1.500   1.491   2.385
 1065TIP3   OH2 3158   0.485   4.683   3.514
 1065TIP3    H1 3159   0.515   4.719   3.598
 1065TIP3    H2 3160   0.539   4.728   3.449
 1066TIP3   OH2 3161   6.976   3.427   3.251
 1066TIP3    H1 3162   6.916   3.426   3.326
 1066TIP3    H2 3163   7.042   3.361   3.273
 1067TIP3   OH2 3164   7.154   0.011   4.104
 1067TIP3    H1 3165   7.082   0.057   4.062
 1067TIP3    H2 3166   7.232   0.061   4.081
 1068TIP3   OH2 3167   3.666   0.661   4.886
 1068TIP3    H1 3168   3.658   0.671   4.791
 1068TIP3    H2 3169   3.583   0.623   4.914
 1069TIP3   OH2 3170   1.978   4.928   4.209
 1069TIP3    H1 3171   1.966   4.833   4.217
 1069TIP3    H2 3172   1.923   4.965   4.278
 1070TIP3   OH2 3173   3.121   1.155   5.281
 1070TIP3    H1 3174   3.052   1.112   5.232
 1070TIP3    H2 3175   3.183   1.185   5.214
 1071TIP3   OH2 3176   5.876   5.009   1.496
 1071TIP3    H1 3177   5.949   5.067   1.473
 1071TIP3    H2 3178   5.806   5.069   1.522
 1072TIP3   OH2 3179   4.972   4.772   2.658
 1072TIP3    H1 3180   4.932   4.701   2.708
 1072TIP3    H2 3181   4.987   4.734   2.571
 1073TIP3   OH2 3182   5.824   6.623   4.304
 1073TIP3    H1 3183   5.838   6.533   4.331
 1073TIP3    H2 3184   5.775   6.663   4.376
 1074TIP3   OH2 3185   6.445   0.083   3.292
 1074TIP3    H1 3186   6.483   0.051   3.210
 1074TIP3    H2 3187   6.493   0.035   3.360
 1075TIP3   OH2 3188   3.468   4.800   0.091
 1075TIP3    H1 3189   3.509   4.817   0.176
 1075TIP3    H2 3190   3.534   4.750   0.042
 1076TIP3   OH2 3191   5.625   1.847   2.831
 1076TIP3    H1 3192   5.582   1.843   2.745
 1076TIP3    H2 3193   5.567   1.903   2.884
 1077TIP3   OH2 3194   2.765   4.931   1.693
 1077TIP3    H1 3195   2.761   5.021   1.725
 1077TIP3    H2 3196   2.795   4.880   1.767
 1078TIP3   OH2 3197   5.451   0.788   5.167
 1078TIP3    H1 3198   5.405   0.837   5.098
 1078TIP3    H2 3199   5.536   0.831   5.175
 1079TIP3   OH2 3200   1.001   4.189   1.941
 1079TIP3    H1 3201   0.989   4.266   1.996
 1079TIP3    H2 3202   1.085   4.152   1.969
 1080TIP3   OH2 3203   5.933   2.233   2.069
 1080TIP3    H1 3204   6.005   2.273   2.019
 1080TIP3    H2 3205   5.855   2.250   2.016
 1081TIP3   OH2 3206   1.209   3.445   1.845
 1081TIP3    H1 3207   1.148   3.457   1.918
 1081TIP3    H2 3208   1.277   3.386   1.880
 1082TIP3   OH2 3209   0.866   2.497   0.564
 1082TIP3    H1 3210   0.841   2.470   0.476
 1082TIP3    H2 3211   0.947   2.449   0.582
 1083TIP3   OH2 3212   3.675   0.674   5.691
 1083TIP3    H1 3213   3.604   0.731   5.721
 1083TIP3    H2 3214   3.728   0.659   5.770
 1084TIP3   OH2 3215   7.225   5.439   0.908
 1084TIP3    H1 3216   7.218   5.509   0.843
 1084TIP3    H2 3217   7.170   5.368   0.872
 1085TIP3   OH2 3218   6.430   4.899   2.504
 1085TIP3    H1 3219   6.481   4.895   2.586
 1085TIP3    H2 3220   6.495   4.914   2.436
 1086TIP3   OH2 3221   2.586   2.108   2.472
 1086TIP3    H1 3222   2.571   2.088   2.564
 1086TIP3    H2 3223   2.666   2.061   2.450
 1087TIP3   OH2 3224   5.991   5.141   2.188
 1087TIP3    H1 3225   6.001   5.080   2.261
 1087TIP3    H2 3226   6.051   5.213   2.208
 1088TIP3   OH2 3227   6.341   5.343   5.210
 1088TIP3    H1 3228   6.368   5.419   5.159
 1088TIP3    H2 3229   6.331   5.272   5.146
 1089TIP3   OH2 3230   6.898   2.105   5.122
 1089TIP3    H1 3231   6.933   2.120   5.210
 1089TIP3    H2 3232   6.863   2.190   5.095
 1090TIP3   OH2 3233   4.581   1.340   3.327
 1090TIP3    H1 3234   4.493   1.323   3.293
 1090TIP3    H2 3235   4.604   1.261   3.376
 1091TIP3   OH2 3236   0.044   4.235   4.691
 1091TIP3    H1 3237   0.019   4.249   4.782
 1091TIP3    H2 3238   0.123   4.288   4.680
 1092TIP3   OH2 3239   4.743   4.471   2.047
 1092TIP3    H1 3240   4.733   4.561   2.014
 1092TIP3    H2 3241   4.670   4.460   2.108
 1093TIP3   OH2 3242   3.644   2.940   5.358
 1093TIP3    H1 3243   3.585   3.015   5.363
 1093TIP3    H2 3244   3.720   2.966   5.410
 1094TIP3   OH2 3245   6.061   3.264   3.561
 1094TIP3    H1 3246   6.135   3.280   3.620
 1094TIP3    H2 3247   6.092   3.298   3.476
 1095TIP3   OH2 3248   3.981   4.517   4.281
 1095TIP3    H1 3249   4.056   4.499   4.338
 1095TIP3    H2 3250   3.912   4.459   4.314
 1096TIP3   OH2 3251   2.616   4.593   2.540
 1096TIP3    H1 3252   2.533   4.641   2.530
 1096TIP3    H2 3253   2.592   4.501   2.526
 1097TIP3   OH2 3254   6.672   6.467   1.387
 1097TIP3    H1 3255   6.703   6.414   1.313
 1097TIP3    H2 3256   6.581   6.438   1.400
 1098TIP3   OH2 3257   5.510   4.587   5.152
 1098TIP3    H1 3258   5.516   4.540   5.069
 1098TIP3    H2 3259   5.595   4.575   5.193
 1099TIP3   OH2 3260   3.906   0.114   4.501
 1099TIP3    H1 3261   3.952   0.049   4.448
 1099TIP3    H2 3262   3.887   0.185   4.441
 1100TIP3   OH2 3263   5.033   3.930   2.025
 1100TIP3    H1 3264   5.038   3.959   1.933
 1100TIP3    H2 3265   5.110   3.969   2.067
 1101TIP3   OH2 3266   3.460   1.037   3.691
 1101TIP3    H1 3267   3.550   1.069   3.697
 1101TIP3    H2 3268   3.469   0.944   3.670
 1102TIP3   OH2 3269   3.601   1.019   2.298
 1102TIP3    H1 3270   3.626   1.034   2.207
 1102TIP3    H2 3271   3.536   0.948   2.293
 1103TIP3   OH2 3272   0.104   4.168   4.278
 1103TIP3    H1 3273   0.144   4.084   4.257
 1103TIP3    H2 3274   0.131   4.226   4.207
 1104TIP3   OH2 3275   6.369   6.273   3.659
 1104TIP3    H1 3276   6.463   6.261   3.642
 1104TIP3    H2 3277   6.361   6.261   3.754
 1105TIP3   OH2 3278   1.820   5.852   4.135
 1105TIP3    H1 3279   1.877   5.783   4.101
 1105TIP3    H2 3280   1.777   5.813   4.211
 1106TIP3   OH2 3281   4.318   3.739   4.768
 1106TIP3    H1 3282   4.223   3.723   4.772
 1106TIP3    H2 3283   4.343   3.711   4.680
 1107TIP3   OH2 3284   3.057   2.083   4.533
 1107TIP3    H1 3285   3.122   2.117   4.594
 1107TIP3    H2 3286   3.108   2.049   4.459
 1108TIP3   OH2 3287   2.671   5.649   4.317
 1108TIP3    H1 3288   2.586   5.653   4.361
 1108TIP3    H2 3289   2.730   5.609   4.381
 1109TIP3   OH2 3290   0.815   6.467   2.668
 1109TIP3    H1 3291   0.813   6.478   2.573
 1109TIP3    H2 3292   0.904   6.489   2.693
 1110TIP3   OH2 3293   5.627   4.384   3.736
 1110TIP3    H1 3294   5.639   4.312   3.798
 1110TIP3    H2 3295   5.550   4.360   3.685
 1111TIP3   OH2 3296   4.998   4.153   0.680
 1111TIP3    H1 3297   5.084   4.116   0.667
 1111TIP3    H2 3298   5.011   4.221   0.747
 1112TIP3   OH2 3299   1.690   5.037   2.067
 1112TIP3    H1 3300   1.711   5.124   2.099
 1112TIP3    H2 3301   1.597   5.026   2.087
 1113TIP3   OH2 3302   5.298   2.082   2.098
 1113TIP3    H1 3303   5.306   2.066   2.004
 1113TIP3    H2 3304   5.384   2.116   2.124
 1114TIP3   OH2 3305   4.534   1.572   2.734
 1114TIP3    H1 3306   4.630   1.572   2.735
 1114TIP3    H2 3307   4.510   1.480   2.739
 1115TIP3   OH2 3308   2.444   3.912   4.449
 1115TIP3    H1 3309   2.483   3.827   4.430
 1115TIP3    H2 3310   2.352   3.903   4.424
 1116TIP3   OH2 3311   1.678   3.094   2.581
 1116TIP3    H1 3312   1.613   3.072   2.649
 1116TIP3    H2 3313   1.680   3.017   2.524
 1117TIP3   OH2 3314   2.438   3.529   4.709
 1117TIP3    H1 3315   2.490   3.449   4.709
 1117TIP3    H2 3316   2.503   3.599   4.719
 1118TIP3   OH2 3317   2.259   2.822   1.365
 1118TIP3    H1 3318   2.240   2.731   1.387
 1118TIP3    H2 3319   2.298   2.858   1.445
 1119TIP3   OH2 3320   0.424   2.475   2.167
 1119TIP3    H1 3321   0.442   2.562   2.201
 1119TIP3    H2 3322   0.461   2.415   2.231
 1120TIP3   OH2 3323   6.216   2.114   4.600
 1120TIP3    H1 3324   6.225   2.208   4.614
 1120TIP3    H2 3325   6.131   2.104   4.556
 1121TIP3   OH2 3326   6.376   5.631   1.352
 1121TIP3    H1 3327   6.359   5.612   1.259
 1121TIP3    H2 3328   6.404   5.722   1.353
 1122TIP3   OH2 3329   5.144   6.070   4.904
 1122TIP3    H1 3330   5.177   5.987   4.869
 1122TIP3    H2 3331   5.051   6.071   4.881
 1123TIP3   OH2 3332   2.552   0.513   2.202
 1123TIP3    H1 3333   2.640   0.476   2.209
 1123TIP3    H2 3334   2.524   0.491   2.114
 1124TIP3   OH2 3335   4.742   2.183   2.999
 1124TIP3    H1 3336   4.654   2.147   2.989
 1124TIP3    H2 3337   4.755   2.188   3.094
 1125TIP3   OH2 3338   3.623   2.061   4.910
 1125TIP3    H1 3339   3.712   2.072   4.942
 1125TIP3    H2 3340   3.628   1.986   4.851
 1126TIP3   OH2 3341   0.300   0.036   3.803
 1126TIP3    H1 3342   0.323   0.104   3.739
 1126TIP3    H2 3343   0.359  -0.037   3.783
 1127TIP3   OH2 3344   5.973   2.474   0.833
 1127TIP3    H1 3345   6.003   2.559   0.801
 1127TIP3    H2 3346   5.902   2.495   0.894
 1128TIP3   OH2 3347   5.466   2.663   5.784
 1128TIP3    H1 3348   5.381   2.706   5.787
 1128TIP3    H2 3349   5.450   2.574   5.815
 1129TIP3   OH2 3350   3.402   1.220   4.249
 1129TIP3    H1 3351   3.460   1.235   4.175
 1129TIP3    H2 3352   3.341   1.153   4.217
 1130TIP3   OH2 3353   6.223   0.172   3.806
 1130TIP3    H1 3354   6.272   0.169   3.724
 1130TIP3    H2 3355   6.158   0.103   3.797
 1131TIP3   OH2 3356   4.238   2.149   1.328
 1131TIP3    H1 3357   4.291   2.084   1.374
 1131TIP3    H2 3358   4.185   2.098   1.266
 1132TIP3   OH2 3359   5.009   1.186   4.428
 1132TIP3    H1 3360   5.031   1.270   4.387
 1132TIP3    H2 3361   4.945   1.146   4.369
 1133TIP3   OH2 3362   0.236   2.105   0.817
 1133TIP3    H1 3363   0.315   2.160   0.820
 1133TIP3    H2 3364   0.232   2.065   0.903
 1134TIP3   OH2 3365   3.959   5.532   0.193
 1134TIP3    H1 3366   3.935   5.493   0.276
 1134TIP3    H2 3367   4.045   5.494   0.173
 1135TIP3   OH2 3368   5.562   2.186   2.945
 1135TIP3    H1 3369   5.512   2.265   2.924
 1135TIP3    H2 3370   5.631   2.183   2.880
 1136TIP3   OH2 3371   1.330   6.346   3.537
 1136TIP3    H1 3372   1.389   6.312   3.605
 1136TIP3    H2 3373   1.333   6.441   3.548
 1137TIP3   OH2 3374   2.038   5.938   2.829
 1137TIP3    H1 3375   2.033   5.879   2.905
 1137TIP3    H2 3376   2.025   6.025   2.866
 1138TIP3   OH2 3377   6.348   2.417   1.344
 1138TIP3    H1 3378   6.374   2.484   1.280
 1138TIP3    H2 3379   6.257   2.438   1.365
 1139TIP3   OH2 3380   1.648   1.087   5.805
 1139TIP3    H1 3381   1.557   1.080   5.774
 1139TIP3    H2 3382   1.657   1.178   5.831
 1140TIP3   OH2 3383   3.362   6.751   1.930
 1140TIP3    H1 3384   3.358   6.844   1.906
 1140TIP3    H2 3385   3.435   6.745   1.992
 1141TIP3   OH2 3386   7.106   6.035   5.747
 1141TIP3    H1 3387   7.097   5.956   5.695
 1141TIP3    H2 3388   7.047   6.098   5.706
 1142TIP3   OH2 3389   0.959   0.495   5.103
 1142TIP3    H1 3390   1.052   0.473   5.099
 1142TIP3    H2 3391   0.944   0.549   5.026
 1143TIP3   OH2 3392   6.925   0.218   5.749
 1143TIP3    H1 3393   6.900   0.250   5.663
 1143TIP3    H2 3394   6.891   0.128   5.752
 1144TIP3   OH2 3395   1.542   0.694   2.600
 1144TIP3    H1 3396   1.577   0.766   2.547
 1144TIP3    H2 3397   1.469   0.733   2.648
 1145TIP3   OH2 3398  -0.033   1.219   0.968
 1145TIP3    H1 3399  -0.094   1.205   0.896
 1145TIP3    H2 3400   0.053   1.227   0.925
 1146TIP3   OH2 3401   6.467   4.564   4.372
 1146TIP3    H1 3402   6.561   4.550   4.383
 1146TIP3    H2 3403   6.431   4.478   4.354
 1147TIP3   OH2 3404   0.282   2.690   1.108
 1147TIP3    H1 3405   0.203   2.718   1.063
 1147TIP3    H2 3406   0.349   2.754   1.083
 1148TIP3   OH2 3407   1.433   2.659   4.265
 1148TIP3    H1 3408   1.375   2.685   4.336
 1148TIP3    H2 3409   1.428   2.563   4.263
 1149TIP3   OH2 3410   1.329   5.226   4.839
 1149TIP3    H1 3411   1.391   5.221   4.767
 1149TIP3    H2 3412   1.243   5.232   4.796
 1150TIP3   OH2 3413   2.928   3.728   5.158
 1150TIP3    H1 3414   2.984   3.793   5.200
 1150TIP3    H2 3415   2.964   3.718   5.070
 1151TIP3   OH2 3416   3.710   3.843   1.752
 1151TIP3    H1 3417   3.635   3.857   1.810
 1151TIP3    H2 3418   3.684   3.769   1.698
 1152TIP3   OH2 3419   1.033   1.452   3.577
 1152TIP3    H1 3420   1.104   1.494   3.528
 1152TIP3    H2 3421   0.957   1.506   3.559
 1153TIP3   OH2 3422   5.659   1.543   4.434
 1153TIP3    H1 3423   5.655   1.452   4.463
 1153TIP3    H2 3424   5.631   1.593   4.511
 1154TIP3   OH2 3425   4.134   6.384   2.265
 1154TIP3    H1 3426   4.172   6.396   2.178
 1154TIP3    H2 3427   4.185   6.312   2.303
 1155TIP3   OH2 3428   3.459   3.293   2.678
 1155TIP3    H1 3429   3.452   3.327   2.588
 1155TIP3    H2 3430   3.401   3.217   2.679
 1156TIP3   OH2 3431   7.061   0.643   0.770
 1156TIP3    H1 3432   7.019   0.560   0.746
 1156TIP3    H2 3433   7.135   0.617   0.825
 1157TIP3   OH2 3434   1.550   1.240   4.070
 1157TIP3    H1 3435   1.544   1.145   4.064
 1157TIP3    H2 3436   1.460   1.271   4.061
 1158TIP3   OH2 3437   5.145   5.105   3.030
 1158TIP3    H1 3438   5.114   5.073   3.114
 1158TIP3    H2 3439   5.069   5.099   2.972
 1159TIP3   OH2 3440   6.857   4.768   1.154
 1159TIP3    H1 3441   6.906   4.848   1.174
 1159TIP3    H2 3442   6.770   4.783   1.190
 1160TIP3   OH2 3443   1.784   2.897   4.579
 1160TIP3    H1 3444   1.736   2.853   4.509
 1160TIP3    H2 3445   1.864   2.928   4.536
 1161TIP3   OH2 3446   3.513   2.524   1.516
 1161TIP3    H1 3447   3.560   2.569   1.446
 1161TIP3    H2 3448   3.575   2.522   1.589
 1162TIP3   OH2 3449   5.987   5.451   0.811
 1162TIP3    H1 3450   6.016   5.452   0.720
 1162TIP3    H2 3451   6.005   5.540   0.843
 1163TIP3   OH2 3452   2.382   4.901   5.751
 1163TIP3    H1 3453   2.395   4.960   5.676
 1163TIP3    H2 3454   2.310   4.940   5.800
 1164TIP3   OH2 3455   2.798   5.648   3.858
 1164TIP3    H1 3456   2.784   5.566   3.905
 1164TIP3    H2 3457   2.739   5.710   3.899
 1165TIP3   OH2 3458   1.731   3.180   0.676
 1165TIP3    H1 3459   1.793   3.251   0.659
 1165TIP3    H2 3460   1.723   3.134   0.592
 1166TIP3   OH2 3461   6.897   1.230   5.861
 1166TIP3    H1 3462   6.902   1.207   5.768
 1166TIP3    H2 3463   6.818   1.186   5.892
 1167TIP3   OH2 3464   7.234   2.490   1.156
 1167TIP3    H1 3465   7.297   2.503   1.085
 1167TIP3    H2 3466   7.163   2.552   1.137
 1168TIP3   OH2 3467   7.234   2.682   3.765
 1168TIP3    H1 3468   7.183   2.653   3.840
 1168TIP3    H2 3469   7.186   2.758   3.732
 1169TIP3   OH2 3470   4.934   3.498   0.361
 1169TIP3    H1 3471   4.944   3.492   0.456
 1169TIP3    H2 3472   4.974   3.418   0.327
 1170TIP3   OH2 3473   7.068   6.548   1.478
 1170TIP3    H1 3474   7.119   6.621   1.444
 1170TIP3    H2 3475   7.038   6.502   1.399
 1171TIP3   OH2 3476   4.815   0.434   2.743
 1171TIP3    H1 3477   4.828   0.340   2.759
 1171TIP3    H2 3478   4.733   0.454   2.786
 1172TIP3   OH2 3479   4.536   4.017   2.161
 1172TIP3    H1 3480   4.485   4.078   2.108
 1172TIP3    H2 3481   4.626   4.026   2.128
 1173TIP3   OH2 3482   2.207   0.062   0.189
 1173TIP3    H1 3483   2.261   0.131   0.228
 1173TIP3    H2 3484   2.164   0.021   0.264
 1174TIP3   OH2 3485   6.600   6.698   2.323
 1174TIP3    H1 3486   6.565   6.714   2.235
 1174TIP3    H2 3487   6.564   6.767   2.377
 1175TIP3   OH2 3488   4.693   6.493   4.229
 1175TIP3    H1 3489   4.748   6.415   4.241
 1175TIP3    H2 3490   4.749   6.566   4.257
 1176TIP3   OH2 3491   2.666   5.788   4.040
 1176TIP3    H1 3492   2.624   5.735   4.108
 1176TIP3    H2 3493   2.595   5.812   3.981
 1177TIP3   OH2 3494   4.195   3.644   0.141
 1177TIP3    H1 3495   4.109   3.615   0.111
 1177TIP3    H2 3496   4.249   3.645   0.062
 1178TIP3   OH2 3497   5.873   5.006   3.630
 1178TIP3    H1 3498   5.965   4.988   3.649
 1178TIP3    H2 3499   5.869   5.101   3.620
 1179TIP3   OH2 3500   6.601   4.270   2.676
 1179TIP3    H1 3501   6.676   4.212   2.673
 1179TIP3    H2 3502   6.527   4.215   2.651
 1180TIP3   OH2 3503   1.149   6.163   3.212
 1180TIP3    H1 3504   1.085   6.094   3.229
 1180TIP3    H2 3505   1.125   6.197   3.126
 1181TIP3   OH2 3506   0.355   1.158   0.586
 1181TIP3    H1 3507   0.363   1.140   0.492
 1181TIP3    H2 3508   0.431   1.114   0.625
 1182TIP3   OH2 3509   7.169   1.152   5.054
 1182TIP3    H1 3510   7.169   1.211   5.129
 1182TIP3    H2 3511   7.179   1.209   4.978
 1183TIP3   OH2 3512   3.477   6.546   3.347
 1183TIP3    H1 3513   3.487   6.454   3.323
 1183TIP3    H2 3514   3.396   6.573   3.304
 1184TIP3   OH2 3515   5.528   0.910   1.322
 1184TIP3    H1 3516   5.557   0.960   1.246
 1184TIP3    H2 3517   5.609   0.881   1.365
 1185TIP3   OH2 3518   6.538   4.347   1.833
 1185TIP3    H1 3519   6.460   4.401   1.825
 1185TIP3    H2 3520   6.508   4.267   1.876
 1186TIP3   OH2 3521   4.350   0.208   5.555
 1186TIP3    H1 3522   4.417   0.272   5.528
 1186TIP3    H2 3523   4.306   0.250   5.629
 1187TIP3   OH2 3524   4.764   5.606   2.384
 1187TIP3    H1 3525   4.692   5.545   2.400
 1187TIP3    H2 3526   4.730   5.667   2.318
 1188TIP3   OH2 3527   6.673   2.554   1.456
 1188TIP3    H1 3528   6.699   2.476   1.504
 1188TIP3    H2 3529   6.627   2.608   1.520
 1189TIP3   OH2 3530   4.921   2.485   0.595
 1189TIP3    H1 3531   4.899   2.505   0.686
 1189TIP3    H2 3532   4.879   2.554   0.544
 1190TIP3   OH2 3533   2.422   1.382   0.245
 1190TIP3    H1 3534   2.460   1.345   0.325
 1190TIP3    H2 3535   2.358   1.446   0.277
 1191TIP3   OH2 3536   2.545   2.938   2.823
 1191TIP3    H1 3537   2.493   2.949   2.743
 1191TIP3    H2 3538   2.632   2.914   2.791
 1192TIP3   OH2 3539   6.014   3.888   2.736
 1192TIP3    H1 3540   6.018   3.983   2.738
 1192TIP3    H2 3541   6.034   3.860   2.825
 1193TIP3   OH2 3542   0.849   5.400   5.123
 1193TIP3    H1 3543   0.861   5.495   5.112
 1193TIP3    H2 3544   0.758   5.384   5.097
 1194TIP3   OH2 3545   4.144   1.859   0.425
 1194TIP3    H1 3546   4.164   1.765   0.425
 1194TIP3    H2 3547   4.049   1.863   0.419
 1195TIP3   OH2 3548   5.286   0.833   3.161
 1195TIP3    H1 3549   5.303   0.739   3.158
 1195TIP3    H2 3550   5.197   0.839   3.198
 1196TIP3   OH2 3551   4.470   1.476   4.407
 1196TIP3    H1 3552   4.454   1.440   4.494
 1196TIP3    H2 3553   4.552   1.436   4.379
 1197TIP3   OH2 3554   2.510   2.252   1.092
 1197TIP3    H1 3555   2.523   2.269   1.186
 1197TIP3    H2 3556   2.548   2.328   1.048
 1198TIP3   OH2 3557   0.706   0.347   3.951
 1198TIP3    H1 3558   0.678   0.387   4.033
 1198TIP3    H2 3559   0.801   0.337   3.961
 1199TIP3   OH2 3560   7.121   4.497   0.604
 1199TIP3    H1 3561   7.139   4.438   0.531
 1199TIP3    H2 3562   7.207   4.525   0.636
 1200TIP3   OH2 3563   6.963   6.791   3.154
 1200TIP3    H1 3564   7.045   6.744   3.135
 1200TIP3    H2 3565   6.957   6.857   3.085
 1201TIP3   OH2 3566   4.120   2.089   2.146
 1201TIP3    H1 3567   4.084   2.176   2.165
 1201TIP3    H2 3568   4.045   2.030   2.155
 1202TIP3   OH2 3569   6.122   2.248   0.882
 1202TIP3    H1 3570   6.071   2.316   0.838
 1202TIP3    H2 3571   6.205   2.289   0.903
 1203TIP3   OH2 3572   4.032   4.222   0.710
 1203TIP3    H1 3573   4.048   4.231   0.615
 1203TIP3    H2 3574   4.101   4.162   0.739
 1204TIP3   OH2 3575   4.238   1.271   2.180
 1204TIP3    H1 3576   4.210   1.264   2.089
 1204TIP3    H2 3577   4.309   1.207   2.189
 1205TIP3   OH2 3578   0.415   4.112   4.106
 1205TIP3    H1 3579   0.422   4.194   4.156
 1205TIP3    H2 3580   0.332   4.120   4.058
 1206TIP3   OH2 3581   5.480   1.712   5.131
 1206TIP3    H1 3582   5.473   1.745   5.220
 1206TIP3    H2 3583   5.392   1.724   5.094
 1207TIP3   OH2 3584   6.968   5.899   0.548
 1207TIP3    H1 3585   7.019   5.969   0.591
 1207TIP3    H2 3586   6.908   5.869   0.616
 1208TIP3   OH2 3587   2.801   2.913   3.163
 1208TIP3    H1 3588   2.841   2.992   3.127
 1208TIP3    H2 3589   2.711   2.914   3.131
 1209TIP3   OH2 3590   3.080   6.478   5.653
 1209TIP3    H1 3591   3.146   6.505   5.590
 1209TIP3    H2 3592   2.996   6.491   5.608
 1210TIP3   OH2 3593   4.435   5.173   2.875
 1210TIP3    H1 3594   4.397   5.254   2.839
 1210TIP3    H2 3595   4.367   5.107   2.863
 1211TIP3   OH2 3596   3.279   2.222   2.333
 1211TIP3    H1 3597   3.242   2.196   2.418
 1211TIP3    H2 3598   3.206   2.261   2.286
 1212TIP3   OH2 3599   4.678   6.629   4.584
 1212TIP3    H1 3600   4.753   6.576   4.609
 1212TIP3    H2 3601   4.715   6.699   4.530
 1213TIP3   OH2 3602   6.645   5.750   5.181
 1213TIP3    H1 3603   6.630   5.768   5.274
 1213TIP3    H2 3604   6.693   5.826   5.149
 1214TIP3   OH2 3605   7.047   5.345   2.438
 1214TIP3    H1 3606   7.097   5.380   2.364
 1214TIP3    H2 3607   7.053   5.250   2.428
 1215TIP3   OH2 3608   5.887   3.475   0.024
 1215TIP3    H1 3609   5.921   3.564   0.031
 1215TIP3    H2 3610   5.891   3.455  -0.070
 1216TIP3   OH2 3611   2.119   0.491   5.077
 1216TIP3    H1 3612   2.185   0.485   5.008
 1216TIP3    H2 3613   2.126   0.407   5.124
 1217TIP3   OH2 3614   6.498   0.960   0.947
 1217TIP3    H1 3615   6.563   1.012   0.995
 1217TIP3    H2 3616   6.532   0.870   0.951
 1218TIP3   OH2 3617   3.307   4.318   5.111
 1218TIP3    H1 3618   3.247   4.354   5.046
 1218TIP3    H2 3619   3.269   4.345   5.195
 1219TIP3   OH2 3620   4.193   1.072   3.918
 1219TIP3    H1 3621   4.232   1.132   3.854
 1219TIP3    H2 3622   4.124   1.124   3.960
 1220TIP3   OH2 3623   5.728   5.901   0.083
 1220TIP3    H1 3624   5.752   5.873   0.172
 1220TIP3    H2 3625   5.728   5.997   0.087
 1221TIP3   OH2 3626   4.389   2.316   3.141
 1221TIP3    H1 3627   4.414   2.288   3.229
 1221TIP3    H2 3628   4.298   2.345   3.150
 1222TIP3   OH2 3629   4.365   6.583   3.604
 1222TIP3    H1 3630   4.327   6.598   3.518
 1222TIP3    H2 3631   4.460   6.591   3.589
 1223TIP3   OH2 3632   2.078   6.783   4.348
 1223TIP3    H1 3633   2.064   6.722   4.420
 1223TIP3    H2 3634   2.165   6.761   4.315
 1224TIP3   OH2 3635   4.612   0.570   4.850
 1224TIP3    H1 3636   4.643   0.582   4.760
 1224TIP3    H2 3637   4.519   0.593   4.846
 1225TIP3   OH2 3638   6.162   6.460   2.692
 1225TIP3    H1 3639   6.237   6.437   2.637
 1225TIP3    H2 3640   6.096   6.492   2.631
 1226TIP3   OH2 3641   4.915   4.110   5.680
 1226TIP3    H1 3642   4.843   4.124   5.742
 1226TIP3    H2 3643   4.957   4.196   5.673
 1227TIP3   OH2 3644   1.226   6.136   0.441
 1227TIP3    H1 3645   1.219   6.100   0.352
 1227TIP3    H2 3646   1.295   6.202   0.434
 1228TIP3   OH2 3647   4.090   4.152   4.792
 1228TIP3    H1 3648   4.022   4.092   4.823
 1228TIP3    H2 3649   4.156   4.151   4.862
 1229TIP3   OH2 3650   0.526   1.124   5.770
 1229TIP3    H1 3651   0.437   1.159   5.775
 1229TIP3    H2 3652   0.556   1.149   5.682
 1230TIP3   OH2 3653   6.330   0.792   4.211
 1230TIP3    H1 3654   6.396   0.734   4.173
 1230TIP3    H2 3655   6.379   0.868   4.241
 1231TIP3   OH2 3656   1.317   2.218   0.905
 1231TIP3    H1 3657   1.339   2.257   0.820
 1231TIP3    H2 3658   1.325   2.289   0.968
 1232TIP3   OH2 3659   0.082   2.223   4.074
 1232TIP3    H1 3660   0.087   2.286   4.146
 1232TIP3    H2 3661  -0.012   2.205   4.066
 1233TIP3   OH2 3662   5.474   0.972   5.448
 1233TIP3    H1 3663   5.395   0.985   5.395
 1233TIP3    H2 3664   5.546   0.990   5.387
 1234TIP3   OH2 3665   5.507   6.028   4.366
 1234TIP3    H1 3666   5.464   5.963   4.312
 1234TIP3    H2 3667   5.599   6.004   4.366
 1235TIP3   OH2 3668   0.676  -0.016   5.199
 1235TIP3    H1 3669   0.723   0.061   5.228
 1235TIP3    H2 3670   0.637   0.009   5.115
 1236TIP3   OH2 3671   5.973   3.503   5.697
 1236TIP3    H1 3672   6.039   3.508   5.766
 1236TIP3    H2 3673   5.894   3.539   5.737
 1237TIP3   OH2 3674   1.948   4.034   5.636
 1237TIP3    H1 3675   1.875   3.986   5.674
 1237TIP3    H2 3676   1.968   3.988   5.554
 1238TIP3   OH2 3677   5.974   2.765   0.507
 1238TIP3    H1 3678   6.014   2.816   0.437
 1238TIP3    H2 3679   6.040   2.763   0.576
 1239TIP3   OH2 3680   5.714   3.904   3.384
 1239TIP3    H1 3681   5.795   3.870   3.345
 1239TIP3    H2 3682   5.677   3.961   3.317
 1240TIP3   OH2 3683   1.423   3.301   4.163
 1240TIP3    H1 3684   1.506   3.304   4.117
 1240TIP3    H2 3685   1.433   3.362   4.236
 1241TIP3   OH2 3686   1.523   3.519   2.525
 1241TIP3    H1 3687   1.589   3.574   2.484
 1241TIP3    H2 3688   1.470   3.579   2.577
 1242TIP3   OH2 3689   4.373   1.298   4.214
 1242TIP3    H1 3690   4.425   1.220   4.196
 1242TIP3    H2 3691   4.432   1.356   4.262
 1243TIP3   OH2 3692   4.538   2.846   3.314
 1243TIP3    H1 3693   4.586   2.886   3.242
 1243TIP3    H2 3694   4.519   2.757   3.283
 1244TIP3   OH2 3695   0.439   1.231   0.316
 1244TIP3    H1 3696   0.378   1.301   0.339
 1244TIP3    H2 3697   0.414   1.207   0.226
 1245TIP3   OH2 3698   6.080   2.410   4.428
 1245TIP3    H1 3699   6.036   2.494   4.443
 1245TIP3    H2 3700   6.142   2.402   4.501
 1246TIP3   OH2 3701   6.274   6.534   5.038
 1246TIP3    H1 3702   6.283   6.610   4.981
 1246TIP3    H2 3703   6.300   6.565   5.124
 1247TIP3   OH2 3704   1.171   3.364   4.666
 1247TIP3    H1 3705   1.155   3.434   4.602
 1247TIP3    H2 3706   1.188   3.286   4.613
 1248TIP3   OH2 3707   7.126   2.183   3.157
 1248TIP3    H1 3708   7.043   2.192   3.110
 1248TIP3    H2 3709   7.172   2.113   3.111
 1249TIP3   OH2 3710   6.941   4.859   4.851
 1249TIP3    H1 3711   7.011   4.796   4.835
 1249TIP3    H2 3712   6.966   4.936   4.800
 1250TIP3   OH2 3713   3.963   2.341   2.206
 1250TIP3    H1 3714   3.923   2.383   2.283
 1250TIP3    H2 3715   4.044   2.389   2.193
 1251TIP3   OH2 3716   4.268   5.535   1.417
 1251TIP3    H1 3717   4.259   5.479   1.493
 1251TIP3    H2 3718   4.337   5.495   1.364
 1252TIP3   OH2 3719   3.493   4.219   4.952
 1252TIP3    H1 3720   3.464   4.278   5.022
 1252TIP3    H2 3721   3.420   4.159   4.939
 1253TIP3   OH2 3722   3.840   1.497   2.551
 1253TIP3    H1 3723   3.747   1.477   2.559
 1253TIP3    H2 3724   3.845   1.592   2.562
 1254TIP3   OH2 3725   1.436   6.184   3.291
 1254TIP3    H1 3726   1.489   6.250   3.337
 1254TIP3    H2 3727   1.369   6.158   3.354
 1255TIP3   OH2 3728   5.230   3.897   2.624
 1255TIP3    H1 3729   5.281   3.938   2.694
 1255TIP3    H2 3730   5.203   3.813   2.660
 1256TIP3   OH2 3731   2.172   5.296   2.567
 1256TIP3    H1 3732   2.230   5.227   2.600
 1256TIP3    H2 3733   2.232   5.362   2.531
 1257TIP3   OH2 3734   2.841   4.985   4.109
 1257TIP3    H1 3735   2.908   4.919   4.124
 1257TIP3    H2 3736   2.836   4.993   4.014
 1258TIP3   OH2 3737   3.389   1.548   0.497
 1258TIP3    H1 3738   3.311   1.567   0.444
 1258TIP3    H2 3739   3.370   1.464   0.539
 1259TIP3   OH2 3740   3.148   0.242   4.586
 1259TIP3    H1 3741   3.117   0.218   4.499
 1259TIP3    H2 3742   3.219   0.304   4.571
 1260TIP3   OH2 3743   3.259   4.830   1.445
 1260TIP3    H1 3744   3.178   4.879   1.464
 1260TIP3    H2 3745   3.255   4.755   1.505
 1261TIP3   OH2 3746   4.542   4.983   2.476
 1261TIP3    H1 3747   4.452   4.950   2.467
 1261TIP3    H2 3748   4.591   4.907   2.506
 1262TIP3   OH2 3749   3.678   2.804   2.798
 1262TIP3    H1 3750   3.729   2.881   2.823
 1262TIP3    H2 3751   3.626   2.833   2.723
 1263TIP3   OH2 3752   4.239   5.449   0.151
 1263TIP3    H1 3753   4.260   5.359   0.129
 1263TIP3    H2 3754   4.323   5.495   0.148
 1264TIP3   OH2 3755   4.636   5.742   2.676
 1264TIP3    H1 3756   4.642   5.658   2.629
 1264TIP3    H2 3757   4.567   5.728   2.740
 1265TIP3   OH2 3758   2.281   0.954   0.914
 1265TIP3    H1 3759   2.204   0.899   0.925
 1265TIP3    H2 3760   2.246   1.040   0.892
 1266TIP3   OH2 3761   5.188   2.631   1.497
 1266TIP3    H1 3762   5.103   2.617   1.539
 1266TIP3    H2 3763   5.167   2.655   1.407
 1267TIP3   OH2 3764   3.722   2.704   5.113
 1267TIP3    H1 3765   3.672   2.721   5.033
 1267TIP3    H2 3766   3.728   2.788   5.157
 1268TIP3   OH2 3767   1.549   0.205   5.882
 1268TIP3    H1 3768   1.483   0.200   5.812
 1268TIP3    H2 3769   1.606   0.277   5.856
 1269TIP3   OH2 3770   4.298   0.014   3.412
 1269TIP3    H1 3771   4.387   0.011   3.377
 1269TIP3    H2 3772   4.261   0.095   3.376
 1270TIP3   OH2 3773   1.269   5.133   2.580
 1270TIP3    H1 3774   1.337   5.191   2.546
 1270TIP3    H2 3775   1.290   5.047   2.543
 1271TIP3   OH2 3776   5.069   6.488   1.407
 1271TIP3    H1 3777   5.114   6.470   1.324
 1271TIP3    H2 3778   5.116   6.437   1.472
 1272TIP3   OH2 3779   6.050   0.319   1.859
 1272TIP3    H1 3780   6.001   0.396   1.830
 1272TIP3    H2 3781   6.058   0.265   1.780
 1273TIP3   OH2 3782   4.172   0.193   5.119
 1273TIP3    H1 3783   4.077   0.204   5.108
 1273TIP3    H2 3784   4.198   0.136   5.046
 1274TIP3   OH2 3785   0.007   1.432   1.611
 1274TIP3    H1 3786  -0.057   1.370   1.574
 1274TIP3    H2 3787   0.053   1.467   1.535
 1275TIP3   OH2 3788   4.916   3.428   3.471
 1275TIP3    H1 3789   4.838   3.382   3.441
 1275TIP3    H2 3790   4.950   3.374   3.543
 1276TIP3   OH2 3791   0.798   3.915   2.432
 1276TIP3    H1 3792   0.706   3.888   2.437
 1276TIP3    H2 3793   0.844   3.856   2.491
 1277TIP3   OH2 3794   6.217   0.435   3.240
 1277TIP3    H1 3795   6.194   0.345   3.264
 1277TIP3    H2 3796   6.312   0.439   3.247
 1278TIP3   OH2 3797   1.037   0.576   2.288
 1278TIP3    H1 3798   1.079   0.584   2.202
 1278TIP3    H2 3799   1.102   0.531   2.342
 1279TIP3   OH2 3800   3.108   0.718   1.965
 1279TIP3    H1 3801   3.030   0.750   2.009
 1279TIP3    H2 3802   3.134   0.790   1.907
 1280TIP3   OH2 3803   3.362   4.596   3.183
 1280TIP3    H1 3804   3.398   4.610   3.096
 1280TIP3    H2 3805   3.313   4.513   3.176
 1281TIP3   OH2 3806   2.413   6.424   3.997
 1281TIP3    H1 3807   2.509   6.416   3.996
 1281TIP3    H2 3808   2.381   6.337   3.973
 1282TIP3   OH2 3809   5.896   4.425   4.711
 1282TIP3    H1 3810   5.868   4.366   4.641
 1282TIP3    H2 3811   5.844   4.504   4.697
 1283TIP3   OH2 3812   3.754   0.995   3.771
 1283TIP3    H1 3813   3.847   0.999   3.747
 1283TIP3    H2 3814   3.727   0.906   3.749
 1284TIP3   OH2 3815   3.357   4.799   2.284
 1284TIP3    H1 3816   3.315   4.716   2.262
 1284TIP3    H2 3817   3.303   4.866   2.242
 1285TIP3   OH2 3818   6.622   0.905   3.895
 1285TIP3    H1 3819   6.660   0.991   3.911
 1285TIP3    H2 3820   6.697   0.846   3.888
 1286TIP3   OH2 3821   6.212   1.328   4.115
 1286TIP3    H1 3822   6.116   1.327   4.108
 1286TIP3    H2 3823   6.232   1.416   4.147
 1287TIP3   OH2 3824   4.356   0.564   5.245
 1287TIP3    H1 3825   4.282   0.521   5.289
 1287TIP3    H2 3826   4.413   0.492   5.218
 1288TIP3   OH2 3827   2.065   1.678   3.634
 1288TIP3    H1 3828   2.128   1.746   3.658
 1288TIP3    H2 3829   2.117   1.613   3.587
 1289TIP3   OH2 3830   3.939   6.338   2.608
 1289TIP3    H1 3831   3.864   6.343   2.668
 1289TIP3    H2 3832   3.970   6.428   2.601
 1290TIP3   OH2 3833   6.308   3.129   1.224
 1290TIP3    H1 3834   6.344   3.092   1.305
 1290TIP3    H2 3835   6.227   3.080   1.209
 1291TIP3   OH2 3836   0.712   2.184   2.511
 1291TIP3    H1 3837   0.728   2.135   2.430
 1291TIP3    H2 3838   0.755   2.133   2.579
 1292TIP3   OH2 3839   0.906   4.160   1.420
 1292TIP3    H1 3840   0.938   4.238   1.373
 1292TIP3    H2 3841   0.935   4.173   1.510
 1293TIP3   OH2 3842   3.044   2.649   2.731
 1293TIP3    H1 3843   3.112   2.716   2.722
 1293TIP3    H2 3844   3.090   2.567   2.714
 1294TIP3   OH2 3845   5.862   2.022   5.532
 1294TIP3    H1 3846   5.833   2.068   5.611
 1294TIP3    H2 3847   5.817   2.067   5.460
 1295TIP3   OH2 3848   1.853   6.816   2.145
 1295TIP3    H1 3849   1.781   6.758   2.170
 1295TIP3    H2 3850   1.872   6.793   2.054
 1296TIP3   OH2 3851   2.047   5.621   4.495
 1296TIP3    H1 3852   2.100   5.608   4.416
 1296TIP3    H2 3853   2.072   5.549   4.553
 1297TIP3   OH2 3854   5.554   1.646   3.215
 1297TIP3    H1 3855   5.623   1.580   3.217
 1297TIP3    H2 3856   5.476   1.599   3.246
 1298TIP3   OH2 3857   4.009   3.164   2.844
 1298TIP3    H1 3858   3.960   3.188   2.922
 1298TIP3    H2 3859   3.945   3.124   2.786
 1299TIP3   OH2 3860   7.223   0.091   2.615
 1299TIP3    H1 3861   7.149   0.046   2.574
 1299TIP3    H2 3862   7.248   0.034   2.688
 1300TIP3   OH2 3863   4.741   3.040   2.010
 1300TIP3    H1 3864   4.710   3.121   2.051
 1300TIP3    H2 3865   4.783   3.069   1.929
 1301TIP3   OH2 3866   2.785   6.146   4.307
 1301TIP3    H1 3867   2.745   6.159   4.393
 1301TIP3    H2 3868   2.802   6.052   4.302
 1302TIP3   OH2 3869   6.675   6.520   3.606
 1302TIP3    H1 3870   6.659   6.544   3.515
 1302TIP3    H2 3871   6.741   6.583   3.636
 1303TIP3   OH2 3872   4.993   3.972   3.572
 1303TIP3    H1 3873   4.990   3.955   3.478
 1303TIP3    H2 3874   5.022   3.890   3.611
 1304TIP3   OH2 3875   4.377   0.532   2.232
 1304TIP3    H1 3876   4.439   0.499   2.297
 1304TIP3    H2 3877   4.427   0.533   2.150
 1305TIP3   OH2 3878   3.661   6.151   4.500
 1305TIP3    H1 3879   3.744   6.137   4.544
 1305TIP3    H2 3880   3.657   6.245   4.484
 1306TIP3   OH2 3881   0.401   6.390   3.932
 1306TIP3    H1 3882   0.399   6.412   4.025
 1306TIP3    H2 3883   0.343   6.453   3.891
 1307TIP3   OH2 3884  -0.002   5.644   0.718
 1307TIP3    H1 3885  -0.061   5.670   0.648
 1307TIP3    H2 3886   0.077   5.614   0.672
 1308TIP3   OH2 3887   1.307   1.461   2.571
 1308TIP3    H1 3888   1.269   1.390   2.622
 1308TIP3    H2 3889   1.346   1.417   2.495
 1309TIP3   OH2 3890   6.091   2.774   0.803
 1309TIP3    H1 3891   6.181   2.805   0.812
 1309TIP3    H2 3892   6.037   2.851   0.821
 1310TIP3   OH2 3893   5.344   3.906   4.096
 1310TIP3    H1 3894   5.330   3.834   4.158
 1310TIP3    H2 3895   5.277   3.971   4.118
 1311TIP3   OH2 3896   0.880   1.259   1.771
 1311TIP3    H1 3897   0.798   1.228   1.810
 1311TIP3    H2 3898   0.949   1.215   1.822
 1312TIP3   OH2 3899   6.569   2.044   5.778
 1312TIP3    H1 3900   6.516   2.057   5.699
 1312TIP3    H2 3901   6.612   1.959   5.765
 1313TIP3   OH2 3902   2.113   2.250   4.067
 1313TIP3    H1 3903   2.023   2.263   4.035
 1313TIP3    H2 3904   2.157   2.202   3.997
 1314TIP3   OH2 3905   5.271   0.280   2.516
 1314TIP3    H1 3906   5.336   0.231   2.567
 1314TIP3    H2 3907   5.244   0.220   2.447
 1315TIP3   OH2 3908   3.374   3.071   0.196
 1315TIP3    H1 3909   3.354   3.026   0.113
 1315TIP3    H2 3910   3.384   3.000   0.259
 1316TIP3   OH2 3911   0.684   4.904   3.032
 1316TIP3    H1 3912   0.769   4.945   3.016
 1316TIP3    H2 3913   0.620   4.962   2.989
 1317TIP3   OH2 3914   2.984   6.716   1.619
 1317TIP3    H1 3915   2.967   6.659   1.544
 1317TIP3    H2 3916   2.957   6.803   1.588
 1318TIP3   OH2 3917   1.691   1.143   1.580
 1318TIP3    H1 3918   1.668   1.053   1.555
 1318TIP3    H2 3919   1.608   1.183   1.606
 1319TIP3   OH2 3920   6.767   4.650   0.253
 1319TIP3    H1 3921   6.792   4.597   0.329
 1319TIP3    H2 3922   6.850   4.680   0.217
 1320TIP3   OH2 3923   2.875   5.572   5.776
 1320TIP3    H1 3924   2.944   5.560   5.711
 1320TIP3    H2 3925   2.915   5.545   5.859
 1321TIP3   OH2 3926   6.136   5.639   3.162
 1321TIP3    H1 3927   6.118   5.680   3.078
 1321TIP3    H2 3928   6.125   5.709   3.226
 1322TIP3   OH2 3929   5.708   5.140   2.806
 1322TIP3    H1 3930   5.704   5.049   2.836
 1322TIP3    H2 3931   5.750   5.188   2.878
 1323TIP3   OH2 3932   2.148   0.214   0.751
 1323TIP3    H1 3933   2.141   0.269   0.673
 1323TIP3    H2 3934   2.189   0.270   0.817
 1324TIP3   OH2 3935   1.367   3.824   4.599
 1324TIP3    H1 3936   1.409   3.739   4.609
 1324TIP3    H2 3937   1.390   3.873   4.678
 1325TIP3   OH2 3938   2.483   4.652   2.252
 1325TIP3    H1 3939   2.423   4.726   2.244
 1325TIP3    H2 3940   2.428   4.575   2.236
 1326TIP3   OH2 3941   2.951   5.794   4.599
 1326TIP3    H1 3942   2.916   5.735   4.531
 1326TIP3    H2 3943   3.016   5.740   4.645
 1327TIP3   OH2 3944   5.298   0.557   3.060
 1327TIP3    H1 3945   5.281   0.491   3.127
 1327TIP3    H2 3946   5.227   0.546   2.997
 1328TIP3   OH2 3947   1.707   1.570   1.081
 1328TIP3    H1 3948   1.620   1.590   1.116
 1328TIP3    H2 3949   1.706   1.476   1.065
 1329TIP3   OH2 3950   2.725   6.766   3.229
 1329TIP3    H1 3951   2.645   6.807   3.261
 1329TIP3    H2 3952   2.761   6.722   3.306
 1330TIP3   OH2 3953   7.031   5.443   5.027
 1330TIP3    H1 3954   6.981   5.364   5.047
 1330TIP3    H2 3955   7.062   5.474   5.111
 1331TIP3   OH2 3956   1.514   4.371   0.156
 1331TIP3    H1 3957   1.500   4.393   0.248
 1331TIP3    H2 3958   1.439   4.316   0.133
 1332TIP3   OH2 3959   2.601   2.201   0.574
 1332TIP3    H1 3960   2.535   2.133   0.561
 1332TIP3    H2 3961   2.553   2.283   0.569
 1333TIP3   OH2 3962   0.347   6.084   4.684
 1333TIP3    H1 3963   0.252   6.094   4.689
 1333TIP3    H2 3964   0.373   6.062   4.774
 1334TIP3   OH2 3965   5.431   5.303   4.196
 1334TIP3    H1 3966   5.467   5.219   4.225
 1334TIP3    H2 3967   5.365   5.325   4.263
 1335TIP3   OH2 3968   1.950   0.475   4.640
 1335TIP3    H1 3969   1.995   0.560   4.637
 1335TIP3    H2 3970   2.019   0.412   4.620
 1336TIP3   OH2 3971   4.601   5.212   4.681
 1336TIP3    H1 3972   4.519   5.201   4.633
 1336TIP3    H2 3973   4.575   5.223   4.772
 1337TIP3   OH2 3974   2.536   3.293   1.246
 1337TIP3    H1 3975   2.485   3.213   1.241
 1337TIP3    H2 3976   2.627   3.265   1.231
 1338TIP3   OH2 3977   1.188   3.562   2.932
 1338TIP3    H1 3978   1.165   3.515   3.012
 1338TIP3    H2 3979   1.226   3.495   2.875
 1339TIP3   OH2 3980   4.463   1.822   0.098
 1339TIP3    H1 3981   4.498   1.839   0.011
 1339TIP3    H2 3982   4.540   1.811   0.153
 1340TIP3   OH2 3983   6.372   6.473   3.278
 1340TIP3    H1 3984   6.438   6.413   3.244
 1340TIP3    H2 3985   6.366   6.543   3.214
 1341TIP3   OH2 3986   2.087   0.193   1.803
 1341TIP3    H1 3987   2.101   0.117   1.859
 1341TIP3    H2 3988   2.021   0.165   1.740
 1342TIP3   OH2 3989   5.327   2.425   1.640
 1342TIP3    H1 3990   5.250   2.379   1.609
 1342TIP3    H2 3991   5.330   2.505   1.587
 1343TIP3   OH2 3992   2.714   0.641   4.878
 1343TIP3    H1 3993   2.728   0.643   4.783
 1343TIP3    H2 3994   2.622   0.669   4.889
 1344TIP3   OH2 3995   4.822   6.396   0.072
 1344TIP3    H1 3996   4.911   6.412   0.102
 1344TIP3    H2 3997   4.812   6.301   0.077
 1345TIP3   OH2 3998   0.664   5.103   5.107
 1345TIP3    H1 3999   0.637   5.144   5.025
 1345TIP3    H2 4000   0.678   5.011   5.085
 1346TIP3   OH2 4001   3.411   6.157   5.466
 1346TIP3    H1 4002   3.362   6.076   5.481
 1346TIP3    H2 4003   3.343   6.222   5.445
 1347TIP3   OH2 4004   0.243   1.293   2.101
 1347TIP3    H1 4005   0.306   1.223   2.119
 1347TIP3    H2 4006   0.185   1.256   2.034
 1348TIP3   OH2 4007   0.308   5.704   0.911
 1348TIP3    H1 4008   0.277   5.675   0.825
 1348TIP3    H2 4009   0.361   5.782   0.892
 1349TIP3   OH2 4010   4.584   3.297   1.605
 1349TIP3    H1 4011   4.647   3.355   1.649
 1349TIP3    H2 4012   4.501   3.315   1.649
 1350TIP3   OH2 4013   6.038   2.337   3.347
 1350TIP3    H1 4014   6.037   2.337   3.251
 1350TIP3    H2 4015   6.034   2.245   3.371
 1351TIP3   OH2 4016   5.456   1.054   2.023
 1351TIP3    H1 4017   5.408   1.079   2.102
 1351TIP3    H2 4018   5.404   1.091   1.951
 1352TIP3   OH2 4019   4.600   4.527   2.622
 1352TIP3    H1 4020   4.506   4.507   2.619
 1352TIP3    H2 4021   4.604   4.619   2.647
 1353TIP3   OH2 4022   0.394   0.620   5.242
 1353TIP3    H1 4023   0.354   0.595   5.325
 1353TIP3    H2 4024   0.323   0.613   5.178
 1354TIP3   OH2 4025   3.090   3.391   5.670
 1354TIP3    H1 4026   3.085   3.308   5.621
 1354TIP3    H2 4027   3.000   3.408   5.698
 1355TIP3   OH2 4028   1.836   3.164   0.969
 1355TIP3    H1 4029   1.925   3.130   0.957
 1355TIP3    H2 4030   1.800   3.168   0.880
 1356TIP3   OH2 4031   6.616   6.100   3.320
 1356TIP3    H1 4032   6.615   6.163   3.393
 1356TIP3    H2 4033   6.682   6.035   3.346
 1357TIP3   OH2 4034   3.255   1.942   2.631
 1357TIP3    H1 4035   3.200   1.909   2.702
 1357TIP3    H2 4036   3.267   1.867   2.573
 1358TIP3   OH2 4037   2.947   4.595   0.143
 1358TIP3    H1 4038   3.033   4.573   0.180
 1358TIP3    H2 4039   2.931   4.527   0.079
 1359TIP3   OH2 4040   0.736   0.982   5.646
 1359TIP3    H1 4041   0.810   0.965   5.705
 1359TIP3    H2 4042   0.675   1.035   5.698
 1360TIP3   OH2 4043   1.024   3.511   0.507
 1360TIP3    H1 4044   1.039   3.603   0.483
 1360TIP3    H2 4045   0.929   3.504   0.513
 1361TIP3   OH2 4046   1.350   3.774   1.685
 1361TIP3    H1 4047   1.373   3.756   1.776
 1361TIP3    H2 4048   1.332   3.868   1.683
 1362TIP3   OH2 4049   4.730   2.527   2.919
 1362TIP3    H1 4050   4.636   2.519   2.903
 1362TIP3    H2 4051   4.763   2.437   2.914
 1363TIP3   OH2 4052   2.793   3.795   2.263
 1363TIP3    H1 4053   2.810   3.849   2.186
 1363TIP3    H2 4054   2.871   3.804   2.317
 1364TIP3   OH2 4055   0.039   1.405   2.247
 1364TIP3    H1 4056   0.057   1.480   2.304
 1364TIP3    H2 4057   0.116   1.401   2.189
 1365TIP3   OH2 4058   1.717   1.817   0.091
 1365TIP3    H1 4059   1.694   1.909   0.081
 1365TIP3    H2 4060   1.800   1.819   0.140
 1366TIP3   OH2 4061   0.565   5.276   1.886
 1366TIP3    H1 4062   0.557   5.255   1.793
 1366TIP3    H2 4063   0.556   5.191   1.930
 1367TIP3   OH2 4064   5.315   1.152   1.797
 1367TIP3    H1 4065   5.292   1.072   1.750
 1367TIP3    H2 4066   5.250   1.217   1.768
 1368TIP3   OH2 4067   0.912   1.621   1.633
 1368TIP3    H1 4068   0.887   1.639   1.723
 1368TIP3    H2 4069   0.981   1.555   1.640
 1369TIP3   OH2 4070   1.751   0.808   1.250
 1369TIP3    H1 4071   1.734   0.889   1.202
 1369TIP3    H2 4072   1.697   0.815   1.329
 1370TIP3   OH2 4073   6.641   5.993   4.817
 1370TIP3    H1 4074   6.557   5.948   4.809
 1370TIP3    H2 4075   6.662   5.990   4.910
 1371TIP3   OH2 4076   2.008   5.476   4.857
 1371TIP3    H1 4077   2.097   5.475   4.819
 1371TIP3    H2 4078   1.988   5.385   4.876
 1372TIP3   OH2 4079   0.159   2.545   4.064
 1372TIP3    H1 4080   0.173   2.501   4.148
 1372TIP3    H2 4081   0.065   2.538   4.048
 1373TIP3   OH2 4082   4.499   2.928   4.546
 1373TIP3    H1 4083   4.428   2.920   4.610
 1373TIP3    H2 4084   4.558   2.992   4.584
 1374TIP3   OH2 4085   3.998   6.512   2.027
 1374TIP3    H1 4086   3.979   6.424   1.992
 1374TIP3    H2 4087   3.959   6.511   2.115
 1375TIP3   OH2 4088   3.720   5.581   4.186
 1375TIP3    H1 4089   3.714   5.654   4.247
 1375TIP3    H2 4090   3.633   5.574   4.147
 1376TIP3   OH2 4091   6.556   2.930   3.552
 1376TIP3    H1 4092   6.490   2.939   3.621
 1376TIP3    H2 4093   6.516   2.971   3.475
 1377TIP3   OH2 4094   4.377   1.660   4.967
 1377TIP3    H1 4095   4.373   1.696   5.055
 1377TIP3    H2 4096   4.468   1.632   4.956
 1378TIP3   OH2 4097   0.974   6.520   1.587
 1378TIP3    H1 4098   0.994   6.613   1.590
 1378TIP3    H2 4099   1.054   6.476   1.614
 1379TIP3   OH2 4100   0.807   3.726   5.133
 1379TIP3    H1 4101   0.720   3.703   5.165
 1379TIP3    H2 4102   0.834   3.650   5.082
 1380TIP3   OH2 4103   4.416   0.687   5.825
 1380TIP3    H1 4104   4.456   0.618   5.772
 1380TIP3    H2 4105   4.430   0.659   5.915
 1381TIP3   OH2 4106   4.508   6.531   2.703
 1381TIP3    H1 4107   4.482   6.444   2.733
 1381TIP3    H2 4108   4.526   6.519   2.610
 1382TIP3   OH2 4109   4.410   5.185   3.669
 1382TIP3    H1 4110   4.415   5.101   3.623
 1382TIP3    H2 4111   4.382   5.163   3.757
 1383TIP3   OH2 4112   2.760   6.590   5.309
 1383TIP3    H1 4113   2.786   6.591   5.401
 1383TIP3    H2 4114   2.716   6.506   5.297
 1384TIP3   OH2 4115   2.314   2.231   2.693
 1384TIP3    H1 4116   2.256   2.307   2.683
 1384TIP3    H2 4117   2.402   2.269   2.695
 1385TIP3   OH2 4118   5.824   1.282   5.687
 1385TIP3    H1 4119   5.807   1.363   5.736
 1385TIP3    H2 4120   5.739   1.256   5.654
 1386TIP3   OH2 4121   7.217   3.071   2.102
 1386TIP3    H1 4122   7.174   2.992   2.134
 1386TIP3    H2 4123   7.245   3.118   2.181
 1387TIP3   OH2 4124   0.750   4.840   1.549
 1387TIP3    H1 4125   0.817   4.903   1.524
 1387TIP3    H2 4126   0.694   4.831   1.471
 1388TIP3   OH2 4127   6.352   6.563   5.726
 1388TIP3    H1 4128   6.312   6.646   5.752
 1388TIP3    H2 4129   6.289   6.524   5.665
 1389TIP3   OH2 4130   1.440   2.230   5.571
 1389TIP3    H1 4131   1.420   2.261   5.483
 1389TIP3    H2 4132   1.520   2.277   5.596
 1390TIP3   OH2 4133   5.167   3.246   5.535
 1390TIP3    H1 4134   5.166   3.320   5.596
 1390TIP3    H2 4135   5.109   3.181   5.574
 1391TIP3   OH2 4136   7.038   4.114   1.462
 1391TIP3    H1 4137   7.096   4.176   1.418
 1391TIP3    H2 4138   7.051   4.131   1.555
 1392TIP3   OH2 4139   1.377   1.070   5.704
 1392TIP3    H1 4140   1.347   0.985   5.671
 1392TIP3    H2 4141   1.342   1.134   5.641
 1393TIP3   OH2 4142   2.976   3.312   2.265
 1393TIP3    H1 4143   3.060   3.332   2.225
 1393TIP3    H2 4144   2.915   3.372   2.222
 1394TIP3   OH2 4145   3.493   6.374   4.904
 1394TIP3    H1 4146   3.414   6.344   4.860
 1394TIP3    H2 4147   3.561   6.312   4.878
 1395TIP3   OH2 4148   1.490   0.687   1.205
 1395TIP3    H1 4149   1.539   0.636   1.141
 1395TIP3    H2 4150   1.399   0.666   1.188
 1396TIP3   OH2 4151   5.824   6.514   1.727
 1396TIP3    H1 4152   5.855   6.593   1.681
 1396TIP3    H2 4153   5.853   6.526   1.817
 1397TIP3   OH2 4154   1.339   6.745   1.281
 1397TIP3    H1 4155   1.273   6.797   1.327
 1397TIP3    H2 4156   1.355   6.793   1.200
 1398TIP3   OH2 4157   5.293   1.714   0.366
 1398TIP3    H1 4158   5.289   1.635   0.313
 1398TIP3    H2 4159   5.366   1.764   0.330
 1399TIP3   OH2 4160   1.924   0.957   3.912
 1399TIP3    H1 4161   2.015   0.931   3.923
 1399TIP3    H2 4162   1.900   0.996   3.996
 1400TIP3   OH2 4163   6.752   5.756   1.567
 1400TIP3    H1 4164   6.810   5.750   1.643
 1400TIP3    H2 4165   6.678   5.809   1.597
 1401TIP3   OH2 4166   5.136   6.136   4.422
 1401TIP3    H1 4167   5.078   6.208   4.398
 1401TIP3    H2 4168   5.110   6.064   4.365
 1402TIP3   OH2 4169   3.760   1.084   0.903
 1402TIP3    H1 4170   3.749   1.119   0.815
 1402TIP3    H2 4171   3.678   1.038   0.922
 1403TIP3   OH2 4172   0.145   0.229   3.917
 1403TIP3    H1 4173   0.126   0.255   3.827
 1403TIP3    H2 4174   0.214   0.163   3.910
 1404TIP3   OH2 4175   1.774   5.937   5.458
 1404TIP3    H1 4176   1.709   5.879   5.418
 1404TIP3    H2 4177   1.721   6.000   5.508
 1405TIP3   OH2 4178   6.538   3.828   3.735
 1405TIP3    H1 4179   6.541   3.841   3.640
 1405TIP3    H2 4180   6.468   3.764   3.749
 1406TIP3   OH2 4181   6.867   1.199   4.897
 1406TIP3    H1 4182   6.798   1.192   4.962
 1406TIP3    H2 4183   6.896   1.290   4.903
 1407TIP3   OH2 4184   5.712   6.153   5.419
 1407TIP3    H1 4185   5.662   6.126   5.496
 1407TIP3    H2 4186   5.695   6.085   5.354
 1408TIP3   OH2 4187   2.989   4.229   5.574
 1408TIP3    H1 4188   3.034   4.213   5.657
 1408TIP3    H2 4189   2.992   4.145   5.528
 1409TIP3   OH2 4190   5.996   4.905   1.074
 1409TIP3    H1 4191   6.014   4.813   1.051
 1409TIP3    H2 4192   5.997   4.906   1.169
 1410TIP3   OH2 4193   0.555   4.714   5.185
 1410TIP3    H1 4194   0.582   4.627   5.156
 1410TIP3    H2 4195   0.611   4.732   5.261
 1411TIP3   OH2 4196   3.562   5.077   2.011
 1411TIP3    H1 4197   3.498   5.119   2.069
 1411TIP3    H2 4198   3.635   5.138   2.007
 1412TIP3   OH2 4199   2.292   3.318   4.800
 1412TIP3    H1 4200   2.295   3.412   4.817
 1412TIP3    H2 4201   2.371   3.300   4.749
 1413TIP3   OH2 4202   2.972   6.132   5.346
 1413TIP3    H1 4203   2.901   6.111   5.407
 1413TIP3    H2 4204   2.929   6.180   5.276
 1414TIP3   OH2 4205   1.498   0.758   0.226
 1414TIP3    H1 4206   1.413   0.751   0.183
 1414TIP3    H2 4207   1.477   0.781   0.317
 1415TIP3   OH2 4208   0.747   1.983   5.618
 1415TIP3    H1 4209   0.836   1.996   5.652
 1415TIP3    H2 4210   0.734   2.054   5.556
 1416TIP3   OH2 4211   6.369   3.311   5.421
 1416TIP3    H1 4212   6.429   3.383   5.402
 1416TIP3    H2 4213   6.420   3.252   5.478
 1417TIP3   OH2 4214   3.177   3.621   5.850
 1417TIP3    H1 4215   3.186   3.569   5.771
 1417TIP3    H2 4216   3.222   3.570   5.918
 1418TIP3   OH2 4217   0.872   6.423   1.127
 1418TIP3    H1 4218   0.889   6.400   1.219
 1418TIP3    H2 4219   0.795   6.479   1.130
 1419TIP3   OH2 4220   0.605   2.015   1.387
 1419TIP3    H1 4221   0.637   2.074   1.456
 1419TIP3    H2 4222   0.629   1.927   1.418
 1420TIP3   OH2 4223   3.018   0.069   1.561
 1420TIP3    H1 4224   3.100   0.021   1.557
 1420TIP3    H2 4225   3.042   0.155   1.594
 1421TIP3   OH2 4226   1.914   6.520   2.100
 1421TIP3    H1 4227   1.957   6.512   2.185
 1421TIP3    H2 4228   1.944   6.443   2.051
 1422TIP3   OH2 4229   1.568   0.599   0.771
 1422TIP3    H1 4230   1.608   0.553   0.697
 1422TIP3    H2 4231   1.582   0.541   0.845
 1423TIP3   OH2 4232   5.268   6.220   1.244
 1423TIP3    H1 4233   5.193   6.181   1.288
 1423TIP3    H2 4234   5.236   6.305   1.214
 1424TIP3   OH2 4235   5.626   6.126   0.771
 1424TIP3    H1 4236   5.679   6.189   0.820
 1424TIP3    H2 4237   5.542   6.125   0.816
 1425TIP3   OH2 4238   0.553   6.575   4.588
 1425TIP3    H1 4239   0.467   6.611   4.567
 1425TIP3    H2 4240   0.578   6.619   4.669
 1426TIP3   OH2 4241   2.565   5.740   4.740
 1426TIP3    H1 4242   2.619   5.819   4.734
 1426TIP3    H2 4243   2.495   5.764   4.801
 1427TIP3   OH2 4244   2.372   4.592   4.182
 1427TIP3    H1 4245   2.433   4.521   4.203
 1427TIP3    H2 4246   2.357   4.637   4.265
 1428TIP3   OH2 4247   3.941   1.609   0.397
 1428TIP3    H1 4248   4.029   1.576   0.379
 1428TIP3    H2 4249   3.891   1.588   0.318
 1429TIP3   OH2 4250   1.483   6.029   4.678
 1429TIP3    H1 4251   1.409   5.992   4.631
 1429TIP3    H2 4252   1.513   5.958   4.735
 1430TIP3   OH2 4253   5.635   6.415   3.694
 1430TIP3    H1 4254   5.579   6.466   3.636
 1430TIP3    H2 4255   5.721   6.457   3.687
 1431TIP3   OH2 4256   3.311   1.410   1.787
 1431TIP3    H1 4257   3.274   1.323   1.772
 1431TIP3    H2 4258   3.399   1.405   1.749
 1432TIP3   OH2 4259   0.704   5.429   4.232
 1432TIP3    H1 4260   0.759   5.418   4.154
 1432TIP3    H2 4261   0.658   5.346   4.240
 1433TIP3   OH2 4262   1.476   4.897   1.454
 1433TIP3    H1 4263   1.548   4.866   1.399
 1433TIP3    H2 4264   1.428   4.958   1.398
 1434TIP3   OH2 4265   0.639   6.269   0.196
 1434TIP3    H1 4266   0.637   6.349   0.248
 1434TIP3    H2 4267   0.715   6.280   0.138
 1435TIP3   OH2 4268   1.106   6.196   5.814
 1435TIP3    H1 4269   1.060   6.128   5.863
 1435TIP3    H2 4270   1.083   6.180   5.723
 1436TIP3   OH2 4271   3.800   0.040   1.050
 1436TIP3    H1 4272   3.849   0.121   1.038
 1436TIP3    H2 4273   3.727   0.047   0.989
 1437TIP3   OH2 4274   2.487   1.256   0.011
 1437TIP3    H1 4275   2.411   1.203  -0.012
 1437TIP3    H2 4276   2.457   1.313   0.082
 1438TIP3   OH2 4277   2.149   5.165   1.326
 1438TIP3    H1 4278   2.146   5.125   1.412
 1438TIP3    H2 4279   2.161   5.091   1.265
 1439TIP3   OH2 4280   5.358   1.279   3.925
 1439TIP3    H1 4281   5.265   1.270   3.903
 1439TIP3    H2 4282   5.370   1.372   3.939
 1440TIP3   OH2 4283   4.362   6.086   1.853
 1440TIP3    H1 4284   4.363   6.182   1.863
 1440TIP3    H2 4285   4.364   6.071   1.759
 1441TIP3   OH2 4286   4.826   0.333   2.303
 1441TIP3    H1 4287   4.852   0.388   2.230
 1441TIP3    H2 4288   4.907   0.314   2.350
 1442TIP3   OH2 4289   2.420   1.662   2.264
 1442TIP3    H1 4290   2.385   1.708   2.188
 1442TIP3    H2 4291   2.355   1.595   2.285
 1443TIP3   OH2 4292   5.468   3.861   2.454
 1443TIP3    H1 4293   5.445   3.861   2.361
 1443TIP3    H2 4294   5.395   3.817   2.497
 1444TIP3   OH2 4295   1.943   6.337   4.623
 1444TIP3    H1 4296   1.935   6.376   4.711
 1444TIP3    H2 4297   1.856   6.304   4.603
 1445TIP3   OH2 4298   2.557   6.156   1.080
 1445TIP3    H1 4299   2.546   6.061   1.080
 1445TIP3    H2 4300   2.481   6.188   1.127
 1446TIP3   OH2 4301   5.539   1.465   4.877
 1446TIP3    H1 4302   5.456   1.497   4.913
 1446TIP3    H2 4303   5.515   1.423   4.794
 1447TIP3   OH2 4304   3.309   5.275   3.866
 1447TIP3    H1 4305   3.361   5.221   3.925
 1447TIP3    H2 4306   3.244   5.215   3.829
 1448TIP3   OH2 4307   2.436   1.644   4.644
 1448TIP3    H1 4308   2.449   1.597   4.562
 1448TIP3    H2 4309   2.472   1.731   4.627
 1449TIP3   OH2 4310   4.481   4.445   3.198
 1449TIP3    H1 4311   4.392   4.472   3.177
 1449TIP3    H2 4312   4.481   4.350   3.182
 1450TIP3   OH2 4313   4.899   4.593   2.860
 1450TIP3    H1 4314   4.808   4.591   2.889
 1450TIP3    H2 4315   4.941   4.656   2.919
 1451TIP3   OH2 4316   3.076   3.994   4.415
 1451TIP3    H1 4317   3.055   3.990   4.322
 1451TIP3    H2 4318   3.045   4.080   4.443
 1452TIP3   OH2 4319   4.482   1.914   2.639
 1452TIP3    H1 4320   4.388   1.901   2.634
 1452TIP3    H2 4321   4.495   1.971   2.715
 1453TIP3   OH2 4322   2.658   5.048   4.305
 1453TIP3    H1 4323   2.608   5.107   4.248
 1453TIP3    H2 4324   2.723   5.008   4.248
 1454TIP3   OH2 4325   0.177   5.785   1.161
 1454TIP3    H1 4326   0.205   5.746   1.078
 1454TIP3    H2 4327   0.082   5.770   1.163
 1455TIP3   OH2 4328   2.417   2.693   0.254
 1455TIP3    H1 4329   2.397   2.618   0.310
 1455TIP3    H2 4330   2.424   2.656   0.166
 1456TIP3   OH2 4331   6.430   4.849   5.762
 1456TIP3    H1 4332   6.390   4.922   5.715
 1456TIP3    H2 4333   6.421   4.774   5.703
 1457TIP3   OH2 4334   4.700   0.592   0.880
 1457TIP3    H1 4335   4.653   0.669   0.849
 1457TIP3    H2 4336   4.768   0.577   0.813
 1458TIP3   OH2 4337   2.101   0.387   0.555
 1458TIP3    H1 4338   2.041   0.344   0.494
 1458TIP3    H2 4339   2.171   0.422   0.500
 1459TIP3   OH2 4340   5.257   0.598   4.840
 1459TIP3    H1 4341   5.176   0.624   4.885
 1459TIP3    H2 4342   5.228   0.540   4.770
 1460TIP3   OH2 4343   4.890   1.056   5.426
 1460TIP3    H1 4344   4.898   1.115   5.501
 1460TIP3    H2 4345   4.897   0.968   5.464
 1461TIP3   OH2 4346   2.325   3.626   2.715
 1461TIP3    H1 4347   2.342   3.546   2.766
 1461TIP3    H2 4348   2.402   3.681   2.731
 1462TIP3   OH2 4349   2.018   6.594   4.954
 1462TIP3    H1 4350   1.968   6.520   4.917
 1462TIP3    H2 4351   2.002   6.589   5.048
 1463TIP3   OH2 4352   2.067   2.345   4.339
 1463TIP3    H1 4353   2.102   2.314   4.255
 1463TIP3    H2 4354   2.116   2.425   4.357
 1464TIP3   OH2 4355   2.979   4.851   3.558
 1464TIP3    H1 4356   2.912   4.827   3.494
 1464TIP3    H2 4357   3.043   4.779   3.553
 1465TIP3   OH2 4358   5.132   5.500   4.179
 1465TIP3    H1 4359   5.168   5.543   4.257
 1465TIP3    H2 4360   5.202   5.506   4.115
 1466TIP3   OH2 4361   4.100   1.581   3.832
 1466TIP3    H1 4362   4.181   1.571   3.882
 1466TIP3    H2 4363   4.120   1.650   3.768
 1467TIP3   OH2 4364   3.639   1.142   3.394
 1467TIP3    H1 4365   3.638   1.223   3.343
 1467TIP3    H2 4366   3.731   1.129   3.418
 1468TIP3   OH2 4367   4.724   1.096   4.718
 1468TIP3    H1 4368   4.734   1.169   4.657
 1468TIP3    H2 4369   4.655   1.042   4.679
 1469TIP3   OH2 4370   0.012   0.096   5.532
 1469TIP3    H1 4371   0.052   0.023   5.580
 1469TIP3    H2 4372   0.086   0.151   5.505
 1470TIP3   OH2 4373   3.831   3.172   4.198
 1470TIP3    H1 4374   3.801   3.242   4.257
 1470TIP3    H2 4375   3.830   3.212   4.111
 1471TIP3   OH2 4376   0.494   5.056   2.918
 1471TIP3    H1 4377   0.477   4.976   2.869
 1471TIP3    H2 4378   0.506   5.123   2.850
 1472TIP3   OH2 4379   3.768   1.038   0.176
 1472TIP3    H1 4380   3.792   1.121   0.217
 1472TIP3    H2 4381   3.679   1.053   0.143
 1473TIP3   OH2 4382   4.193   1.976   1.920
 1473TIP3    H1 4383   4.287   1.966   1.939
 1473TIP3    H2 4384   4.162   2.037   1.988
 1474TIP3   OH2 4385   4.813   0.179   2.000
 1474TIP3    H1 4386   4.789   0.136   2.083
 1474TIP3    H2 4387   4.876   0.246   2.026
 1475TIP3   OH2 4388   4.202   1.574   0.419
 1475TIP3    H1 4389   4.189   1.479   0.414
 1475TIP3    H2 4390   4.293   1.584   0.448
 1476TIP3   OH2 4391   3.710   4.431   0.520
 1476TIP3    H1 4392   3.692   4.337   0.516
 1476TIP3    H2 4393   3.629   4.470   0.551
 1477TIP3   OH2 4394   4.571   0.286   0.674
 1477TIP3    H1 4395   4.651   0.292   0.622
 1477TIP3    H2 4396   4.500   0.296   0.610
 1478TIP3   OH2 4397   5.334   3.303   0.287
 1478TIP3    H1 4398   5.376   3.389   0.287
 1478TIP3    H2 4399   5.240   3.322   0.298
 1479TIP3   OH2 4400   7.135   1.435   3.267
 1479TIP3    H1 4401   7.152   1.410   3.358
 1479TIP3    H2 4402   7.040   1.438   3.261
 1480TIP3   OH2 4403   3.908   3.249   3.128
 1480TIP3    H1 4404   3.879   3.333   3.163
 1480TIP3    H2 4405   3.943   3.202   3.205
 1481TIP3   OH2 4406   4.154   3.884   3.834
 1481TIP3    H1 4407   4.239   3.896   3.792
 1481TIP3    H2 4408   4.156   3.941   3.911
 1482TIP3   OH2 4409   1.381   0.483   1.720
 1482TIP3    H1 4410   1.384   0.576   1.695
 1482TIP3    H2 4411   1.393   0.484   1.815
 1483TIP3   OH2 4412   7.003   1.160   0.736
 1483TIP3    H1 4413   6.964   1.073   0.746
 1483TIP3    H2 4414   7.077   1.146   0.676
 1484TIP3   OH2 4415   4.505   4.518   1.256
 1484TIP3    H1 4416   4.569   4.582   1.287
 1484TIP3    H2 4417   4.422   4.567   1.252
 1485TIP3   OH2 4418   0.059   6.313   0.400
 1485TIP3    H1 4419   0.007   6.234   0.407
 1485TIP3    H2 4420   0.149   6.285   0.419
 1486TIP3   OH2 4421   6.719   1.083   1.084
 1486TIP3    H1 4422   6.739   1.171   1.052
 1486TIP3    H2 4423   6.799   1.033   1.069
 1487TIP3   OH2 4424   5.566   2.901   3.186
 1487TIP3    H1 4425   5.528   2.980   3.147
 1487TIP3    H2 4426   5.635   2.934   3.244
 1488TIP3   OH2 4427   5.816   2.465   3.100
 1488TIP3    H1 4428   5.868   2.539   3.071
 1488TIP3    H2 4429   5.725   2.489   3.080
 1489TIP3   OH2 4430   0.783   2.185   3.076
 1489TIP3    H1 4431   0.699   2.228   3.092
 1489TIP3    H2 4432   0.838   2.211   3.150
 1490TIP3   OH2 4433   3.559   1.292   2.309
 1490TIP3    H1 4434   3.528   1.204   2.287
 1490TIP3    H2 4435   3.586   1.329   2.225
 1491TIP3   OH2 4436   4.224   2.378   3.702
 1491TIP3    H1 4437   4.157   2.327   3.745
 1491TIP3    H2 4438   4.180   2.459   3.674
 1492TIP3   OH2 4439   1.986   3.997   4.983
 1492TIP3    H1 4440   1.945   4.020   5.067
 1492TIP3    H2 4441   1.973   4.075   4.929
 1493TIP3   OH2 4442   1.533   1.367   5.654
 1493TIP3    H1 4443   1.582   1.335   5.578
 1493TIP3    H2 4444   1.441   1.359   5.628
 1494TIP3   OH2 4445   3.020   1.272   3.862
 1494TIP3    H1 4446   3.102   1.226   3.877
 1494TIP3    H2 4447   3.000   1.313   3.946
 1495TIP3   OH2 4448   3.324   3.884   4.440
 1495TIP3    H1 4449   3.237   3.914   4.416
 1495TIP3    H2 4450   3.350   3.825   4.369
 1496TIP3   OH2 4451   2.037   5.491   1.488
 1496TIP3    H1 4452   2.057   5.526   1.401
 1496TIP3    H2 4453   2.118   5.448   1.516
 1497TIP3   OH2 4454   5.082   2.123   0.831
 1497TIP3    H1 4455   5.152   2.181   0.863
 1497TIP3    H2 4456   5.080   2.138   0.737
 1498TIP3   OH2 4457   6.144   2.883   3.522
 1498TIP3    H1 4458   6.131   2.926   3.437
 1498TIP3    H2 4459   6.168   2.793   3.500
 1499TIP3   OH2 4460   5.491   0.657   2.623
 1499TIP3    H1 4461   5.530   0.625   2.704
 1499TIP3    H2 4462   5.500   0.752   2.627
 1500TIP3   OH2 4463   1.946   1.020   5.658
 1500TIP3    H1 4464   1.875   0.996   5.598
 1500TIP3    H2 4465   1.919   0.985   5.743
 1501TIP3   OH2 4466   3.889   1.239   5.738
 1501TIP3    H1 4467   3.891   1.257   5.832
 1501TIP3    H2 4468   3.981   1.227   5.714
 1502TIP3   OH2 4469   7.050   3.556   0.743
 1502TIP3    H1 4470   7.017   3.563   0.832
 1502TIP3    H2 4471   7.093   3.471   0.739
 1503TIP3   OH2 4472   4.226   4.672   2.656
 1503TIP3    H1 4473   4.134   4.697   2.648
 1503TIP3    H2 4474   4.240   4.611   2.583
 1504TIP3   OH2 4475   2.616   4.426   2.143
 1504TIP3    H1 4476   2.530   4.398   2.110
 1504TIP3    H2 4477   2.596   4.494   2.207
 1505TIP3   OH2 4478   3.717   6.369   1.278
 1505TIP3    H1 4479   3.776   6.378   1.353
 1505TIP3    H2 4480   3.727   6.450   1.229
 1506TIP3   OH2 4481   4.093   2.628   3.619
 1506TIP3    H1 4482   4.015   2.654   3.572
 1506TIP3    H2 4483   4.081   2.662   3.708
 1507TIP3   OH2 4484   2.812   6.142   5.765
 1507TIP3    H1 4485   2.893   6.194   5.763
 1507TIP3    H2 4486   2.782   6.148   5.855
 1508TIP3   OH2 4487   2.260   4.212   0.963
 1508TIP3    H1 4488   2.313   4.281   0.922
 1508TIP3    H2 4489   2.225   4.252   1.042
 1509TIP3   OH2 4490   1.904   1.862   0.768
 1509TIP3    H1 4491   1.918   1.798   0.838
 1509TIP3    H2 4492   1.830   1.915   0.799
 1510TIP3   OH2 4493   6.579   4.877   1.284
 1510TIP3    H1 4494   6.483   4.874   1.284
 1510TIP3    H2 4495   6.605   4.794   1.324
 1511TIP3   OH2 4496   2.437   4.855   1.596
 1511TIP3    H1 4497   2.521   4.889   1.567
 1511TIP3    H2 4498   2.431   4.878   1.688
 1512TIP3   OH2 4499   6.804   2.698   5.666
 1512TIP3    H1 4500   6.783   2.640   5.594
 1512TIP3    H2 4501   6.896   2.721   5.653
 1513TIP3   OH2 4502   0.685   4.420   4.727
 1513TIP3    H1 4503   0.766   4.415   4.676
 1513TIP3    H2 4504   0.661   4.513   4.724
 1514TIP3   OH2 4505   3.369   4.333   3.396
 1514TIP3    H1 4506   3.435   4.362   3.333
 1514TIP3    H2 4507   3.388   4.240   3.409
 1515TIP3   OH2 4508   5.024   3.837   5.284
 1515TIP3    H1 4509   5.093   3.771   5.278
 1515TIP3    H2 4510   5.049   3.890   5.360
 1516TIP3   OH2 4511   0.639   0.692   0.166
 1516TIP3    H1 4512   0.642   0.729   0.254
 1516TIP3    H2 4513   0.645   0.598   0.180
 1517TIP3   OH2 4514   6.979   6.171   3.122
 1517TIP3    H1 4515   6.905   6.143   3.067
 1517TIP3    H2 4516   7.003   6.257   3.088
 1518TIP3   OH2 4517   2.265   5.804   3.712
 1518TIP3    H1 4518   2.191   5.864   3.711
 1518TIP3    H2 4519   2.227   5.720   3.738
 1519TIP3   OH2 4520   3.120   4.989   1.785
 1519TIP3    H1 4521   3.112   4.897   1.811
 1519TIP3    H2 4522   3.211   5.011   1.801
 1520TIP3   OH2 4523   2.701   4.638   5.720
 1520TIP3    H1 4524   2.698   4.606   5.629
 1520TIP3    H2 4525   2.719   4.732   5.712
 1521TIP3   OH2 4526   5.805   6.266   0.941
 1521TIP3    H1 4527   5.758   6.202   0.995
 1521TIP3    H2 4528   5.898   6.248   0.957
 1522TIP3   OH2 4529   3.156   1.771   3.719
 1522TIP3    H1 4530   3.235   1.802   3.764
 1522TIP3    H2 4531   3.169   1.797   3.628
 1523TIP3   OH2 4532   4.541   0.731   4.209
 1523TIP3    H1 4533   4.550   0.723   4.304
 1523TIP3    H2 4534   4.476   0.664   4.186
 1524TIP3   OH2 4535   4.872   3.231   2.782
 1524TIP3    H1 4536   4.967   3.228   2.784
 1524TIP3    H2 4537   4.850   3.324   2.784
 1525TIP3   OH2 4538   6.790   1.174   2.029
 1525TIP3    H1 4539   6.855   1.140   2.090
 1525TIP3    H2 4540   6.708   1.134   2.057
 1526TIP3   OH2 4541   3.547   2.696   3.013
 1526TIP3    H1 4542   3.606   2.633   3.054
 1526TIP3    H2 4543   3.598   2.737   2.944
 1527TIP3   OH2 4544   6.755   3.259   3.346
 1527TIP3    H1 4545   6.684   3.277   3.285
 1527TIP3    H2 4546   6.775   3.166   3.334
 1528TIP3   OH2 4547   2.367   2.064   2.288
 1528TIP3    H1 4548   2.315   1.992   2.325
 1528TIP3    H2 4549   2.450   2.061   2.336
 1529TIP3   OH2 4550   5.583   5.214   4.868
 1529TIP3    H1 4551   5.520   5.173   4.927
 1529TIP3    H2 4552   5.532   5.234   4.789
 1530TIP3   OH2 4553   3.274   6.721   0.773
 1530TIP3    H1 4554   3.221   6.713   0.853
 1530TIP3    H2 4555   3.219   6.684   0.705
 1531TIP3   OH2 4556   6.771   2.483   3.147
 1531TIP3    H1 4557   6.757   2.430   3.225
 1531TIP3    H2 4558   6.735   2.569   3.169
 1532TIP3   OH2 4559   1.161   4.600   2.034
 1532TIP3    H1 4560   1.145   4.693   2.051
 1532TIP3    H2 4561   1.202   4.598   1.948
 1533TIP3   OH2 4562   6.493   4.428   5.387
 1533TIP3    H1 4563   6.437   4.368   5.338
 1533TIP3    H2 4564   6.441   4.452   5.464
 1534TIP3   OH2 4565   6.888   0.755   5.094
 1534TIP3    H1 4566   6.963   0.720   5.046
 1534TIP3    H2 4567   6.917   0.842   5.123
 1535TIP3   OH2 4568   1.199   2.343   1.223
 1535TIP3    H1 4569   1.230   2.366   1.135
 1535TIP3    H2 4570   1.118   2.393   1.234
 1536TIP3   OH2 4571   6.369   3.617   0.437
 1536TIP3    H1 4572   6.323   3.682   0.383
 1536TIP3    H2 4573   6.349   3.642   0.527
 1537TIP3   OH2 4574   7.021   6.749   3.452
 1537TIP3    H1 4575   7.025   6.654   3.463
 1537TIP3    H2 4576   6.943   6.763   3.398
 1538TIP3   OH2 4577   4.330   6.630   1.535
 1538TIP3    H1 4578   4.369   6.693   1.596
 1538TIP3    H2 4579   4.404   6.577   1.505
 1539TIP3   OH2 4580   5.087   0.068   5.461
 1539TIP3    H1 4581   5.092   0.020   5.544
 1539TIP3    H2 4582   5.047   0.152   5.484
 1540TIP3   OH2 4583   1.450   1.887   1.768
 1540TIP3    H1 4584   1.401   1.828   1.710
 1540TIP3    H2 4585   1.413   1.872   1.855
 1541TIP3   OH2 4586   0.152   0.721   3.369
 1541TIP3    H1 4587   0.200   0.710   3.286
 1541TIP3    H2 4588   0.220   0.742   3.433
 1542TIP3   OH2 4589   3.302   2.588   2.384
 1542TIP3    H1 4590   3.267   2.626   2.303
 1542TIP3    H2 4591   3.372   2.648   2.410
 1543TIP3   OH2 4592   4.269   4.923   2.452
 1543TIP3    H1 4593   4.217   4.937   2.373
 1543TIP3    H2 4594   4.212   4.872   2.510
 1544TIP3   OH2 4595   4.938   0.057   2.460
 1544TIP3    H1 4596   5.027   0.083   2.439
 1544TIP3    H2 4597   4.942   0.028   2.552
 1545TIP3   OH2 4598   1.357   2.662   3.527
 1545TIP3    H1 4599   1.292   2.654   3.457
 1545TIP3    H2 4600   1.363   2.756   3.544
 1546TIP3   OH2 4601   3.367   0.798   5.136
 1546TIP3    H1 4602   3.285   0.819   5.182
 1546TIP3    H2 4603   3.430   0.861   5.169
 1547TIP3   OH2 4604   6.306   2.595   3.010
 1547TIP3    H1 4605   6.355   2.675   2.990
 1547TIP3    H2 4606   6.374   2.527   3.019
 1548TIP3   OH2 4607   0.900   4.752   0.379
 1548TIP3    H1 4608   0.888   4.723   0.470
 1548TIP3    H2 4609   0.992   4.774   0.373
 1549TIP3   OH2 4610   0.866   5.239   4.452
 1549TIP3    H1 4611   0.807   5.259   4.380
 1549TIP3    H2 4612   0.828   5.286   4.527
 1550TIP3   OH2 4613   4.158   5.612   5.286
 1550TIP3    H1 4614   4.246   5.641   5.263
 1550TIP3    H2 4615   4.106   5.692   5.294
 1551TIP3   OH2 4616   6.315   2.022   0.998
 1551TIP3    H1 4617   6.256   2.079   1.046
 1551TIP3    H2 4618   6.395   2.020   1.051
 1552TIP3   OH2 4619   5.818   0.733   5.552
 1552TIP3    H1 4620   5.839   0.744   5.460
 1552TIP3    H2 4621   5.727   0.760   5.560
 1553TIP3   OH2 4622   5.323   6.145   0.896
 1553TIP3    H1 4623   5.297   6.186   0.813
 1553TIP3    H2 4624   5.257   6.175   0.959
 1554TIP3   OH2 4625   5.034   2.134   5.054
 1554TIP3    H1 4626   5.052   2.165   5.143
 1554TIP3    H2 4627   4.938   2.124   5.051
 1555TIP3   OH2 4628   4.199   0.146   3.046
 1555TIP3    H1 4629   4.255   0.210   3.003
 1555TIP3    H2 4630   4.257   0.074   3.069
 1556TIP3   OH2 4631   4.026   5.979   2.421
 1556TIP3    H1 4632   3.964   5.913   2.452
 1556TIP3    H2 4633   3.970   6.046   2.381
 1557TIP3   OH2 4634   5.023   2.151   0.091
 1557TIP3    H1 4635   4.974   2.078   0.053
 1557TIP3    H2 4636   4.963   2.225   0.087
 1558TIP3   OH2 4637   2.962   2.112   2.428
 1558TIP3    H1 4638   2.978   2.038   2.487
 1558TIP3    H2 4639   2.910   2.174   2.480
 1559TIP3   OH2 4640   0.468   4.709   2.554
 1559TIP3    H1 4641   0.451   4.615   2.557
 1559TIP3    H2 4642   0.398   4.745   2.499
 1560TIP3   OH2 4643   6.449   5.836   4.534
 1560TIP3    H1 4644   6.494   5.803   4.611
 1560TIP3    H2 4645   6.473   5.929   4.529
 1561TIP3   OH2 4646   6.941   1.567   1.325
 1561TIP3    H1 4647   6.939   1.539   1.416
 1561TIP3    H2 4648   6.855   1.605   1.309
 1562TIP3   OH2 4649   3.072   5.983   0.775
 1562TIP3    H1 4650   3.123   6.030   0.709
 1562TIP3    H2 4651   3.131   5.974   0.849
 1563TIP3   OH2 4652   3.208   4.568   2.203
 1563TIP3    H1 4653   3.185   4.488   2.251
 1563TIP3    H2 4654   3.124   4.610   2.186
 1564TIP3   OH2 4655   1.044   0.283   2.823
 1564TIP3    H1 4656   0.994   0.357   2.787
 1564TIP3    H2 4657   1.103   0.257   2.753
 1565TIP3   OH2 4658   7.115   3.219   3.599
 1565TIP3    H1 4659   7.107   3.241   3.506
 1565TIP3    H2 4660   7.197   3.259   3.627
 1566TIP3   OH2 4661   7.198   5.189   5.112
 1566TIP3    H1 4662   7.104   5.177   5.127
 1566TIP3    H2 4663   7.209   5.180   5.018
 1567TIP3   OH2 4664   3.782   2.254   3.581
 1567TIP3    H1 4665   3.747   2.322   3.523
 1567TIP3    H2 4666   3.875   2.249   3.557
 1568TIP3   OH2 4667   6.904   4.354   2.197
 1568TIP3    H1 4668   6.865   4.414   2.134
 1568TIP3    H2 4669   6.863   4.269   2.177
 1569TIP3   OH2 4670   1.970   1.741   3.310
 1569TIP3    H1 4671   2.062   1.728   3.335
 1569TIP3    H2 4672   1.949   1.666   3.255
 1570TIP3   OH2 4673   1.635   0.716   1.996
 1570TIP3    H1 4674   1.574   0.646   2.018
 1570TIP3    H2 4675   1.721   0.674   1.995
 1571TIP3   OH2 4676   4.016   6.205   1.371
 1571TIP3    H1 4677   3.976   6.216   1.284
 1571TIP3    H2 4678   4.088   6.267   1.372
 1572TIP3   OH2 4679   2.165   2.556   4.035
 1572TIP3    H1 4680   2.120   2.602   3.964
 1572TIP3    H2 4681   2.107   2.565   4.110
 1573TIP3   OH2 4682   5.710   3.730  -0.021
 1573TIP3    H1 4683   5.728   3.674   0.055
 1573TIP3    H2 4684   5.650   3.678  -0.075
 1574TIP3   OH2 4685   3.116   4.068   3.461
 1574TIP3    H1 4686   3.181   4.066   3.532
 1574TIP3    H2 4687   3.102   3.976   3.438
 1575TIP3   OH2 4688   7.133   1.829   4.678
 1575TIP3    H1 4689   7.082   1.897   4.724
 1575TIP3    H2 4690   7.162   1.872   4.598
 1576TIP3   OH2 4691   1.519   2.954   2.752
 1576TIP3    H1 4692   1.553   2.880   2.802
 1576TIP3    H2 4693   1.524   3.029   2.811
 1577TIP3   OH2 4694   4.632   6.705   5.882
 1577TIP3    H1 4695   4.640   6.610   5.878
 1577TIP3    H2 4696   4.554   6.725   5.831
 1578TIP3   OH2 4697   5.920   0.717   0.813
 1578TIP3    H1 4698   5.876   0.802   0.813
 1578TIP3    H2 4699   5.863   0.661   0.760
 1579TIP3   OH2 4700   4.145   3.750   3.039
 1579TIP3    H1 4701   4.157   3.656   3.053
 1579TIP3    H2 4702   4.222   3.790   3.078
 1580TIP3   OH2 4703   1.722   1.271   5.454
 1580TIP3    H1 4704   1.720   1.180   5.424
 1580TIP3    H2 4705   1.804   1.306   5.420
 1581TIP3   OH2 4706   0.135   2.974   4.716
 1581TIP3    H1 4707   0.199   2.904   4.707
 1581TIP3    H2 4708   0.050   2.930   4.708
 1582TIP3   OH2 4709   0.927   1.163   3.069
 1582TIP3    H1 4710   0.852   1.179   3.011
 1582TIP3    H2 4711   0.938   1.245   3.117
 1583TIP3   OH2 4712   6.643   1.058   4.186
 1583TIP3    H1 4713   6.722   1.107   4.165
 1583TIP3    H2 4714   6.573   1.103   4.139
 1584TIP3   OH2 4715   5.933   0.588   1.814
 1584TIP3    H1 4716   6.017   0.630   1.799
 1584TIP3    H2 4717   5.912   0.609   1.905
 1585TIP3   OH2 4718   3.383   2.464   5.683
 1585TIP3    H1 4719   3.321   2.466   5.757
 1585TIP3    H2 4720   3.439   2.540   5.697
 1586TIP3   OH2 4721   1.200   2.093   4.929
 1586TIP3    H1 4722   1.157   2.135   4.855
 1586TIP3    H2 4723   1.292   2.114   4.919
 1587TIP3   OH2 4724   0.710   3.817   4.613
 1587TIP3    H1 4725   0.740   3.897   4.656
 1587TIP3    H2 4726   0.634   3.790   4.664
 1588TIP3   OH2 4727   4.519   6.657   1.271
 1588TIP3    H1 4728   4.437   6.675   1.316
 1588TIP3    H2 4729   4.508   6.569   1.235
 1589TIP3   OH2 4730   3.920   4.492   3.637
 1589TIP3    H1 4731   4.016   4.486   3.642
 1589TIP3    H2 4732   3.891   4.403   3.620
 1590TIP3   OH2 4733   2.132   5.630   2.516
 1590TIP3    H1 4734   2.217   5.585   2.515
 1590TIP3    H2 4735   2.149   5.712   2.562
 1591TIP3   OH2 4736   0.980   5.764   2.941
 1591TIP3    H1 4737   0.953   5.711   2.865
 1591TIP3    H2 4738   0.919   5.740   3.010
 1592TIP3   OH2 4739   7.105   1.968   2.050
 1592TIP3    H1 4740   7.145   1.965   2.136
 1592TIP3    H2 4741   7.071   1.879   2.035
 1593TIP3   OH2 4742   5.197   1.165   5.677
 1593TIP3    H1 4743   5.213   1.250   5.717
 1593TIP3    H2 4744   5.280   1.141   5.636
 1594TIP3   OH2 4745   4.184   1.978   4.414
 1594TIP3    H1 4746   4.270   2.004   4.446
 1594TIP3    H2 4747   4.177   1.885   4.433
 1595TIP3   OH2 4748   3.474   5.275   1.442
 1595TIP3    H1 4749   3.386   5.290   1.476
 1595TIP3    H2 4750   3.472   5.184   1.410
 1596TIP3   OH2 4751   2.722   0.926   5.843
 1596TIP3    H1 4752   2.772   0.856   5.801
 1596TIP3    H2 4753   2.727   0.905   5.937
 1597TIP3   OH2 4754   0.329   1.437   0.678
 1597TIP3    H1 4755   0.365   1.356   0.641
 1597TIP3    H2 4756   0.403   1.497   0.681
 1598TIP3   OH2 4757   5.693   6.303   0.561
 1598TIP3    H1 4758   5.736   6.221   0.535
 1598TIP3    H2 4759   5.626   6.276   0.624
 1599TIP3   OH2 4760   1.381   3.920   4.300
 1599TIP3    H1 4761   1.467   3.884   4.280
 1599TIP3    H2 4762   1.359   3.885   4.386
 1600TIP3   OH2 4763   4.996   0.478   5.811
 1600TIP3    H1 4764   4.952   0.526   5.882
 1600TIP3    H2 4765   5.025   0.547   5.751
 1601TIP3   OH2 4766   3.793   3.614   5.433
 1601TIP3    H1 4767   3.820   3.700   5.463
 1601TIP3    H2 4768   3.860   3.555   5.468
 1602TIP3   OH2 4769   4.320   2.413   1.778
 1602TIP3    H1 4770   4.401   2.405   1.727
 1602TIP3    H2 4771   4.341   2.474   1.848
 1603TIP3   OH2 4772   0.330   5.788   4.331
 1603TIP3    H1 4773   0.422   5.777   4.307
 1603TIP3    H2 4774   0.291   5.834   4.256
 1604TIP3   OH2 4775   0.252   1.802   1.464
 1604TIP3    H1 4776   0.238   1.711   1.438
 1604TIP3    H2 4777   0.179   1.822   1.523
 1605TIP3   OH2 4778   6.037   5.780   5.179
 1605TIP3    H1 4779   6.040   5.826   5.095
 1605TIP3    H2 4780   6.129   5.771   5.205
 1606TIP3   OH2 4781   2.356   3.683   4.960
 1606TIP3    H1 4782   2.314   3.769   4.965
 1606TIP3    H2 4783   2.372   3.670   4.867
 1607TIP3   OH2 4784   0.262   6.381   4.410
 1607TIP3    H1 4785   0.169   6.374   4.433
 1607TIP3    H2 4786   0.305   6.313   4.462
 1608TIP3   OH2 4787   5.271   4.614   0.127
 1608TIP3    H1 4788   5.222   4.531   0.125
 1608TIP3    H2 4789   5.297   4.624   0.218
 1609TIP3   OH2 4790   6.273   2.447   2.143
 1609TIP3    H1 4791   6.324   2.433   2.223
 1609TIP3    H2 4792   6.208   2.513   2.167
 1610TIP3   OH2 4793   5.567   4.464   2.106
 1610TIP3    H1 4794   5.572   4.452   2.201
 1610TIP3    H2 4795   5.648   4.427   2.073
 1611TIP3   OH2 4796   2.084   2.377   5.231
 1611TIP3    H1 4797   2.002   2.419   5.206
 1611TIP3    H2 4798   2.131   2.444   5.282
 1612TIP3   OH2 4799   4.768   2.688   4.196
 1612TIP3    H1 4800   4.717   2.704   4.276
 1612TIP3    H2 4801   4.859   2.700   4.223
 1613TIP3   OH2 4802   6.443   3.769   4.847
 1613TIP3    H1 4803   6.364   3.790   4.797
 1613TIP3    H2 4804   6.451   3.674   4.840
 1614TIP3   OH2 4805   7.122   1.586   3.807
 1614TIP3    H1 4806   7.101   1.539   3.888
 1614TIP3    H2 4807   7.208   1.624   3.823
 1615TIP3   OH2 4808   4.657   5.295   1.803
 1615TIP3    H1 4809   4.728   5.331   1.856
 1615TIP3    H2 4810   4.580   5.298   1.860
 1616TIP3   OH2 4811   2.110   3.036   1.235
 1616TIP3    H1 4812   2.162   2.975   1.287
 1616TIP3    H2 4813   2.093   2.989   1.153
 1617TIP3   OH2 4814   6.885   5.677   0.308
 1617TIP3    H1 4815   6.893   5.733   0.385
 1617TIP3    H2 4816   6.873   5.738   0.235
 1618TIP3   OH2 4817   2.267   0.837   5.639
 1618TIP3    H1 4818   2.259   0.923   5.681
 1618TIP3    H2 4819   2.287   0.857   5.547
 1619TIP3   OH2 4820   3.161   5.220   5.441
 1619TIP3    H1 4821   3.205   5.295   5.400
 1619TIP3    H2 4822   3.230   5.154   5.450
 1620TIP3   OH2 4823   6.128   0.668   0.578
 1620TIP3    H1 4824   6.099   0.579   0.594
 1620TIP3    H2 4825   6.047   0.719   0.573
 1621TIP3   OH2 4826   4.258   4.314   1.256
 1621TIP3    H1 4827   4.269   4.408   1.240
 1621TIP3    H2 4828   4.345   4.284   1.280
 1622TIP3   OH2 4829   2.613   6.169   0.378
 1622TIP3    H1 4830   2.551   6.185   0.449
 1622TIP3    H2 4831   2.692   6.215   0.406
 1623TIP3   OH2 4832   5.698   4.609   4.293
 1623TIP3    H1 4833   5.702   4.670   4.219
 1623TIP3    H2 4834   5.614   4.565   4.283
 1624TIP3   OH2 4835   4.614   5.900   0.811
 1624TIP3    H1 4836   4.542   5.957   0.840
 1624TIP3    H2 4837   4.571   5.817   0.790
 1625TIP3   OH2 4838   5.799   0.923   2.787
 1625TIP3    H1 4839   5.720   0.962   2.825
 1625TIP3    H2 4840   5.864   0.927   2.858
 1626TIP3   OH2 4841   2.543   3.388   4.430
 1626TIP3    H1 4842   2.542   3.358   4.521
 1626TIP3    H2 4843   2.624   3.351   4.394
 1627TIP3   OH2 4844   2.181   1.891   1.164
 1627TIP3    H1 4845   2.128   1.878   1.085
 1627TIP3    H2 4846   2.169   1.811   1.215
 1628TIP3   OH2 4847   5.694   6.355   3.020
 1628TIP3    H1 4848   5.753   6.412   3.070
 1628TIP3    H2 4849   5.680   6.401   2.938
 1629TIP3   OH2 4850   2.508   6.702   3.639
 1629TIP3    H1 4851   2.491   6.707   3.733
 1629TIP3    H2 4852   2.451   6.770   3.601
 1630TIP3   OH2 4853   4.978   5.722   5.020
 1630TIP3    H1 4854   4.900   5.679   5.055
 1630TIP3    H2 4855   5.004   5.782   5.089
 1631TIP3   OH2 4856   1.817   3.338   0.030
 1631TIP3    H1 4857   1.797   3.245   0.020
 1631TIP3    H2 4858   1.872   3.343   0.108
 1632TIP3   OH2 4859   6.999   0.877   4.860
 1632TIP3    H1 4860   6.967   0.944   4.920
 1632TIP3    H2 4861   6.922   0.825   4.838
 1633TIP3   OH2 4862   0.599   0.103   0.227
 1633TIP3    H1 4863   0.673   0.074   0.172
 1633TIP3    H2 4864   0.571   0.024   0.274
 1634TIP3   OH2 4865   2.211   4.897   5.431
 1634TIP3    H1 4866   2.209   4.804   5.451
 1634TIP3    H2 4867   2.304   4.919   5.430
 1635TIP3   OH2 4868   1.620   2.536   1.075
 1635TIP3    H1 4869   1.598   2.517   1.166
 1635TIP3    H2 4870   1.713   2.555   1.076
 1636TIP3   OH2 4871   1.462   4.646   5.897
 1636TIP3    H1 4872   1.405   4.686   5.963
 1636TIP3    H2 4873   1.436   4.688   5.815
 1637TIP3   OH2 4874   1.524   0.023   0.124
 1637TIP3    H1 4875   1.607   0.058   0.091
 1637TIP3    H2 4876   1.522  -0.067   0.094
 1638TIP3   OH2 4877   0.471   2.288   2.367
 1638TIP3    H1 4878   0.419   2.208   2.368
 1638TIP3    H2 4879   0.545   2.269   2.425
 1639TIP3   OH2 4880   5.860   0.651   2.337
 1639TIP3    H1 4881   5.895   0.698   2.413
 1639TIP3    H2 4882   5.855   0.559   2.365
 1640TIP3   OH2 4883   0.155   1.174   0.160
 1640TIP3    H1 4884   0.234   1.170   0.107
 1640TIP3    H2 4885   0.140   1.268   0.175
 1641TIP3   OH2 4886   2.821   4.278   2.391
 1641TIP3    H1 4887   2.734   4.314   2.373
 1641TIP3    H2 4888   2.873   4.353   2.417
 1642TIP3   OH2 4889   3.470   2.655   0.994
 1642TIP3    H1 4890   3.393   2.618   0.950
 1642TIP3    H2 4891   3.482   2.741   0.953
 1643TIP3   OH2 4892   1.086   3.777   4.513
 1643TIP3    H1 4893   1.168   3.822   4.535
 1643TIP3    H2 4894   1.022   3.814   4.573
 1644TIP3   OH2 4895   2.401   2.365   3.937
 1644TIP3    H1 4896   2.329   2.398   3.992
 1644TIP3    H2 4897   2.455   2.315   3.998
 1645TIP3   OH2 4898   5.516   5.953   3.450
 1645TIP3    H1 4899   5.477   5.904   3.523
 1645TIP3    H2 4900   5.564   6.024   3.491
 1646TIP3   OH2 4901   0.770   3.665   3.677
 1646TIP3    H1 4902   0.725   3.628   3.753
 1646TIP3    H2 4903   0.743   3.757   3.676
 1647TIP3   OH2 4904   6.903   6.485   2.755
 1647TIP3    H1 4905   6.961   6.560   2.762
 1647TIP3    H2 4906   6.819   6.522   2.728
 1648TIP3   OH2 4907   4.684   4.696   3.191
 1648TIP3    H1 4908   4.641   4.779   3.214
 1648TIP3    H2 4909   4.638   4.630   3.244
 1649TIP3   OH2 4910  -0.004   5.201   4.844
 1649TIP3    H1 4911  -0.082   5.146   4.843
 1649TIP3    H2 4912   0.048   5.168   4.770
 1650TIP3   OH2 4913   4.175   4.552   2.187
 1650TIP3    H1 4914   4.147   4.604   2.111
 1650TIP3    H2 4915   4.270   4.559   2.187
 1651TIP3   OH2 4916   6.871   2.501   3.450
 1651TIP3    H1 4917   6.963   2.480   3.431
 1651TIP3    H2 4918   6.829   2.416   3.464
 1652TIP3   OH2 4919   5.334   0.047   1.974
 1652TIP3    H1 4920   5.240   0.061   1.976
 1652TIP3    H2 4921   5.346  -0.031   1.920
 1653TIP3   OH2 4922   1.904   1.474   3.764
 1653TIP3    H1 4923   1.961   1.539   3.722
 1653TIP3    H2 4924   1.817   1.513   3.759
 1654TIP3   OH2 4925   0.345   4.556   5.574
 1654TIP3    H1 4926   0.288   4.580   5.647
 1654TIP3    H2 4927   0.293   4.577   5.496
 1655TIP3   OH2 4928   7.109   6.162   1.211
 1655TIP3    H1 4929   7.074   6.250   1.203
 1655TIP3    H2 4930   7.203   6.172   1.196
 1656TIP3   OH2 4931   5.148   5.354   1.393
 1656TIP3    H1 4932   5.098   5.337   1.473
 1656TIP3    H2 4933   5.227   5.398   1.422
 1657TIP3   OH2 4934   6.592   2.858   2.403
 1657TIP3    H1 4935   6.676   2.890   2.436
 1657TIP3    H2 4936   6.583   2.772   2.443
 1658TIP3   OH2 4937   5.932   5.360   2.512
 1658TIP3    H1 4938   5.931   5.437   2.570
 1658TIP3    H2 4939   5.854   5.310   2.538
 1659TIP3   OH2 4940   1.443   6.852   1.572
 1659TIP3    H1 4941   1.441   6.784   1.505
 1659TIP3    H2 4942   1.484   6.927   1.528
 1660TIP3   OH2 4943   3.400   3.549   3.742
 1660TIP3    H1 4944   3.329   3.508   3.693
 1660TIP3    H2 4945   3.355   3.609   3.802
 1661TIP3   OH2 4946   1.525   5.299   2.087
 1661TIP3    H1 4947   1.541   5.323   1.996
 1661TIP3    H2 4948   1.434   5.326   2.103
 1662TIP3   OH2 4949   2.570   0.474   1.264
 1662TIP3    H1 4950   2.636   0.427   1.315
 1662TIP3    H2 4951   2.620   0.517   1.195
 1663TIP3   OH2 4952   0.373   6.470   5.038
 1663TIP3    H1 4953   0.327   6.416   5.102
 1663TIP3    H2 4954   0.461   6.432   5.034
 1664TIP3   OH2 4955   7.018   6.188   0.901
 1664TIP3    H1 4956   7.004   6.094   0.911
 1664TIP3    H2 4957   7.096   6.206   0.954
 1665TIP3   OH2 4958   5.027   1.698   0.841
 1665TIP3    H1 4959   5.105   1.753   0.848
 1665TIP3    H2 4960   5.026   1.647   0.922
 1666TIP3   OH2 4961   4.134   6.491   5.833
 1666TIP3    H1 4962   4.088   6.482   5.750
 1666TIP3    H2 4963   4.074   6.454   5.898
 1667TIP3   OH2 4964   0.543   2.045   1.017
 1667TIP3    H1 4965   0.469   1.986   1.005
 1667TIP3    H2 4966   0.519   2.124   0.968
 1668TIP3   OH2 4967   2.014   6.624   2.308
 1668TIP3    H1 4968   1.972   6.702   2.270
 1668TIP3    H2 4969   2.101   6.654   2.335
 1669TIP3   OH2 4970   2.656   5.688   1.897
 1669TIP3    H1 4971   2.658   5.597   1.869
 1669TIP3    H2 4972   2.571   5.698   1.940
 1670TIP3   OH2 4973   5.710   0.989  -0.031
 1670TIP3    H1 4974   5.787   0.973  -0.086
 1670TIP3    H2 4975   5.730   0.945   0.051
 1671TIP3   OH2 4976   3.722   5.658   2.965
 1671TIP3    H1 4977   3.631   5.655   2.937
 1671TIP3    H2 4978   3.720   5.697   3.052
 1672TIP3   OH2 4979   2.041   1.867   4.175
 1672TIP3    H1 4980   1.976   1.802   4.150
 1672TIP3    H2 4981   2.108   1.862   4.107
 1673TIP3   OH2 4982   4.593   5.870   4.025
 1673TIP3    H1 4983   4.641   5.934   4.077
 1673TIP3    H2 4984   4.625   5.786   4.054
 1674TIP3   OH2 4985   4.441   1.960   3.410
 1674TIP3    H1 4986   4.504   2.026   3.382
 1674TIP3    H2 4987   4.359   1.987   3.371
 1675TIP3   OH2 4988   0.779   6.347   0.539
 1675TIP3    H1 4989   0.818   6.433   0.525
 1675TIP3    H2 4990   0.854   6.288   0.545
 1676TIP3   OH2 4991   7.015   4.685   5.459
 1676TIP3    H1 4992   7.088   4.705   5.400
 1676TIP3    H2 4993   7.018   4.755   5.524
 1677TIP3   OH2 4994   1.900   3.602   4.865
 1677TIP3    H1 4995   1.946   3.646   4.794
 1677TIP3    H2 4996   1.958   3.611   4.941
 1678TIP3   OH2 4997   4.814   1.519   2.753
 1678TIP3    H1 4998   4.780   1.589   2.697
 1678TIP3    H2 4999   4.858   1.459   2.692
 1679TIP3   OH2 5000   2.036   0.526   0.178
 1679TIP3    H1 5001   2.081   0.538   0.262
 1679TIP3    H2 5002   1.968   0.461   0.196
 1680TIP3   OH2 5003   5.259   2.464   1.176
 1680TIP3    H1 5004   5.183   2.512   1.208
 1680TIP3    H2 5005   5.308   2.527   1.124
 1681TIP3   OH2 5006   3.641   1.345   1.060
 1681TIP3    H1 5007   3.592   1.326   1.140
 1681TIP3    H2 5008   3.625   1.270   1.003
 1682TIP3   OH2 5009   2.225   2.555   1.479
 1682TIP3    H1 5010   2.219   2.461   1.464
 1682TIP3    H2 5011   2.319   2.574   1.474
 1683TIP3   OH2 5012   2.049   4.538   2.391
 1683TIP3    H1 5013   2.104   4.505   2.320
 1683TIP3    H2 5014   2.046   4.467   2.454
 1684TIP3   OH2 5015   2.204   4.415   1.612
 1684TIP3    H1 5016   2.161   4.419   1.697
 1684TIP3    H2 5017   2.219   4.321   1.597
 1685TIP3   OH2 5018   0.141   3.390   5.843
 1685TIP3    H1 5019   0.233   3.413   5.828
 1685TIP3    H2 5020   0.097   3.416   5.762
 1686TIP3   OH2 5021   2.856   5.302   2.009
 1686TIP3    H1 5022   2.809   5.369   2.059
 1686TIP3    H2 5023   2.931   5.348   1.971
 1687TIP3   OH2 5024   3.053   5.935   0.275
 1687TIP3    H1 5025   3.047   5.909   0.183
 1687TIP3    H2 5026   3.044   6.030   0.273
 1688TIP3   OH2 5027   1.281   1.108   0.241
 1688TIP3    H1 5028   1.349   1.106   0.308
 1688TIP3    H2 5029   1.269   1.201   0.221
 1689TIP3   OH2 5030   4.335   2.645   0.812
 1689TIP3    H1 5031   4.298   2.601   0.889
 1689TIP3    H2 5032   4.278   2.621   0.740
 1690TIP3   OH2 5033   5.574   4.088   1.319
 1690TIP3    H1 5034   5.510   4.114   1.253
 1690TIP3    H2 5035   5.556   3.995   1.334
 1691TIP3   OH2 5036   5.089   4.996   2.478
 1691TIP3    H1 5037   5.060   4.962   2.563
 1691TIP3    H2 5038   5.014   5.045   2.445
 1692TIP3   OH2 5039   5.234   6.210   3.452
 1692TIP3    H1 5040   5.288   6.188   3.527
 1692TIP3    H2 5041   5.248   6.139   3.389
 1693TIP3   OH2 5042   0.512   5.590   4.577
 1693TIP3    H1 5043   0.491   5.499   4.560
 1693TIP3    H2 5044   0.542   5.624   4.492
 1694TIP3   OH2 5045   4.218   0.935   3.567
 1694TIP3    H1 5046   4.251   0.873   3.502
 1694TIP3    H2 5047   4.286   0.938   3.634
 1695TIP3   OH2 5048   0.061   4.238   4.969
 1695TIP3    H1 5049   0.157   4.234   4.974
 1695TIP3    H2 5050   0.037   4.312   5.025
 1696TIP3   OH2 5051   5.720   5.613   3.175
 1696TIP3    H1 5052   5.754   5.700   3.155
 1696TIP3    H2 5053   5.684   5.622   3.263
 1697TIP3   OH2 5054   5.439   2.097   2.688
 1697TIP3    H1 5055   5.531   2.116   2.706
 1697TIP3    H2 5056   5.410   2.045   2.764
 1698TIP3   OH2 5057   4.924   5.500   3.361
 1698TIP3    H1 5058   4.977   5.549   3.299
 1698TIP3    H2 5059   4.835   5.534   3.351
 1699TIP3   OH2 5060   4.691   2.555   5.079
 1699TIP3    H1 5061   4.656   2.553   5.168
 1699TIP3    H2 5062   4.698   2.462   5.054
 1700TIP3   OH2 5063   5.779   3.967   4.196
 1700TIP3    H1 5064   5.830   4.038   4.156
 1700TIP3    H2 5065   5.838   3.931   4.263
 1701TIP3   OH2 5066   6.950   5.569   1.344
 1701TIP3    H1 5067   6.871   5.517   1.332
 1701TIP3    H2 5068   7.011   5.511   1.389
 1702TIP3   OH2 5069   4.152   1.155   4.255
 1702TIP3    H1 5070   4.152   1.130   4.348
 1702TIP3    H2 5071   4.238   1.195   4.242
 1703TIP3   OH2 5072   1.987   4.885   1.385
 1703TIP3    H1 5073   2.016   4.798   1.411
 1703TIP3    H2 5074   1.988   4.937   1.466
 1704TIP3   OH2 5075   5.513   3.247   5.103
 1704TIP3    H1 5076   5.487   3.156   5.117
 1704TIP3    H2 5077   5.594   3.257   5.154
 1705TIP3   OH2 5078   2.626   1.455   1.667
 1705TIP3    H1 5079   2.644   1.536   1.715
 1705TIP3    H2 5080   2.534   1.436   1.684
 1706TIP3   OH2 5081   3.484   1.948   1.307
 1706TIP3    H1 5082   3.495   1.853   1.314
 1706TIP3    H2 5083   3.573   1.983   1.308
 1707TIP3   OH2 5084   4.867   6.452   0.682
 1707TIP3    H1 5085   4.782   6.418   0.655
 1707TIP3    H2 5086   4.862   6.545   0.662
 1708TIP3   OH2 5087   0.936   6.216   0.972
 1708TIP3    H1 5088   0.846   6.189   0.954
 1708TIP3    H2 5089   0.929   6.279   1.043
 1709TIP3   OH2 5090   0.351   4.616   0.745
 1709TIP3    H1 5091   0.367   4.688   0.684
 1709TIP3    H2 5092   0.431   4.564   0.741
 1710TIP3   OH2 5093   3.872   3.051   5.429
 1710TIP3    H1 5094   3.944   3.054   5.491
 1710TIP3    H2 5095   3.912   3.023   5.347
 1711TIP3   OH2 5096   6.111   0.106   4.811
 1711TIP3    H1 5097   6.084   0.118   4.902
 1711TIP3    H2 5098   6.056   0.166   4.761
 1712TIP3   OH2 5099   1.978   3.351   0.293
 1712TIP3    H1 5100   1.938   3.392   0.371
 1712TIP3    H2 5101   2.064   3.393   0.286
 1713TIP3   OH2 5102   2.984   1.207   3.582
 1713TIP3    H1 5103   2.992   1.236   3.673
 1713TIP3    H2 5104   2.964   1.286   3.533
 1714TIP3   OH2 5105   6.915   1.394   0.644
 1714TIP3    H1 5106   6.935   1.301   0.643
 1714TIP3    H2 5107   6.937   1.423   0.733
 1715TIP3   OH2 5108   6.511   0.959   3.194
 1715TIP3    H1 5109   6.551   1.031   3.244
 1715TIP3    H2 5110   6.426   0.993   3.167
 1716TIP3   OH2 5111   6.454   2.642   5.464
 1716TIP3    H1 5112   6.368   2.671   5.432
 1716TIP3    H2 5113   6.493   2.720   5.503
 1717TIP3   OH2 5114   2.071   6.364   4.376
 1717TIP3    H1 5115   2.015   6.389   4.449
 1717TIP3    H2 5116   2.145   6.319   4.416
 1718TIP3   OH2 5117   1.821   6.380   3.890
 1718TIP3    H1 5118   1.896   6.437   3.911
 1718TIP3    H2 5119   1.826   6.310   3.955
 1719TIP3   OH2 5120   6.336   5.369  -0.002
 1719TIP3    H1 5121   6.399   5.322   0.053
 1719TIP3    H2 5122   6.253   5.363   0.046
 1720TIP3   OH2 5123   3.120   2.742   4.966
 1720TIP3    H1 5124   3.073   2.673   4.920
 1720TIP3    H2 5125   3.070   2.756   5.046
 1721TIP3   OH2 5126   2.376   0.113   4.393
 1721TIP3    H1 5127   2.468   0.140   4.396
 1721TIP3    H2 5128   2.372   0.035   4.449
 1722TIP3   OH2 5129   4.090   4.473   1.758
 1722TIP3    H1 5130   4.090   4.378   1.774
 1722TIP3    H2 5131   4.044   4.510   1.833
 1723TIP3   OH2 5132   3.423   0.778   2.831
 1723TIP3    H1 5133   3.360   0.845   2.856
 1723TIP3    H2 5134   3.459   0.748   2.915
 1724TIP3   OH2 5135   3.516   1.755   3.430
 1724TIP3    H1 5136   3.548   1.740   3.519
 1724TIP3    H2 5137   3.479   1.672   3.403
 1725TIP3   OH2 5138   0.337   4.766   1.543
 1725TIP3    H1 5139   0.413   4.731   1.497
 1725TIP3    H2 5140   0.353   4.747   1.636
 1726TIP3   OH2 5141   0.172   2.700   0.174
 1726TIP3    H1 5142   0.099   2.759   0.154
 1726TIP3    H2 5143   0.251   2.752   0.161
 1727TIP3   OH2 5144   3.408   2.922   4.759
 1727TIP3    H1 5145   3.337   2.958   4.707
 1727TIP3    H2 5146   3.369   2.906   4.845
 1728TIP3   OH2 5147   3.886   0.650   2.415
 1728TIP3    H1 5148   3.916   0.616   2.499
 1728TIP3    H2 5149   3.965   0.651   2.360
 1729TIP3   OH2 5150   2.799   5.318   4.884
 1729TIP3    H1 5151   2.738   5.385   4.853
 1729TIP3    H2 5152   2.746   5.261   4.939
 1730TIP3   OH2 5153   1.472   0.940   1.068
 1730TIP3    H1 5154   1.566   0.955   1.053
 1730TIP3    H2 5155   1.469   0.875   1.138
 1731TIP3   OH2 5156   2.142   0.120   1.495
 1731TIP3    H1 5157   2.189   0.114   1.412
 1731TIP3    H2 5158   2.134   0.029   1.525
 1732TIP3   OH2 5159   6.887   6.364   5.146
 1732TIP3    H1 5160   6.855   6.452   5.167
 1732TIP3    H2 5161   6.809   6.308   5.155
 1733TIP3   OH2 5162   1.244   0.488   4.567
 1733TIP3    H1 5163   1.331   0.450   4.579
 1733TIP3    H2 5164   1.261   0.581   4.552
 1734TIP3   OH2 5165   2.189   1.698   0.593
 1734TIP3    H1 5166   2.183   1.685   0.688
 1734TIP3    H2 5167   2.126   1.768   0.575
 1735TIP3   OH2 5168   1.026   0.751   2.746
 1735TIP3    H1 5169   1.034   0.844   2.727
 1735TIP3    H2 5170   0.956   0.720   2.688
 1736TIP3   OH2 5171   2.838   1.250   0.336
 1736TIP3    H1 5172   2.760   1.210   0.298
 1736TIP3    H2 5173   2.871   1.309   0.268
 1737TIP3   OH2 5174   5.106   4.791   0.015
 1737TIP3    H1 5175   5.162   4.734   0.067
 1737TIP3    H2 5176   5.043   4.732  -0.026
 1738TIP3   OH2 5177   6.581   4.336   2.266
 1738TIP3    H1 5178   6.652   4.343   2.330
 1738TIP3    H2 5179   6.617   4.282   2.196
 1739TIP3   OH2 5180   0.357   3.416   2.871
 1739TIP3    H1 5181   0.376   3.434   2.963
 1739TIP3    H2 5182   0.345   3.321   2.867
 1740TIP3   OH2 5183   6.809   2.557   0.506
 1740TIP3    H1 5184   6.815   2.649   0.533
 1740TIP3    H2 5185   6.791   2.510   0.588
 1741TIP3   OH2 5186   3.165   4.281   0.141
 1741TIP3    H1 5187   3.196   4.192   0.156
 1741TIP3    H2 5188   3.074   4.270   0.111
 1742TIP3   OH2 5189   4.642   1.917   3.945
 1742TIP3    H1 5190   4.696   1.992   3.921
 1742TIP3    H2 5191   4.622   1.873   3.863
 1743TIP3   OH2 5192   5.633   4.289   3.374
 1743TIP3    H1 5193   5.592   4.232   3.439
 1743TIP3    H2 5194   5.647   4.234   3.298
 1744TIP3   OH2 5195   2.250   5.174   0.961
 1744TIP3    H1 5196   2.235   5.224   1.041
 1744TIP3    H2 5197   2.238   5.238   0.891
 1745TIP3   OH2 5198   2.199   4.566   3.757
 1745TIP3    H1 5199   2.245   4.494   3.800
 1745TIP3    H2 5200   2.207   4.548   3.664
 1746TIP3   OH2 5201   2.376   1.869   0.045
 1746TIP3    H1 5202   2.340   1.787   0.012
 1746TIP3    H2 5203   2.332   1.937  -0.006
 1747TIP3   OH2 5204   6.158   0.181   0.247
 1747TIP3    H1 5205   6.080   0.127   0.238
 1747TIP3    H2 5206   6.139   0.239   0.321
 1748TIP3   OH2 5207   4.701   3.545   0.216
 1748TIP3    H1 5208   4.779   3.533   0.270
 1748TIP3    H2 5209   4.690   3.461   0.171
 1749TIP3   OH2 5210   5.331   4.705   2.260
 1749TIP3    H1 5211   5.365   4.670   2.342
 1749TIP3    H2 5212   5.350   4.637   2.195
 1750TIP3   OH2 5213   2.812   2.083   4.686
 1750TIP3    H1 5214   2.734   2.080   4.631
 1750TIP3    H2 5215   2.885   2.088   4.625
 1751TIP3   OH2 5216   1.683   5.514   0.259
 1751TIP3    H1 5217   1.684   5.585   0.196
 1751TIP3    H2 5218   1.774   5.487   0.267
 1752TIP3   OH2 5219   0.364   1.358   4.991
 1752TIP3    H1 5220   0.395   1.267   4.999
 1752TIP3    H2 5221   0.269   1.349   4.980
 1753TIP3   OH2 5222   2.053   6.632   2.859
 1753TIP3    H1 5223   2.085   6.545   2.836
 1753TIP3    H2 5224   2.115   6.693   2.820
 1754TIP3   OH2 5225   1.973   5.569   5.371
 1754TIP3    H1 5226   1.890   5.600   5.335
 1754TIP3    H2 5227   2.005   5.507   5.306
 1755TIP3   OH2 5228   7.036   4.824   1.906
 1755TIP3    H1 5229   7.074   4.786   1.985
 1755TIP3    H2 5230   6.942   4.811   1.915
 1756TIP3   OH2 5231   2.625   4.458   4.967
 1756TIP3    H1 5232   2.634   4.370   4.931
 1756TIP3    H2 5233   2.557   4.499   4.913
 1757TIP3   OH2 5234   3.349   3.600   2.282
 1757TIP3    H1 5235   3.313   3.556   2.205
 1757TIP3    H2 5236   3.273   3.615   2.338
 1758TIP3   OH2 5237   4.557   6.710   1.677
 1758TIP3    H1 5238   4.555   6.805   1.662
 1758TIP3    H2 5239   4.649   6.686   1.668
 1759TIP3   OH2 5240   4.783   5.443   3.821
 1759TIP3    H1 5241   4.809   5.366   3.770
 1759TIP3    H2 5242   4.742   5.406   3.900
 1760TIP3   OH2 5243   2.586   2.652   1.892
 1760TIP3    H1 5244   2.643   2.603   1.833
 1760TIP3    H2 5245   2.498   2.640   1.857
 1761TIP3   OH2 5246   7.033   1.363   1.184
 1761TIP3    H1 5247   7.124   1.378   1.161
 1761TIP3    H2 5248   7.007   1.442   1.231
 1762TIP3   OH2 5249   0.644   6.550   5.549
 1762TIP3    H1 5250   0.591   6.627   5.567
 1762TIP3    H2 5251   0.677   6.522   5.635
 1763TIP3   OH2 5252   5.213   4.382   4.047
 1763TIP3    H1 5253   5.235   4.473   4.066
 1763TIP3    H2 5254   5.272   4.330   4.101
 1764TIP3   OH2 5255   6.540   1.562   3.916
 1764TIP3    H1 5256   6.622   1.541   3.871
 1764TIP3    H2 5257   6.556   1.538   4.008
 1765TIP3   OH2 5258   2.948   0.827   0.773
 1765TIP3    H1 5259   2.867   0.790   0.737
 1765TIP3    H2 5260   2.936   0.822   0.868
 1766TIP3   OH2 5261   1.701   5.444   3.551
 1766TIP3    H1 5262   1.655   5.466   3.470
 1766TIP3    H2 5263   1.702   5.525   3.602
 1767TIP3   OH2 5264   3.572   3.334   1.381
 1767TIP3    H1 5265   3.503   3.397   1.359
 1767TIP3    H2 5266   3.609   3.367   1.463
 1768TIP3   OH2 5267   0.876   2.403   5.496
 1768TIP3    H1 5268   0.885   2.339   5.566
 1768TIP3    H2 5269   0.963   2.405   5.454
 1769TIP3   OH2 5270   3.791   3.521   0.183
 1769TIP3    H1 5271   3.841   3.571   0.118
 1769TIP3    H2 5272   3.820   3.430   0.172
 1770TIP3   OH2 5273   4.721   3.261   3.368
 1770TIP3    H1 5274   4.739   3.255   3.274
 1770TIP3    H2 5275   4.671   3.182   3.388
 1771TIP3   OH2 5276   7.214   3.786   1.885
 1771TIP3    H1 5277   7.220   3.817   1.976
 1771TIP3    H2 5278   7.121   3.791   1.864
 1772TIP3   OH2 5279   6.979   4.223   5.834
 1772TIP3    H1 5280   6.914   4.292   5.822
 1772TIP3    H2 5281   7.005   4.229   5.926
 1773TIP3   OH2 5282   0.544   0.197   5.568
 1773TIP3    H1 5283   0.481   0.250   5.617
 1773TIP3    H2 5284   0.629   0.216   5.609
 1774TIP3   OH2 5285   5.526   3.278   0.517
 1774TIP3    H1 5286   5.489   3.191   0.534
 1774TIP3    H2 5287   5.478   3.337   0.574
 1775TIP3   OH2 5288   6.028   4.686   3.777
 1775TIP3    H1 5289   6.086   4.681   3.701
 1775TIP3    H2 5290   5.998   4.776   3.780
 1776TIP3   OH2 5291   1.558   2.282   4.385
 1776TIP3    H1 5292   1.635   2.259   4.333
 1776TIP3    H2 5293   1.492   2.304   4.320
 1777TIP3   OH2 5294   5.951   6.272   2.785
 1777TIP3    H1 5295   5.914   6.341   2.841
 1777TIP3    H2 5296   6.016   6.317   2.731
 1778TIP3   OH2 5297   4.583   0.957   2.180
 1778TIP3    H1 5298   4.620   1.020   2.118
 1778TIP3    H2 5299   4.659   0.909   2.214
 1779TIP3   OH2 5300   3.320   5.395   2.297
 1779TIP3    H1 5301   3.252   5.450   2.258
 1779TIP3    H2 5302   3.329   5.428   2.386
 1780TIP3   OH2 5303   5.341   0.042   5.767
 1780TIP3    H1 5304   5.256   0.004   5.744
 1780TIP3    H2 5305   5.374  -0.012   5.838
 1781TIP3   OH2 5306   1.917   5.275   5.795
 1781TIP3    H1 5307   1.994   5.226   5.765
 1781TIP3    H2 5308   1.846   5.249   5.737
 1782TIP3   OH2 5309   0.743   5.293   1.484
 1782TIP3    H1 5310   0.744   5.365   1.421
 1782TIP3    H2 5311   0.805   5.230   1.449
 1783TIP3   OH2 5312   2.529   5.089   1.299
 1783TIP3    H1 5313   2.597   5.031   1.265
 1783TIP3    H2 5314   2.556   5.107   1.389
 1784TIP3   OH2 5315   0.132   0.862   5.328
 1784TIP3    H1 5316   0.094   0.849   5.241
 1784TIP3    H2 5317   0.185   0.941   5.320
 1785TIP3   OH2 5318   3.791   6.147   0.858
 1785TIP3    H1 5319   3.836   6.070   0.825
 1785TIP3    H2 5320   3.753   6.187   0.779
 1786TIP3   OH2 5321   3.481   5.995   3.699
 1786TIP3    H1 5322   3.551   6.024   3.758
 1786TIP3    H2 5323   3.400   6.017   3.746
 1787TIP3   OH2 5324   2.857   2.327   4.951
 1787TIP3    H1 5325   2.911   2.298   5.025
 1787TIP3    H2 5326   2.767   2.306   4.978
 1788TIP3   OH2 5327   6.774   3.715   5.085
 1788TIP3    H1 5328   6.732   3.798   5.062
 1788TIP3    H2 5329   6.718   3.649   5.045
 1789TIP3   OH2 5330   1.839   5.695   2.734
 1789TIP3    H1 5331   1.775   5.743   2.681
 1789TIP3    H2 5332   1.910   5.757   2.749
 1790TIP3   OH2 5333   3.868   3.706   2.326
 1790TIP3    H1 5334   3.894   3.771   2.390
 1790TIP3    H2 5335   3.774   3.720   2.313
 1791TIP3   OH2 5336   2.004   5.667   1.819
 1791TIP3    H1 5337   2.028   5.714   1.898
 1791TIP3    H2 5338   2.088   5.646   1.777
 1792TIP3   OH2 5339   2.501   1.808   5.088
 1792TIP3    H1 5340   2.429   1.798   5.025
 1792TIP3    H2 5341   2.564   1.741   5.064
 1793TIP3   OH2 5342   5.254   1.244   2.822
 1793TIP3    H1 5343   5.186   1.227   2.757
 1793TIP3    H2 5344   5.207   1.283   2.896
 1794TIP3   OH2 5345   6.811   0.632   2.584
 1794TIP3    H1 5346   6.852   0.712   2.614
 1794TIP3    H2 5347   6.737   0.662   2.531
 1795TIP3   OH2 5348   7.197   5.398   3.785
 1795TIP3    H1 5349   7.140   5.457   3.736
 1795TIP3    H2 5350   7.170   5.310   3.757
 1796TIP3   OH2 5351   5.238   4.738   0.791
 1796TIP3    H1 5352   5.226   4.801   0.862
 1796TIP3    H2 5353   5.153   4.695   0.782
 1797TIP3   OH2 5354   6.126   1.330   5.690
 1797TIP3    H1 5355   6.153   1.304   5.602
 1797TIP3    H2 5356   6.031   1.318   5.690
 1798TIP3   OH2 5357   5.043   3.428   2.482
 1798TIP3    H1 5358   4.959   3.445   2.439
 1798TIP3    H2 5359   5.108   3.465   2.421
 1799TIP3   OH2 5360   2.710   2.625   5.093
 1799TIP3    H1 5361   2.697   2.539   5.132
 1799TIP3    H2 5362   2.737   2.606   5.003
 1800TIP3   OH2 5363   4.361   4.087   0.780
 1800TIP3    H1 5364   4.455   4.072   0.773
 1800TIP3    H2 5365   4.348   4.177   0.751
 1801TIP3   OH2 5366   5.628   4.657   0.423
 1801TIP3    H1 5367   5.694   4.647   0.355
 1801TIP3    H2 5368   5.586   4.742   0.404
 1802TIP3   OH2 5369   0.593   3.253   1.652
 1802TIP3    H1 5370   0.636   3.273   1.569
 1802TIP3    H2 5371   0.570   3.160   1.645
 1803TIP3   OH2 5372   6.450   0.729   1.672
 1803TIP3    H1 5373   6.491   0.644   1.685
 1803TIP3    H2 5374   6.523   0.788   1.650
 1804TIP3   OH2 5375   0.072   2.495   5.440
 1804TIP3    H1 5376   0.002   2.468   5.500
 1804TIP3    H2 5377   0.153   2.470   5.485
 1805TIP3   OH2 5378   5.531   6.493   1.224
 1805TIP3    H1 5379   5.573   6.579   1.227
 1805TIP3    H2 5380   5.457   6.501   1.285
 1806TIP3   OH2 5381   0.095   4.553   0.792
 1806TIP3    H1 5382   0.054   4.622   0.844
 1806TIP3    H2 5383   0.180   4.590   0.767
 1807TIP3   OH2 5384   3.368   1.165   4.511
 1807TIP3    H1 5385   3.359   1.070   4.517
 1807TIP3    H2 5386   3.373   1.182   4.417
 1808TIP3   OH2 5387   6.480   1.987   0.339
 1808TIP3    H1 5388   6.527   1.988   0.422
 1808TIP3    H2 5389   6.548   1.983   0.272
 1809TIP3   OH2 5390   1.737   3.386   2.678
 1809TIP3    H1 5391   1.672   3.441   2.635
 1809TIP3    H2 5392   1.708   3.296   2.662
 1810TIP3   OH2 5393   5.011   4.507   1.941
 1810TIP3    H1 5394   4.921   4.504   1.973
 1810TIP3    H2 5395   5.062   4.456   2.005
 1811TIP3   OH2 5396   2.721   2.684  -0.014
 1811TIP3    H1 5397   2.761   2.614   0.036
 1811TIP3    H2 5398   2.753   2.764   0.027
 1812TIP3   OH2 5399   3.751   5.738   5.312
 1812TIP3    H1 5400   3.663   5.703   5.300
 1812TIP3    H2 5401   3.796   5.718   5.230
 1813TIP3   OH2 5402   4.315   2.601   4.419
 1813TIP3    H1 5403   4.256   2.659   4.370
 1813TIP3    H2 5404   4.279   2.601   4.508
 1814TIP3   OH2 5405   3.360   6.637   4.612
 1814TIP3    H1 5406   3.442   6.643   4.661
 1814TIP3    H2 5407   3.298   6.596   4.673
 1815TIP3   OH2 5408   3.702   4.679   5.001
 1815TIP3    H1 5409   3.770   4.721   4.948
 1815TIP3    H2 5410   3.745   4.601   5.038
 1816TIP3   OH2 5411   0.572   1.559   0.697
 1816TIP3    H1 5412   0.632   1.535   0.768
 1816TIP3    H2 5413   0.609   1.518   0.619
 1817TIP3   OH2 5414   2.555   5.059   2.352
 1817TIP3    H1 5415   2.583   4.999   2.421
 1817TIP3    H2 5416   2.477   5.101   2.387
 1818TIP3   OH2 5417   1.025   5.573   0.802
 1818TIP3    H1 5418   0.994   5.518   0.874
 1818TIP3    H2 5419   1.055   5.654   0.844
 1819TIP3   OH2 5420   5.919   2.846   5.312
 1819TIP3    H1 5421   5.990   2.828   5.374
 1819TIP3    H2 5422   5.890   2.935   5.334
 1820TIP3   OH2 5423   4.974   0.009   0.219
 1820TIP3    H1 5424   4.966  -0.010   0.125
 1820TIP3    H2 5425   5.053  -0.038   0.246
 1821TIP3   OH2 5426   0.862   5.882   2.144
 1821TIP3    H1 5427   0.826   5.907   2.229
 1821TIP3    H2 5428   0.829   5.949   2.084
 1822TIP3   OH2 5429   2.979   5.111   0.829
 1822TIP3    H1 5430   2.987   5.125   0.923
 1822TIP3    H2 5431   2.905   5.166   0.803
 1823TIP3   OH2 5432   4.696   5.620   4.150
 1823TIP3    H1 5433   4.660   5.623   4.239
 1823TIP3    H2 5434   4.746   5.538   4.148
 1824TIP3   OH2 5435   3.328   3.646   5.189
 1824TIP3    H1 5436   3.276   3.721   5.219
 1824TIP3    H2 5437   3.400   3.685   5.140
 1825TIP3   OH2 5438   6.864   6.718   1.662
 1825TIP3    H1 5439   6.911   6.636   1.678
 1825TIP3    H2 5440   6.771   6.693   1.667
 1826TIP3   OH2 5441   2.044   2.060   4.789
 1826TIP3    H1 5442   2.079   2.117   4.720
 1826TIP3    H2 5443   2.105   2.071   4.862
 1827TIP3   OH2 5444   0.376   5.420   3.738
 1827TIP3    H1 5445   0.375   5.382   3.651
 1827TIP3    H2 5446   0.319   5.363   3.790
 1828TIP3   OH2 5447   2.485   2.599   1.474
 1828TIP3    H1 5448   2.563   2.546   1.457
 1828TIP3    H2 5449   2.514   2.689   1.459
 1829TIP3   OH2 5450   4.904   5.224   0.465
 1829TIP3    H1 5451   4.998   5.240   0.462
 1829TIP3    H2 5452   4.865   5.310   0.480
 1830TIP3   OH2 5453   0.519   0.610   3.986
 1830TIP3    H1 5454   0.536   0.656   4.069
 1830TIP3    H2 5455   0.468   0.533   4.012
 1831TIP3   OH2 5456   0.172   3.309   5.088
 1831TIP3    H1 5457   0.136   3.389   5.049
 1831TIP3    H2 5458   0.134   3.238   5.035
 1832TIP3   OH2 5459   5.984   5.452   1.658
 1832TIP3    H1 5460   6.000   5.508   1.583
 1832TIP3    H2 5461   5.914   5.496   1.707
 1833TIP3   OH2 5462   4.184   0.227   2.344
 1833TIP3    H1 5463   4.184   0.301   2.284
 1833TIP3    H2 5464   4.245   0.164   2.306
 1834TIP3   OH2 5465   3.380   3.890   2.442
 1834TIP3    H1 5466   3.340   3.896   2.528
 1834TIP3    H2 5467   3.357   3.973   2.399
 1835TIP3   OH2 5468   3.324   3.477   4.420
 1835TIP3    H1 5469   3.368   3.393   4.406
 1835TIP3    H2 5470   3.328   3.490   4.515
 1836TIP3   OH2 5471   6.642   1.498   1.674
 1836TIP3    H1 5472   6.595   1.419   1.647
 1836TIP3    H2 5473   6.656   1.487   1.768
 1837TIP3   OH2 5474   0.520   1.899   0.061
 1837TIP3    H1 5475   0.496   1.898   0.153
 1837TIP3    H2 5476   0.438   1.883   0.014
 1838TIP3   OH2 5477   0.465   0.982   3.293
 1838TIP3    H1 5478   0.379   1.022   3.287
 1838TIP3    H2 5479   0.508   1.005   3.210
 1839TIP3   OH2 5480   6.135   5.955   4.358
 1839TIP3    H1 5481   6.129   5.947   4.454
 1839TIP3    H2 5482   6.206   6.018   4.344
 1840TIP3   OH2 5483   2.551   6.101   3.412
 1840TIP3    H1 5484   2.584   6.185   3.382
 1840TIP3    H2 5485   2.478   6.123   3.469
 1841TIP3   OH2 5486   2.003   2.958   5.870
 1841TIP3    H1 5487   1.924   2.983   5.917
 1841TIP3    H2 5488   2.017   2.866   5.894
 1842TIP3   OH2 5489   1.794   3.678   4.352
 1842TIP3    H1 5490   1.721   3.710   4.300
 1842TIP3    H2 5491   1.787   3.726   4.435
 1843TIP3   OH2 5492   1.521   2.547   4.876
 1843TIP3    H1 5493   1.454   2.615   4.871
 1843TIP3    H2 5494   1.568   2.554   4.793
 1844TIP3   OH2 5495   1.453   3.572   4.949
 1844TIP3    H1 5496   1.363   3.551   4.975
 1844TIP3    H2 5497   1.493   3.611   5.027
 1845TIP3   OH2 5498   2.691   4.169   5.639
 1845TIP3    H1 5499   2.746   4.245   5.620
 1845TIP3    H2 5500   2.716   4.105   5.572
 1846TIP3   OH2 5501   5.333   2.393   0.832
 1846TIP3    H1 5502   5.287   2.364   0.752
 1846TIP3    H2 5503   5.294   2.340   0.902
 1847TIP3   OH2 5504   1.639   4.177   1.602
 1847TIP3    H1 5505   1.734   4.167   1.615
 1847TIP3    H2 5506   1.613   4.096   1.558
 1848TIP3   OH2 5507   2.834   1.576   1.228
 1848TIP3    H1 5508   2.774   1.524   1.281
 1848TIP3    H2 5509   2.801   1.665   1.235
 1849TIP3   OH2 5510   4.296   0.695   1.963
 1849TIP3    H1 5511   4.272   0.606   1.936
 1849TIP3    H2 5512   4.388   0.688   1.988
 1850TIP3   OH2 5513   1.306   1.954   0.722
 1850TIP3    H1 5514   1.285   2.027   0.780
 1850TIP3    H2 5515   1.295   1.989   0.634
 1851TIP3   OH2 5516   6.785   3.632   4.792
 1851TIP3    H1 5517   6.800   3.725   4.809
 1851TIP3    H2 5518   6.864   3.602   4.746
 1852TIP3   OH2 5519   1.408   1.654   4.815
 1852TIP3    H1 5520   1.413   1.747   4.837
 1852TIP3    H2 5521   1.363   1.614   4.889
 1853TIP3   OH2 5522   0.970   3.879   4.272
 1853TIP3    H1 5523   1.007   3.955   4.227
 1853TIP3    H2 5524   1.017   3.875   4.355
 1854TIP3   OH2 5525   0.744   5.312   5.559
 1854TIP3    H1 5526   0.734   5.238   5.498
 1854TIP3    H2 5527   0.727   5.389   5.505
 1855TIP3   OH2 5528   1.979   0.060   5.434
 1855TIP3    H1 5529   1.986   0.131   5.499
 1855TIP3    H2 5530   2.067   0.024   5.429
 1856TIP3   OH2 5531   6.911   4.763   4.468
 1856TIP3    H1 5532   6.961   4.794   4.542
 1856TIP3    H2 5533   6.873   4.842   4.430
 1857TIP3   OH2 5534   4.781   1.294   0.480
 1857TIP3    H1 5535   4.726   1.217   0.495
 1857TIP3    H2 5536   4.804   1.289   0.387
 1858TIP3   OH2 5537   2.529   5.868   0.571
 1858TIP3    H1 5538   2.618   5.834   0.577
 1858TIP3    H2 5539   2.529   5.946   0.626
 1859TIP3   OH2 5540   0.065   1.126   1.904
 1859TIP3    H1 5541   0.000   1.075   1.855
 1859TIP3    H2 5542   0.025   1.140   1.989
 1860TIP3   OH2 5543   4.340   3.856   1.474
 1860TIP3    H1 5544   4.360   3.765   1.449
 1860TIP3    H2 5545   4.275   3.848   1.543
 1861TIP3   OH2 5546   2.951   4.651   1.262
 1861TIP3    H1 5547   2.919   4.674   1.349
 1861TIP3    H2 5548   3.000   4.728   1.233
 1862TIP3   OH2 5549   0.858   6.477   4.063
 1862TIP3    H1 5550   0.826   6.410   4.124
 1862TIP3    H2 5551   0.813   6.458   3.981
 1863TIP3   OH2 5552   0.083   4.736   0.088
 1863TIP3    H1 5553   0.080   4.831   0.076
 1863TIP3    H2 5554   0.176   4.714   0.090
 1864TIP3   OH2 5555   2.412   4.752   5.225
 1864TIP3    H1 5556   2.335   4.709   5.262
 1864TIP3    H2 5557   2.485   4.694   5.248
 1865TIP3   OH2 5558   3.055   5.586   4.917
 1865TIP3    H1 5559   3.121   5.583   4.986
 1865TIP3    H2 5560   2.972   5.580   4.963
 1866TIP3   OH2 5561   6.788   2.034   4.120
 1866TIP3    H1 5562   6.746   1.960   4.164
 1866TIP3    H2 5563   6.722   2.067   4.060
 1867TIP3   OH2 5564   7.044   1.713   2.278
 1867TIP3    H1 5565   6.999   1.794   2.301
 1867TIP3    H2 5566   7.034   1.657   2.355
 1868TIP3   OH2 5567   1.722   4.479   3.956
 1868TIP3    H1 5568   1.776   4.486   3.878
 1868TIP3    H2 5569   1.686   4.567   3.968
 1869TIP3   OH2 5570   0.584   6.794   2.009
 1869TIP3    H1 5571   0.517   6.783   1.942
 1869TIP3    H2 5572   0.535   6.796   2.092
 1870TIP3   OH2 5573   2.068   5.703   0.801
 1870TIP3    H1 5574   2.010   5.775   0.828
 1870TIP3    H2 5575   2.153   5.745   0.789
 1871TIP3   OH2 5576   3.840   3.119   2.305
 1871TIP3    H1 5577   3.917   3.069   2.277
 1871TIP3    H2 5578   3.872   3.208   2.316
 1872TIP3   OH2 5579   6.542   1.904   0.593
 1872TIP3    H1 5580   6.463   1.890   0.645
 1872TIP3    H2 5581   6.614   1.891   0.654
 1873TIP3   OH2 5582   6.812   6.275   0.148
 1873TIP3    H1 5583   6.888   6.333   0.152
 1873TIP3    H2 5584   6.753   6.308   0.215
 1874TIP3   OH2 5585   2.360   5.301   1.247
 1874TIP3    H1 5586   2.429   5.236   1.258
 1874TIP3    H2 5587   2.285   5.264   1.294
 1875TIP3   OH2 5588   1.617   6.776   3.590
 1875TIP3    H1 5589   1.631   6.782   3.496
 1875TIP3    H2 5590   1.661   6.695   3.616
 1876TIP3   OH2 5591   4.317   1.370   1.842
 1876TIP3    H1 5592   4.391   1.340   1.789
 1876TIP3    H2 5593   4.259   1.293   1.847
 1877TIP3   OH2 5594   5.897   2.521   3.482
 1877TIP3    H1 5595   5.946   2.443   3.454
 1877TIP3    H2 5596   5.915   2.586   3.413
 1878TIP3   OH2 5597   5.982   3.236   0.474
 1878TIP3    H1 5598   6.045   3.257   0.405
 1878TIP3    H2 5599   5.975   3.141   0.471
 1879TIP3   OH2 5600   2.580   6.556   4.553
 1879TIP3    H1 5601   2.600   6.646   4.579
 1879TIP3    H2 5602   2.535   6.518   4.629
 1880TIP3   OH2 5603   2.446   2.409   4.292
 1880TIP3    H1 5604   2.474   2.458   4.215
 1880TIP3    H2 5605   2.527   2.388   4.338
 1881TIP3   OH2 5606   6.402   6.418   1.402
 1881TIP3    H1 5607   6.362   6.505   1.411
 1881TIP3    H2 5608   6.335   6.366   1.358
 1882TIP3   OH2 5609   2.474   0.623   5.642
 1882TIP3    H1 5610   2.431   0.646   5.724
 1882TIP3    H2 5611   2.405   0.587   5.587
 1883TIP3   OH2 5612   4.223   3.724   3.489
 1883TIP3    H1 5613   4.308   3.764   3.506
 1883TIP3    H2 5614   4.188   3.773   3.414
 1884TIP3   OH2 5615   4.983   5.321   1.593
 1884TIP3    H1 5616   4.983   5.226   1.606
 1884TIP3    H2 5617   4.892   5.343   1.575
 1885TIP3   OH2 5618   2.771   2.938   1.135
 1885TIP3    H1 5619   2.864   2.926   1.153
 1885TIP3    H2 5620   2.733   2.851   1.147
 1886TIP3   OH2 5621   6.938   1.737   0.471
 1886TIP3    H1 5622   6.862   1.719   0.527
 1886TIP3    H2 5623   6.979   1.813   0.511
 1887TIP3   OH2 5624   1.913   4.088   4.152
 1887TIP3    H1 5625   1.822   4.068   4.133
 1887TIP3    H2 5626   1.942   4.143   4.079
 1888TIP3   OH2 5627   3.824   1.503   5.759
 1888TIP3    H1 5628   3.807   1.554   5.680
 1888TIP3    H2 5629   3.816   1.412   5.730
 1889TIP3   OH2 5630   0.315   3.089   1.694
 1889TIP3    H1 5631   0.331   3.179   1.722
 1889TIP3    H2 5632   0.354   3.085   1.606
 1890TIP3   OH2 5633   5.556   2.805   4.001
 1890TIP3    H1 5634   5.478   2.840   3.957
 1890TIP3    H2 5635   5.521   2.743   4.066
 1891TIP3   OH2 5636   4.315   0.789   1.008
 1891TIP3    H1 5637   4.272   0.723   0.953
 1891TIP3    H2 5638   4.402   0.799   0.970
 1892TIP3   OH2 5639   2.406   0.744   3.235
 1892TIP3    H1 5640   2.483   0.777   3.190
 1892TIP3    H2 5641   2.419   0.649   3.238
 1893TIP3   OH2 5642   5.961   4.531   3.237
 1893TIP3    H1 5643   5.884   4.548   3.291
 1893TIP3    H2 5644   5.930   4.541   3.147
 1894TIP3   OH2 5645   0.401   1.874   5.376
 1894TIP3    H1 5646   0.472   1.809   5.375
 1894TIP3    H2 5647   0.423   1.935   5.306
 1895TIP3   OH2 5648   1.157   2.622   0.893
 1895TIP3    H1 5649   1.175   2.701   0.841
 1895TIP3    H2 5650   1.074   2.590   0.859
 1896TIP3   OH2 5651   0.739   4.256   1.836
 1896TIP3    H1 5652   0.793   4.184   1.869
 1896TIP3    H2 5653   0.797   4.333   1.840
 1897TIP3   OH2 5654   4.787   4.882   4.239
 1897TIP3    H1 5655   4.745   4.833   4.168
 1897TIP3    H2 5656   4.775   4.974   4.215
 1898TIP3   OH2 5657   6.019   1.190   3.284
 1898TIP3    H1 5658   5.948   1.194   3.221
 1898TIP3    H2 5659   5.982   1.147   3.361
 1899TIP3   OH2 5660   4.527   1.397   1.603
 1899TIP3    H1 5661   4.622   1.413   1.603
 1899TIP3    H2 5662   4.517   1.318   1.549
 1900TIP3   OH2 5663   1.727   2.443   3.532
 1900TIP3    H1 5664   1.661   2.470   3.596
 1900TIP3    H2 5665   1.752   2.524   3.488
 1901TIP3   OH2 5666   4.943   1.860   2.902
 1901TIP3    H1 5667   4.903   1.915   2.834
 1901TIP3    H2 5668   4.870   1.810   2.938
 1902TIP3   OH2 5669   5.649   0.589   0.118
 1902TIP3    H1 5670   5.636   0.538   0.038
 1902TIP3    H2 5671   5.722   0.648   0.097
 1903TIP3   OH2 5672   0.097   5.527   3.489
 1903TIP3    H1 5673   0.037   5.474   3.542
 1903TIP3    H2 5674   0.101   5.482   3.405
 1904TIP3   OH2 5675   2.630   1.581   2.485
 1904TIP3    H1 5676   2.649   1.533   2.566
 1904TIP3    H2 5677   2.535   1.585   2.481
 1905TIP3   OH2 5678   1.282   2.335   3.503
 1905TIP3    H1 5679   1.286   2.344   3.598
 1905TIP3    H2 5680   1.195   2.365   3.480
 1906TIP3   OH2 5681   4.767   3.945   0.417
 1906TIP3    H1 5682   4.836   3.926   0.480
 1906TIP3    H2 5683   4.722   4.022   0.452
 1907TIP3   OH2 5684   3.797   1.548   1.905
 1907TIP3    H1 5685   3.865   1.615   1.905
 1907TIP3    H2 5686   3.845   1.465   1.902
 1908TIP3   OH2 5687   6.224   4.555   5.132
 1908TIP3    H1 5688   6.176   4.480   5.167
 1908TIP3    H2 5689   6.251   4.527   5.044
 1909TIP3   OH2 5690   3.431   2.247   1.561
 1909TIP3    H1 5691   3.443   2.242   1.656
 1909TIP3    H2 5692   3.450   2.339   1.539
 1910TIP3   OH2 5693   5.188   4.406   3.102
 1910TIP3    H1 5694   5.157   4.448   3.021
 1910TIP3    H2 5695   5.139   4.324   3.106
 1911TIP3   OH2 5696   6.641   1.990   5.059
 1911TIP3    H1 5697   6.619   1.955   5.145
 1911TIP3    H2 5698   6.730   2.024   5.068
 1912TIP3   OH2 5699   2.046   6.431   3.553
 1912TIP3    H1 5700   2.011   6.513   3.587
 1912TIP3    H2 5701   2.131   6.456   3.514
 1913TIP3   OH2 5702   0.077   6.638   5.802
 1913TIP3    H1 5703   0.128   6.719   5.794
 1913TIP3    H2 5704  -0.010   6.660   5.770
 1914TIP3   OH2 5705   2.599   3.833   5.300
 1914TIP3    H1 5706   2.547   3.771   5.351
 1914TIP3    H2 5707   2.626   3.899   5.363
 1915TIP3   OH2 5708   4.868   2.692   0.870
 1915TIP3    H1 5709   4.798   2.714   0.809
 1915TIP3    H2 5710   4.836   2.615   0.917
 1916TIP3   OH2 5711   0.750   1.832   0.598
 1916TIP3    H1 5712   0.658   1.836   0.627
 1916TIP3    H2 5713   0.748   1.773   0.523
 1917TIP3   OH2 5714   3.767   5.636   1.543
 1917TIP3    H1 5715   3.793   5.703   1.606
 1917TIP3    H2 5716   3.819   5.655   1.465
 1918TIP3   OH2 5717   0.368   2.344   1.705
 1918TIP3    H1 5718   0.370   2.402   1.781
 1918TIP3    H2 5719   0.299   2.281   1.725
 1919TIP3   OH2 5720   5.409   5.849   4.176
 1919TIP3    H1 5721   5.484   5.791   4.186
 1919TIP3    H2 5722   5.429   5.902   4.098
 1920TIP3   OH2 5723   1.236   2.654   0.461
 1920TIP3    H1 5724   1.187   2.621   0.386
 1920TIP3    H2 5725   1.169   2.680   0.524
 1921TIP3   OH2 5726   6.610   0.561   0.025
 1921TIP3    H1 5727   6.546   0.517   0.080
 1921TIP3    H2 5728   6.562   0.582  -0.055
 1922TIP3   OH2 5729   0.151   1.375   5.336
 1922TIP3    H1 5730   0.226   1.340   5.384
 1922TIP3    H2 5731   0.187   1.446   5.283
 1923TIP3   OH2 5732   6.718   4.805   2.327
 1923TIP3    H1 5733   6.766   4.849   2.256
 1923TIP3    H2 5734   6.627   4.835   2.316
 1924TIP3   OH2 5735   2.636   2.695   4.850
 1924TIP3    H1 5736   2.674   2.783   4.849
 1924TIP3    H2 5737   2.593   2.687   4.765
 1925TIP3   OH2 5738   2.144   3.672   5.434
 1925TIP3    H1 5739   2.196   3.606   5.387
 1925TIP3    H2 5740   2.204   3.705   5.502
 1926TIP3   OH2 5741   4.879   3.441   2.248
 1926TIP3    H1 5742   4.882   3.515   2.187
 1926TIP3    H2 5743   4.906   3.366   2.195
 1927TIP3   OH2 5744   3.102   2.394   5.439
 1927TIP3    H1 5745   3.173   2.344   5.480
 1927TIP3    H2 5746   3.133   2.484   5.438
 1928TIP3   OH2 5747   2.164   3.404   5.236
 1928TIP3    H1 5748   2.115   3.367   5.162
 1928TIP3    H2 5749   2.248   3.430   5.199
 1929TIP3   OH2 5750   5.066   5.367   3.158
 1929TIP3    H1 5751   5.045   5.309   3.085
 1929TIP3    H2 5752   5.048   5.455   3.125
 1930TIP3   OH2 5753   2.739   4.838   5.474
 1930TIP3    H1 5754   2.808   4.898   5.503
 1930TIP3    H2 5755   2.761   4.819   5.383
 1931TIP3   OH2 5756   2.224   2.950   3.077
 1931TIP3    H1 5757   2.243   2.863   3.113
 1931TIP3    H2 5758   2.160   2.933   3.008
 1932TIP3   OH2 5759   5.112   3.967   5.534
 1932TIP3    H1 5760   5.054   4.020   5.588
 1932TIP3    H2 5761   5.201   3.994   5.560
 1933TIP3   OH2 5762   6.236   0.590   2.634
 1933TIP3    H1 5763   6.164   0.621   2.689
 1933TIP3    H2 5764   6.309   0.648   2.655
 1934TIP3   OH2 5765   0.168   6.664   3.613
 1934TIP3    H1 5766   0.126   6.716   3.683
 1934TIP3    H2 5767   0.106   6.593   3.597
 1935TIP3   OH2 5768   5.663   2.022   4.913
 1935TIP3    H1 5769   5.611   2.087   4.866
 1935TIP3    H2 5770   5.641   1.939   4.871
 1936TIP3   OH2 5771   6.398   4.134   4.813
 1936TIP3    H1 5772   6.381   4.044   4.787
 1936TIP3    H2 5773   6.493   4.141   4.815
 1937TIP3   OH2 5774   4.427   4.711   4.458
 1937TIP3    H1 5775   4.519   4.705   4.431
 1937TIP3    H2 5776   4.379   4.659   4.393
 1938TIP3   OH2 5777   2.607   3.779   0.750
 1938TIP3    H1 5778   2.569   3.691   0.751
 1938TIP3    H2 5779   2.534   3.837   0.729
 1939TIP3   OH2 5780   3.289   4.721   5.193
 1939TIP3    H1 5781   3.287   4.787   5.124
 1939TIP3    H2 5782   3.340   4.761   5.264
 1940TIP3   OH2 5783   0.416   3.506   4.966
 1940TIP3    H1 5784   0.434   3.413   4.979
 1940TIP3    H2 5785   0.322   3.514   4.978
 1941TIP3   OH2 5786   0.742   0.337   1.734
 1941TIP3    H1 5787   0.802   0.390   1.787
 1941TIP3    H2 5788   0.765   0.360   1.643
 1942TIP3   OH2 5789   4.013   3.846   0.695
 1942TIP3    H1 5790   4.047   3.891   0.772
 1942TIP3    H2 5791   3.928   3.811   0.723
 1943TIP3   OH2 5792   6.664   0.187   0.911
 1943TIP3    H1 5793   6.603   0.244   0.956
 1943TIP3    H2 5794   6.653   0.101   0.952
 1944TIP3   OH2 5795   1.228   0.791   3.271
 1944TIP3    H1 5796   1.229   0.886   3.278
 1944TIP3    H2 5797   1.176   0.762   3.345
 1945TIP3   OH2 5798   3.927   1.276   5.048
 1945TIP3    H1 5799   3.910   1.291   4.955
 1945TIP3    H2 5800   3.878   1.345   5.093
 1946TIP3   OH2 5801   3.215   2.969   0.654
 1946TIP3    H1 5802   3.138   2.949   0.707
 1946TIP3    H2 5803   3.269   3.026   0.710
 1947TIP3   OH2 5804   5.659   3.864   5.540
 1947TIP3    H1 5805   5.602   3.941   5.541
 1947TIP3    H2 5806   5.613   3.799   5.595
 1948TIP3   OH2 5807   1.383   5.324   5.088
 1948TIP3    H1 5808   1.442   5.265   5.134
 1948TIP3    H2 5809   1.367   5.282   5.004
 1949TIP3   OH2 5810   3.026   3.659   5.526
 1949TIP3    H1 5811   2.949   3.645   5.471
 1949TIP3    H2 5812   3.074   3.577   5.522
 1950TIP3   OH2 5813   0.739   3.006   4.726
 1950TIP3    H1 5814   0.717   3.092   4.689
 1950TIP3    H2 5815   0.673   2.947   4.689
 1951TIP3   OH2 5816   0.117   1.634   1.929
 1951TIP3    H1 5817   0.166   1.566   1.882
 1951TIP3    H2 5818   0.025   1.617   1.907
 1952TIP3   OH2 5819   6.683   2.863   2.122
 1952TIP3    H1 5820   6.652   2.855   2.212
 1952TIP3    H2 5821   6.723   2.779   2.102
 1953TIP3   OH2 5822   3.806   4.934   5.175
 1953TIP3    H1 5823   3.849   4.906   5.094
 1953TIP3    H2 5824   3.788   4.852   5.222
 1954TIP3   OH2 5825   2.618   0.712   3.075
 1954TIP3    H1 5826   2.636   0.639   3.135
 1954TIP3    H2 5827   2.701   0.726   3.028
 1955TIP3   OH2 5828   3.201   3.015   3.082
 1955TIP3    H1 5829   3.190   3.101   3.122
 1955TIP3    H2 5830   3.174   2.953   3.150
 1956TIP3   OH2 5831   0.068   3.653   3.655
 1956TIP3    H1 5832  -0.009   3.612   3.616
 1956TIP3    H2 5833   0.102   3.587   3.715
 1957TIP3   OH2 5834   4.854   0.119   5.081
 1957TIP3    H1 5835   4.865   0.192   5.020
 1957TIP3    H2 5836   4.883   0.154   5.165
 1958TIP3   OH2 5837   4.864   2.408   5.656
 1958TIP3    H1 5838   4.885   2.363   5.738
 1958TIP3    H2 5839   4.929   2.478   5.650
 1959TIP3   OH2 5840   0.271   6.601   2.107
 1959TIP3    H1 5841   0.360   6.565   2.107
 1959TIP3    H2 5842   0.269   6.659   2.030
 1960TIP3   OH2 5843   6.473   2.662   1.298
 1960TIP3    H1 5844   6.534   2.601   1.340
 1960TIP3    H2 5845   6.513   2.682   1.214
 1961TIP3   OH2 5846   2.801   5.261   2.872
 1961TIP3    H1 5847   2.777   5.172   2.896
 1961TIP3    H2 5848   2.720   5.301   2.841
 1962TIP3   OH2 5849   0.688   1.536   4.202
 1962TIP3    H1 5850   0.690   1.619   4.251
 1962TIP3    H2 5851   0.620   1.549   4.135
 1963TIP3   OH2 5852   2.728   3.494   2.503
 1963TIP3    H1 5853   2.785   3.429   2.462
 1963TIP3    H2 5854   2.788   3.557   2.542
 1964TIP3   OH2 5855   0.166   5.257   2.611
 1964TIP3    H1 5856   0.203   5.342   2.589
 1964TIP3    H2 5857   0.150   5.215   2.526
 1965TIP3   OH2 5858   4.476   0.889   2.741
 1965TIP3    H1 5859   4.518   0.942   2.809
 1965TIP3    H2 5860   4.475   0.945   2.664
 1966TIP3   OH2 5861   1.258   5.910   5.779
 1966TIP3    H1 5862   1.197   5.952   5.719
 1966TIP3    H2 5863   1.268   5.972   5.852
 1967TIP3   OH2 5864   4.300   1.033   1.164
 1967TIP3    H1 5865   4.315   0.952   1.116
 1967TIP3    H2 5866   4.227   1.013   1.223
 1968TIP3   OH2 5867   5.689   0.875   0.214
 1968TIP3    H1 5868   5.731   0.865   0.300
 1968TIP3    H2 5869   5.595   0.875   0.233
 1969TIP3   OH2 5870   2.639   6.457   3.709
 1969TIP3    H1 5871   2.595   6.524   3.657
 1969TIP3    H2 5872   2.656   6.499   3.793
 1970TIP3   OH2 5873   5.027   6.427   2.227
 1970TIP3    H1 5874   4.968   6.359   2.260
 1970TIP3    H2 5875   4.981   6.509   2.244
 1971TIP3   OH2 5876   1.287   6.626   2.859
 1971TIP3    H1 5877   1.280   6.587   2.947
 1971TIP3    H2 5878   1.373   6.668   2.858
 1972TIP3   OH2 5879   2.065   3.153   1.566
 1972TIP3    H1 5880   2.138   3.197   1.522
 1972TIP3    H2 5881   2.099   3.067   1.591
 1973TIP3   OH2 5882   7.136   6.820   1.937
 1973TIP3    H1 5883   7.044   6.803   1.917
 1973TIP3    H2 5884   7.183   6.794   1.858
 1974TIP3   OH2 5885   3.511   4.828   4.685
 1974TIP3    H1 5886   3.492   4.913   4.647
 1974TIP3    H2 5887   3.598   4.806   4.652
 1975TIP3   OH2 5888   3.370   4.490   1.978
 1975TIP3    H1 5889   3.374   4.509   2.071
 1975TIP3    H2 5890   3.294   4.433   1.968
 1976TIP3   OH2 5891   3.376   1.056   2.607
 1976TIP3    H1 5892   3.378   1.117   2.681
 1976TIP3    H2 5893   3.456   1.075   2.559
 1977TIP3   OH2 5894   7.105   1.393   5.218
 1977TIP3    H1 5895   7.178   1.413   5.276
 1977TIP3    H2 5896   7.030   1.437   5.258
 1978TIP3   OH2 5897   3.925   5.302   2.430
 1978TIP3    H1 5898   3.851   5.355   2.460
 1978TIP3    H2 5899   3.998   5.364   2.423
 1979TIP3   OH2 5900   2.684   5.084   3.168
 1979TIP3    H1 5901   2.752   5.120   3.224
 1979TIP3    H2 5902   2.730   5.049   3.092
 1980TIP3   OH2 5903   6.615   1.179   2.718
 1980TIP3    H1 5904   6.585   1.265   2.686
 1980TIP3    H2 5905   6.701   1.196   2.754
 1981TIP3   OH2 5906   2.735   2.463   2.842
 1981TIP3    H1 5907   2.698   2.421   2.919
 1981TIP3    H2 5908   2.818   2.501   2.873
 1982TIP3   OH2 5909   3.566   1.452   1.741
 1982TIP3    H1 5910   3.648   1.477   1.782
 1982TIP3    H2 5911   3.584   1.452   1.647
 1983TIP3   OH2 5912   0.683   6.549   5.127
 1983TIP3    H1 5913   0.602   6.597   5.145
 1983TIP3    H2 5914   0.674   6.467   5.177
 1984TIP3   OH2 5915   6.320   4.510   1.847
 1984TIP3    H1 5916   6.236   4.479   1.879
 1984TIP3    H2 5917   6.298   4.580   1.785
 1985TIP3   OH2 5918   7.160   3.487   3.833
 1985TIP3    H1 5919   7.138   3.561   3.889
 1985TIP3    H2 5920   7.154   3.411   3.890
 1986TIP3   OH2 5921   1.578   0.275   5.330
 1986TIP3    H1 5922   1.627   0.302   5.252
 1986TIP3    H2 5923   1.495   0.322   5.324
 1987TIP3   OH2 5924   0.217   0.231   3.050
 1987TIP3    H1 5925   0.238   0.138   3.040
 1987TIP3    H2 5926   0.145   0.246   2.988
 1988TIP3   OH2 5927   5.424   5.202   1.942
 1988TIP3    H1 5928   5.499   5.154   1.906
 1988TIP3    H2 5929   5.464   5.270   1.997
 1989TIP3   OH2 5930   4.615   5.249   3.079
 1989TIP3    H1 5931   4.676   5.179   3.102
 1989TIP3    H2 5932   4.573   5.219   2.999
 1990TIP3   OH2 5933   3.878   3.551   1.911
 1990TIP3    H1 5934   3.932   3.551   1.832
 1990TIP3    H2 5935   3.926   3.607   1.972
 1991TIP3   OH2 5936   5.250   2.958   0.384
 1991TIP3    H1 5937   5.321   3.006   0.342
 1991TIP3    H2 5938   5.290   2.875   0.410
 1992TIP3   OH2 5939   2.571   1.689   1.335
 1992TIP3    H1 5940   2.586   1.596   1.352
 1992TIP3    H2 5941   2.568   1.730   1.421
 1993TIP3   OH2 5942   4.611   3.615   3.049
 1993TIP3    H1 5943   4.600   3.520   3.035
 1993TIP3    H2 5944   4.533   3.654   3.009
 1994TIP3   OH2 5945   0.082   0.008   3.188
 1994TIP3    H1 5946   0.151  -0.006   3.254
 1994TIP3    H2 5947   0.037   0.087   3.217
 1995TIP3   OH2 5948   5.261   4.896   3.990
 1995TIP3    H1 5949   5.244   4.868   3.900
 1995TIP3    H2 5950   5.189   4.858   4.040
 1996TIP3   OH2 5951   1.789   5.593   5.012
 1996TIP3    H1 5952   1.794   5.531   5.085
 1996TIP3    H2 5953   1.853   5.560   4.948
 1997TIP3   OH2 5954   0.781   1.397   1.498
 1997TIP3    H1 5955   0.817   1.354   1.576
 1997TIP3    H2 5956   0.821   1.483   1.497
 1998TIP3   OH2 5957   0.829   6.831   3.725
 1998TIP3    H1 5958   0.806   6.827   3.818
 1998TIP3    H2 5959   0.803   6.746   3.689
 1999TIP3   OH2 5960   4.322   2.405   0.416
 1999TIP3    H1 5961   4.280   2.327   0.378
 1999TIP3    H2 5962   4.270   2.423   0.494
 2000TIP3   OH2 5963   1.111   5.112   1.776
 2000TIP3    H1 5964   1.035   5.054   1.782
 2000TIP3    H2 5965   1.075   5.197   1.753
 2001TIP3   OH2 5966   3.148   2.466   3.655
 2001TIP3    H1 5967   3.099   2.532   3.607
 2001TIP3    H2 5968   3.206   2.516   3.713
 2002TIP3   OH2 5969   4.461   1.496   1.001
 2002TIP3    H1 5970   4.417   1.413   0.983
 2002TIP3    H2 5971   4.453   1.545   0.919
 2003TIP3   OH2 5972   4.354   0.518   4.136
 2003TIP3    H1 5973   4.311   0.473   4.209
 2003TIP3    H2 5974   4.428   0.461   4.113
 2004TIP3   OH2 5975   3.647   2.375   2.110
 2004TIP3    H1 5976   3.612   2.328   2.185
 2004TIP3    H2 5977   3.661   2.308   2.043
 2005TIP3   OH2 5978   1.975   1.832   2.951
 2005TIP3    H1 5979   1.930   1.854   2.870
 2005TIP3    H2 5980   1.954   1.740   2.967
 2006TIP3   OH2 5981   6.868   6.233   2.661
 2006TIP3    H1 5982   6.845   6.165   2.725
 2006TIP3    H2 5983   6.872   6.314   2.712
 2007TIP3   OH2 5984   0.677   2.587   4.782
 2007TIP3    H1 5985   0.679   2.643   4.704
 2007TIP3    H2 5986   0.622   2.513   4.757
 2008TIP3   OH2 5987   6.789   4.915   4.084
 2008TIP3    H1 5988   6.713   4.932   4.028
 2008TIP3    H2 5989   6.861   4.961   4.040
 2009TIP3   OH2 5990   4.657   5.610   3.391
 2009TIP3    H1 5991   4.574   5.658   3.389
 2009TIP3    H2 5992   4.633   5.523   3.423
 2010TIP3   OH2 5993   1.702   6.735   5.617
 2010TIP3    H1 5994   1.746   6.718   5.534
 2010TIP3    H2 5995   1.702   6.651   5.663
 2011TIP3   OH2 5996   3.574   5.370   3.887
 2011TIP3    H1 5997   3.556   5.441   3.948
 2011TIP3    H2 5998   3.492   5.358   3.839
 2012TIP3   OH2 5999   5.661   6.320   4.942
 2012TIP3    H1 6000   5.652   6.342   4.850
 2012TIP3    H2 6001   5.583   6.268   4.962
 2013TIP3   OH2 6002   1.904   3.647   0.060
 2013TIP3    H1 6003   1.916   3.620  -0.031
 2013TIP3    H2 6004   1.991   3.635   0.100
 2014TIP3   OH2 6005   3.556   0.120   1.361
 2014TIP3    H1 6006   3.473   0.162   1.339
 2014TIP3    H2 6007   3.555   0.112   1.456
 2015TIP3   OH2 6008   6.997   6.433   1.224
 2015TIP3    H1 6009   6.979   6.513   1.175
 2015TIP3    H2 6010   6.919   6.379   1.211
 2016TIP3   OH2 6011   4.012   1.532   2.176
 2016TIP3    H1 6012   4.034   1.593   2.105
 2016TIP3    H2 6013   4.075   1.553   2.245
 2017TIP3   OH2 6014   5.813   1.314   2.409
 2017TIP3    H1 6015   5.897   1.272   2.392
 2017TIP3    H2 6016   5.780   1.337   2.322
 2018TIP3   OH2 6017   0.902   3.837   1.477
 2018TIP3    H1 6018   0.888   3.759   1.424
 2018TIP3    H2 6019   0.857   3.907   1.430
 2019TIP3   OH2 6020   6.907   1.990   5.595
 2019TIP3    H1 6021   7.001   1.999   5.580
 2019TIP3    H2 6022   6.900   1.928   5.668
 2020TIP3   OH2 6023   2.068   3.935   2.771
 2020TIP3    H1 6024   2.102   3.963   2.856
 2020TIP3    H2 6025   2.109   3.994   2.708
 2021TIP3   OH2 6026   6.812   3.296   1.756
 2021TIP3    H1 6027   6.737   3.294   1.816
 2021TIP3    H2 6028   6.882   3.336   1.808
 2022TIP3   OH2 6029   3.373   2.593   1.936
 2022TIP3    H1 6030   3.464   2.578   1.911
 2022TIP3    H2 6031   3.337   2.505   1.950
 2023TIP3   OH2 6032   5.909   0.704   1.153
 2023TIP3    H1 6033   5.913   0.652   1.234
 2023TIP3    H2 6034   5.832   0.672   1.108
 2024TIP3   OH2 6035   3.010   4.433   0.871
 2024TIP3    H1 6036   2.961   4.411   0.950
 2024TIP3    H2 6037   2.948   4.416   0.799
 2025TIP3   OH2 6038   2.996   5.680   0.520
 2025TIP3    H1 6039   3.062   5.750   0.525
 2025TIP3    H2 6040   3.043   5.605   0.486
 2026TIP3   OH2 6041   4.688   6.045   3.049
 2026TIP3    H1 6042   4.671   6.099   3.127
 2026TIP3    H2 6043   4.667   5.956   3.077
 2027TIP3   OH2 6044   2.412   3.671   1.913
 2027TIP3    H1 6045   2.475   3.734   1.948
 2027TIP3    H2 6046   2.461   3.622   1.847
 2028TIP3   OH2 6047   7.008   6.188   4.510
 2028TIP3    H1 6048   6.972   6.159   4.593
 2028TIP3    H2 6049   6.981   6.122   4.446
 2029TIP3   OH2 6050   2.089   1.862   5.498
 2029TIP3    H1 6051   2.171   1.872   5.545
 2029TIP3    H2 6052   2.105   1.792   5.435
 2030TIP3   OH2 6053   6.167   4.642   5.479
 2030TIP3    H1 6054   6.120   4.666   5.399
 2030TIP3    H2 6055   6.149   4.549   5.491
 2031TIP3   OH2 6056   6.884   1.242   2.776
 2031TIP3    H1 6057   6.854   1.333   2.779
 2031TIP3    H2 6058   6.973   1.247   2.741
 2032TIP3   OH2 6059   5.757   3.765   1.567
 2032TIP3    H1 6060   5.709   3.688   1.537
 2032TIP3    H2 6061   5.823   3.730   1.628
 2033TIP3   OH2 6062   0.242   2.981   3.497
 2033TIP3    H1 6063   0.184   2.949   3.428
 2033TIP3    H2 6064   0.193   3.051   3.540
 2034TIP3   OH2 6065   1.966   3.479   4.526
 2034TIP3    H1 6066   2.039   3.534   4.497
 2034TIP3    H2 6067   2.007   3.410   4.579
 2035TIP3   OH2 6068   0.396   1.535   5.495
 2035TIP3    H1 6069   0.344   1.611   5.469
 2035TIP3    H2 6070   0.375   1.522   5.587
 2036TIP3   OH2 6071   6.738   6.751   3.283
 2036TIP3    H1 6072   6.700   6.664   3.283
 2036TIP3    H2 6073   6.806   6.748   3.215
 2037TIP3   OH2 6074   1.393   2.894   5.442
 2037TIP3    H1 6075   1.370   2.900   5.349
 2037TIP3    H2 6076   1.370   2.980   5.477
 2038TIP3   OH2 6077   5.369   0.446   5.034
 2038TIP3    H1 6078   5.346   0.485   4.950
 2038TIP3    H2 6079   5.326   0.501   5.100
 2039TIP3   OH2 6080   2.784   3.734   0.527
 2039TIP3    H1 6081   2.732   3.765   0.602
 2039TIP3    H2 6082   2.719   3.699   0.466
 2040TIP3   OH2 6083   7.115   1.492   1.865
 2040TIP3    H1 6084   7.041   1.432   1.867
 2040TIP3    H2 6085   7.165   1.466   1.787
 2041TIP3   OH2 6086   2.354   6.535   0.267
 2041TIP3    H1 6087   2.284   6.596   0.290
 2041TIP3    H2 6088   2.309   6.455   0.243
 2042TIP3   OH2 6089   4.126   0.257   1.626
 2042TIP3    H1 6090   4.136   0.352   1.637
 2042TIP3    H2 6091   4.206   0.220   1.662
 2043TIP3   OH2 6092   0.496   3.008   4.257
 2043TIP3    H1 6093   0.406   3.038   4.269
 2043TIP3    H2 6094   0.496   2.919   4.293
 2044TIP3   OH2 6095   2.706   0.665   1.974
 2044TIP3    H1 6096   2.763   0.740   1.992
 2044TIP3    H2 6097   2.632   0.702   1.926
 2045TIP3   OH2 6098   0.679   3.823   1.039
 2045TIP3    H1 6099   0.593   3.856   1.064
 2045TIP3    H2 6100   0.707   3.771   1.114
 2046TIP3   OH2 6101   2.374   3.041   5.556
 2046TIP3    H1 6102   2.318   3.104   5.511
 2046TIP3    H2 6103   2.325   3.016   5.634
 2047TIP3   OH2 6104   7.194   6.323   4.215
 2047TIP3    H1 6105   7.125   6.290   4.273
 2047TIP3    H2 6106   7.165   6.412   4.191
 2048TIP3   OH2 6107   2.049   1.385   3.979
 2048TIP3    H1 6108   2.004   1.397   3.896
 2048TIP3    H2 6109   1.980   1.366   4.042
 2049TIP3   OH2 6110   1.463   5.004   5.030
 2049TIP3    H1 6111   1.386   5.030   5.081
 2049TIP3    H2 6112   1.485   4.917   5.062
 2050TIP3   OH2 6113   4.781   0.426   0.532
 2050TIP3    H1 6114   4.864   0.448   0.574
 2050TIP3    H2 6115   4.805   0.393   0.445
 2051TIP3   OH2 6116   1.308   0.665   3.843
 2051TIP3    H1 6117   1.276   0.606   3.911
 2051TIP3    H2 6118   1.256   0.745   3.854
 2052TIP3   OH2 6119   4.832   6.073   4.515
 2052TIP3    H1 6120   4.811   5.981   4.500
 2052TIP3    H2 6121   4.866   6.103   4.431
 2053TIP3   OH2 6122   1.955   0.165   2.730
 2053TIP3    H1 6123   1.862   0.187   2.732
 2053TIP3    H2 6124   2.000   0.246   2.753
 2054TIP3   OH2 6125   4.559   0.079   3.277
 2054TIP3    H1 6126   4.525   0.042   3.195
 2054TIP3    H2 6127   4.555   0.174   3.264
 2055TIP3   OH2 6128   0.640   1.616   3.052
 2055TIP3    H1 6129   0.640   1.641   3.145
 2055TIP3    H2 6130   0.727   1.640   3.021
 2056TIP3   OH2 6131   1.980   5.236   3.427
 2056TIP3    H1 6132   2.074   5.246   3.412
 2056TIP3    H2 6133   1.940   5.302   3.371
 2057TIP3   OH2 6134   5.575   6.210   1.156
 2057TIP3    H1 6135   5.482   6.217   1.175
 2057TIP3    H2 6136   5.604   6.300   1.144
 2058TIP3   OH2 6137   5.511   6.323   5.245
 2058TIP3    H1 6138   5.568   6.260   5.289
 2058TIP3    H2 6139   5.532   6.407   5.286
 2059TIP3   OH2 6140   3.165   1.545   4.486
 2059TIP3    H1 6141   3.161   1.538   4.391
 2059TIP3    H2 6142   3.152   1.455   4.517
 2060TIP3   OH2 6143   2.891   3.933   3.194
 2060TIP3    H1 6144   2.809   3.961   3.152
 2060TIP3    H2 6145   2.863   3.894   3.277
 2061TIP3   OH2 6146   1.023   6.589   0.759
 2061TIP3    H1 6147   1.014   6.602   0.853
 2061TIP3    H2 6148   1.063   6.503   0.750
 2062TIP3   OH2 6149   2.632   5.391   1.397
 2062TIP3    H1 6150   2.579   5.329   1.447
 2062TIP3    H2 6151   2.569   5.451   1.358
 2063TIP3   OH2 6152   0.107   4.252   5.547
 2063TIP3    H1 6153   0.094   4.330   5.601
 2063TIP3    H2 6154   0.023   4.206   5.551
 2064TIP3   OH2 6155   5.583   3.652   3.325
 2064TIP3    H1 6156   5.613   3.732   3.369
 2064TIP3    H2 6157   5.663   3.609   3.295
 2065TIP3   OH2 6158   6.573   1.125   5.033
 2065TIP3    H1 6159   6.489   1.140   5.077
 2065TIP3    H2 6160   6.614   1.054   5.082
 2066TIP3   OH2 6161   3.887   3.432   4.640
 2066TIP3    H1 6162   3.865   3.457   4.730
 2066TIP3    H2 6163   3.953   3.363   4.650
 2067TIP3   OH2 6164   6.170   0.988   2.622
 2067TIP3    H1 6165   6.148   1.033   2.703
 2067TIP3    H2 6166   6.219   0.910   2.650
 2068TIP3   OH2 6167   1.913   4.156   1.673
 2068TIP3    H1 6168   1.974   4.135   1.743
 2068TIP3    H2 6169   1.969   4.165   1.595
 2069TIP3   OH2 6170   1.143   2.363   2.241
 2069TIP3    H1 6171   1.085   2.312   2.185
 2069TIP3    H2 6172   1.231   2.346   2.208
 2070TIP3   OH2 6173   1.779   2.363   0.088
 2070TIP3    H1 6174   1.848   2.347   0.153
 2070TIP3    H2 6175   1.824   2.358   0.004
 2071TIP3   OH2 6176   6.337   3.544   1.581
 2071TIP3    H1 6177   6.304   3.495   1.506
 2071TIP3    H2 6178   6.430   3.522   1.585
 2072TIP3   OH2 6179   6.438   5.072   0.859
 2072TIP3    H1 6180   6.465   5.106   0.945
 2072TIP3    H2 6181   6.476   4.985   0.855
 2073TIP3   OH2 6182   5.951   1.751   3.885
 2073TIP3    H1 6183   6.031   1.802   3.878
 2073TIP3    H2 6184   5.895   1.784   3.815
 2074TIP3   OH2 6185   2.335   0.768   3.511
 2074TIP3    H1 6186   2.329   0.768   3.416
 2074TIP3    H2 6187   2.320   0.859   3.536
 2075TIP3   OH2 6188   1.134   3.595   1.655
 2075TIP3    H1 6189   1.168   3.533   1.719
 2075TIP3    H2 6190   1.201   3.664   1.650
 2076TIP3   OH2 6191   1.223   2.606   5.411
 2076TIP3    H1 6192   1.130   2.605   5.388
 2076TIP3    H2 6193   1.265   2.656   5.340
 2077TIP3   OH2 6194   5.766   5.448   2.944
 2077TIP3    H1 6195   5.736   5.489   3.026
 2077TIP3    H2 6196   5.829   5.381   2.973
 2078TIP3   OH2 6197   5.709   3.916   4.465
 2078TIP3    H1 6198   5.696   3.951   4.377
 2078TIP3    H2 6199   5.790   3.957   4.497
 2079TIP3   OH2 6200   3.422   2.147   1.061
 2079TIP3    H1 6201   3.448   2.063   1.099
 2079TIP3    H2 6202   3.329   2.135   1.039
 2080TIP3   OH2 6203   4.566   4.512   0.344
 2080TIP3    H1 6204   4.523   4.574   0.402
 2080TIP3    H2 6205   4.651   4.495   0.385
 2081TIP3   OH2 6206   4.015   0.963   0.142
 2081TIP3    H1 6207   3.930   1.002   0.162
 2081TIP3    H2 6208   4.065   1.036   0.105
 2082TIP3   OH2 6209   5.874   6.589   4.672
 2082TIP3    H1 6210   5.905   6.573   4.761
 2082TIP3    H2 6211   5.815   6.515   4.653
 2083TIP3   OH2 6212   3.903   0.383   4.756
 2083TIP3    H1 6213   3.907   0.407   4.849
 2083TIP3    H2 6214   3.943   0.458   4.711
 2084TIP3   OH2 6215   4.031   3.335   2.558
 2084TIP3    H1 6216   4.123   3.310   2.570
 2084TIP3    H2 6217   4.011   3.390   2.634
 2085TIP3   OH2 6218   4.116   3.037   0.705
 2085TIP3    H1 6219   4.130   2.949   0.739
 2085TIP3    H2 6220   4.064   3.024   0.625
 2086TIP3   OH2 6221   5.787   2.609   0.374
 2086TIP3    H1 6222   5.735   2.580   0.448
 2086TIP3    H2 6223   5.855   2.664   0.412
 2087TIP3   OH2 6224   5.576   6.554   2.554
 2087TIP3    H1 6225   5.606   6.636   2.516
 2087TIP3    H2 6226   5.481   6.560   2.556
 2088TIP3   OH2 6227   4.470   4.921   0.886
 2088TIP3    H1 6228   4.542   4.895   0.829
 2088TIP3    H2 6229   4.406   4.962   0.828
 2089TIP3   OH2 6230   2.024   2.185   5.748
 2089TIP3    H1 6231   1.985   2.232   5.675
 2089TIP3    H2 6232   1.974   2.103   5.752
 2090TIP3   OH2 6233   0.578   0.499   5.753
 2090TIP3    H1 6234   0.644   0.451   5.803
 2090TIP3    H2 6235   0.526   0.544   5.820
 2091TIP3   OH2 6236   5.920   4.601   1.210
 2091TIP3    H1 6237   5.905   4.566   1.298
 2091TIP3    H2 6238   5.969   4.532   1.165
 2092TIP3   OH2 6239   5.560   1.267   1.835
 2092TIP3    H1 6240   5.617   1.198   1.867
 2092TIP3    H2 6241   5.473   1.228   1.833
 2093TIP3   OH2 6242   0.117   4.352   4.081
 2093TIP3    H1 6243   0.023   4.356   4.064
 2093TIP3    H2 6244   0.152   4.296   4.011
 2094TIP3   OH2 6245   4.744   4.194   0.956
 2094TIP3    H1 6246   4.804   4.267   0.974
 2094TIP3    H2 6247   4.661   4.223   0.994
 2095TIP3   OH2 6248   1.653   0.390   5.721
 2095TIP3    H1 6249   1.677   0.336   5.646
 2095TIP3    H2 6250   1.732   0.441   5.740
 2096TIP3   OH2 6251   3.221   5.410   3.206
 2096TIP3    H1 6252   3.163   5.433   3.134
 2096TIP3    H2 6253   3.193   5.322   3.233
 2097TIP3   OH2 6254   4.092   5.323   3.874
 2097TIP3    H1 6255   4.128   5.411   3.863
 2097TIP3    H2 6256   4.002   5.329   3.841
 2098TIP3   OH2 6257   2.154   0.248   4.471
 2098TIP3    H1 6258   2.243   0.215   4.463
 2098TIP3    H2 6259   2.116   0.197   4.542
 2099TIP3   OH2 6260   3.684   2.510   2.697
 2099TIP3    H1 6261   3.606   2.509   2.643
 2099TIP3    H2 6262   3.695   2.601   2.724
 2100TIP3   OH2 6263   3.660   6.112   4.860
 2100TIP3    H1 6264   3.695   6.068   4.782
 2100TIP3    H2 6265   3.733   6.165   4.892
 2101TIP3   OH2 6266   4.861   3.978   0.855
 2101TIP3    H1 6267   4.917   4.034   0.801
 2101TIP3    H2 6268   4.833   4.034   0.927
 2102TIP3   OH2 6269   6.326   3.671   4.138
 2102TIP3    H1 6270   6.364   3.743   4.190
 2102TIP3    H2 6271   6.393   3.653   4.072
 2103TIP3   OH2 6272   4.900   4.549   0.265
 2103TIP3    H1 6273   4.819   4.498   0.275
 2103TIP3    H2 6274   4.897   4.614   0.335
 2104TIP3   OH2 6275   4.452   6.134   0.869
 2104TIP3    H1 6276   4.383   6.131   0.803
 2104TIP3    H2 6277   4.459   6.227   0.892
 2105TIP3   OH2 6278   5.363   3.688   4.269
 2105TIP3    H1 6279   5.360   3.601   4.309
 2105TIP3    H2 6280   5.452   3.719   4.286
 2106TIP3   OH2 6281   0.851   2.659   5.663
 2106TIP3    H1 6282   0.899   2.733   5.626
 2106TIP3    H2 6283   0.881   2.583   5.611
 2107TIP3   OH2 6284   5.554   0.566   1.446
 2107TIP3    H1 6285   5.643   0.531   1.450
 2107TIP3    H2 6286   5.544   0.617   1.526
 2108TIP3   OH2 6287   1.761   2.444   1.628
 2108TIP3    H1 6288   1.716   2.408   1.704
 2108TIP3    H2 6289   1.838   2.487   1.664
 2109TIP3   OH2 6290   2.126   0.157   5.094
 2109TIP3    H1 6291   2.130   0.175   5.000
 2109TIP3    H2 6292   2.152   0.065   5.102
 2110TIP3   OH2 6293   1.783   5.637   4.589
 2110TIP3    H1 6294   1.798   5.697   4.661
 2110TIP3    H2 6295   1.867   5.632   4.543
 2111TIP3   OH2 6296   3.273   0.336   1.044
 2111TIP3    H1 6297   3.192   0.373   1.008
 2111TIP3    H2 6298   3.343   0.379   0.995
 2112TIP3   OH2 6299   0.438   5.336   4.464
 2112TIP3    H1 6300   0.367   5.343   4.401
 2112TIP3    H2 6301   0.506   5.286   4.419
 2113TIP3   OH2 6302   1.677   2.214   0.623
 2113TIP3    H1 6303   1.653   2.128   0.656
 2113TIP3    H2 6304   1.690   2.201   0.529
 2114TIP3   OH2 6305   5.386   1.957   2.923
 2114TIP3    H1 6306   5.294   1.982   2.919
 2114TIP3    H2 6307   5.421   2.007   2.996
 2115TIP3   OH2 6308   7.105   5.261   5.398
 2115TIP3    H1 6309   7.112   5.328   5.331
 2115TIP3    H2 6310   7.174   5.198   5.378
 2116TIP3   OH2 6311   1.177   4.544   2.394
 2116TIP3    H1 6312   1.137   4.458   2.379
 2116TIP3    H2 6313   1.197   4.545   2.487
 2117TIP3   OH2 6314   6.050   0.169   1.152
 2117TIP3    H1 6315   6.086   0.216   1.077
 2117TIP3    H2 6316   6.092   0.209   1.228
 2118TIP3   OH2 6317   2.660   0.137   4.969
 2118TIP3    H1 6318   2.578   0.172   5.003
 2118TIP3    H2 6319   2.711   0.214   4.944
 2119TIP3   OH2 6320   2.182   1.761   0.877
 2119TIP3    H1 6321   2.201   1.851   0.849
 2119TIP3    H2 6322   2.260   1.734   0.926
 2120TIP3   OH2 6323   0.855   6.021   2.991
 2120TIP3    H1 6324   0.927   6.080   2.967
 2120TIP3    H2 6325   0.898   5.947   3.034
 2121TIP3   OH2 6326   1.007   5.373   2.206
 2121TIP3    H1 6327   1.032   5.318   2.132
 2121TIP3    H2 6328   1.023   5.319   2.283
 2122TIP3   OH2 6329   4.879   3.765   2.463
 2122TIP3    H1 6330   4.871   3.724   2.377
 2122TIP3    H2 6331   4.935   3.840   2.450
 2123TIP3   OH2 6332   2.938   6.136   4.894
 2123TIP3    H1 6333   2.903   6.196   4.827
 2123TIP3    H2 6334   3.019   6.177   4.923
 2124TIP3   OH2 6335   1.744   5.398   5.186
 2124TIP3    H1 6336   1.815   5.335   5.174
 2124TIP3    H2 6337   1.672   5.346   5.223
 2125TIP3   OH2 6338   3.787   2.188   2.465
 2125TIP3    H1 6339   3.789   2.129   2.390
 2125TIP3    H2 6340   3.720   2.254   2.442
 2126TIP3   OH2 6341   4.536   5.804   4.852
 2126TIP3    H1 6342   4.569   5.862   4.783
 2126TIP3    H2 6343   4.576   5.838   4.932
 2127TIP3   OH2 6344   2.809   6.579   0.028
 2127TIP3    H1 6345   2.820   6.667  -0.008
 2127TIP3    H2 6346   2.715   6.563   0.022
 2128TIP3   OH2 6347   3.116   0.858   3.276
 2128TIP3    H1 6348   3.136   0.898   3.361
 2128TIP3    H2 6349   3.120   0.764   3.291
 2129TIP3   OH2 6350   5.089   4.435   0.595
 2129TIP3    H1 6351   5.068   4.506   0.655
 2129TIP3    H2 6352   5.181   4.415   0.612
 2130TIP3   OH2 6353   7.134   3.017   5.436
 2130TIP3    H1 6354   7.156   2.926   5.417
 2130TIP3    H2 6355   7.194   3.068   5.381
 2131TIP3   OH2 6356   5.614   0.469   2.026
 2131TIP3    H1 6357   5.542   0.408   2.014
 2131TIP3    H2 6358   5.582   0.532   2.091
 2132TIP3   OH2 6359   2.836   6.014   1.955
 2132TIP3    H1 6360   2.846   6.055   1.868
 2132TIP3    H2 6361   2.853   5.921   1.940
 2133TIP3   OH2 6362   3.813   1.888   5.654
 2133TIP3    H1 6363   3.746   1.953   5.678
 2133TIP3    H2 6364   3.886   1.906   5.714
 2134TIP3   OH2 6365   5.770   6.410   5.566
 2134TIP3    H1 6366   5.763   6.319   5.537
 2134TIP3    H2 6367   5.864   6.428   5.567
 2135TIP3   OH2 6368   2.713   0.228   2.470
 2135TIP3    H1 6369   2.634   0.278   2.490
 2135TIP3    H2 6370   2.743   0.197   2.555
 2136TIP3   OH2 6371   4.494   1.813   3.077
 2136TIP3    H1 6372   4.575   1.763   3.064
 2136TIP3    H2 6373   4.432   1.774   3.015
 2137TIP3   OH2 6374   4.159   3.468   3.364
 2137TIP3    H1 6375   4.219   3.539   3.386
 2137TIP3    H2 6376   4.186   3.440   3.277
 2138TIP3   OH2 6377   5.468   2.356   1.860
 2138TIP3    H1 6378   5.421   2.403   1.791
 2138TIP3    H2 6379   5.481   2.421   1.928
 2139TIP3   OH2 6380   5.008   4.639   2.402
 2139TIP3    H1 6381   5.007   4.698   2.326
 2139TIP3    H2 6382   5.052   4.560   2.371
 2140TIP3   OH2 6383   4.233   6.642   2.109
 2140TIP3    H1 6384   4.142   6.620   2.087
 2140TIP3    H2 6385   4.278   6.646   2.025
 2141TIP3   OH2 6386   4.594   4.256   1.477
 2141TIP3    H1 6387   4.592   4.210   1.561
 2141TIP3    H2 6388   4.545   4.337   1.493
 2142TIP3   OH2 6389   2.954   3.489   0.801
 2142TIP3    H1 6390   2.925   3.482   0.710
 2142TIP3    H2 6391   2.883   3.450   0.852
 2143TIP3   OH2 6392   5.092   4.534   3.808
 2143TIP3    H1 6393   5.051   4.451   3.830
 2143TIP3    H2 6394   5.166   4.510   3.753
 2144TIP3   OH2 6395   0.892   4.491   2.599
 2144TIP3    H1 6396   0.921   4.554   2.534
 2144TIP3    H2 6397   0.951   4.504   2.673
 2145TIP3   OH2 6398   6.943   5.421   2.853
 2145TIP3    H1 6399   6.905   5.414   2.765
 2145TIP3    H2 6400   7.028   5.462   2.839
 2146TIP3   OH2 6401   3.234   1.357   1.190
 2146TIP3    H1 6402   3.193   1.327   1.109
 2146TIP3    H2 6403   3.169   1.415   1.230
 2147TIP3   OH2 6404   3.391   1.460   0.051
 2147TIP3    H1 6405   3.452   1.492   0.118
 2147TIP3    H2 6406   3.346   1.538   0.020
 2148TIP3   OH2 6407   5.798   6.214   4.148
 2148TIP3    H1 6408   5.747   6.204   4.068
 2148TIP3    H2 6409   5.827   6.125   4.169
 2149TIP3   OH2 6410   6.459   2.554   4.150
 2149TIP3    H1 6411   6.553   2.551   4.166
 2149TIP3    H2 6412   6.448   2.508   4.067
 2150TIP3   OH2 6413   1.640   4.015   5.694
 2150TIP3    H1 6414   1.613   3.926   5.714
 2150TIP3    H2 6415   1.583   4.041   5.621
 2151TIP3   OH2 6416   3.676   4.399   3.122
 2151TIP3    H1 6417   3.712   4.420   3.208
 2151TIP3    H2 6418   3.655   4.484   3.084
 2152TIP3   OH2 6419   3.661   0.559   0.792
 2152TIP3    H1 6420   3.654   0.644   0.749
 2152TIP3    H2 6421   3.742   0.563   0.841
 2153TIP3   OH2 6422   2.311   1.277   1.075
 2153TIP3    H1 6423   2.235   1.325   1.109
 2153TIP3    H2 6424   2.315   1.198   1.129
 2154TIP3   OH2 6425   4.903   3.935   3.308
 2154TIP3    H1 6426   4.936   3.907   3.223
 2154TIP3    H2 6427   4.851   3.862   3.339
 2155TIP3   OH2 6428   5.460   5.236   3.905
 2155TIP3    H1 6429   5.549   5.206   3.922
 2155TIP3    H2 6430   5.437   5.290   3.981
 2156TIP3   OH2 6431   5.171   0.078   4.389
 2156TIP3    H1 6432   5.144   0.043   4.474
 2156TIP3    H2 6433   5.226   0.153   4.411
 2157TIP3   OH2 6434   1.710   0.573   0.366
 2157TIP3    H1 6435   1.690   0.504   0.302
 2157TIP3    H2 6436   1.641   0.638   0.353
 2158TIP3   OH2 6437   1.435   1.072   3.823
 2158TIP3    H1 6438   1.516   1.023   3.808
 2158TIP3    H2 6439   1.425   1.125   3.744
 2159TIP3   OH2 6440   4.022   0.701   3.003
 2159TIP3    H1 6441   3.994   0.717   2.913
 2159TIP3    H2 6442   3.941   0.679   3.050
 2160TIP3   OH2 6443   1.896   1.937   5.671
 2160TIP3    H1 6444   1.983   1.911   5.639
 2160TIP3    H2 6445   1.843   1.858   5.661
 2161TIP3   OH2 6446   2.446   1.314   2.459
 2161TIP3    H1 6447   2.376   1.277   2.405
 2161TIP3    H2 6448   2.413   1.399   2.487
 2162TIP3   OH2 6449   3.496   3.196   5.165
 2162TIP3    H1 6450   3.498   3.171   5.257
 2162TIP3    H2 6451   3.410   3.167   5.134
 2163TIP3   OH2 6452   3.872   5.744   0.625
 2163TIP3    H1 6453   3.926   5.665   0.616
 2163TIP3    H2 6454   3.822   5.748   0.543
 2164TIP3   OH2 6455   5.625   6.536   0.327
 2164TIP3    H1 6456   5.667   6.527   0.241
 2164TIP3    H2 6457   5.547   6.482   0.321
 2165TIP3   OH2 6458   4.981   3.553   3.003
 2165TIP3    H1 6459   4.982   3.543   3.098
 2165TIP3    H2 6460   4.890   3.535   2.979
 2166TIP3   OH2 6461   1.905   2.276   2.361
 2166TIP3    H1 6462   1.996   2.247   2.360
 2166TIP3    H2 6463   1.899   2.332   2.438
 2167TIP3   OH2 6464   5.797   3.646   0.236
 2167TIP3    H1 6465   5.864   3.659   0.303
 2167TIP3    H2 6466   5.778   3.552   0.240
 2168TIP3   OH2 6467   5.334   1.145   1.433
 2168TIP3    H1 6468   5.412   1.162   1.380
 2168TIP3    H2 6469   5.367   1.098   1.509
 2169TIP3   OH2 6470   2.913   3.524   1.088
 2169TIP3    H1 6471   2.970   3.593   1.122
 2169TIP3    H2 6472   2.835   3.528   1.145
 2170TIP3   OH2 6473   0.398   3.009   1.437
 2170TIP3    H1 6474   0.371   3.101   1.432
 2170TIP3    H2 6475   0.317   2.960   1.450
 2171TIP3   OH2 6476   2.504   1.913   4.692
 2171TIP3    H1 6477   2.538   1.975   4.627
 2171TIP3    H2 6478   2.535   1.947   4.776
 2172TIP3   OH2 6479   4.009   1.786   3.141
 2172TIP3    H1 6480   3.969   1.865   3.104
 2172TIP3    H2 6481   3.948   1.716   3.121
 2173TIP3   OH2 6482   1.068   5.969   5.178
 2173TIP3    H1 6483   0.993   5.924   5.217
 2173TIP3    H2 6484   1.121   5.998   5.253
 2174TIP3   OH2 6485   1.601   4.600   0.931
 2174TIP3    H1 6486   1.638   4.662   0.994
 2174TIP3    H2 6487   1.557   4.655   0.867
 2175TIP3   OH2 6488   0.638   2.398   4.590
 2175TIP3    H1 6489   0.676   2.435   4.511
 2175TIP3    H2 6490   0.600   2.314   4.562
 2176TIP3   OH2 6491   1.862   0.082   5.159
 2176TIP3    H1 6492   1.915   0.153   5.123
 2176TIP3    H2 6493   1.891   0.074   5.249
 2177TIP3   OH2 6494   6.795   1.952   1.228
 2177TIP3    H1 6495   6.727   1.891   1.198
 2177TIP3    H2 6496   6.820   2.001   1.149
 2178TIP3   OH2 6497   2.478   5.924   3.214
 2178TIP3    H1 6498   2.450   6.009   3.248
 2178TIP3    H2 6499   2.429   5.861   3.266
 2179TIP3   OH2 6500   4.598   2.511   5.338
 2179TIP3    H1 6501   4.516   2.483   5.379
 2179TIP3    H2 6502   4.666   2.466   5.389
 2180TIP3   OH2 6503   2.756   1.153   3.842
 2180TIP3    H1 6504   2.847   1.182   3.835
 2180TIP3    H2 6505   2.733   1.121   3.755
 2181TIP3   OH2 6506   3.049   6.438   2.750
 2181TIP3    H1 6507   3.095   6.451   2.666
 2181TIP3    H2 6508   3.016   6.349   2.745
 2182TIP3   OH2 6509   5.088   1.152   4.135
 2182TIP3    H1 6510   5.119   1.178   4.048
 2182TIP3    H2 6511   4.998   1.183   4.139
 2183TIP3   OH2 6512   2.644   0.397   3.717
 2183TIP3    H1 6513   2.571   0.451   3.687
 2183TIP3    H2 6514   2.626   0.310   3.682
 2184TIP3   OH2 6515   1.620   2.887   3.225
 2184TIP3    H1 6516   1.531   2.896   3.192
 2184TIP3    H2 6517   1.672   2.943   3.168
 2185TIP3   OH2 6518   0.515   1.961   4.630
 2185TIP3    H1 6519   0.507   1.870   4.603
 2185TIP3    H2 6520   0.425   1.995   4.627
 2186TIP3   OH2 6521   5.784   4.009   3.668
 2186TIP3    H1 6522   5.710   3.999   3.727
 2186TIP3    H2 6523   5.762   3.955   3.592
 2187TIP3   OH2 6524   3.334   1.734   2.455
 2187TIP3    H1 6525   3.415   1.686   2.469
 2187TIP3    H2 6526   3.295   1.692   2.378
 2188TIP3   OH2 6527   2.420   6.279   4.303
 2188TIP3    H1 6528   2.466   6.234   4.233
 2188TIP3    H2 6529   2.350   6.218   4.328
 2189TIP3   OH2 6530   0.722   1.407   5.667
 2189TIP3    H1 6531   0.720   1.363   5.752
 2189TIP3    H2 6532   0.809   1.446   5.663
 2190TIP3   OH2 6533   7.096   3.898   2.794
 2190TIP3    H1 6534   7.027   3.831   2.795
 2190TIP3    H2 6535   7.056   3.973   2.837
 2191TIP3   OH2 6536   3.719   0.415   4.040
 2191TIP3    H1 6537   3.760   0.463   3.969
 2191TIP3    H2 6538   3.690   0.333   4.000
 2192TIP3   OH2 6539   5.443   5.295   3.636
 2192TIP3    H1 6540   5.445   5.271   3.729
 2192TIP3    H2 6541   5.360   5.343   3.626
 2193TIP3   OH2 6542   5.691   2.420   1.154
 2193TIP3    H1 6543   5.633   2.362   1.204
 2193TIP3    H2 6544   5.668   2.404   1.063
 2194TIP3   OH2 6545   4.496   0.324   5.157
 2194TIP3    H1 6546   4.451   0.246   5.124
 2194TIP3    H2 6547   4.544   0.358   5.082
 2195TIP3   OH2 6548   0.476   5.261   0.167
 2195TIP3    H1 6549   0.449   5.353   0.159
 2195TIP3    H2 6550   0.554   5.255   0.111
 2196TIP3   OH2 6551   0.987   2.948   3.281
 2196TIP3    H1 6552   0.969   2.895   3.203
 2196TIP3    H2 6553   1.082   2.963   3.279
 2197TIP3   OH2 6554   3.797   1.960   3.050
 2197TIP3    H1 6555   3.779   2.026   3.116
 2197TIP3    H2 6556   3.711   1.940   3.012
 2198TIP3   OH2 6557   6.191   3.931   0.848
 2198TIP3    H1 6558   6.232   3.860   0.898
 2198TIP3    H2 6559   6.168   3.997   0.914
 2199TIP3   OH2 6560   1.122   0.315   3.449
 2199TIP3    H1 6561   1.187   0.349   3.510
 2199TIP3    H2 6562   1.127   0.373   3.373
 2200TIP3   OH2 6563   0.951   4.120   5.740
 2200TIP3    H1 6564   0.932   4.068   5.662
 2200TIP3    H2 6565   0.956   4.210   5.708
 2201TIP3   OH2 6566   0.548   4.107   2.359
 2201TIP3    H1 6567   0.472   4.162   2.381
 2201TIP3    H2 6568   0.533   4.026   2.406
 2202TIP3   OH2 6569   2.634   1.066   4.505
 2202TIP3    H1 6570   2.653   1.022   4.588
 2202TIP3    H2 6571   2.719   1.071   4.461
 2203TIP3   OH2 6572   4.154   5.320   3.054
 2203TIP3    H1 6573   4.065   5.309   3.089
 2203TIP3    H2 6574   4.143   5.316   2.959
 2204TIP3   OH2 6575   5.609   0.921   2.581
 2204TIP3    H1 6576   5.542   0.944   2.646
 2204TIP3    H2 6577   5.691   0.921   2.631
 2205TIP3   OH2 6578   3.324   2.171   0.343
 2205TIP3    H1 6579   3.289   2.212   0.421
 2205TIP3    H2 6580   3.256   2.184   0.276
 2206TIP3   OH2 6581   5.209   1.813   1.857
 2206TIP3    H1 6582   5.210   1.758   1.779
 2206TIP3    H2 6583   5.302   1.824   1.880
 2207TIP3   OH2 6584   0.734   0.145   3.767
 2207TIP3    H1 6585   0.717   0.207   3.837
 2207TIP3    H2 6586   0.827   0.122   3.776
 2208TIP3   OH2 6587   4.610   5.461   2.632
 2208TIP3    H1 6588   4.641   5.370   2.635
 2208TIP3    H2 6589   4.517   5.456   2.654
 2209TIP3   OH2 6590   5.305   3.302   4.106
 2209TIP3    H1 6591   5.225   3.355   4.098
 2209TIP3    H2 6592   5.375   3.365   4.115
 2210TIP3   OH2 6593   7.042   4.105   4.348
 2210TIP3    H1 6594   7.134   4.114   4.325
 2210TIP3    H2 6595   7.032   4.158   4.427
 2211TIP3   OH2 6596   5.269   5.739   5.201
 2211TIP3    H1 6597   5.226   5.654   5.191
 2211TIP3    H2 6598   5.201   5.802   5.179
 2212TIP3   OH2 6599   6.883   0.645   0.062
 2212TIP3    H1 6600   6.895   0.740   0.064
 2212TIP3    H2 6601   6.794   0.633   0.029
 2213TIP3   OH2 6602   5.520   0.684   3.915
 2213TIP3    H1 6603   5.529   0.603   3.866
 2213TIP3    H2 6604   5.426   0.705   3.911
 2214TIP3   OH2 6605   1.941   0.585   3.007
 2214TIP3    H1 6606   1.978   0.596   2.920
 2214TIP3    H2 6607   2.015   0.557   3.061
 2215TIP3   OH2 6608   6.402   2.274   4.324
 2215TIP3    H1 6609   6.433   2.277   4.415
 2215TIP3    H2 6610   6.365   2.361   4.308
 2216TIP3   OH2 6611   0.320   1.972   3.876
 2216TIP3    H1 6612   0.309   2.046   3.816
 2216TIP3    H2 6613   0.413   1.950   3.870
 2217TIP3   OH2 6614   0.373   5.962   1.115
 2217TIP3    H1 6615   0.311   5.889   1.109
 2217TIP3    H2 6616   0.457   5.921   1.135
 2218TIP3   OH2 6617   5.034   3.314   3.704
 2218TIP3    H1 6618   5.100   3.382   3.691
 2218TIP3    H2 6619   5.040   3.293   3.798
 2219TIP3   OH2 6620   1.866   2.069   3.589
 2219TIP3    H1 6621   1.805   2.124   3.540
 2219TIP3    H2 6622   1.948   2.076   3.541
 2220TIP3   OH2 6623   6.680   4.985   5.850
 2220TIP3    H1 6624   6.589   4.953   5.848
 2220TIP3    H2 6625   6.671   5.080   5.856
 2221TIP3   OH2 6626   4.426   3.563   2.296
 2221TIP3    H1 6627   4.408   3.543   2.387
 2221TIP3    H2 6628   4.513   3.603   2.297
 2222TIP3   OH2 6629   1.528   6.310   3.921
 2222TIP3    H1 6630   1.594   6.242   3.935
 2222TIP3    H2 6631   1.567   6.368   3.855
 2223TIP3   OH2 6632   4.415   3.918   3.755
 2223TIP3    H1 6633   4.455   3.928   3.841
 2223TIP3    H2 6634   4.483   3.876   3.701
 2224TIP3   OH2 6635   3.232   0.760   0.378
 2224TIP3    H1 6636   3.138   0.746   0.386
 2224TIP3    H2 6637   3.271   0.674   0.394
 2225TIP3   OH2 6638   0.990   3.682   3.350
 2225TIP3    H1 6639   1.016   3.650   3.264
 2225TIP3    H2 6640   0.959   3.604   3.396
 2226TIP3   OH2 6641   5.962   5.642   1.418
 2226TIP3    H1 6642   6.016   5.650   1.340
 2226TIP3    H2 6643   5.899   5.714   1.411
 2227TIP3   OH2 6644   4.080   5.857   3.719
 2227TIP3    H1 6645   4.143   5.826   3.784
 2227TIP3    H2 6646   4.130   5.861   3.637
 2228TIP3   OH2 6647   4.906   6.239   3.589
 2228TIP3    H1 6648   4.985   6.284   3.621
 2228TIP3    H2 6649   4.918   6.235   3.494
 2229TIP3   OH2 6650   4.198   5.444   2.398
 2229TIP3    H1 6651   4.207   5.467   2.305
 2229TIP3    H2 6652   4.244   5.360   2.406
 2230TIP3   OH2 6653   1.192   5.828   3.441
 2230TIP3    H1 6654   1.228   5.739   3.432
 2230TIP3    H2 6655   1.196   5.846   3.535
 2231TIP3   OH2 6656   5.496   4.382   2.685
 2231TIP3    H1 6657   5.516   4.407   2.775
 2231TIP3    H2 6658   5.452   4.298   2.693
 2232TIP3   OH2 6659   4.743   6.474   3.254
 2232TIP3    H1 6660   4.764   6.489   3.162
 2232TIP3    H2 6661   4.685   6.547   3.277
 2233TIP3   OH2 6662   4.030   5.654   5.684
 2233TIP3    H1 6663   4.113   5.695   5.707
 2233TIP3    H2 6664   4.053   5.584   5.623
 2234TIP3   OH2 6665   5.331   2.939   0.812
 2234TIP3    H1 6666   5.402   2.948   0.876
 2234TIP3    H2 6667   5.375   2.941   0.727
 2235TIP3   OH2 6668   1.654   3.431   1.634
 2235TIP3    H1 6669   1.638   3.508   1.689
 2235TIP3    H2 6670   1.746   3.410   1.649
 2236TIP3   OH2 6671   5.888   1.803   3.606
 2236TIP3    H1 6672   5.944   1.876   3.578
 2236TIP3    H2 6673   5.799   1.834   3.593
 2237TIP3   OH2 6674   2.262   1.234   2.793
 2237TIP3    H1 6675   2.321   1.310   2.800
 2237TIP3    H2 6676   2.320   1.161   2.773
 2238TIP3   OH2 6677   6.137   0.305  -0.001
 2238TIP3    H1 6678   6.147   0.224  -0.052
 2238TIP3    H2 6679   6.112   0.275   0.086
 2239TIP3   OH2 6680   2.025   6.108   0.551
 2239TIP3    H1 6681   2.091   6.071   0.493
 2239TIP3    H2 6682   2.030   6.202   0.537
 2240TIP3   OH2 6683   7.046   5.637   4.288
 2240TIP3    H1 6684   7.085   5.714   4.247
 2240TIP3    H2 6685   6.980   5.607   4.226
 2241TIP3   OH2 6686   0.003   6.028   0.596
 2241TIP3    H1 6687  -0.054   6.089   0.550
 2241TIP3    H2 6688   0.060   5.992   0.527
 2242TIP3   OH2 6689   2.073   3.097   0.836
 2242TIP3    H1 6690   2.049   3.012   0.872
 2242TIP3    H2 6691   2.103   3.079   0.747
 2243TIP3   OH2 6692   5.990   5.477   5.018
 2243TIP3    H1 6693   5.977   5.383   5.032
 2243TIP3    H2 6694   5.903   5.511   4.998
 2244TIP3   OH2 6695   5.879   2.738   3.310
 2244TIP3    H1 6696   5.863   2.831   3.324
 2244TIP3    H2 6697   5.933   2.735   3.231
 2245TIP3   OH2 6698   4.683   5.391   0.488
 2245TIP3    H1 6699   4.692   5.426   0.577
 2245TIP3    H2 6700   4.589   5.386   0.473
 2246TIP3   OH2 6701   2.469   6.404   2.304
 2246TIP3    H1 6702   2.545   6.418   2.249
 2246TIP3    H2 6703   2.478   6.468   2.375
 2247TIP3   OH2 6704   2.588   4.198   4.861
 2247TIP3    H1 6705   2.510   4.155   4.826
 2247TIP3    H2 6706   2.661   4.152   4.820
 2248TIP3   OH2 6707   4.944   1.661   4.882
 2248TIP3    H1 6708   4.988   1.746   4.882
 2248TIP3    H2 6709   4.978   1.617   4.804
 2249TIP3   OH2 6710   1.671   0.998   5.467
 2249TIP3    H1 6711   1.658   0.970   5.557
 2249TIP3    H2 6712   1.583   1.000   5.429
 2250TIP3   OH2 6713   4.126   3.322   2.097
 2250TIP3    H1 6714   4.115   3.251   2.033
 2250TIP3    H2 6715   4.042   3.368   2.097
 2251TIP3   OH2 6716   1.992   1.291   2.915
 2251TIP3    H1 6717   1.964   1.199   2.908
 2251TIP3    H2 6718   2.086   1.289   2.893
 2252TIP3   OH2 6719   5.911   1.430   5.144
 2252TIP3    H1 6720   5.958   1.479   5.211
 2252TIP3    H2 6721   5.925   1.338   5.166
 2253TIP3   OH2 6722   2.836   2.917   2.074
 2253TIP3    H1 6723   2.887   2.931   1.994
 2253TIP3    H2 6724   2.793   3.001   2.090
 2254TIP3   OH2 6725   3.223   1.535   3.654
 2254TIP3    H1 6726   3.185   1.595   3.718
 2254TIP3    H2 6727   3.264   1.466   3.707
 2255TIP3   OH2 6728   6.424   1.756   4.209
 2255TIP3    H1 6729   6.402   1.669   4.242
 2255TIP3    H2 6730   6.410   1.815   4.284
 2256TIP3   OH2 6731   3.603   3.946   3.211
 2256TIP3    H1 6732   3.594   4.028   3.163
 2256TIP3    H2 6733   3.520   3.901   3.197
 2257TIP3   OH2 6734   2.516   4.366   1.362
 2257TIP3    H1 6735   2.594   4.381   1.309
 2257TIP3    H2 6736   2.500   4.450   1.406
 2258TIP3   OH2 6737   6.187   2.254   1.985
 2258TIP3    H1 6738   6.259   2.192   1.984
 2258TIP3    H2 6739   6.215   2.324   2.043
 2259TIP3   OH2 6740   2.932   4.257   2.134
 2259TIP3    H1 6741   2.864   4.294   2.191
 2259TIP3    H2 6742   2.972   4.333   2.092
 2260TIP3   OH2 6743   3.427   2.132   3.961
 2260TIP3    H1 6744   3.437   2.046   4.001
 2260TIP3    H2 6745   3.334   2.139   3.940
 2261TIP3   OH2 6746   1.133   5.112   2.804
 2261TIP3    H1 6747   1.177   5.043   2.854
 2261TIP3    H2 6748   1.184   5.120   2.723
 2262TIP3   OH2 6749   3.589   1.279   0.491
 2262TIP3    H1 6750   3.677   1.295   0.456
 2262TIP3    H2 6751   3.558   1.203   0.442
 2263TIP3   OH2 6752   1.142   3.671   1.351
 2263TIP3    H1 6753   1.215   3.732   1.341
 2263TIP3    H2 6754   1.132   3.661   1.446
 2264TIP3   OH2 6755   4.677   5.876   5.611
 2264TIP3    H1 6756   4.765   5.844   5.633
 2264TIP3    H2 6757   4.678   5.968   5.638
 2265TIP3   OH2 6758   4.460   2.050   4.099
 2265TIP3    H1 6759   4.418   2.118   4.047
 2265TIP3    H2 6760   4.530   2.017   4.043
 2266TIP3   OH2 6761   2.236   3.315   1.399
 2266TIP3    H1 6762   2.298   3.338   1.329
 2266TIP3    H2 6763   2.179   3.391   1.405
 2267TIP3   OH2 6764   5.287   4.087   0.021
 2267TIP3    H1 6765   5.329   4.024  -0.039
 2267TIP3    H2 6766   5.203   4.046   0.043
 2268TIP3   OH2 6767   2.649   0.801   2.215
 2268TIP3    H1 6768   2.597   0.874   2.182
 2268TIP3    H2 6769   2.617   0.725   2.167
 2269TIP3   OH2 6770   1.347   0.781   5.317
 2269TIP3    H1 6771   1.395   0.771   5.235
 2269TIP3    H2 6772   1.348   0.875   5.335
 2270TIP3   OH2 6773   3.229   3.297   4.744
 2270TIP3    H1 6774   3.158   3.301   4.808
 2270TIP3    H2 6775   3.252   3.389   4.728
 2271TIP3   OH2 6776   3.572   1.512   0.293
 2271TIP3    H1 6777   3.590   1.585   0.352
 2271TIP3    H2 6778   3.539   1.443   0.350
 2272TIP3   OH2 6779   2.533   2.166   0.086
 2272TIP3    H1 6780   2.454   2.200   0.129
 2272TIP3    H2 6781   2.511   2.076   0.064
 2273TIP3   OH2 6782   3.144   2.815   5.808
 2273TIP3    H1 6783   3.073   2.762   5.845
 2273TIP3    H2 6784   3.160   2.777   5.722
 2274TIP3   OH2 6785   0.969   2.343   1.646
 2274TIP3    H1 6786   1.036   2.284   1.681
 2274TIP3    H2 6787   0.886   2.304   1.675
 2275TIP3   OH2 6788   1.213   0.149   0.520
 2275TIP3    H1 6789   1.155   0.224   0.530
 2275TIP3    H2 6790   1.213   0.132   0.426
 2276TIP3   OH2 6791   4.236   4.902   4.559
 2276TIP3    H1 6792   4.291   4.961   4.611
 2276TIP3    H2 6793   4.297   4.837   4.525
 2277TIP3   OH2 6794   3.414   6.703   5.288
 2277TIP3    H1 6795   3.435   6.622   5.333
 2277TIP3    H2 6796   3.406   6.678   5.196
 2278TIP3   OH2 6797   5.159   6.582   4.062
 2278TIP3    H1 6798   5.093   6.558   3.996
 2278TIP3    H2 6799   5.155   6.677   4.066
 2279TIP3   OH2 6800   2.171   5.428   3.848
 2279TIP3    H1 6801   2.110   5.359   3.822
 2279TIP3    H2 6802   2.119   5.508   3.844
 2280TIP3   OH2 6803   0.412   1.133   0.040
 2280TIP3    H1 6804   0.383   1.134  -0.051
 2280TIP3    H2 6805   0.508   1.128   0.034
 2281TIP3   OH2 6806   2.118   1.404   1.822
 2281TIP3    H1 6807   2.025   1.389   1.809
 2281TIP3    H2 6808   2.152   1.321   1.854
 2282TIP3   OH2 6809   0.725   0.767   2.601
 2282TIP3    H1 6810   0.734   0.855   2.638
 2282TIP3    H2 6811   0.632   0.747   2.608
 2283TIP3   OH2 6812   5.225   5.899   5.679
 2283TIP3    H1 6813   5.259   5.962   5.743
 2283TIP3    H2 6814   5.250   5.935   5.595
 2284TIP3   OH2 6815   3.531   6.813   0.193
 2284TIP3    H1 6816   3.560   6.784   0.107
 2284TIP3    H2 6817   3.492   6.735   0.233
 2285TIP3   OH2 6818   0.073   3.396   5.572
 2285TIP3    H1 6819  -0.013   3.378   5.535
 2285TIP3    H2 6820   0.098   3.481   5.535
 2286TIP3   OH2 6821   7.130   2.948   1.560
 2286TIP3    H1 6822   7.140   2.912   1.472
 2286TIP3    H2 6823   7.151   3.041   1.551
 2287TIP3   OH2 6824   4.672   4.777   2.653
 2287TIP3    H1 6825   4.652   4.802   2.744
 2287TIP3    H2 6826   4.766   4.789   2.646
 2288TIP3   OH2 6827   1.400   6.771   4.200
 2288TIP3    H1 6828   1.456   6.846   4.179
 2288TIP3    H2 6829   1.451   6.721   4.264
 2289TIP3   OH2 6830   6.736   3.998   2.321
 2289TIP3    H1 6831   6.699   3.943   2.391
 2289TIP3    H2 6832   6.670   4.066   2.307
 2290TIP3   OH2 6833   7.163   6.770   1.299
 2290TIP3    H1 6834   7.195   6.859   1.311
 2290TIP3    H2 6835   7.235   6.724   1.255
 2291TIP3   OH2 6836   3.075   2.687   3.510
 2291TIP3    H1 6837   3.160   2.691   3.468
 2291TIP3    H2 6838   3.012   2.702   3.439
 2292TIP3   OH2 6839   2.691   1.601   2.874
 2292TIP3    H1 6840   2.614   1.651   2.848
 2292TIP3    H2 6841   2.739   1.660   2.932
 2293TIP3   OH2 6842   4.619   1.611   5.744
 2293TIP3    H1 6843   4.618   1.706   5.759
 2293TIP3    H2 6844   4.591   1.601   5.653
 2294TIP3   OH2 6845   6.604   5.664   3.821
 2294TIP3    H1 6846   6.521   5.635   3.782
 2294TIP3    H2 6847   6.667   5.598   3.793
 2295TIP3   OH2 6848   4.424   3.070   5.671
 2295TIP3    H1 6849   4.440   2.978   5.693
 2295TIP3    H2 6850   4.470   3.119   5.739
 2296TIP3   OH2 6851   6.811   6.224   1.635
 2296TIP3    H1 6852   6.883   6.268   1.590
 2296TIP3    H2 6853   6.851   6.146   1.673
 2297TIP3   OH2 6854   6.351   0.531   1.123
 2297TIP3    H1 6855   6.421   0.592   1.099
 2297TIP3    H2 6856   6.294   0.530   1.047
 2298TIP3   OH2 6857   5.795   0.477   3.889
 2298TIP3    H1 6858   5.714   0.427   3.875
 2298TIP3    H2 6859   5.864   0.418   3.857
 2299TIP3   OH2 6860   5.323   5.027   3.370
 2299TIP3    H1 6861   5.265   4.995   3.438
 2299TIP3    H2 6862   5.291   5.115   3.350
 2300TIP3   OH2 6863   3.628   5.016   0.559
 2300TIP3    H1 6864   3.594   4.946   0.503
 2300TIP3    H2 6865   3.717   4.987   0.581
 2301TIP3   OH2 6866   0.691   2.512   4.273
 2301TIP3    H1 6867   0.739   2.434   4.302
 2301TIP3    H2 6868   0.666   2.491   4.182
 2302TIP3   OH2 6869   2.112   0.403   3.905
 2302TIP3    H1 6870   2.118   0.459   3.982
 2302TIP3    H2 6871   2.075   0.459   3.837
 2303TIP3   OH2 6872   6.239   3.385   2.908
 2303TIP3    H1 6873   6.200   3.298   2.906
 2303TIP3    H2 6874   6.312   3.381   2.846
 2304TIP3   OH2 6875   5.213   3.095   4.262
 2304TIP3    H1 6876   5.257   3.161   4.209
 2304TIP3    H2 6877   5.133   3.074   4.214
 2305TIP3   OH2 6878   4.366   5.481   3.991
 2305TIP3    H1 6879   4.329   5.547   4.050
 2305TIP3    H2 6880   4.337   5.509   3.904
 2306TIP3   OH2 6881   0.390   2.888   2.761
 2306TIP3    H1 6882   0.402   2.795   2.778
 2306TIP3    H2 6883   0.443   2.905   2.684
 2307TIP3   OH2 6884   1.368   4.265   5.532
 2307TIP3    H1 6885   1.299   4.199   5.536
 2307TIP3    H2 6886   1.335   4.331   5.471
 2308TIP3   OH2 6887   1.123   6.287   4.919
 2308TIP3    H1 6888   1.078   6.250   4.844
 2308TIP3    H2 6889   1.142   6.212   4.976
 2309TIP3   OH2 6890   5.618   4.370   4.688
 2309TIP3    H1 6891   5.544   4.430   4.678
 2309TIP3    H2 6892   5.596   4.317   4.764
 2310TIP3   OH2 6893   1.650   1.610   3.810
 2310TIP3    H1 6894   1.656   1.614   3.715
 2310TIP3    H2 6895   1.559   1.632   3.830
 2311TIP3   OH2 6896   3.595   6.405   2.429
 2311TIP3    H1 6897   3.579   6.495   2.399
 2311TIP3    H2 6898   3.510   6.374   2.460
 2312TIP3   OH2 6899   1.181   6.328   1.653
 2312TIP3    H1 6900   1.244   6.388   1.694
 2312TIP3    H2 6901   1.209   6.241   1.681
 2313TIP3   OH2 6902   6.674   1.984   0.154
 2313TIP3    H1 6903   6.690   1.946   0.068
 2313TIP3    H2 6904   6.761   2.007   0.186
 2314TIP3   OH2 6905   3.382   6.481   3.608
 2314TIP3    H1 6906   3.356   6.389   3.605
 2314TIP3    H2 6907   3.415   6.500   3.521
 2315TIP3   OH2 6908   4.689   2.472   3.873
 2315TIP3    H1 6909   4.734   2.430   3.946
 2315TIP3    H2 6910   4.597   2.471   3.898
 2316TIP3   OH2 6911   2.604   4.831   1.998
 2316TIP3    H1 6912   2.682   4.780   2.018
 2316TIP3    H2 6913   2.623   4.919   2.030
 2317TIP3   OH2 6914   2.870   3.525   0.229
 2317TIP3    H1 6915   2.780   3.511   0.258
 2317TIP3    H2 6916   2.924   3.497   0.303
 2318TIP3   OH2 6917   4.240   4.011   2.017
 2318TIP3    H1 6918   4.226   3.947   2.087
 2318TIP3    H2 6919   4.189   4.088   2.044
 2319TIP3   OH2 6920   3.981   0.631   1.451
 2319TIP3    H1 6921   3.889   0.618   1.472
 2319TIP3    H2 6922   4.029   0.587   1.521
 2320TIP3   OH2 6923   2.251   4.831   3.697
 2320TIP3    H1 6924   2.250   4.739   3.723
 2320TIP3    H2 6925   2.296   4.875   3.769
 2321TIP3   OH2 6926   1.948   3.644   2.088
 2321TIP3    H1 6927   2.036   3.677   2.069
 2321TIP3    H2 6928   1.957   3.592   2.167
 2322TIP3   OH2 6929   2.586   6.491   4.301
 2322TIP3    H1 6930   2.597   6.510   4.394
 2322TIP3    H2 6931   2.527   6.416   4.297
 2323TIP3   OH2 6932   1.211   5.023   5.142
 2323TIP3    H1 6933   1.178   4.948   5.190
 2323TIP3    H2 6934   1.153   5.095   5.167
 2324TIP3   OH2 6935   3.780   3.386   1.170
 2324TIP3    H1 6936   3.836   3.362   1.244
 2324TIP3    H2 6937   3.692   3.389   1.208
 2325TIP3   OH2 6938   3.069   2.713   1.094
 2325TIP3    H1 6939   3.093   2.627   1.128
 2325TIP3    H2 6940   3.151   2.761   1.088
 2326TIP3   OH2 6941   1.466   2.943   3.543
 2326TIP3    H1 6942   1.524   2.930   3.468
 2326TIP3    H2 6943   1.382   2.966   3.504
 2327TIP3   OH2 6944   7.119   6.449   5.005
 2327TIP3    H1 6945   7.176   6.433   5.081
 2327TIP3    H2 6946   7.032   6.421   5.034
 2328TIP3   OH2 6947   6.852   0.710   1.750
 2328TIP3    H1 6948   6.785   0.776   1.767
 2328TIP3    H2 6949   6.803   0.636   1.714
 2329TIP3   OH2 6950   6.784   1.081   4.620
 2329TIP3    H1 6951   6.839   1.110   4.694
 2329TIP3    H2 6952   6.713   1.145   4.618
 2330TIP3   OH2 6953   7.086   3.118   3.949
 2330TIP3    H1 6954   7.156   3.068   3.991
 2330TIP3    H2 6955   7.121   3.140   3.862
 2331TIP3   OH2 6956   0.124   6.393   0.098
 2331TIP3    H1 6957   0.203   6.346   0.124
 2331TIP3    H2 6958   0.116   6.464   0.162
 2332TIP3   OH2 6959   3.261  -0.005   2.075
 2332TIP3    H1 6960   3.173  -0.006   2.038
 2332TIP3    H2 6961   3.310   0.053   2.016
 2333TIP3   OH2 6962   4.186   0.268   0.758
 2333TIP3    H1 6963   4.264   0.235   0.714
 2333TIP3    H2 6964   4.122   0.279   0.688
 2334TIP3   OH2 6965   5.639   5.516   1.377
 2334TIP3    H1 6966   5.612   5.430   1.346
 2334TIP3    H2 6967   5.730   5.506   1.402
 2335TIP3   OH2 6968   4.793   5.008   2.127
 2335TIP3    H1 6969   4.813   5.082   2.071
 2335TIP3    H2 6970   4.878   4.971   2.150
 2336TIP3   OH2 6971   0.858   1.599   2.523
 2336TIP3    H1 6972   0.939   1.558   2.554
 2336TIP3    H2 6973   0.887   1.667   2.462
 2337TIP3   OH2 6974   3.103   0.925   1.409
 2337TIP3    H1 6975   3.097   0.830   1.397
 2337TIP3    H2 6976   3.015   0.958   1.390
 2338TIP3   OH2 6977   4.671   0.908   0.419
 2338TIP3    H1 6978   4.701   0.892   0.329
 2338TIP3    H2 6979   4.749   0.900   0.473
 2339TIP3   OH2 6980   5.312   2.610   0.269
 2339TIP3    H1 6981   5.344   2.520   0.280
 2339TIP3    H2 6982   5.287   2.615   0.176
 2340TIP3   OH2 6983   1.721   5.882   2.410
 2340TIP3    H1 6984   1.735   5.888   2.504
 2340TIP3    H2 6985   1.778   5.811   2.382
 2341TIP3   OH2 6986   6.478   6.749   5.002
 2341TIP3    H1 6987   6.571   6.749   5.024
 2341TIP3    H2 6988   6.436   6.788   5.078
 2342TIP3   OH2 6989   2.523   4.153   2.075
 2342TIP3    H1 6990   2.590   4.086   2.064
 2342TIP3    H2 6991   2.550   4.202   2.152
 2343TIP3   OH2 6992   4.786   4.266   1.238
 2343TIP3    H1 6993   4.735   4.268   1.318
 2343TIP3    H2 6994   4.770   4.179   1.201
 2344TIP3   OH2 6995   4.711   5.895   5.065
 2344TIP3    H1 6996   4.767   5.967   5.095
 2344TIP3    H2 6997   4.669   5.862   5.144
 2345TIP3   OH2 6998   4.220   2.920   0.128
 2345TIP3    H1 6999   4.174   2.898   0.209
 2345TIP3    H2 7000   4.282   2.988   0.153
 2346TIP3   OH2 7001   4.624   0.125   0.404
 2346TIP3    H1 7002   4.579   0.158   0.327
 2346TIP3    H2 7003   4.716   0.144   0.389
 2347TIP3   OH2 7004   2.912   3.175   4.561
 2347TIP3    H1 7005   2.841   3.169   4.626
 2347TIP3    H2 7006   2.869   3.208   4.482
 2348TIP3   OH2 7007   4.898   5.755   4.016
 2348TIP3    H1 7008   4.981   5.716   4.045
 2348TIP3    H2 7009   4.831   5.706   4.065
 2349TIP3   OH2 7010   0.315   6.711   4.139
 2349TIP3    H1 7011   0.373   6.637   4.125
 2349TIP3    H2 7012   0.260   6.685   4.213
 2350TIP3   OH2 7013   4.819   2.012   5.602
 2350TIP3    H1 7014   4.904   1.967   5.600
 2350TIP3    H2 7015   4.820   2.062   5.684
 2351TIP3   OH2 7016   2.881   2.840   4.457
 2351TIP3    H1 7017   2.935   2.886   4.394
 2351TIP3    H2 7018   2.832   2.909   4.502
 2352TIP3   OH2 7019   6.360   6.657   3.067
 2352TIP3    H1 7020   6.321   6.744   3.068
 2352TIP3    H2 7021   6.450   6.670   3.039
 2353TIP3   OH2 7022   0.916   3.897   2.181
 2353TIP3    H1 7023   0.998   3.942   2.202
 2353TIP3    H2 7024   0.865   3.901   2.262
 2354TIP3   OH2 7025   5.708   3.157   3.709
 2354TIP3    H1 7026   5.796   3.125   3.691
 2354TIP3    H2 7027   5.675   3.099   3.777
 2355TIP3   OH2 7028   3.870   2.577   3.398
 2355TIP3    H1 7029   3.776   2.560   3.392
 2355TIP3    H2 7030   3.909   2.491   3.414
 2356TIP3   OH2 7031   5.442   1.397   2.719
 2356TIP3    H1 7032   5.504   1.434   2.782
 2356TIP3    H2 7033   5.386   1.339   2.771
 2357TIP3   OH2 7034   3.940   3.949   0.175
 2357TIP3    H1 7035   3.859   3.916   0.214
 2357TIP3    H2 7036   3.920   3.954   0.081
 2358TIP3   OH2 7037   2.437   0.299   5.847
 2358TIP3    H1 7038   2.365   0.329   5.792
 2358TIP3    H2 7039   2.413   0.329   5.935
 2359TIP3   OH2 7040   4.271   0.135   4.394
 2359TIP3    H1 7041   4.357   0.095   4.382
 2359TIP3    H2 7042   4.238   0.096   4.475
 2360TIP3   OH2 7043   7.150   4.235   0.776
 2360TIP3    H1 7044   7.180   4.301   0.840
 2360TIP3    H2 7045   7.227   4.218   0.722
 2361TIP3   OH2 7046   4.804   1.690   1.259
 2361TIP3    H1 7047   4.884   1.737   1.286
 2361TIP3    H2 7048   4.775   1.645   1.338
 2362TIP3   OH2 7049   3.748   6.779   5.893
 2362TIP3    H1 7050   3.739   6.696   5.846
 2362TIP3    H2 7051   3.663   6.793   5.934
 2363TIP3   OH2 7052   6.498   2.425   3.004
 2363TIP3    H1 7053   6.483   2.334   2.977
 2363TIP3    H2 7054   6.593   2.431   3.015
 2364TIP3   OH2 7055   0.251   3.601   0.096
 2364TIP3    H1 7056   0.264   3.612   0.002
 2364TIP3    H2 7057   0.250   3.506   0.109
 2365TIP3   OH2 7058   4.050   3.514   1.068
 2365TIP3    H1 7059   3.974   3.459   1.088
 2365TIP3    H2 7060   4.100   3.517   1.149
 2366TIP3   OH2 7061   3.834   4.046   3.428
 2366TIP3    H1 7062   3.831   4.044   3.524
 2366TIP3    H2 7063   3.795   4.131   3.406
 2367TIP3   OH2 7064   3.205   4.002   4.904
 2367TIP3    H1 7065   3.187   4.020   4.996
 2367TIP3    H2 7066   3.204   4.089   4.862
 2368TIP3   OH2 7067   2.927   4.274   2.723
 2368TIP3    H1 7068   2.932   4.281   2.628
 2368TIP3    H2 7069   3.000   4.217   2.747
 2369TIP3   OH2 7070   6.521   5.898   2.078
 2369TIP3    H1 7071   6.486   5.946   2.154
 2369TIP3    H2 7072   6.564   5.965   2.025
 2370TIP3   OH2 7073   1.161   2.545   0.228
 2370TIP3    H1 7074   1.178   2.467   0.281
 2370TIP3    H2 7075   1.234   2.548   0.166
 2371TIP3   OH2 7076   3.484   3.797   2.176
 2371TIP3    H1 7077   3.406   3.791   2.231
 2371TIP3    H2 7078   3.525   3.711   2.184
 2372TIP3   OH2 7079   6.893   2.823   3.080
 2372TIP3    H1 7080   6.929   2.803   3.166
 2372TIP3    H2 7081   6.803   2.848   3.096
 2373TIP3   OH2 7082   5.845   1.092   5.485
 2373TIP3    H1 7083   5.828   1.123   5.574
 2373TIP3    H2 7084   5.897   1.161   5.445
 2374TIP3   OH2 7085   0.027   3.661   1.409
 2374TIP3    H1 7086   0.062   3.701   1.489
 2374TIP3    H2 7087   0.090   3.684   1.341
 2375TIP3   OH2 7088   0.774   3.268   1.405
 2375TIP3    H1 7089   0.813   3.182   1.389
 2375TIP3    H2 7090   0.831   3.308   1.471
 2376TIP3   OH2 7091   4.275   3.625   4.088
 2376TIP3    H1 7092   4.205   3.621   4.154
 2376TIP3    H2 7093   4.245   3.692   4.026
 2377TIP3   OH2 7094   5.268   0.813   2.757
 2377TIP3    H1 7095   5.313   0.874   2.815
 2377TIP3    H2 7096   5.321   0.733   2.760
 2378TIP3   OH2 7097   6.783   0.055   3.314
 2378TIP3    H1 7098   6.793   0.148   3.330
 2378TIP3    H2 7099   6.828   0.040   3.230
 2379TIP3   OH2 7100   2.000   3.778   3.318
 2379TIP3    H1 7101   1.954   3.781   3.235
 2379TIP3    H2 7102   1.933   3.801   3.383
 2380TIP3   OH2 7103   4.367   2.794   0.503
 2380TIP3    H1 7104   4.435   2.861   0.509
 2380TIP3    H2 7105   4.295   2.837   0.458
 2381TIP3   OH2 7106   4.469   0.132   2.276
 2381TIP3    H1 7107   4.561   0.104   2.271
 2381TIP3    H2 7108   4.424   0.076   2.213
 2382TIP3   OH2 7109   5.810   0.103   4.411
 2382TIP3    H1 7110   5.781   0.178   4.359
 2382TIP3    H2 7111   5.901   0.121   4.431
 2383TIP3   OH2 7112   3.640   6.785   4.015
 2383TIP3    H1 7113   3.583   6.780   3.939
 2383TIP3    H2 7114   3.660   6.694   4.036
 2384TIP3   OH2 7115   1.121   1.073   2.902
 2384TIP3    H1 7116   1.054   1.113   2.958
 2384TIP3    H2 7117   1.149   0.995   2.951
 2385TIP3   OH2 7118   6.086   4.018   4.814
 2385TIP3    H1 7119   6.092   3.928   4.781
 2385TIP3    H2 7120   6.141   4.018   4.892
 2386TIP3   OH2 7121   5.859   1.538   5.820
 2386TIP3    H1 7122   5.906   1.503   5.896
 2386TIP3    H2 7123   5.768   1.544   5.849
 2387TIP3   OH2 7124   1.439   3.915   0.039
 2387TIP3    H1 7125   1.373   3.979   0.065
 2387TIP3    H2 7126   1.513   3.932   0.097
 2388TIP3   OH2 7127   3.535   2.045   0.698
 2388TIP3    H1 7128   3.622   2.018   0.729
 2388TIP3    H2 7129   3.476   1.978   0.731
 2389TIP3   OH2 7130   1.970   2.236   3.180
 2389TIP3    H1 7131   1.893   2.293   3.179
 2389TIP3    H2 7132   2.033   2.282   3.235
 2390TIP3   OH2 7133   5.435   2.737   2.384
 2390TIP3    H1 7134   5.406   2.665   2.329
 2390TIP3    H2 7135   5.457   2.696   2.468
 2391TIP3   OH2 7136   4.034   0.169   4.840
 2391TIP3    H1 7137   4.046   0.173   4.746
 2391TIP3    H2 7138   3.975   0.242   4.860
 2392TIP3   OH2 7139   6.347   3.641   5.313
 2392TIP3    H1 7140   6.396   3.693   5.248
 2392TIP3    H2 7141   6.261   3.627   5.272
 2393TIP3   OH2 7142   3.172   1.577   3.249
 2393TIP3    H1 7143   3.135   1.489   3.240
 2393TIP3    H2 7144   3.262   1.562   3.279
 2394TIP3   OH2 7145   6.790   1.401   2.500
 2394TIP3    H1 7146   6.859   1.393   2.435
 2394TIP3    H2 7147   6.727   1.333   2.476
 2395TIP3   OH2 7148   1.582   1.271   4.675
 2395TIP3    H1 7149   1.582   1.365   4.653
 2395TIP3    H2 7150   1.604   1.227   4.594
 2396TIP3   OH2 7151   2.604   1.372   4.964
 2396TIP3    H1 7152   2.673   1.412   4.910
 2396TIP3    H2 7153   2.651   1.313   5.023
 2397TIP3   OH2 7154   4.415   2.386   5.172
 2397TIP3    H1 7155   4.421   2.390   5.077
 2397TIP3    H2 7156   4.464   2.462   5.203
 2398TIP3   OH2 7157   0.833   0.119   1.459
 2398TIP3    H1 7158   0.870   0.031   1.467
 2398TIP3    H2 7159   0.908   0.176   1.446
 2399TIP3   OH2 7160   1.016   2.762   1.117
 2399TIP3    H1 7161   1.082   2.721   1.061
 2399TIP3    H2 7162   0.980   2.690   1.168
 2400TIP3   OH2 7163   3.442   3.737   0.437
 2400TIP3    H1 7164   3.489   3.699   0.511
 2400TIP3    H2 7165   3.358   3.765   0.473
 2401TIP3   OH2 7166   2.119   0.929   4.588
 2401TIP3    H1 7167   2.191   0.975   4.545
 2401TIP3    H2 7168   2.084   0.991   4.651
 2402TIP3   OH2 7169   2.976   6.147   1.745
 2402TIP3    H1 7170   3.008   6.223   1.793
 2402TIP3    H2 7171   3.053   6.093   1.730
 2403TIP3   OH2 7172   3.600   1.683   5.561
 2403TIP3    H1 7173   3.675   1.738   5.583
 2403TIP3    H2 7174   3.525   1.742   5.567
 2404TIP3   OH2 7175   4.246   1.472   3.064
 2404TIP3    H1 7176   4.262   1.556   3.021
 2404TIP3    H2 7177   4.299   1.476   3.144
 2405TIP3   OH2 7178   5.735   3.823   0.707
 2405TIP3    H1 7179   5.688   3.743   0.730
 2405TIP3    H2 7180   5.827   3.800   0.712
 2406TIP3   OH2 7181   2.094   6.364   2.894
 2406TIP3    H1 7182   2.180   6.322   2.891
 2406TIP3    H2 7183   2.067   6.358   2.986
 2407TIP3   OH2 7184   2.029   2.048   0.589
 2407TIP3    H1 7185   1.959   2.016   0.646
 2407TIP3    H2 7186   2.109   2.024   0.635
 2408TIP3   OH2 7187   6.862   6.040   1.262
 2408TIP3    H1 7188   6.935   6.071   1.209
 2408TIP3    H2 7189   6.900   5.973   1.319
 2409TIP3   OH2 7190   3.288   2.128   5.032
 2409TIP3    H1 7191   3.317   2.096   5.118
 2409TIP3    H2 7192   3.334   2.073   4.969
 2410TIP3   OH2 7193   0.828   0.466   5.880
 2410TIP3    H1 7194   0.812   0.547   5.928
 2410TIP3    H2 7195   0.880   0.492   5.804
 2411TIP3   OH2 7196   5.564   1.783   0.477
 2411TIP3    H1 7197   5.619   1.820   0.546
 2411TIP3    H2 7198   5.486   1.752   0.523
 2412TIP3   OH2 7199   6.562   5.897   5.468
 2412TIP3    H1 7200   6.569   5.877   5.561
 2412TIP3    H2 7201   6.477   5.940   5.458
 2413TIP3   OH2 7202   0.125   4.658   3.263
 2413TIP3    H1 7203   0.094   4.571   3.240
 2413TIP3    H2 7204   0.164   4.692   3.183
 2414TIP3   OH2 7205   3.396   3.710   5.489
 2414TIP3    H1 7206   3.331   3.647   5.458
 2414TIP3    H2 7207   3.423   3.678   5.575
 2415TIP3   OH2 7208   5.807   1.240   3.111
 2415TIP3    H1 7209   5.815   1.279   3.023
 2415TIP3    H2 7210   5.780   1.313   3.167
 2416TIP3   OH2 7211   2.653   5.479   1.736
 2416TIP3    H1 7212   2.723   5.470   1.672
 2416TIP3    H2 7213   2.576   5.504   1.684
 2417TIP3   OH2 7214   2.012   4.797   2.285
 2417TIP3    H1 7215   2.001   4.712   2.330
 2417TIP3    H2 7216   2.084   4.839   2.331
 2418TIP3   OH2 7217   6.751   1.676   5.094
 2418TIP3    H1 7218   6.797   1.690   5.011
 2418TIP3    H2 7219   6.686   1.609   5.074
 2419TIP3   OH2 7220   2.578   5.472   2.248
 2419TIP3    H1 7221   2.560   5.553   2.296
 2419TIP3    H2 7222   2.548   5.489   2.159
 2420TIP3   OH2 7223   3.107   0.151   5.662
 2420TIP3    H1 7224   3.128   0.218   5.596
 2420TIP3    H2 7225   3.173   0.083   5.650
 2421TIP3   OH2 7226   3.040   3.429   3.857
 2421TIP3    H1 7227   3.075   3.382   3.933
 2421TIP3    H2 7228   3.024   3.518   3.889
 2422TIP3   OH2 7229   1.471   5.173   4.620
 2422TIP3    H1 7230   1.472   5.207   4.530
 2422TIP3    H2 7231   1.543   5.110   4.622
 2423TIP3   OH2 7232   1.711   6.574   1.694
 2423TIP3    H1 7233   1.666   6.537   1.618
 2423TIP3    H2 7234   1.672   6.530   1.769
 2424TIP3   OH2 7235   1.643   3.877   2.087
 2424TIP3    H1 7236   1.737   3.889   2.096
 2424TIP3    H2 7237   1.604   3.950   2.135
 2425TIP3   OH2 7238   3.580   1.472   5.394
 2425TIP3    H1 7239   3.561   1.536   5.462
 2425TIP3    H2 7240   3.675   1.457   5.401
 2426TIP3   OH2 7241   1.520   4.743   0.406
 2426TIP3    H1 7242   1.568   4.778   0.481
 2426TIP3    H2 7243   1.531   4.809   0.338
 2427TIP3   OH2 7244   4.598   6.473   2.164
 2427TIP3    H1 7245   4.621   6.382   2.143
 2427TIP3    H2 7246   4.649   6.525   2.102
 2428TIP3   OH2 7247   2.812   2.435   5.464
 2428TIP3    H1 7248   2.835   2.526   5.479
 2428TIP3    H2 7249   2.895   2.392   5.442
 2429TIP3   OH2 7250   7.128   0.747   4.116
 2429TIP3    H1 7251   7.188   0.804   4.164
 2429TIP3    H2 7252   7.045   0.757   4.161
 2430TIP3   OH2 7253   3.898   1.730   3.915
 2430TIP3    H1 7254   3.939   1.656   3.871
 2430TIP3    H2 7255   3.934   1.729   4.004
 2431TIP3   OH2 7256   1.858   5.521   5.605
 2431TIP3    H1 7257   1.945   5.525   5.645
 2431TIP3    H2 7258   1.869   5.566   5.521
 2432TIP3   OH2 7259   1.660   6.344   2.611
 2432TIP3    H1 7260   1.634   6.435   2.596
 2432TIP3    H2 7261   1.620   6.321   2.695
 2433TIP3   OH2 7262   6.868   4.021   1.825
 2433TIP3    H1 7263   6.797   4.004   1.764
 2433TIP3    H2 7264   6.900   4.108   1.802
 2434TIP3   OH2 7265   3.488   2.378   3.631
 2434TIP3    H1 7266   3.523   2.387   3.542
 2434TIP3    H2 7267   3.476   2.468   3.661
 2435TIP3   OH2 7268   0.285   0.705   4.409
 2435TIP3    H1 7269   0.247   0.666   4.330
 2435TIP3    H2 7270   0.327   0.785   4.379
 2436TIP3   OH2 7271   6.959   1.695   0.218
 2436TIP3    H1 7272   6.956   1.788   0.198
 2436TIP3    H2 7273   6.954   1.690   0.314
 2437TIP3   OH2 7274   2.972   4.949   1.528
 2437TIP3    H1 7275   3.031   4.958   1.604
 2437TIP3    H2 7276   2.884   4.957   1.565
 2438TIP3   OH2 7277   5.825   1.740   5.511
 2438TIP3    H1 7278   5.850   1.832   5.499
 2438TIP3    H2 7279   5.894   1.704   5.566
 2439TIP3   OH2 7280   1.533   5.303   1.793
 2439TIP3    H1 7281   1.485   5.221   1.787
 2439TIP3    H2 7282   1.620   5.283   1.758
 2440TIP3   OH2 7283   2.221   4.883   5.060
 2440TIP3    H1 7284   2.234   4.947   4.990
 2440TIP3    H2 7285   2.307   4.876   5.102
 2441TIP3   OH2 7286   2.933   5.956   3.972
 2441TIP3    H1 7287   2.994   5.882   3.968
 2441TIP3    H2 7288   2.866   5.935   3.907
 2442TIP3   OH2 7289   1.596   2.022   5.031
 2442TIP3    H1 7290   1.689   2.023   5.007
 2442TIP3    H2 7291   1.551   2.003   4.949
 2443TIP3   OH2 7292   4.319   5.512   4.399
 2443TIP3    H1 7293   4.286   5.577   4.336
 2443TIP3    H2 7294   4.412   5.505   4.379
 2444TIP3   OH2 7295   5.385   4.895   0.977
 2444TIP3    H1 7296   5.454   4.869   0.916
 2444TIP3    H2 7297   5.385   4.991   0.975
 2445TIP3   OH2 7298   2.730   3.917   4.490
 2445TIP3    H1 7299   2.642   3.901   4.455
 2445TIP3    H2 7300   2.778   3.836   4.471
 2446TIP3   OH2 7301   4.222   0.973   5.874
 2446TIP3    H1 7302   4.221   1.068   5.879
 2446TIP3    H2 7303   4.138   0.950   5.834
 2447TIP3   OH2 7304   6.274   6.121   1.104
 2447TIP3    H1 7305   6.320   6.125   1.020
 2447TIP3    H2 7306   6.339   6.149   1.168
 2448TIP3   OH2 7307   5.672   3.380   3.046
 2448TIP3    H1 7308   5.663   3.414   2.957
 2448TIP3    H2 7309   5.662   3.285   3.036
 2449TIP3   OH2 7310   4.368   1.693   3.743
 2449TIP3    H1 7311   4.359   1.701   3.838
 2449TIP3    H2 7312   4.284   1.725   3.708
 2450TIP3   OH2 7313   5.361   6.819   3.597
 2450TIP3    H1 7314   5.350   6.735   3.642
 2450TIP3    H2 7315   5.426   6.865   3.648
 2451TIP3   OH2 7316   3.332   5.207   2.104
 2451TIP3    H1 7317   3.326   5.278   2.169
 2451TIP3    H2 7318   3.316   5.251   2.020
 2452TIP3   OH2 7319   2.336   5.104   2.651
 2452TIP3    H1 7320   2.322   5.139   2.739
 2452TIP3    H2 7321   2.422   5.063   2.656
 2453TIP3   OH2 7322   6.104   3.440   3.341
 2453TIP3    H1 7323   6.106   3.514   3.402
 2453TIP3    H2 7324   6.015   3.441   3.305
 2454TIP3   OH2 7325   2.446   3.350   2.462
 2454TIP3    H1 7326   2.435   3.286   2.533
 2454TIP3    H2 7327   2.524   3.400   2.486
 2455TIP3   OH2 7328   3.825   2.538  -0.015
 2455TIP3    H1 7329   3.758   2.599   0.017
 2455TIP3    H2 7330   3.827   2.468   0.050
 2456TIP3   OH2 7331   1.187   0.117   5.094
 2456TIP3    H1 7332   1.137   0.117   5.013
 2456TIP3    H2 7333   1.189   0.208   5.121
 2457TIP3   OH2 7334   0.439   6.307   1.098
 2457TIP3    H1 7335   0.464   6.398   1.114
 2457TIP3    H2 7336   0.481   6.286   1.015
 2458TIP3   OH2 7337   0.906   3.166   5.084
 2458TIP3    H1 7338   0.920   3.186   4.991
 2458TIP3    H2 7339   0.950   3.082   5.097
 2459TIP3   OH2 7340   1.178   3.160   2.185
 2459TIP3    H1 7341   1.224   3.134   2.105
 2459TIP3    H2 7342   1.151   3.250   2.170
 2460TIP3   OH2 7343   6.227   3.833   0.312
 2460TIP3    H1 7344   6.294   3.898   0.291
 2460TIP3    H2 7345   6.180   3.870   0.387
 2461TIP3   OH2 7346   2.549   0.796   1.595
 2461TIP3    H1 7347   2.625   0.740   1.610
 2461TIP3    H2 7348   2.493   0.782   1.671
 2462TIP3   OH2 7349   7.152   0.214   3.251
 2462TIP3    H1 7350   7.224   0.276   3.264
 2462TIP3    H2 7351   7.074   0.261   3.281
 2463TIP3   OH2 7352   5.198   5.234   0.516
 2463TIP3    H1 7353   5.235   5.226   0.604
 2463TIP3    H2 7354   5.211   5.326   0.493
 2464TIP3   OH2 7355   1.251   3.984   5.565
 2464TIP3    H1 7356   1.252   3.892   5.541
 2464TIP3    H2 7357   1.311   3.990   5.640
 2465TIP3   OH2 7358   6.119   3.871   4.011
 2465TIP3    H1 7359   6.096   3.957   4.046
 2465TIP3    H2 7360   6.204   3.885   3.968
 2466TIP3   OH2 7361   3.529   0.919   4.349
 2466TIP3    H1 7362   3.573   0.984   4.404
 2466TIP3    H2 7363   3.484   0.862   4.410
 2467TIP3   OH2 7364   5.066   4.613   4.197
 2467TIP3    H1 7365   5.030   4.525   4.190
 2467TIP3    H2 7366   5.067   4.646   4.107
 2468TIP3   OH2 7367   7.060   3.558   3.577
 2468TIP3    H1 7368   6.982   3.518   3.539
 2468TIP3    H2 7369   7.076   3.509   3.658
 2469TIP3   OH2 7370   0.972   6.445   4.640
 2469TIP3    H1 7371   0.966   6.487   4.726
 2469TIP3    H2 7372   0.936   6.357   4.652
 2470TIP3   OH2 7373   3.582   5.068   5.257
 2470TIP3    H1 7374   3.669   5.059   5.219
 2470TIP3    H2 7375   3.597   5.104   5.344
 2471TIP3   OH2 7376   7.142   5.796   5.237
 2471TIP3    H1 7377   7.226   5.834   5.265
 2471TIP3    H2 7378   7.082   5.870   5.236
 2472TIP3   OH2 7379   0.405   0.326   2.037
 2472TIP3    H1 7380   0.424   0.237   2.069
 2472TIP3    H2 7381   0.430   0.324   1.945
 2473TIP3   OH2 7382   5.911   3.609   2.594
 2473TIP3    H1 7383   5.928   3.684   2.537
 2473TIP3    H2 7384   5.998   3.577   2.618
 2474TIP3   OH2 7385   4.357   6.139   1.249
 2474TIP3    H1 7386   4.345   6.052   1.289
 2474TIP3    H2 7387   4.295   6.195   1.295
 2475TIP3   OH2 7388   1.010   6.196   0.593
 2475TIP3    H1 7389   1.057   6.258   0.650
 2475TIP3    H2 7390   1.077   6.164   0.533
 2476TIP3   OH2 7391   0.220   5.161   2.368
 2476TIP3    H1 7392   0.147   5.136   2.311
 2476TIP3    H2 7393   0.296   5.162   2.311
 2477TIP3   OH2 7394   2.273   0.619   0.638
 2477TIP3    H1 7395   2.295   0.562   0.713
 2477TIP3    H2 7396   2.285   0.708   0.671
 2478TIP3   OH2 7397   6.746   6.711   4.536
 2478TIP3    H1 7398   6.751   6.779   4.603
 2478TIP3    H2 7399   6.764   6.756   4.454
 2479TIP3   OH2 7400   0.278   1.476   4.673
 2479TIP3    H1 7401   0.263   1.381   4.681
 2479TIP3    H2 7402   0.191   1.514   4.679
 2480TIP3   OH2 7403   6.507   4.688   1.971
 2480TIP3    H1 7404   6.506   4.757   1.905
 2480TIP3    H2 7405   6.478   4.609   1.924
 2481TIP3   OH2 7406   5.295   6.559   2.633
 2481TIP3    H1 7407   5.252   6.486   2.589
 2481TIP3    H2 7408   5.226   6.598   2.687
 2482TIP3   OH2 7409   0.515   2.220   0.197
 2482TIP3    H1 7410   0.473   2.134   0.198
 2482TIP3    H2 7411   0.444   2.282   0.211
 2483TIP3   OH2 7412   0.559   5.164   4.875
 2483TIP3    H1 7413   0.629   5.228   4.861
 2483TIP3    H2 7414   0.482   5.203   4.834
 2484TIP3   OH2 7415   1.523   0.832   2.855
 2484TIP3    H1 7416   1.480   0.763   2.805
 2484TIP3    H2 7417   1.569   0.786   2.925
 2485TIP3   OH2 7418   6.174   6.142   0.507
 2485TIP3    H1 7419   6.113   6.215   0.519
 2485TIP3    H2 7420   6.146   6.101   0.425
 2486TIP3   OH2 7421   5.612   3.371   5.738
 2486TIP3    H1 7422   5.679   3.417   5.788
 2486TIP3    H2 7423   5.613   3.412   5.652
 2487TIP3   OH2 7424   4.958   2.343   2.291
 2487TIP3    H1 7425   4.930   2.405   2.224
 2487TIP3    H2 7426   5.027   2.292   2.249
 2488TIP3   OH2 7427   0.960   0.203   4.907
 2488TIP3    H1 7428   0.917   0.126   4.869
 2488TIP3    H2 7429   0.930   0.205   4.998
 2489TIP3   OH2 7430   4.494   4.250   2.838
 2489TIP3    H1 7431   4.463   4.170   2.795
 2489TIP3    H2 7432   4.460   4.321   2.784
 2490TIP3   OH2 7433   6.069   2.682   4.058
 2490TIP3    H1 7434   5.985   2.727   4.065
 2490TIP3    H2 7435   6.129   2.734   4.111
 2491TIP3   OH2 7436   2.470   6.715   2.751
 2491TIP3    H1 7437   2.530   6.701   2.824
 2491TIP3    H2 7438   2.402   6.772   2.786
 2492TIP3   OH2 7439   4.158   6.169   4.611
 2492TIP3    H1 7440   4.233   6.201   4.560
 2492TIP3    H2 7441   4.184   6.183   4.702
 2493TIP3   OH2 7442   7.050   0.085   5.328
 2493TIP3    H1 7443   7.097   0.071   5.410
 2493TIP3    H2 7444   7.038  -0.003   5.291
 2494TIP3   OH2 7445   5.549   4.030   0.745
 2494TIP3    H1 7446   5.604   3.966   0.700
 2494TIP3    H2 7447   5.579   4.114   0.713
 2495TIP3   OH2 7448   2.608   0.017   3.893
 2495TIP3    H1 7449   2.701   0.030   3.875
 2495TIP3    H2 7450   2.607  -0.030   3.977
 2496TIP3   OH2 7451   2.644   4.541   2.835
 2496TIP3    H1 7452   2.718   4.602   2.835
 2496TIP3    H2 7453   2.619   4.532   2.743
 2497TIP3   OH2 7454   4.863   6.296   3.980
 2497TIP3    H1 7455   4.899   6.232   3.918
 2497TIP3    H2 7456   4.769   6.293   3.964
 2498TIP3   OH2 7457   3.976   3.915   1.834
 2498TIP3    H1 7458   3.988   3.899   1.928
 2498TIP3    H2 7459   3.886   3.887   1.816
 2499TIP3   OH2 7460   6.507   4.060   1.943
 2499TIP3    H1 7461   6.433   4.003   1.966
 2499TIP3    H2 7462   6.545   4.018   1.865
 2500TIP3   OH2 7463   4.599   2.864   0.286
 2500TIP3    H1 7464   4.536   2.931   0.315
 2500TIP3    H2 7465   4.684   2.907   0.295
 2501TIP3   OH2 7466   5.375   5.031   0.509
 2501TIP3    H1 7467   5.397   4.946   0.547
 2501TIP3    H2 7468   5.281   5.026   0.493
 2502TIP3   OH2 7469   6.442   0.461   2.825
 2502TIP3    H1 7470   6.368   0.517   2.803
 2502TIP3    H2 7471   6.425   0.380   2.777
 2503TIP3   OH2 7472   5.670   2.017   3.788
 2503TIP3    H1 7473   5.682   1.976   3.702
 2503TIP3    H2 7474   5.575   2.020   3.800
 2504TIP3   OH2 7475   7.209   0.124   0.892
 2504TIP3    H1 7476   7.124   0.110   0.934
 2504TIP3    H2 7477   7.188   0.162   0.807
 2505TIP3   OH2 7478   6.206   2.600   3.824
 2505TIP3    H1 7479   6.122   2.571   3.788
 2505TIP3    H2 7480   6.188   2.617   3.916
 2506TIP3   OH2 7481   5.659   4.724   1.263
 2506TIP3    H1 7482   5.749   4.704   1.238
 2506TIP3    H2 7483   5.607   4.694   1.188
 2507TIP3   OH2 7484   3.754   4.692   3.571
 2507TIP3    H1 7485   3.797   4.618   3.613
 2507TIP3    H2 7486   3.697   4.652   3.505
 2508TIP3   OH2 7487   2.847   3.343   3.405
 2508TIP3    H1 7488   2.809   3.416   3.456
 2508TIP3    H2 7489   2.806   3.265   3.442
 2509TIP3   OH2 7490   1.545   6.046   2.862
 2509TIP3    H1 7491   1.483   6.019   2.930
 2509TIP3    H2 7492   1.552   6.141   2.872
 2510TIP3   OH2 7493   0.462   4.223   0.255
 2510TIP3    H1 7494   0.422   4.137   0.242
 2510TIP3    H2 7495   0.423   4.278   0.187
 2511TIP3   OH2 7496   2.756   0.255   1.159
 2511TIP3    H1 7497   2.732   0.163   1.169
 2511TIP3    H2 7498   2.731   0.277   1.069
 2512TIP3   OH2 7499   4.023   6.401   3.653
 2512TIP3    H1 7500   4.025   6.481   3.706
 2512TIP3    H2 7501   4.115   6.375   3.647
 2513TIP3   OH2 7502   4.358   2.333   4.894
 2513TIP3    H1 7503   4.270   2.296   4.896
 2513TIP3    H2 7504   4.347   2.424   4.920
 2514TIP3   OH2 7505   0.547   1.364   3.369
 2514TIP3    H1 7506   0.468   1.323   3.335
 2514TIP3    H2 7507   0.521   1.454   3.388
 2515TIP3   OH2 7508   2.601   1.164   4.779
 2515TIP3    H1 7509   2.596   1.251   4.819
 2515TIP3    H2 7510   2.571   1.178   4.689
 2516TIP3   OH2 7511   5.961   1.982   2.777
 2516TIP3    H1 7512   6.004   2.025   2.703
 2516TIP3    H2 7513   5.946   1.892   2.747
 2517TIP3   OH2 7514   5.230   5.936   2.603
 2517TIP3    H1 7515   5.244   6.031   2.604
 2517TIP3    H2 7516   5.315   5.900   2.579
 2518TIP3   OH2 7517   3.790   5.237   1.987
 2518TIP3    H1 7518   3.825   5.243   1.898
 2518TIP3    H2 7519   3.804   5.325   2.024
 2519TIP3   OH2 7520   4.407   3.036   3.143
 2519TIP3    H1 7521   4.419   2.948   3.107
 2519TIP3    H2 7522   4.335   3.073   3.092
 2520TIP3   OH2 7523   1.666   3.655   2.300
 2520TIP3    H1 7524   1.704   3.737   2.332
 2520TIP3    H2 7525   1.622   3.680   2.218
 2521TIP3   OH2 7526   4.153   1.518   5.555
 2521TIP3    H1 7527   4.149   1.503   5.649
 2521TIP3    H2 7528   4.221   1.457   5.524
 2522TIP3   OH2 7529   4.377   5.056   4.754
 2522TIP3    H1 7530   4.336   5.112   4.820
 2522TIP3    H2 7531   4.427   4.992   4.805
 2523TIP3   OH2 7532   5.978   0.437   0.602
 2523TIP3    H1 7533   5.921   0.425   0.678
 2523TIP3    H2 7534   6.016   0.350   0.587
 2524TIP3   OH2 7535   5.981   5.150   4.186
 2524TIP3    H1 7536   5.896   5.189   4.207
 2524TIP3    H2 7537   5.977   5.063   4.225
 2525TIP3   OH2 7538   4.274   2.939   3.558
 2525TIP3    H1 7539   4.242   2.904   3.474
 2525TIP3    H2 7540   4.235   3.026   3.564
 2526TIP3   OH2 7541   2.033   6.840   0.622
 2526TIP3    H1 7542   2.089   6.811   0.694
 2526TIP3    H2 7543   2.093   6.876   0.557
 2527TIP3   OH2 7544   0.798   1.739   5.856
 2527TIP3    H1 7545   0.730   1.749   5.790
 2527TIP3    H2 7546   0.753   1.759   5.939
 2528TIP3   OH2 7547   1.621   4.891   0.178
 2528TIP3    H1 7548   1.597   4.858   0.091
 2528TIP3    H2 7549   1.709   4.926   0.167
 2529TIP3   OH2 7550   6.512   3.593   1.058
 2529TIP3    H1 7551   6.455   3.521   1.084
 2529TIP3    H2 7552   6.599   3.568   1.090
 2530TIP3   OH2 7553   6.442   4.307   3.114
 2530TIP3    H1 7554   6.465   4.283   3.024
 2530TIP3    H2 7555   6.370   4.369   3.105
 2531TIP3   OH2 7556   1.592   3.780   4.181
 2531TIP3    H1 7557   1.512   3.733   4.159
 2531TIP3    H2 7558   1.650   3.764   4.107
 2532TIP3   OH2 7559   4.444   3.512   2.707
 2532TIP3    H1 7560   4.524   3.530   2.658
 2532TIP3    H2 7561   4.460   3.428   2.750
 2533TIP3   OH2 7562   2.647   1.827   0.302
 2533TIP3    H1 7563   2.728   1.842   0.253
 2533TIP3    H2 7564   2.609   1.749   0.264
 2534TIP3   OH2 7565   0.210   2.304   2.113
 2534TIP3    H1 7566   0.287   2.358   2.099
 2534TIP3    H2 7567   0.244   2.225   2.156
 2535TIP3   OH2 7568   5.714   4.236   5.150
 2535TIP3    H1 7569   5.772   4.238   5.075
 2535TIP3    H2 7570   5.736   4.154   5.195
 2536TIP3   OH2 7571   3.661   0.338   0.648
 2536TIP3    H1 7572   3.630   0.268   0.706
 2536TIP3    H2 7573   3.671   0.414   0.705
 2537TIP3   OH2 7574   6.679   4.795   3.108
 2537TIP3    H1 7575   6.588   4.765   3.096
 2537TIP3    H2 7576   6.697   4.781   3.201
 2538TIP3   OH2 7577   4.586   4.072   1.706
 2538TIP3    H1 7578   4.595   4.122   1.787
 2538TIP3    H2 7579   4.528   4.000   1.730
 2539TIP3   OH2 7580   3.597   5.044   4.905
 2539TIP3    H1 7581   3.570   5.033   4.814
 2539TIP3    H2 7582   3.666   4.979   4.918
 2540TIP3   OH2 7583   5.425   6.723   4.716
 2540TIP3    H1 7584   5.343   6.726   4.764
 2540TIP3    H2 7585   5.439   6.630   4.697
 2541TIP3   OH2 7586   5.067   1.939   4.868
 2541TIP3    H1 7587   5.048   2.002   4.938
 2541TIP3    H2 7588   5.029   1.978   4.790
 2542TIP3   OH2 7589   2.251   2.319   3.270
 2542TIP3    H1 7590   2.320   2.381   3.246
 2542TIP3    H2 7591   2.246   2.259   3.196
 2543TIP3   OH2 7592   1.423   1.097   3.234
 2543TIP3    H1 7593   1.353   1.082   3.297
 2543TIP3    H2 7594   1.502   1.065   3.277
 2544TIP3   OH2 7595   5.315   3.994   5.318
 2544TIP3    H1 7596   5.382   4.047   5.362
 2544TIP3    H2 7597   5.232   4.035   5.342
 2545TIP3   OH2 7598   6.320   2.795   5.137
 2545TIP3    H1 7599   6.284   2.766   5.053
 2545TIP3    H2 7600   6.413   2.774   5.132
 2546TIP3   OH2 7601   1.039   1.902   3.335
 2546TIP3    H1 7602   1.104   1.870   3.272
 2546TIP3    H2 7603   0.966   1.841   3.327
 2547TIP3   OH2 7604   3.238   0.241   4.859
 2547TIP3    H1 7605   3.235   0.156   4.902
 2547TIP3    H2 7606   3.182   0.231   4.782
 2548TIP3   OH2 7607   4.337   4.300   0.333
 2548TIP3    H1 7608   4.304   4.290   0.244
 2548TIP3    H2 7609   4.331   4.394   0.351
 2549TIP3   OH2 7610   3.859   2.427   1.100
 2549TIP3    H1 7611   3.766   2.411   1.083
 2549TIP3    H2 7612   3.876   2.512   1.059
 2550TIP3   OH2 7613   5.619   2.843   3.557
 2550TIP3    H1 7614   5.670   2.820   3.635
 2550TIP3    H2 7615   5.650   2.930   3.532
 2551TIP3   OH2 7616   3.789   5.477   5.820
 2551TIP3    H1 7617   3.757   5.387   5.811
 2551TIP3    H2 7618   3.767   5.519   5.737
 2552TIP3   OH2 7619   1.737   4.836   2.603
 2552TIP3    H1 7620   1.718   4.925   2.572
 2552TIP3    H2 7621   1.716   4.780   2.528
 2553TIP3   OH2 7622   4.736   4.539   0.711
 2553TIP3    H1 7623   4.732   4.477   0.639
 2553TIP3    H2 7624   4.658   4.521   0.764
 2554TIP3   OH2 7625   6.493   0.344   3.208
 2554TIP3    H1 7626   6.490   0.268   3.266
 2554TIP3    H2 7627   6.525   0.415   3.263
 2555TIP3   OH2 7628   5.254   5.606   1.942
 2555TIP3    H1 7629   5.191   5.657   1.993
 2555TIP3    H2 7630   5.260   5.523   1.989
 2556TIP3   OH2 7631   0.714   2.623   1.670
 2556TIP3    H1 7632   0.723   2.584   1.757
 2556TIP3    H2 7633   0.798   2.606   1.627
 2557TIP3   OH2 7634   6.467   0.575   5.674
 2557TIP3    H1 7635   6.554   0.555   5.640
 2557TIP3    H2 7636   6.435   0.492   5.708
 2558TIP3   OH2 7637   7.140   2.413   3.371
 2558TIP3    H1 7638   7.192   2.407   3.451
 2558TIP3    H2 7639   7.175   2.345   3.313
 2559TIP3   OH2 7640   2.882   4.665   1.557
 2559TIP3    H1 7641   2.797   4.680   1.597
 2559TIP3    H2 7642   2.926   4.750   1.562
 2560TIP3   OH2 7643   3.119   2.679   2.174
 2560TIP3    H1 7644   3.052   2.623   2.213
 2560TIP3    H2 7645   3.081   2.705   2.089
 2561TIP3   OH2 7646   7.197   4.429   5.152
 2561TIP3    H1 7647   7.138   4.490   5.108
 2561TIP3    H2 7648   7.144   4.388   5.220
 2562TIP3   OH2 7649   0.153   4.093   0.085
 2562TIP3    H1 7650   0.058   4.087   0.072
 2562TIP3    H2 7651   0.173   4.026   0.149
 2563TIP3   OH2 7652   0.119   1.590   2.421
 2563TIP3    H1 7653   0.190   1.611   2.481
 2563TIP3    H2 7654   0.129   1.652   2.349
 2564TIP3   OH2 7655   0.344   0.364   2.804
 2564TIP3    H1 7656   0.347   0.427   2.876
 2564TIP3    H2 7657   0.263   0.315   2.819
 2565TIP3   OH2 7658   2.817   1.232   5.374
 2565TIP3    H1 7659   2.870   1.295   5.423
 2565TIP3    H2 7660   2.813   1.155   5.430
 2566TIP3   OH2 7661   1.127   4.390   5.715
 2566TIP3    H1 7662   1.195   4.400   5.782
 2566TIP3    H2 7663   1.176   4.387   5.633
 2567TIP3   OH2 7664   4.418   6.041   5.864
 2567TIP3    H1 7665   4.376   6.021   5.780
 2567TIP3    H2 7666   4.419   6.137   5.869
 2568TIP3   OH2 7667   1.119   4.488   1.054
 2568TIP3    H1 7668   1.067   4.563   1.084
 2568TIP3    H2 7669   1.162   4.455   1.133
 2569TIP3   OH2 7670   0.188   0.177   1.282
 2569TIP3    H1 7671   0.185   0.177   1.186
 2569TIP3    H2 7672   0.209   0.086   1.305
 2570TIP3   OH2 7673   4.670   1.623   4.965
 2570TIP3    H1 7674   4.749   1.647   4.918
 2570TIP3    H2 7675   4.661   1.528   4.952
 2571TIP3   OH2 7676   1.528   0.931   3.573
 2571TIP3    H1 7677   1.536   0.877   3.652
 2571TIP3    H2 7678   1.491   0.873   3.508
 2572TIP3   OH2 7679   4.636   5.817   5.312
 2572TIP3    H1 7680   4.686   5.787   5.387
 2572TIP3    H2 7681   4.612   5.907   5.333
 2573TIP3   OH2 7682   6.031   5.685   1.888
 2573TIP3    H1 7683   6.100   5.690   1.821
 2573TIP3    H2 7684   6.065   5.622   1.952
 2574TIP3   OH2 7685   2.706   2.004   0.743
 2574TIP3    H1 7686   2.704   1.926   0.688
 2574TIP3    H2 7687   2.706   2.077   0.682
 2575TIP3   OH2 7688   2.906   2.083   3.812
 2575TIP3    H1 7689   2.820   2.061   3.777
 2575TIP3    H2 7690   2.943   2.144   3.749
 2576TIP3   OH2 7691   6.579   1.603   3.481
 2576TIP3    H1 7692   6.666   1.625   3.445
 2576TIP3    H2 7693   6.598   1.540   3.551
 2577TIP3   OH2 7694   0.176   3.680   2.529
 2577TIP3    H1 7695   0.166   3.594   2.487
 2577TIP3    H2 7696   0.238   3.664   2.601
 2578TIP3   OH2 7697   4.953   5.598   1.699
 2578TIP3    H1 7698   4.966   5.512   1.658
 2578TIP3    H2 7699   5.036   5.643   1.687
 2579TIP3   OH2 7700   1.009   4.638   4.082
 2579TIP3    H1 7701   1.101   4.613   4.071
 2579TIP3    H2 7702   0.960   4.564   4.047
 2580TIP3   OH2 7703   0.548   4.471   1.827
 2580TIP3    H1 7704   0.638   4.487   1.797
 2580TIP3    H2 7705   0.557   4.400   1.891
 2581TIP3   OH2 7706   5.022   4.792   4.374
 2581TIP3    H1 7707   4.933   4.817   4.349
 2581TIP3    H2 7708   5.046   4.722   4.313
 2582TIP3   OH2 7709   3.747   2.119   5.407
 2582TIP3    H1 7710   3.702   2.143   5.488
 2582TIP3    H2 7711   3.691   2.155   5.338
 2583TIP3   OH2 7712   4.241   2.398   2.714
 2583TIP3    H1 7713   4.261   2.312   2.751
 2583TIP3    H2 7714   4.262   2.388   2.620
 2584TIP3   OH2 7715   5.366   4.054   5.676
 2584TIP3    H1 7716   5.461   4.062   5.668
 2584TIP3    H2 7717   5.344   4.102   5.755
 2585TIP3   OH2 7718   0.121   5.580   0.228
 2585TIP3    H1 7719   0.173   5.644   0.277
 2585TIP3    H2 7720   0.046   5.563   0.285
 2586TIP3   OH2 7721   0.656   1.201   5.484
 2586TIP3    H1 7722   0.642   1.295   5.482
 2586TIP3    H2 7723   0.750   1.191   5.464
 2587TIP3   OH2 7724   7.236   4.710   4.049
 2587TIP3    H1 7725   7.168   4.720   3.982
 2587TIP3    H2 7726   7.301   4.653   4.008
 2588TIP3   OH2 7727   5.765   2.229   5.717
 2588TIP3    H1 7728   5.692   2.290   5.716
 2588TIP3    H2 7729   5.782   2.213   5.810
 2589TIP3   OH2 7730   2.649   4.092   5.898
 2589TIP3    H1 7731   2.555   4.110   5.898
 2589TIP3    H2 7732   2.676   4.106   5.807
 2590TIP3   OH2 7733   6.965   4.328   0.097
 2590TIP3    H1 7734   6.982   4.377   0.017
 2590TIP3    H2 7735   6.875   4.298   0.087
 2591TIP3   OH2 7736   1.044   6.330   2.460
 2591TIP3    H1 7737   0.984   6.278   2.514
 2591TIP3    H2 7738   1.088   6.265   2.405
 2592TIP3   OH2 7739   6.500   0.686   3.117
 2592TIP3    H1 7740   6.512   0.777   3.092
 2592TIP3    H2 7741   6.406   0.670   3.105
 2593TIP3   OH2 7742   2.546   4.923   2.588
 2593TIP3    H1 7743   2.635   4.900   2.615
 2593TIP3    H2 7744   2.492   4.851   2.621
 2594TIP3   OH2 7745   2.823   4.007   2.050
 2594TIP3    H1 7746   2.856   4.095   2.068
 2594TIP3    H2 7747   2.866   3.981   1.968
 2595TIP3   OH2 7748   2.841   4.464   5.517
 2595TIP3    H1 7749   2.804   4.446   5.431
 2595TIP3    H2 7750   2.904   4.394   5.531
 2596TIP3   OH2 7751   6.664   3.896   1.622
 2596TIP3    H1 7752   6.592   3.956   1.603
 2596TIP3    H2 7753   6.717   3.896   1.542
 2597TIP3   OH2 7754   5.951   6.546   2.532
 2597TIP3    H1 7755   5.887   6.574   2.467
 2597TIP3    H2 7756   6.028   6.600   2.516
 2598TIP3   OH2 7757   1.801   1.408   0.034
 2598TIP3    H1 7758   1.768   1.498   0.030
 2598TIP3    H2 7759   1.866   1.409   0.104
 2599TIP3   OH2 7760   4.043   4.158   0.439
 2599TIP3    H1 7761   3.989   4.082   0.459
 2599TIP3    H2 7762   4.048   4.160   0.344
 2600TIP3   OH2 7763   3.201   5.948   1.723
 2600TIP3    H1 7764   3.242   6.034   1.713
 2600TIP3    H2 7765   3.258   5.888   1.674
 2601TIP3   OH2 7766   4.837   4.991   0.577
 2601TIP3    H1 7767   4.875   5.066   0.531
 2601TIP3    H2 7768   4.882   4.990   0.661
 2602TIP3   OH2 7769   5.118   1.114   3.623
 2602TIP3    H1 7770   5.140   1.066   3.543
 2602TIP3    H2 7771   5.174   1.192   3.620
 2603TIP3   OH2 7772   6.655   5.915   3.916
 2603TIP3    H1 7773   6.565   5.946   3.907
 2603TIP3    H2 7774   6.654   5.826   3.883
 2604TIP3   OH2 7775   0.744   0.292   1.248
 2604TIP3    H1 7776   0.748   0.213   1.302
 2604TIP3    H2 7777   0.652   0.298   1.221
 2605TIP3   OH2 7778   0.368   1.749   2.998
 2605TIP3    H1 7779   0.460   1.724   2.999
 2605TIP3    H2 7780   0.351   1.775   2.908
 2606TIP3   OH2 7781   3.893   5.893   1.255
 2606TIP3    H1 7782   3.931   5.813   1.291
 2606TIP3    H2 7783   3.833   5.924   1.323
 2607TIP3   OH2 7784   1.645   2.796   0.827
 2607TIP3    H1 7785   1.584   2.731   0.793
 2607TIP3    H2 7786   1.718   2.744   0.862
 2608TIP3   OH2 7787   5.164   4.301   4.347
 2608TIP3    H1 7788   5.200   4.273   4.431
 2608TIP3    H2 7789   5.172   4.396   4.347
 2609TIP3   OH2 7790   1.102   3.407   1.170
 2609TIP3    H1 7791   1.162   3.431   1.241
 2609TIP3    H2 7792   1.023   3.458   1.186
 2610TIP3   OH2 7793   4.526   3.095   3.458
 2610TIP3    H1 7794   4.458   3.149   3.419
 2610TIP3    H2 7795   4.504   3.006   3.430
 2611TIP3   OH2 7796   0.976   4.553   3.411
 2611TIP3    H1 7797   1.014   4.485   3.355
 2611TIP3    H2 7798   0.948   4.506   3.490
 2612TIP3   OH2 7799   1.876   5.632   2.399
 2612TIP3    H1 7800   1.911   5.598   2.318
 2612TIP3    H2 7801   1.948   5.628   2.461
 2613TIP3   OH2 7802   6.303   3.327   3.708
 2613TIP3    H1 7803   6.311   3.374   3.791
 2613TIP3    H2 7804   6.354   3.378   3.646
 2614TIP3   OH2 7805   2.921   6.295   1.535
 2614TIP3    H1 7806   3.000   6.284   1.482
 2614TIP3    H2 7807   2.913   6.214   1.584
 2615TIP3   OH2 7808   5.390   2.740   0.488
 2615TIP3    H1 7809   5.353   2.679   0.424
 2615TIP3    H2 7810   5.435   2.684   0.551
 2616TIP3   OH2 7811   2.956   6.584   1.381
 2616TIP3    H1 7812   3.015   6.527   1.333
 2616TIP3    H2 7813   2.911   6.634   1.312
 2617TIP3   OH2 7814   1.103   6.176   3.526
 2617TIP3    H1 7815   1.183   6.226   3.538
 2617TIP3    H2 7816   1.126   6.087   3.552
 2618TIP3   OH2 7817   3.577   2.099   5.617
 2618TIP3    H1 7818   3.572   2.073   5.709
 2618TIP3    H2 7819   3.501   2.058   5.576
 2619TIP3   OH2 7820   2.889   0.699   1.045
 2619TIP3    H1 7821   2.807   0.660   1.016
 2619TIP3    H2 7822   2.863   0.768   1.106
 2620TIP3   OH2 7823   1.954   2.347   0.308
 2620TIP3    H1 7824   1.998   2.429   0.284
 2620TIP3    H2 7825   1.971   2.337   0.401
 2621TIP3   OH2 7826   2.238   0.373   5.621
 2621TIP3    H1 7827   2.184   0.439   5.664
 2621TIP3    H2 7828   2.275   0.418   5.545
 2622TIP3   OH2 7829   6.649   2.797   3.234
 2622TIP3    H1 7830   6.623   2.785   3.326
 2622TIP3    H2 7831   6.570   2.832   3.192
 2623TIP3   OH2 7832   4.911   4.732   1.063
 2623TIP3    H1 7833   4.991   4.762   1.106
 2623TIP3    H2 7834   4.869   4.675   1.127
 2624TIP3   OH2 7835   4.425   5.387   0.505
 2624TIP3    H1 7836   4.357   5.326   0.478
 2624TIP3    H2 7837   4.415   5.462   0.446
 2625TIP3   OH2 7838   0.159   2.409   4.289
 2625TIP3    H1 7839   0.222   2.380   4.356
 2625TIP3    H2 7840   0.091   2.454   4.338
 2626TIP3   OH2 7841   0.491   4.122   4.779
 2626TIP3    H1 7842   0.581   4.097   4.755
 2626TIP3    H2 7843   0.502   4.173   4.859
 2627TIP3   OH2 7844   4.490   1.305   2.818
 2627TIP3    H1 7845   4.408   1.308   2.768
 2627TIP3    H2 7846   4.463   1.289   2.908
 2628TIP3   OH2 7847   2.991   3.937   5.586
 2628TIP3    H1 7848   3.017   3.846   5.576
 2628TIP3    H2 7849   2.954   3.942   5.674
 2629TIP3   OH2 7850   5.549   1.437   1.130
 2629TIP3    H1 7851   5.607   1.499   1.085
 2629TIP3    H2 7852   5.464   1.447   1.087
 2630TIP3   OH2 7853   5.341   2.113   1.826
 2630TIP3    H1 7854   5.381   2.197   1.848
 2630TIP3    H2 7855   5.413   2.060   1.792
 2631TIP3   OH2 7856   0.275   4.799   0.555
 2631TIP3    H1 7857   0.241   4.868   0.498
 2631TIP3    H2 7858   0.335   4.750   0.500
 2632TIP3   OH2 7859   4.472   3.064   0.451
 2632TIP3    H1 7860   4.493   3.149   0.410
 2632TIP3    H2 7861   4.427   3.088   0.532
 2633TIP3   OH2 7862   0.097   3.757   0.439
 2633TIP3    H1 7863   0.003   3.754   0.420
 2633TIP3    H2 7864   0.109   3.696   0.512
 2634TIP3   OH2 7865   5.333   0.238   2.921
 2634TIP3    H1 7866   5.331   0.232   3.017
 2634TIP3    H2 7867   5.247   0.274   2.898
 2635TIP3   OH2 7868   1.970   1.116   3.338
 2635TIP3    H1 7869   1.919   1.066   3.401
 2635TIP3    H2 7870   1.929   1.203   3.337
 2636TIP3   OH2 7871   6.247   6.557   0.130
 2636TIP3    H1 7872   6.286   6.472   0.150
 2636TIP3    H2 7873   6.194   6.577   0.208
 2637TIP3   OH2 7874   3.971   2.594   4.615
 2637TIP3    H1 7875   4.030   2.626   4.547
 2637TIP3    H2 7876   4.007   2.630   4.697
 2638TIP3   OH2 7877   4.100   0.411   5.729
 2638TIP3    H1 7878   4.013   0.393   5.693
 2638TIP3    H2 7879   4.124   0.496   5.693
 2639TIP3   OH2 7880   5.797   2.341   3.848
 2639TIP3    H1 7881   5.797   2.436   3.834
 2639TIP3    H2 7882   5.705   2.316   3.844
 2640TIP3   OH2 7883   1.412   6.556   0.824
 2640TIP3    H1 7884   1.414   6.527   0.915
 2640TIP3    H2 7885   1.331   6.520   0.789
 2641TIP3   OH2 7886   5.559   0.272   2.322
 2641TIP3    H1 7887   5.576   0.238   2.235
 2641TIP3    H2 7888   5.513   0.201   2.368
 2642TIP3   OH2 7889   4.476   6.063   5.038
 2642TIP3    H1 7890   4.557   6.042   5.084
 2642TIP3    H2 7891   4.501   6.132   4.977
 2643TIP3   OH2 7892   6.556   1.877   1.052
 2643TIP3    H1 7893   6.481   1.818   1.053
 2643TIP3    H2 7894   6.603   1.855   0.971
 2644TIP3   OH2 7895   5.734   2.786   2.977
 2644TIP3    H1 7896   5.688   2.827   2.904
 2644TIP3    H2 7897   5.690   2.820   3.055
 2645TIP3   OH2 7898   1.365   6.165   5.921
 2645TIP3    H1 7899   1.291   6.213   5.886
 2645TIP3    H2 7900   1.434   6.231   5.932
 2646TIP3   OH2 7901   3.176   4.641   4.833
 2646TIP3    H1 7902   3.115   4.704   4.795
 2646TIP3    H2 7903   3.254   4.692   4.856
 2647TIP3   OH2 7904   6.879   3.882   0.916
 2647TIP3    H1 7905   6.920   3.960   0.953
 2647TIP3    H2 7906   6.866   3.824   0.991
 2648TIP3   OH2 7907   3.654   0.739   3.734
 2648TIP3    H1 7908   3.662   0.679   3.661
 2648TIP3    H2 7909   3.568   0.722   3.771
 2649TIP3   OH2 7910   3.611   3.342   3.727
 2649TIP3    H1 7911   3.548   3.411   3.707
 2649TIP3    H2 7912   3.655   3.324   3.644
 2650TIP3   OH2 7913   5.247   3.715   5.552
 2650TIP3    H1 7914   5.176   3.779   5.561
 2650TIP3    H2 7915   5.236   3.679   5.464
 2651TIP3   OH2 7916   5.678   0.572   0.675
 2651TIP3    H1 7917   5.615   0.504   0.697
 2651TIP3    H2 7918   5.669   0.584   0.581
 2652TIP3   OH2 7919   3.354   2.077   2.092
 2652TIP3    H1 7920   3.406   2.002   2.122
 2652TIP3    H2 7921   3.344   2.132   2.169
 2653TIP3   OH2 7922   1.672   0.536   2.981
 2653TIP3    H1 7923   1.652   0.607   3.042
 2653TIP3    H2 7924   1.761   0.509   3.005
 2654TIP3   OH2 7925   2.303   2.281   1.426
 2654TIP3    H1 7926   2.225   2.230   1.444
 2654TIP3    H2 7927   2.354   2.227   1.365
 2655TIP3   OH2 7928   6.976   4.481   0.841
 2655TIP3    H1 7929   7.040   4.483   0.771
 2655TIP3    H2 7930   6.927   4.400   0.826
 2656TIP3   OH2 7931   6.763   1.588   4.424
 2656TIP3    H1 7932   6.712   1.621   4.499
 2656TIP3    H2 7933   6.854   1.594   4.452
 2657TIP3   OH2 7934   3.964   0.369   3.064
 2657TIP3    H1 7935   3.968   0.375   2.968
 2657TIP3    H2 7936   4.021   0.295   3.085
 2658TIP3   OH2 7937   3.445   4.769   1.732
 2658TIP3    H1 7938   3.521   4.765   1.790
 2658TIP3    H2 7939   3.481   4.756   1.644
 2659TIP3   OH2 7940   6.459   3.738   5.817
 2659TIP3    H1 7941   6.400   3.801   5.859
 2659TIP3    H2 7942   6.542   3.749   5.863
 2660TIP3   OH2 7943   4.296   4.319   0.006
 2660TIP3    H1 7944   4.306   4.229   0.040
 2660TIP3    H2 7945   4.202   4.334   0.007
 2661TIP3   OH2 7946   3.448   0.049   0.434
 2661TIP3    H1 7947   3.504   0.017   0.504
 2661TIP3    H2 7948   3.496   0.122   0.394
 2662TIP3   OH2 7949   4.213   3.726   2.219
 2662TIP3    H1 7950   4.165   3.731   2.302
 2662TIP3    H2 7951   4.299   3.690   2.243
 2663TIP3   OH2 7952   4.922   4.355   4.167
 2663TIP3    H1 7953   5.012   4.332   4.188
 2663TIP3    H2 7954   4.919   4.355   4.071
 2664TIP3   OH2 7955   1.627   5.089   2.502
 2664TIP3    H1 7956   1.555   5.145   2.471
 2664TIP3    H2 7957   1.696   5.102   2.437
 2665TIP3   OH2 7958   3.241   0.633   4.778
 2665TIP3    H1 7959   3.148   0.613   4.791
 2665TIP3    H2 7960   3.241   0.701   4.711
 2666TIP3   OH2 7961   1.410   5.560   0.691
 2666TIP3    H1 7962   1.464   5.518   0.624
 2666TIP3    H2 7963   1.345   5.610   0.641
 2667TIP3   OH2 7964   4.635   0.529   2.330
 2667TIP3    H1 7965   4.638   0.542   2.425
 2667TIP3    H2 7966   4.694   0.455   2.315
 2668TIP3   OH2 7967   2.009   0.458   2.751
 2668TIP3    H1 7968   1.949   0.481   2.680
 2668TIP3    H2 7969   2.093   0.495   2.724
 2669TIP3   OH2 7970   0.085   3.330   1.758
 2669TIP3    H1 7971   0.113   3.419   1.779
 2669TIP3    H2 7972   0.082   3.327   1.663
 2670TIP3   OH2 7973   0.739   6.478   1.903
 2670TIP3    H1 7974   0.823   6.434   1.890
 2670TIP3    H2 7975   0.763   6.565   1.936
 2671TIP3   OH2 7976   6.762   1.944   3.812
 2671TIP3    H1 7977   6.768   1.856   3.849
 2671TIP3    H2 7978   6.821   1.943   3.737
 2672TIP3   OH2 7979   6.841   2.300   5.678
 2672TIP3    H1 7980   6.753   2.330   5.700
 2672TIP3    H2 7981   6.847   2.212   5.715
 2673TIP3   OH2 7982   6.094   0.379   5.721
 2673TIP3    H1 7983   6.079   0.314   5.791
 2673TIP3    H2 7984   6.149   0.446   5.761
 2674TIP3   OH2 7985   6.422   3.956   0.633
 2674TIP3    H1 7986   6.443   3.892   0.702
 2674TIP3    H2 7987   6.331   3.936   0.609
 2675TIP3   OH2 7988   0.378   2.399   3.381
 2675TIP3    H1 7989   0.373   2.406   3.476
 2675TIP3    H2 7990   0.424   2.479   3.353
 2676TIP3   OH2 7991   7.099   6.327   0.668
 2676TIP3    H1 7992   7.071   6.261   0.731
 2676TIP3    H2 7993   7.193   6.335   0.681
 2677TIP3   OH2 7994   2.886   2.962   5.485
 2677TIP3    H1 7995   2.893   2.868   5.498
 2677TIP3    H2 7996   2.794   2.982   5.501
 2678TIP3   OH2 7997   1.793   0.398   1.676
 2678TIP3    H1 7998   1.700   0.381   1.660
 2678TIP3    H2 7999   1.803   0.393   1.771
 2679TIP3   OH2 8000   3.097   6.402   0.483
 2679TIP3    H1 8001   3.192   6.398   0.470
 2679TIP3    H2 8002   3.062   6.424   0.396
 2680TIP3   OH2 8003   0.312   4.935   0.778
 2680TIP3    H1 8004   0.288   4.878   0.706
 2680TIP3    H2 8005   0.406   4.924   0.788
 2681TIP3   OH2 8006   3.693   3.091   1.609
 2681TIP3    H1 8007   3.622   3.124   1.664
 2681TIP3    H2 8008   3.652   3.025   1.553
 2682TIP3   OH2 8009   6.613   2.365   0.128
 2682TIP3    H1 8010   6.532   2.316   0.140
 2682TIP3    H2 8011   6.617   2.384   0.034
 2683TIP3   OH2 8012   3.078   4.102   0.665
 2683TIP3    H1 8013   3.012   4.112   0.596
 2683TIP3    H2 8014   3.117   4.016   0.648
 2684TIP3   OH2 8015   3.281   6.713   3.205
 2684TIP3    H1 8016   3.274   6.805   3.231
 2684TIP3    H2 8017   3.278   6.714   3.110
 2685TIP3   OH2 8018   7.074   0.240   0.679
 2685TIP3    H1 8019   7.010   0.310   0.687
 2685TIP3    H2 8020   7.023   0.159   0.683
 2686TIP3   OH2 8021   7.194   2.746   5.355
 2686TIP3    H1 8022   7.164   2.706   5.274
 2686TIP3    H2 8023   7.274   2.698   5.378
 2687TIP3   OH2 8024   6.026   4.394   2.687
 2687TIP3    H1 8025   6.096   4.331   2.670
 2687TIP3    H2 8026   6.022   4.400   2.782
 2688TIP3   OH2 8027   1.773   0.089   1.609
 2688TIP3    H1 8028   1.710   0.157   1.585
 2688TIP3    H2 8029   1.795   0.108   1.700
 2689TIP3   OH2 8030   5.413   5.056   4.591
 2689TIP3    H1 8031   5.349   5.032   4.523
 2689TIP3    H2 8032   5.366   5.116   4.648
 2690TIP3   OH2 8033   3.176   5.174   2.470
 2690TIP3    H1 8034   3.090   5.217   2.479
 2690TIP3    H2 8035   3.229   5.238   2.422
 2691TIP3   OH2 8036   2.751   1.802   0.592
 2691TIP3    H1 8037   2.831   1.754   0.573
 2691TIP3    H2 8038   2.680   1.741   0.571
 2692TIP3   OH2 8039   6.195   6.667   2.141
 2692TIP3    H1 8040   6.172   6.650   2.233
 2692TIP3    H2 8041   6.122   6.631   2.091
 2693TIP3   OH2 8042   6.880   2.693   1.305
 2693TIP3    H1 8043   6.949   2.643   1.349
 2693TIP3    H2 8044   6.798   2.654   1.336
 2694TIP3   OH2 8045   3.726   3.948   2.179
 2694TIP3    H1 8046   3.714   4.003   2.102
 2694TIP3    H2 8047   3.648   3.893   2.182
 2695TIP3   OH2 8048   0.244   1.708   2.648
 2695TIP3    H1 8049   0.256   1.793   2.689
 2695TIP3    H2 8050   0.308   1.651   2.690
 2696TIP3   OH2 8051   7.023   6.281   5.421
 2696TIP3    H1 8052   6.968   6.252   5.493
 2696TIP3    H2 8053   6.961   6.313   5.355
 2697TIP3   OH2 8054   4.773   1.027   3.572
 2697TIP3    H1 8055   4.699   1.074   3.611
 2697TIP3    H2 8056   4.801   1.083   3.499
 2698TIP3   OH2 8057   3.321   5.288   1.839
 2698TIP3    H1 8058   3.228   5.302   1.820
 2698TIP3    H2 8059   3.341   5.204   1.797
 2699TIP3   OH2 8060   2.039   3.621   1.106
 2699TIP3    H1 8061   1.979   3.573   1.050
 2699TIP3    H2 8062   2.124   3.615   1.062
 2700TIP3   OH2 8063   4.623   6.578   0.261
 2700TIP3    H1 8064   4.654   6.631   0.187
 2700TIP3    H2 8065   4.645   6.488   0.237
 2701TIP3   OH2 8066   5.160   6.672   1.673
 2701TIP3    H1 8067   5.212   6.704   1.599
 2701TIP3    H2 8068   5.192   6.722   1.748
 2702TIP3   OH2 8069   6.830   3.268   4.481
 2702TIP3    H1 8070   6.855   3.359   4.464
 2702TIP3    H2 8071   6.739   3.263   4.451
 2703TIP3   OH2 8072   1.898   5.140   3.118
 2703TIP3    H1 8073   1.947   5.212   3.079
 2703TIP3    H2 8074   1.958   5.066   3.115
 2704TIP3   OH2 8075   0.472   0.486   4.840
 2704TIP3    H1 8076   0.455   0.407   4.892
 2704TIP3    H2 8077   0.566   0.501   4.849
 2705TIP3   OH2 8078   3.410   0.959   4.105
 2705TIP3    H1 8079   3.460   0.944   4.186
 2705TIP3    H2 8080   3.396   0.871   4.070
 2706TIP3   OH2 8081   4.050   5.516   0.683
 2706TIP3    H1 8082   3.981   5.465   0.726
 2706TIP3    H2 8083   4.111   5.537   0.754
 2707TIP3   OH2 8084   6.272   2.846   2.174
 2707TIP3    H1 8085   6.266   2.900   2.094
 2707TIP3    H2 8086   6.358   2.804   2.168
 2708TIP3   OH2 8087   1.633   2.857   4.320
 2708TIP3    H1 8088   1.557   2.903   4.356
 2708TIP3    H2 8089   1.597   2.777   4.282
 2709TIP3   OH2 8090   5.067   6.092   1.855
 2709TIP3    H1 8091   5.082   6.164   1.916
 2709TIP3    H2 8092   5.121   6.020   1.889
 2710TIP3   OH2 8093  -0.007   2.564   4.444
 2710TIP3    H1 8094   0.018   2.657   4.445
 2710TIP3    H2 8095  -0.101   2.564   4.429
 2711TIP3   OH2 8096   6.348   3.534   0.074
 2711TIP3    H1 8097   6.329   3.622   0.042
 2711TIP3    H2 8098   6.435   3.540   0.112
 2712TIP3   OH2 8099   4.216   0.531   2.973
 2712TIP3    H1 8100   4.265   0.573   2.902
 2712TIP3    H2 8101   4.137   0.585   2.982
 2713TIP3   OH2 8102   0.088   0.951   0.440
 2713TIP3    H1 8103   0.157   0.912   0.385
 2713TIP3    H2 8104   0.014   0.961   0.381
 2714TIP3   OH2 8105   3.633   3.753   3.684
 2714TIP3    H1 8106   3.727   3.754   3.703
 2714TIP3    H2 8107   3.613   3.661   3.668
 2715TIP3   OH2 8108   3.988   2.567   0.823
 2715TIP3    H1 8109   4.035   2.577   0.906
 2715TIP3    H2 8110   4.054   2.539   0.760
 2716TIP3   OH2 8111   7.031   4.316   5.337
 2716TIP3    H1 8112   6.943   4.292   5.305
 2716TIP3    H2 8113   7.016   4.352   5.424
 2717TIP3   OH2 8114   0.649   4.241   4.507
 2717TIP3    H1 8115   0.676   4.164   4.556
 2717TIP3    H2 8116   0.637   4.309   4.574
 2718TIP3   OH2 8117   5.720   6.781   0.425
 2718TIP3    H1 8118   5.693   6.825   0.344
 2718TIP3    H2 8119   5.696   6.690   0.411
 2719TIP3   OH2 8120   3.182   5.006   2.171
 2719TIP3    H1 8121   3.097   5.008   2.128
 2719TIP3    H2 8122   3.236   5.067   2.120
 2720TIP3   OH2 8123   7.156   0.276   1.288
 2720TIP3    H1 8124   7.231   0.217   1.293
 2720TIP3    H2 8125   7.168   0.336   1.361
 2721TIP3   OH2 8126   3.741   6.594   3.232
 2721TIP3    H1 8127   3.659   6.560   3.267
 2721TIP3    H2 8128   3.719   6.628   3.145
 2722TIP3   OH2 8129   2.792   4.016   4.091
 2722TIP3    H1 8130   2.707   4.046   4.061
 2722TIP3    H2 8131   2.813   3.942   4.034
 2723TIP3   OH2 8132   3.292   6.600   1.377
 2723TIP3    H1 8133   3.326   6.568   1.460
 2723TIP3    H2 8134   3.368   6.602   1.319
 2724TIP3   OH2 8135   1.068   3.749   0.412
 2724TIP3    H1 8136   1.161   3.766   0.426
 2724TIP3    H2 8137   1.040   3.817   0.352
 2725TIP3   OH2 8138   6.391   6.419   4.471
 2725TIP3    H1 8139   6.452   6.464   4.530
 2725TIP3    H2 8140   6.307   6.463   4.486
 2726TIP3   OH2 8141   4.667   5.478   0.217
 2726TIP3    H1 8142   4.666   5.467   0.312
 2726TIP3    H2 8143   4.606   5.550   0.201
 2727TIP3   OH2 8144   0.901   5.064   1.386
 2727TIP3    H1 8145   0.907   5.080   1.292
 2727TIP3    H2 8146   0.989   5.083   1.420
 2728TIP3   OH2 8147   0.215   6.026   0.358
 2728TIP3    H1 8148   0.276   6.079   0.409
 2728TIP3    H2 8149   0.207   6.072   0.275
 2729TIP3   OH2 8150   1.354   2.932   3.209
 2729TIP3    H1 8151   1.300   2.860   3.241
 2729TIP3    H2 8152   1.297   3.009   3.214
 2730TIP3   OH2 8153   3.841   5.335   3.758
 2730TIP3    H1 8154   3.812   5.260   3.706
 2730TIP3    H2 8155   3.772   5.347   3.823
 2731TIP3   OH2 8156   4.723   4.771   1.989
 2731TIP3    H1 8157   4.774   4.851   2.002
 2731TIP3    H2 8158   4.660   4.771   2.060
 2732TIP3   OH2 8159   6.276   1.318   2.966
 2732TIP3    H1 8160   6.342   1.387   2.965
 2732TIP3    H2 8161   6.195   1.362   2.942
 2733TIP3   OH2 8162   5.494   1.676   1.461
 2733TIP3    H1 8163   5.586   1.689   1.435
 2733TIP3    H2 8164   5.492   1.589   1.499
 2734TIP3   OH2 8165   5.149   1.719   3.051
 2734TIP3    H1 8166   5.068   1.751   3.010
 2734TIP3    H2 8167   5.182   1.793   3.101
 2735TIP3   OH2 8168   0.368   5.978   3.315
 2735TIP3    H1 8169   0.438   5.961   3.379
 2735TIP3    H2 8170   0.355   5.895   3.271
 2736TIP3   OH2 8171   3.526   4.491   2.238
 2736TIP3    H1 8172   3.516   4.548   2.314
 2736TIP3    H2 8173   3.614   4.512   2.205
 2737TIP3   OH2 8174   0.819   5.197   3.189
 2737TIP3    H1 8175   0.823   5.105   3.215
 2737TIP3    H2 8176   0.845   5.245   3.268
 2738TIP3   OH2 8177   3.554   5.092   4.568
 2738TIP3    H1 8178   3.589   5.146   4.496
 2738TIP3    H2 8179   3.462   5.120   4.576
 2739TIP3   OH2 8180   2.269   1.397   2.135
 2739TIP3    H1 8181   2.262   1.302   2.144
 2739TIP3    H2 8182   2.349   1.410   2.083
 2740TIP3   OH2 8183   1.797  -0.016   4.105
 2740TIP3    H1 8184   1.704  -0.031   4.118
 2740TIP3    H2 8185   1.803   0.026   4.019
 2741TIP3   OH2 8186   2.447   3.545   2.201
 2741TIP3    H1 8187   2.355   3.568   2.201
 2741TIP3    H2 8188   2.489   3.610   2.257
 2742TIP3   OH2 8189   3.131   3.415   1.478
 2742TIP3    H1 8190   3.096   3.471   1.548
 2742TIP3    H2 8191   3.062   3.351   1.462
 2743TIP3   OH2 8192   0.362   1.938   2.433
 2743TIP3    H1 8193   0.456   1.943   2.415
 2743TIP3    H2 8194   0.336   1.852   2.401
 2744TIP3   OH2 8195   5.176   5.675   1.571
 2744TIP3    H1 8196   5.220   5.720   1.499
 2744TIP3    H2 8197   5.245   5.624   1.613
 2745TIP3   OH2 8198   4.222   1.317   2.828
 2745TIP3    H1 8199   4.177   1.355   2.904
 2745TIP3    H2 8200   4.179   1.356   2.752
 2746TIP3   OH2 8201   6.723   4.176   2.065
 2746TIP3    H1 8202   6.799   4.119   2.053
 2746TIP3    H2 8203   6.651   4.129   2.022
 2747TIP3   OH2 8204   6.134   3.631   4.326
 2747TIP3    H1 8205   6.195   3.630   4.253
 2747TIP3    H2 8206   6.179   3.584   4.396
 2748TIP3   OH2 8207   1.398   1.963   1.284
 2748TIP3    H1 8208   1.386   1.913   1.204
 2748TIP3    H2 8209   1.443   2.043   1.256
 2749TIP3   OH2 8210   0.070   0.909   4.366
 2749TIP3    H1 8211   0.024   0.954   4.436
 2749TIP3    H2 8212   0.139   0.860   4.411
 2750TIP3   OH2 8213   0.317   4.915   2.019
 2750TIP3    H1 8214   0.411   4.902   2.034
 2750TIP3    H2 8215   0.300   4.878   1.933
 2751TIP3   OH2 8216   4.031   0.651   1.104
 2751TIP3    H1 8217   4.035   0.744   1.125
 2751TIP3    H2 8218   4.047   0.607   1.187
 2752TIP3   OH2 8219   1.811   0.063   1.890
 2752TIP3    H1 8220   1.751  -0.009   1.907
 2752TIP3    H2 8221   1.895   0.033   1.927
 2753TIP3   OH2 8222   4.194   2.607   0.589
 2753TIP3    H1 8223   4.114   2.649   0.555
 2753TIP3    H2 8224   4.265   2.661   0.556
 2754TIP3   OH2 8225   7.055   0.507   5.396
 2754TIP3    H1 8226   7.055   0.438   5.330
 2754TIP3    H2 8227   7.148   0.525   5.411
 2755TIP3   OH2 8228   3.526   0.770   0.171
 2755TIP3    H1 8229   3.516   0.831   0.244
 2755TIP3    H2 8230   3.437   0.757   0.139
 2756TIP3   OH2 8231   5.856   3.676   4.156
 2756TIP3    H1 8232   5.929   3.633   4.200
 2756TIP3    H2 8233   5.894   3.755   4.118
 2757TIP3   OH2 8234   1.662   6.451   3.703
 2757TIP3    H1 8235   1.731   6.408   3.754
 2757TIP3    H2 8236   1.619   6.510   3.765
 2758TIP3   OH2 8237   1.206   0.938   3.935
 2758TIP3    H1 8238   1.172   0.998   4.002
 2758TIP3    H2 8239   1.300   0.952   3.936
 2759TIP3   OH2 8240   2.834   2.827   2.767
 2759TIP3    H1 8241   2.800   2.827   2.677
 2759TIP3    H2 8242   2.899   2.757   2.769
 2760TIP3   OH2 8243   2.989   2.236   1.539
 2760TIP3    H1 8244   3.067   2.275   1.500
 2760TIP3    H2 8245   2.985   2.273   1.627
 2761TIP3   OH2 8246   3.313   1.869   3.227
 2761TIP3    H1 8247   3.316   1.957   3.266
 2761TIP3    H2 8248   3.366   1.815   3.285
 2762TIP3   OH2 8249   0.517   0.754   1.067
 2762TIP3    H1 8250   0.541   0.764   1.159
 2762TIP3    H2 8251   0.520   0.660   1.052
 2763TIP3   OH2 8252   3.101   5.167   1.405
 2763TIP3    H1 8253   3.032   5.100   1.408
 2763TIP3    H2 8254   3.110   5.189   1.313
 2764TIP3   OH2 8255   1.391   0.338   0.416
 2764TIP3    H1 8256   1.405   0.245   0.434
 2764TIP3    H2 8257   1.394   0.346   0.321
 2765TIP3   OH2 8258   2.787   3.770   0.950
 2765TIP3    H1 8259   2.812   3.678   0.934
 2765TIP3    H2 8260   2.711   3.784   0.894
 2766TIP3   OH2 8261   5.522   0.011   5.386
 2766TIP3    H1 8262   5.609   0.038   5.355
 2766TIP3    H2 8263   5.519   0.042   5.477
 2767TIP3   OH2 8264   4.244   5.911   2.251
 2767TIP3    H1 8265   4.240   5.826   2.294
 2767TIP3    H2 8266   4.187   5.968   2.304
 2768TIP3   OH2 8267   0.907   3.016   1.415
 2768TIP3    H1 8268   0.960   3.043   1.340
 2768TIP3    H2 8269   0.967   2.966   1.470
 2769TIP3   OH2 8270   6.449   5.344   4.894
 2769TIP3    H1 8271   6.444   5.301   4.808
 2769TIP3    H2 8272   6.370   5.397   4.899
 2770TIP3   OH2 8273   1.942   2.861   0.368
 2770TIP3    H1 8274   1.895   2.944   0.371
 2770TIP3    H2 8275   1.874   2.795   0.381
 2771TIP3   OH2 8276   6.437   6.223   0.906
 2771TIP3    H1 8277   6.453   6.304   0.954
 2771TIP3    H2 8278   6.523   6.199   0.869
 2772TIP3   OH2 8279   2.226   6.073   5.272
 2772TIP3    H1 8280   2.152   6.134   5.275
 2772TIP3    H2 8281   2.185   5.987   5.259
 2773TIP3   OH2 8282   2.089   3.997   3.100
 2773TIP3    H1 8283   2.140   4.073   3.071
 2773TIP3    H2 8284   2.147   3.922   3.089
 2774TIP3   OH2 8285   5.058   1.736   2.109
 2774TIP3    H1 8286   5.030   1.646   2.124
 2774TIP3    H2 8287   5.096   1.735   2.021
 2775TIP3   OH2 8288   2.365   1.905   3.027
 2775TIP3    H1 8289   2.417   1.847   3.081
 2775TIP3    H2 8290   2.282   1.915   3.074
 2776TIP3   OH2 8291   5.874   1.648   3.250
 2776TIP3    H1 8292   5.950   1.667   3.305
 2776TIP3    H2 8293   5.909   1.648   3.161
 2777TIP3   OH2 8294   2.703   0.343   5.852
 2777TIP3    H1 8295   2.622   0.297   5.875
 2777TIP3    H2 8296   2.691   0.431   5.888
 2778TIP3   OH2 8297   5.471   1.242   2.455
 2778TIP3    H1 8298   5.559   1.268   2.429
 2778TIP3    H2 8299   5.475   1.237   2.550
 2779TIP3   OH2 8300   1.703   6.298   2.936
 2779TIP3    H1 8301   1.622   6.348   2.926
 2779TIP3    H2 8302   1.770   6.365   2.950
 2780TIP3   OH2 8303   7.205   4.146   2.128
 2780TIP3    H1 8304   7.189   4.211   2.060
 2780TIP3    H2 8305   7.118   4.121   2.159
 2781TIP3   OH2 8306   0.922   5.844   2.512
 2781TIP3    H1 8307   0.869   5.899   2.455
 2781TIP3    H2 8308   0.937   5.764   2.461
 2782TIP3   OH2 8309   3.735   1.466   3.622
 2782TIP3    H1 8310   3.767   1.494   3.537
 2782TIP3    H2 8311   3.668   1.400   3.602
 2783TIP3   OH2 8312   4.405   2.242   5.403
 2783TIP3    H1 8313   4.382   2.278   5.318
 2783TIP3    H2 8314   4.379   2.310   5.466
 2784TIP3   OH2 8315   2.749   3.324   5.201
 2784TIP3    H1 8316   2.679   3.285   5.253
 2784TIP3    H2 8317   2.714   3.327   5.112
 2785TIP3   OH2 8318   4.195   6.064   5.670
 2785TIP3    H1 8319   4.140   6.061   5.748
 2785TIP3    H2 8320   4.145   6.118   5.608
 2786TIP3   OH2 8321   1.206   3.785   2.409
 2786TIP3    H1 8322   1.286   3.823   2.445
 2786TIP3    H2 8323   1.237   3.722   2.344
 2787TIP3   OH2 8324   0.932   1.440   4.117
 2787TIP3    H1 8325   0.951   1.349   4.091
 2787TIP3    H2 8326   0.836   1.444   4.122
 2788TIP3   OH2 8327   1.272   3.338   2.800
 2788TIP3    H1 8328   1.351   3.351   2.851
 2788TIP3    H2 8329   1.298   3.277   2.730
 2789TIP3   OH2 8330   3.677   5.894   1.076
 2789TIP3    H1 8331   3.608   5.958   1.096
 2789TIP3    H2 8332   3.748   5.917   1.135
 2790TIP3   OH2 8333   3.055   5.969   2.618
 2790TIP3    H1 8334   3.067   6.036   2.550
 2790TIP3    H2 8335   3.089   5.889   2.579
 2791TIP3   OH2 8336   2.414   1.972   1.625
 2791TIP3    H1 8337   2.438   2.043   1.565
 2791TIP3    H2 8338   2.326   1.946   1.598
 2792TIP3   OH2 8339   0.366   5.245   4.723
 2792TIP3    H1 8340   0.378   5.272   4.632
 2792TIP3    H2 8341   0.300   5.176   4.719
 2793TIP3   OH2 8342   2.192   5.876   2.588
 2793TIP3    H1 8343   2.123   5.933   2.621
 2793TIP3    H2 8344   2.259   5.876   2.657
 2794TIP3   OH2 8345   6.513   5.480   1.516
 2794TIP3    H1 8346   6.473   5.548   1.462
 2794TIP3    H2 8347   6.555   5.528   1.587
 2795TIP3   OH2 8348   3.031   2.573   5.708
 2795TIP3    H1 8349   3.056   2.515   5.779
 2795TIP3    H2 8350   3.082   2.542   5.633
 2796TIP3   OH2 8351   4.777   3.455   1.711
 2796TIP3    H1 8352   4.789   3.546   1.684
 2796TIP3    H2 8353   4.858   3.411   1.683
 2797TIP3   OH2 8354   6.575   4.010   5.238
 2797TIP3    H1 8355   6.660   4.051   5.221
 2797TIP3    H2 8356   6.511   4.078   5.216
 2798TIP3   OH2 8357   7.027   2.405   5.537
 2798TIP3    H1 8358   6.974   2.353   5.597
 2798TIP3    H2 8359   6.975   2.483   5.519
 2799TIP3   OH2 8360   4.587   1.756   4.694
 2799TIP3    H1 8361   4.493   1.769   4.683
 2799TIP3    H2 8362   4.607   1.797   4.778
 2800TIP3   OH2 8363   3.675   1.184   5.488
 2800TIP3    H1 8364   3.756   1.211   5.531
 2800TIP3    H2 8365   3.692   1.195   5.394
 2801TIP3   OH2 8366   3.119   3.833   5.336
 2801TIP3    H1 8367   3.095   3.762   5.395
 2801TIP3    H2 8368   3.173   3.891   5.390
 2802TIP3   OH2 8369   4.382   0.558   3.182
 2802TIP3    H1 8370   4.306   0.529   3.131
 2802TIP3    H2 8371   4.447   0.489   3.170
 2803TIP3   OH2 8372   3.279   1.189   3.162
 2803TIP3    H1 8373   3.346   1.181   3.230
 2803TIP3    H2 8374   3.260   1.098   3.136
 2804TIP3   OH2 8375   0.573   2.909   3.779
 2804TIP3    H1 8376   0.616   2.991   3.758
 2804TIP3    H2 8377   0.486   2.916   3.740
 2805TIP3   OH2 8378   6.349   0.971   3.974
 2805TIP3    H1 8379   6.293   0.983   4.051
 2805TIP3    H2 8380   6.427   0.928   4.008
 2806TIP3   OH2 8381   0.996   5.634   1.782
 2806TIP3    H1 8382   1.072   5.688   1.764
 2806TIP3    H2 8383   0.956   5.673   1.860
 2807TIP3   OH2 8384   6.733   4.081   2.934
 2807TIP3    H1 8385   6.727   4.096   2.840
 2807TIP3    H2 8386   6.692   3.996   2.947
 2808TIP3   OH2 8387   3.784   1.243   4.293
 2808TIP3    H1 8388   3.723   1.178   4.330
 2808TIP3    H2 8389   3.737   1.326   4.301
 2809TIP3   OH2 8390   5.511   2.175   4.752
 2809TIP3    H1 8391   5.482   2.194   4.663
 2809TIP3    H2 8392   5.442   2.120   4.789
 2810TIP3   OH2 8393   6.824   3.647   3.122
 2810TIP3    H1 8394   6.752   3.587   3.103
 2810TIP3    H2 8395   6.896   3.590   3.150
 2811TIP3   OH2 8396   1.162   2.943   4.935
 2811TIP3    H1 8397   1.069   2.921   4.929
 2811TIP3    H2 8398   1.168   3.032   4.901
 2812TIP3   OH2 8399   1.962   0.543   0.732
 2812TIP3    H1 8400   2.011   0.495   0.665
 2812TIP3    H2 8401   1.971   0.635   0.707
 2813TIP3   OH2 8402   0.882   6.346   1.398
 2813TIP3    H1 8403   0.846   6.266   1.437
 2813TIP3    H2 8404   0.893   6.406   1.471
 2814TIP3   OH2 8405   6.066   6.729   1.203
 2814TIP3    H1 8406   6.111   6.683   1.275
 2814TIP3    H2 8407   6.003   6.786   1.247
 2815TIP3   OH2 8408   2.126   1.890   1.612
 2815TIP3    H1 8409   2.112   1.838   1.692
 2815TIP3    H2 8410   2.174   1.832   1.554
 2816TIP3   OH2 8411   1.901   4.388   3.673
 2816TIP3    H1 8412   1.992   4.412   3.660
 2816TIP3    H2 8413   1.853   4.471   3.673
 2817TIP3   OH2 8414   1.175   2.348   2.517
 2817TIP3    H1 8415   1.160   2.347   2.422
 2817TIP3    H2 8416   1.263   2.385   2.527
 2818TIP3   OH2 8417   5.108   3.011   0.149
 2818TIP3    H1 8418   5.144   2.975   0.230
 2818TIP3    H2 8419   5.180   3.006   0.086
 2819TIP3   OH2 8420   6.384   5.979   3.881
 2819TIP3    H1 8421   6.312   5.922   3.854
 2819TIP3    H2 8422   6.388   5.969   3.976
 2820TIP3   OH2 8423   0.533   5.707   1.670
 2820TIP3    H1 8424   0.595   5.664   1.729
 2820TIP3    H2 8425   0.569   5.693   1.582
 2821TIP3   OH2 8426   1.453   5.496   4.057
 2821TIP3    H1 8427   1.525   5.535   4.006
 2821TIP3    H2 8428   1.426   5.420   4.006
 2822TIP3   OH2 8429   2.395   5.151   3.727
 2822TIP3    H1 8430   2.459   5.084   3.751
 2822TIP3    H2 8431   2.361   5.183   3.811
 2823TIP3   OH2 8432   0.828   6.782   3.993
 2823TIP3    H1 8433   0.922   6.797   3.984
 2823TIP3    H2 8434   0.819   6.687   3.998
 2824TIP3   OH2 8435   1.997   4.168   1.401
 2824TIP3    H1 8436   2.030   4.227   1.334
 2824TIP3    H2 8437   1.902   4.183   1.401
 2825TIP3   OH2 8438   3.935   6.756   0.958
 2825TIP3    H1 8439   3.923   6.667   0.989
 2825TIP3    H2 8440   3.909   6.755   0.866
 2826TIP3   OH2 8441   4.350   1.673   4.198
 2826TIP3    H1 8442   4.438   1.682   4.233
 2826TIP3    H2 8443   4.292   1.705   4.268
 2827TIP3   OH2 8444   2.766   3.090   0.831
 2827TIP3    H1 8445   2.806   3.020   0.882
 2827TIP3    H2 8446   2.781   3.064   0.740
 2828TIP3   OH2 8447   1.024   2.813   3.043
 2828TIP3    H1 8448   1.103   2.853   3.007
 2828TIP3    H2 8449   1.047   2.720   3.052
 2829TIP3   OH2 8450   1.057   0.819   5.735
 2829TIP3    H1 8451   1.058   0.890   5.798
 2829TIP3    H2 8452   1.149   0.795   5.723
 2830TIP3   OH2 8453   4.056   4.545   0.205
 2830TIP3    H1 8454   4.041   4.597   0.127
 2830TIP3    H2 8455   3.970   4.535   0.245
 2831TIP3   OH2 8456   4.887   6.697   4.849
 2831TIP3    H1 8457   4.862   6.631   4.913
 2831TIP3    H2 8458   4.819   6.764   4.855
 2832TIP3   OH2 8459   0.991   2.276   2.688
 2832TIP3    H1 8460   1.042   2.309   2.615
 2832TIP3    H2 8461   1.049   2.216   2.733
 2833TIP3   OH2 8462   0.775   0.230   2.014
 2833TIP3    H1 8463   0.732   0.241   1.929
 2833TIP3    H2 8464   0.816   0.314   2.031
 2834TIP3   OH2 8465   1.692   4.863   1.702
 2834TIP3    H1 8466   1.753   4.877   1.775
 2834TIP3    H2 8467   1.650   4.780   1.722
 2835TIP3   OH2 8468   0.197   0.869   2.726
 2835TIP3    H1 8469   0.139   0.796   2.748
 2835TIP3    H2 8470   0.244   0.840   2.648
 2836TIP3   OH2 8471   0.117   2.173   4.898
 2836TIP3    H1 8472   0.130   2.191   4.991
 2836TIP3    H2 8473   0.175   2.100   4.879
 2837TIP3   OH2 8474   3.773   4.790   1.361
 2837TIP3    H1 8475   3.788   4.757   1.273
 2837TIP3    H2 8476   3.850   4.843   1.380
 2838TIP3   OH2 8477   6.785   4.305   4.913
 2838TIP3    H1 8478   6.696   4.333   4.891
 2838TIP3    H2 8479   6.839   4.336   4.841
 2839TIP3   OH2 8480   3.518   4.788   0.429
 2839TIP3    H1 8481   3.434   4.814   0.465
 2839TIP3    H2 8482   3.523   4.694   0.446
 2840TIP3   OH2 8483   3.333   3.056   2.860
 2840TIP3    H1 8484   3.421   3.083   2.887
 2840TIP3    H2 8485   3.291   3.026   2.941
 2841TIP3   OH2 8486   5.449   1.448   4.254
 2841TIP3    H1 8487   5.400   1.512   4.202
 2841TIP3    H2 8488   5.499   1.500   4.317
 2842TIP3   OH2 8489   5.247   2.409   5.664
 2842TIP3    H1 8490   5.218   2.318   5.668
 2842TIP3    H2 8491   5.295   2.423   5.745
 2843TIP3   OH2 8492   2.014   3.828   0.662
 2843TIP3    H1 8493   2.057   3.896   0.715
 2843TIP3    H2 8494   2.070   3.751   0.673
 2844TIP3   OH2 8495   5.201   1.226   0.348
 2844TIP3    H1 8496   5.179   1.224   0.441
 2844TIP3    H2 8497   5.236   1.139   0.330
 2845TIP3   OH2 8498   3.283   6.528   2.899
 2845TIP3    H1 8499   3.314   6.589   2.832
 2845TIP3    H2 8500   3.219   6.473   2.854
 2846TIP3   OH2 8501   3.360   3.489   2.879
 2846TIP3    H1 8502   3.309   3.559   2.837
 2846TIP3    H2 8503   3.386   3.432   2.806
 2847TIP3   OH2 8504   1.355   0.190   3.274
 2847TIP3    H1 8505   1.279   0.210   3.220
 2847TIP3    H2 8506   1.343   0.099   3.301
 2848TIP3   OH2 8507   7.032   3.562   4.703
 2848TIP3    H1 8508   7.031   3.486   4.762
 2848TIP3    H2 8509   7.107   3.547   4.646
 2849TIP3   OH2 8510   1.780   3.454   4.096
 2849TIP3    H1 8511   1.724   3.382   4.065
 2849TIP3    H2 8512   1.843   3.468   4.026
 2850TIP3   OH2 8513   0.977   4.730   2.830
 2850TIP3    H1 8514   1.070   4.706   2.824
 2850TIP3    H2 8515   0.973   4.788   2.906
 2851TIP3   OH2 8516   0.409   6.419   5.494
 2851TIP3    H1 8517   0.330   6.458   5.532
 2851TIP3    H2 8518   0.474   6.489   5.496
 2852TIP3   OH2 8519   2.395   4.214   0.653
 2852TIP3    H1 8520   2.334   4.142   0.673
 2852TIP3    H2 8521   2.479   4.183   0.685
 2853TIP3   OH2 8522   0.465   0.280   1.770
 2853TIP3    H1 8523   0.527   0.351   1.752
 2853TIP3    H2 8524   0.392   0.297   1.710
 2854TIP3   OH2 8525   0.831   4.566  -0.010
 2854TIP3    H1 8526   0.859   4.475  -0.011
 2854TIP3    H2 8527   0.902   4.613  -0.054
 2855TIP3   OH2 8528   5.133   4.066   4.189
 2855TIP3    H1 8529   5.082   4.069   4.108
 2855TIP3    H2 8530   5.125   4.154   4.225
 2856TIP3   OH2 8531   1.573   1.694   5.074
 2856TIP3    H1 8532   1.629   1.675   4.999
 2856TIP3    H2 8533   1.589   1.787   5.093
 2857TIP3   OH2 8534   1.879   0.591   2.017
 2857TIP3    H1 8535   1.899   0.596   2.111
 2857TIP3    H2 8536   1.856   0.499   2.002
 2858TIP3   OH2 8537   2.272   6.491   4.589
 2858TIP3    H1 8538   2.306   6.538   4.513
 2858TIP3    H2 8539   2.336   6.508   4.658
 2859TIP3   OH2 8540   7.129   2.321   0.926
 2859TIP3    H1 8541   7.061   2.312   0.993
 2859TIP3    H2 8542   7.208   2.288   0.969
 2860TIP3   OH2 8543   7.026   0.823   0.424
 2860TIP3    H1 8544   7.040   0.890   0.358
 2860TIP3    H2 8545   6.981   0.868   0.495
 2861TIP3   OH2 8546   3.293   0.411   2.769
 2861TIP3    H1 8547   3.343   0.483   2.731
 2861TIP3    H2 8548   3.302   0.422   2.863
 2862TIP3   OH2 8549   3.137   3.285   2.847
 2862TIP3    H1 8550   3.185   3.346   2.903
 2862TIP3    H2 8551   3.184   3.202   2.857
 2863TIP3   OH2 8552   2.541   4.181   0.112
 2863TIP3    H1 8553   2.560   4.087   0.115
 2863TIP3    H2 8554   2.449   4.188   0.135
 2864TIP3   OH2 8555   2.360   3.314   4.242
 2864TIP3    H1 8556   2.442   3.318   4.290
 2864TIP3    H2 8557   2.381   3.267   4.161
 2865TIP3   OH2 8558   4.108   5.341   1.842
 2865TIP3    H1 8559   4.105   5.317   1.749
 2865TIP3    H2 8560   4.151   5.266   1.884
 2866TIP3   OH2 8561   7.070   6.217   1.526
 2866TIP3    H1 8562   7.100   6.128   1.547
 2866TIP3    H2 8563   7.070   6.220   1.431
 2867TIP3   OH2 8564   1.173   5.931   3.690
 2867TIP3    H1 8565   1.139   5.866   3.751
 2867TIP3    H2 8566   1.233   5.984   3.742
 2868TIP3   OH2 8567   5.369   5.138   1.217
 2868TIP3    H1 8568   5.368   5.177   1.130
 2868TIP3    H2 8569   5.451   5.088   1.220
 2869TIP3   OH2 8570   5.878   6.078   1.201
 2869TIP3    H1 8571   5.907   6.156   1.248
 2869TIP3    H2 8572   5.811   6.039   1.258
 2870TIP3   OH2 8573   6.981   2.351   1.672
 2870TIP3    H1 8574   6.897   2.315   1.700
 2870TIP3    H2 8575   7.044   2.317   1.736
 2871TIP3   OH2 8576   5.104   3.110   3.926
 2871TIP3    H1 8577   5.055   3.185   3.960
 2871TIP3    H2 8578   5.036   3.048   3.898
 2872TIP3   OH2 8579   6.806   2.922   3.651
 2872TIP3    H1 8580   6.724   2.961   3.622
 2872TIP3    H2 8581   6.874   2.985   3.625
 2873TIP3   OH2 8582   5.594   1.032   3.386
 2873TIP3    H1 8583   5.515   0.987   3.417
 2873TIP3    H2 8584   5.625   1.082   3.462
 2874TIP3   OH2 8585   4.130   1.708   4.381
 2874TIP3    H1 8586   4.147   1.664   4.465
 2874TIP3    H2 8587   4.103   1.637   4.323
 2875TIP3   OH2 8588   6.660   6.489   0.812
 2875TIP3    H1 8589   6.625   6.444   0.889
 2875TIP3    H2 8590   6.755   6.484   0.823
 2876TIP3   OH2 8591   6.405   0.372   0.123
 2876TIP3    H1 8592   6.346   0.340   0.192
 2876TIP3    H2 8593   6.489   0.332   0.145
 2877TIP3   OH2 8594   5.463   5.782   3.140
 2877TIP3    H1 8595   5.433   5.820   3.222
 2877TIP3    H2 8596   5.456   5.688   3.152
 2878TIP3   OH2 8597   4.201   4.679   3.663
 2878TIP3    H1 8598   4.128   4.657   3.605
 2878TIP3    H2 8599   4.278   4.675   3.607
 2879TIP3   OH2 8600   2.629   0.337   5.178
 2879TIP3    H1 8601   2.718   0.309   5.157
 2879TIP3    H2 8602   2.638   0.388   5.258
 2880TIP3   OH2 8603   5.758   3.461   4.629
 2880TIP3    H1 8604   5.787   3.552   4.616
 2880TIP3    H2 8605   5.710   3.463   4.712
 2881TIP3   OH2 8606   4.817   5.996   5.888
 2881TIP3    H1 8607   4.903   6.022   5.855
 2881TIP3    H2 8608   4.755   6.045   5.835
 2882TIP3   OH2 8609   1.163   6.789   0.658
 2882TIP3    H1 8610   1.172   6.840   0.739
 2882TIP3    H2 8611   1.115   6.711   0.684
 2883TIP3   OH2 8612   1.940   4.625   5.681
 2883TIP3    H1 8613   2.035   4.629   5.690
 2883TIP3    H2 8614   1.922   4.664   5.596
 2884TIP3   OH2 8615   3.862   6.738   5.466
 2884TIP3    H1 8616   3.774   6.708   5.490
 2884TIP3    H2 8617   3.870   6.825   5.506
 2885TIP3   OH2 8618   3.268   5.069   0.360
 2885TIP3    H1 8619   3.231   5.005   0.421
 2885TIP3    H2 8620   3.203   5.140   0.359
 2886TIP3   OH2 8621   3.522   6.377   4.153
 2886TIP3    H1 8622   3.468   6.425   4.215
 2886TIP3    H2 8623   3.469   6.374   4.073
 2887TIP3   OH2 8624   6.980   4.074   0.607
 2887TIP3    H1 8625   7.039   4.097   0.679
 2887TIP3    H2 8626   6.969   3.979   0.615
 2888TIP3   OH2 8627   3.482   1.731   4.283
 2888TIP3    H1 8628   3.511   1.785   4.210
 2888TIP3    H2 8629   3.394   1.762   4.304
 2889TIP3   OH2 8630   3.096   6.661   3.427
 2889TIP3    H1 8631   3.095   6.755   3.447
 2889TIP3    H2 8632   3.181   6.647   3.384
 2890TIP3   OH2 8633  -0.046   5.659   1.673
 2890TIP3    H1 8634   0.041   5.700   1.672
 2890TIP3    H2 8635  -0.051   5.614   1.589
 2891TIP3   OH2 8636   5.820   4.924   3.163
 2891TIP3    H1 8637   5.759   4.952   3.230
 2891TIP3    H2 8638   5.901   4.903   3.210
 2892TIP3   OH2 8639   5.970   1.464   0.770
 2892TIP3    H1 8640   6.041   1.486   0.830
 2892TIP3    H2 8641   5.947   1.374   0.792
 2893TIP3   OH2 8642   4.583   1.983   4.327
 2893TIP3    H1 8643   4.512   2.009   4.386
 2893TIP3    H2 8644   4.548   1.998   4.239
 2894TIP3   OH2 8645   6.636   2.612   2.512
 2894TIP3    H1 8646   6.730   2.595   2.508
 2894TIP3    H2 8647   6.602   2.544   2.570
 2895TIP3   OH2 8648   2.228   6.658   1.990
 2895TIP3    H1 8649   2.204   6.589   2.052
 2895TIP3    H2 8650   2.211   6.619   1.904
 2896TIP3   OH2 8651   1.316   6.338   1.012
 2896TIP3    H1 8652   1.283   6.345   1.102
 2896TIP3    H2 8653   1.254   6.281   0.968
 2897TIP3   OH2 8654   5.357   6.313   5.808
 2897TIP3    H1 8655   5.301   6.376   5.763
 2897TIP3    H2 8656   5.333   6.322   5.900
 2898TIP3   OH2 8657   5.855   2.500   4.558
 2898TIP3    H1 8658   5.784   2.507   4.622
 2898TIP3    H2 8659   5.868   2.589   4.527
 2899TIP3   OH2 8660   2.360   3.399   2.897
 2899TIP3    H1 8661   2.425   3.349   2.946
 2899TIP3    H2 8662   2.296   3.334   2.868
 2900TIP3   OH2 8663   1.329   4.959   4.298
 2900TIP3    H1 8664   1.388   4.885   4.312
 2900TIP3    H2 8665   1.335   5.010   4.380
 2901TIP3   OH2 8666   3.163   6.381   2.250
 2901TIP3    H1 8667   3.178   6.464   2.204
 2901TIP3    H2 8668   3.182   6.314   2.184
 2902TIP3   OH2 8669   3.641   2.687   0.116
 2902TIP3    H1 8670   3.548   2.690   0.137
 2902TIP3    H2 8671   3.683   2.656   0.197
 2903TIP3   OH2 8672   0.266   4.830   2.404
 2903TIP3    H1 8673   0.202   4.776   2.358
 2903TIP3    H2 8674   0.255   4.918   2.369
 2904TIP3   OH2 8675   3.722   0.882   2.555
 2904TIP3    H1 8676   3.696   0.790   2.553
 2904TIP3    H2 8677   3.681   0.920   2.477
 2905TIP3   OH2 8678   3.381   0.484   4.964
 2905TIP3    H1 8679   3.344   0.397   4.951
 2905TIP3    H2 8680   3.331   0.541   4.906
 2906TIP3   OH2 8681   2.857   0.278   3.193
 2906TIP3    H1 8682   2.765   0.306   3.194
 2906TIP3    H2 8683   2.877   0.259   3.285
 2907TIP3   OH2 8684   0.325   3.540   2.287
 2907TIP3    H1 8685   0.327   3.484   2.210
 2907TIP3    H2 8686   0.387   3.500   2.348
 2908TIP3   OH2 8687   0.355   4.945   5.152
 2908TIP3    H1 8688   0.422   4.905   5.097
 2908TIP3    H2 8689   0.352   4.889   5.230
 2909TIP3   OH2 8690   6.262   2.350   5.765
 2909TIP3    H1 8691   6.171   2.376   5.779
 2909TIP3    H2 8692   6.276   2.361   5.670
 2910TIP3   OH2 8693   3.461   0.957   0.414
 2910TIP3    H1 8694   3.385   0.900   0.424
 2910TIP3    H2 8695   3.429   1.030   0.361
 2911TIP3   OH2 8696   2.108   2.003   3.139
 2911TIP3    H1 8697   2.051   1.936   3.101
 2911TIP3    H2 8698   2.049   2.075   3.160
 2912TIP3   OH2 8699   1.450   4.203   4.540
 2912TIP3    H1 8700   1.498   4.195   4.458
 2912TIP3    H2 8701   1.507   4.161   4.605
 2913TIP3   OH2 8702   3.609   6.067   5.838
 2913TIP3    H1 8703   3.591   6.137   5.775
 2913TIP3    H2 8704   3.635   5.992   5.785
 2914TIP3   OH2 8705   3.303   0.274   2.508
 2914TIP3    H1 8706   3.216   0.311   2.497
 2914TIP3    H2 8707   3.332   0.305   2.594
 2915TIP3   OH2 8708   6.328   2.997   5.371
 2915TIP3    H1 8709   6.329   3.081   5.325
 2915TIP3    H2 8710   6.418   2.966   5.366
 2916TIP3   OH2 8711   0.800   1.348   2.258
 2916TIP3    H1 8712   0.875   1.300   2.223
 2916TIP3    H2 8713   0.758   1.387   2.181
 2917TIP3   OH2 8714   4.719   4.667   4.413
 2917TIP3    H1 8715   4.713   4.748   4.363
 2917TIP3    H2 8716   4.712   4.598   4.347
 2918TIP3   OH2 8717   5.578   1.325   0.547
 2918TIP3    H1 8718   5.542   1.343   0.460
 2918TIP3    H2 8719   5.634   1.400   0.566
 2919TIP3   OH2 8720   4.562   5.096   0.662
 2919TIP3    H1 8721   4.520   5.087   0.577
 2919TIP3    H2 8722   4.648   5.056   0.651
 2920TIP3   OH2 8723   2.559   2.199   4.071
 2920TIP3    H1 8724   2.557   2.106   4.046
 2920TIP3    H2 8725   2.644   2.211   4.113
 2921TIP3   OH2 8726   1.987   2.121   5.122
 2921TIP3    H1 8727   2.054   2.190   5.124
 2921TIP3    H2 8728   1.960   2.112   5.214
 2922TIP3   OH2 8729   1.379   6.709   5.359
 2922TIP3    H1 8730   1.301   6.741   5.313
 2922TIP3    H2 8731   1.406   6.632   5.310
 2923TIP3   OH2 8732   1.430   1.364   3.322
 2923TIP3    H1 8733   1.422   1.343   3.415
 2923TIP3    H2 8734   1.489   1.297   3.287
 2924TIP3   OH2 8735   1.414   3.622   1.463
 2924TIP3    H1 8736   1.479   3.561   1.499
 2924TIP3    H2 8737   1.391   3.678   1.537
 2925TIP3   OH2 8738   4.125   2.708   3.113
 2925TIP3    H1 8739   4.205   2.711   3.061
 2925TIP3    H2 8740   4.067   2.650   3.064
 2926TIP3   OH2 8741   6.105   6.344   4.823
 2926TIP3    H1 8742   6.036   6.410   4.814
 2926TIP3    H2 8743   6.173   6.386   4.875
 2927TIP3   OH2 8744   6.629   2.007   1.897
 2927TIP3    H1 8745   6.648   1.939   1.832
 2927TIP3    H2 8746   6.715   2.033   1.929
 2928TIP3   OH2 8747   4.668   0.603   2.609
 2928TIP3    H1 8748   4.687   0.697   2.599
 2928TIP3    H2 8749   4.753   0.563   2.624
 2929TIP3   OH2 8750   7.080   0.682   1.604
 2929TIP3    H1 8751   7.054   0.753   1.545
 2929TIP3    H2 8752   7.010   0.678   1.669
 2930TIP3   OH2 8753   2.269   0.533   0.360
 2930TIP3    H1 8754   2.255   0.611   0.305
 2930TIP3    H2 8755   2.276   0.568   0.449
 2931TIP3   OH2 8756   4.286   2.592   3.336
 2931TIP3    H1 8757   4.229   2.609   3.412
 2931TIP3    H2 8758   4.235   2.621   3.261
 2932TIP3   OH2 8759   3.261   4.211   1.557
 2932TIP3    H1 8760   3.311   4.202   1.638
 2932TIP3    H2 8761   3.308   4.277   1.506
 2933TIP3   OH2 8762   3.240   2.373   2.049
 2933TIP3    H1 8763   3.291   2.420   2.114
 2933TIP3    H2 8764   3.163   2.341   2.097
 2934TIP3   OH2 8765   0.708   6.703   0.105
 2934TIP3    H1 8766   0.693   6.651   0.026
 2934TIP3    H2 8767   0.721   6.793   0.073
 2935TIP3   OH2 8768   5.712   5.146   5.902
 2935TIP3    H1 8769   5.761   5.160   5.983
 2935TIP3    H2 8770   5.751   5.206   5.839
 2936TIP3   OH2 8771   4.003   5.744   4.465
 2936TIP3    H1 8772   4.014   5.649   4.455
 2936TIP3    H2 8773   4.077   5.772   4.518
 2937TIP3   OH2 8774   6.612   2.224   2.289
 2937TIP3    H1 8775   6.616   2.129   2.304
 2937TIP3    H2 8776   6.697   2.245   2.252
 2938TIP3   OH2 8777   5.620   4.556   0.695
 2938TIP3    H1 8778   5.589   4.591   0.611
 2938TIP3    H2 8779   5.701   4.603   0.713
 2939TIP3   OH2 8780   2.401   5.515   1.082
 2939TIP3    H1 8781   2.423   5.434   1.127
 2939TIP3    H2 8782   2.464   5.521   1.011
 2940TIP3   OH2 8783   0.418   6.022   4.936
 2940TIP3    H1 8784   0.338   6.021   4.989
 2940TIP3    H2 8785   0.468   5.947   4.967
 2941TIP3   OH2 8786   1.922   3.504   5.468
 2941TIP3    H1 8787   1.905   3.449   5.392
 2941TIP3    H2 8788   2.011   3.536   5.456
 2942TIP3   OH2 8789   0.324   4.960   4.148
 2942TIP3    H1 8790   0.289   4.880   4.187
 2942TIP3    H2 8791   0.247   5.012   4.127
 2943TIP3   OH2 8792   1.460   1.979   4.804
 2943TIP3    H1 8793   1.492   2.058   4.759
 2943TIP3    H2 8794   1.373   1.965   4.768
 2944TIP3   OH2 8795   5.064   0.012   5.749
 2944TIP3    H1 8796   5.049  -0.018   5.839
 2944TIP3    H2 8797   4.982   0.055   5.725
 2945TIP3   OH2 8798   6.820   6.141   2.906
 2945TIP3    H1 8799   6.770   6.060   2.910
 2945TIP3    H2 8800   6.754   6.210   2.894
 2946TIP3   OH2 8801   5.065   3.547   1.959
 2946TIP3    H1 8802   5.050   3.618   2.022
 2946TIP3    H2 8803   5.083   3.591   1.876
 2947TIP3   OH2 8804   2.738   0.938   4.734
 2947TIP3    H1 8805   2.832   0.940   4.753
 2947TIP3    H2 8806   2.705   1.019   4.772
 2948TIP3   OH2 8807   7.100   0.970   1.763
 2948TIP3    H1 8808   7.038   1.012   1.704
 2948TIP3    H2 8809   7.118   0.885   1.724
 2949TIP3   OH2 8810   6.034   1.614   4.202
 2949TIP3    H1 8811   5.960   1.604   4.142
 2949TIP3    H2 8812   6.025   1.702   4.238
 2950TIP3   OH2 8813   3.765   5.958   3.627
 2950TIP3    H1 8814   3.800   6.047   3.639
 2950TIP3    H2 8815   3.831   5.901   3.667
 2951TIP3   OH2 8816   4.043   4.202   1.793
 2951TIP3    H1 8817   4.031   4.107   1.790
 2951TIP3    H2 8818   3.997   4.229   1.873
 2952TIP3   OH2 8819   4.846   1.459   3.005
 2952TIP3    H1 8820   4.840   1.364   3.017
 2952TIP3    H2 8821   4.850   1.471   2.910
 2953TIP3   OH2 8822   5.875   4.097   0.550
 2953TIP3    H1 8823   5.821   4.162   0.596
 2953TIP3    H2 8824   5.813   4.032   0.518
 2954TIP3   OH2 8825   4.522   4.457   1.797
 2954TIP3    H1 8826   4.510   4.425   1.707
 2954TIP3    H2 8827   4.466   4.401   1.850
 2955TIP3   OH2 8828   6.344   6.159   4.344
 2955TIP3    H1 8829   6.327   6.253   4.342
 2955TIP3    H2 8830   6.433   6.152   4.379
 2956TIP3   OH2 8831   2.900   6.577   4.287
 2956TIP3    H1 8832   2.864   6.587   4.376
 2956TIP3    H2 8833   2.943   6.661   4.270
 2957TIP3   OH2 8834   1.226   4.352   1.394
 2957TIP3    H1 8835   1.207   4.262   1.422
 2957TIP3    H2 8836   1.184   4.407   1.459
 2958TIP3   OH2 8837   0.153   3.897   0.728
 2958TIP3    H1 8838   0.171   3.804   0.716
 2958TIP3    H2 8839   0.060   3.907   0.705
 2959TIP3   OH2 8840   5.288   0.796   4.041
 2959TIP3    H1 8841   5.372   0.824   4.079
 2959TIP3    H2 8842   5.224   0.812   4.111
 2960TIP3   OH2 8843   5.356   2.458   3.451
 2960TIP3    H1 8844   5.349   2.397   3.524
 2960TIP3    H2 8845   5.374   2.403   3.375
 2961TIP3   OH2 8846   4.611   3.255   2.091
 2961TIP3    H1 8847   4.527   3.293   2.115
 2961TIP3    H2 8848   4.662   3.328   2.057
 2962TIP3   OH2 8849   0.347   4.245   2.461
 2962TIP3    H1 8850   0.257   4.220   2.442
 2962TIP3    H2 8851   0.348   4.265   2.555
 2963TIP3   OH2 8852   3.650   2.973   3.422
 2963TIP3    H1 8853   3.575   2.943   3.372
 2963TIP3    H2 8854   3.628   2.951   3.513
 2964TIP3   OH2 8855   3.516   0.396   5.727
 2964TIP3    H1 8856   3.456   0.373   5.798
 2964TIP3    H2 8857   3.490   0.485   5.702
 2965TIP3   OH2 8858   5.245   4.893   5.456
 2965TIP3    H1 8859   5.277   4.861   5.371
 2965TIP3    H2 8860   5.177   4.831   5.481
 2966TIP3   OH2 8861   3.509   0.856   3.334
 2966TIP3    H1 8862   3.602   0.847   3.316
 2966TIP3    H2 8863   3.495   0.807   3.415
 2967TIP3   OH2 8864   2.020   6.169   2.403
 2967TIP3    H1 8865   1.928   6.192   2.393
 2967TIP3    H2 8866   2.035   6.171   2.498
 2968TIP3   OH2 8867   5.709   0.540   4.446
 2968TIP3    H1 8868   5.648   0.590   4.500
 2968TIP3    H2 8869   5.661   0.521   4.366
 2969TIP3   OH2 8870   1.257   2.207   3.020
 2969TIP3    H1 8871   1.284   2.250   3.101
 2969TIP3    H2 8872   1.239   2.279   2.959
 2970TIP3   OH2 8873   4.513   5.702   4.370
 2970TIP3    H1 8874   4.459   5.773   4.336
 2970TIP3    H2 8875   4.483   5.690   4.460
 2971TIP3   OH2 8876   1.610   5.732   1.467
 2971TIP3    H1 8877   1.608   5.792   1.392
 2971TIP3    H2 8878   1.701   5.734   1.497
 2972TIP3   OH2 8879   5.528   0.038   4.973
 2972TIP3    H1 8880   5.564   0.092   5.043
 2972TIP3    H2 8881   5.578   0.062   4.896
 2973TIP3   OH2 8882   4.145   3.761   5.478
 2973TIP3    H1 8883   4.049   3.756   5.472
 2973TIP3    H2 8884   4.171   3.818   5.406
 2974TIP3   OH2 8885   6.312   1.425   1.751
 2974TIP3    H1 8886   6.230   1.376   1.743
 2974TIP3    H2 8887   6.340   1.410   1.841
 2975TIP3   OH2 8888   0.275   2.365   0.991
 2975TIP3    H1 8889   0.317   2.280   0.974
 2975TIP3    H2 8890   0.316   2.395   1.073
 2976TIP3   OH2 8891   7.146   2.935   3.668
 2976TIP3    H1 8892   7.120   3.026   3.656
 2976TIP3    H2 8893   7.163   2.902   3.579
 2977TIP3   OH2 8894   4.152   3.292   0.072
 2977TIP3    H1 8895   4.136   3.258   0.161
 2977TIP3    H2 8896   4.073   3.270   0.023
 2978TIP3   OH2 8897   6.363   0.348   5.209
 2978TIP3    H1 8898   6.418   0.396   5.272
 2978TIP3    H2 8899   6.358   0.406   5.133
 2979TIP3   OH2 8900   6.780   0.498   3.520
 2979TIP3    H1 8901   6.831   0.572   3.555
 2979TIP3    H2 8902   6.693   0.534   3.506
 2980TIP3   OH2 8903   4.725   2.360   4.472
 2980TIP3    H1 8904   4.769   2.388   4.552
 2980TIP3    H2 8905   4.785   2.384   4.401
 2981TIP3   OH2 8906   4.908   3.606   1.069
 2981TIP3    H1 8907   4.948   3.667   1.132
 2981TIP3    H2 8908   4.819   3.593   1.101
 2982TIP3   OH2 8909   4.767   2.392   1.312
 2982TIP3    H1 8910   4.725   2.371   1.394
 2982TIP3    H2 8911   4.856   2.358   1.321
 2983TIP3   OH2 8912   2.015   3.418   2.705
 2983TIP3    H1 8913   1.923   3.391   2.695
 2983TIP3    H2 8914   2.056   3.345   2.751
 2984TIP3   OH2 8915   0.867   5.578   1.315
 2984TIP3    H1 8916   0.834   5.606   1.229
 2984TIP3    H2 8917   0.857   5.656   1.370
 2985TIP3   OH2 8918   5.205   3.006   1.769
 2985TIP3    H1 8919   5.245   2.923   1.743
 2985TIP3    H2 8920   5.239   3.070   1.706
 2986TIP3   OH2 8921   2.681   6.143   0.762
 2986TIP3    H1 8922   2.748   6.189   0.811
 2986TIP3    H2 8923   2.630   6.212   0.719
 2987TIP3   OH2 8924   2.873   4.662   2.963
 2987TIP3    H1 8925   2.881   4.567   2.955
 2987TIP3    H2 8926   2.913   4.682   3.048
 2988TIP3   OH2 8927   0.923   3.769   0.860
 2988TIP3    H1 8928   0.952   3.842   0.805
 2988TIP3    H2 8929   0.846   3.802   0.906
 2989TIP3   OH2 8930   7.058   0.792   2.056
 2989TIP3    H1 8931   7.022   0.851   1.989
 2989TIP3    H2 8932   7.149   0.818   2.064
 2990TIP3   OH2 8933   6.381   3.282   0.214
 2990TIP3    H1 8934   6.462   3.296   0.165
 2990TIP3    H2 8935   6.314   3.331   0.165
 2991TIP3   OH2 8936   2.186   3.261   1.069
 2991TIP3    H1 8937   2.163   3.204   1.142
 2991TIP3    H2 8938   2.165   3.209   0.991
 2992TIP3   OH2 8939   4.161   4.785   1.733
 2992TIP3    H1 8940   4.255   4.777   1.715
 2992TIP3    H2 8941   4.119   4.776   1.648
 2993TIP3   OH2 8942   5.764   0.492   1.629
 2993TIP3    H1 8943   5.819   0.530   1.697
 2993TIP3    H2 8944   5.782   0.398   1.633
 2994TIP3   OH2 8945   0.233   2.590   2.427
 2994TIP3    H1 8946   0.232   2.581   2.522
 2994TIP3    H2 8947   0.176   2.520   2.395
 2995TIP3   OH2 8948   4.467   3.442   3.417
 2995TIP3    H1 8949   4.479   3.472   3.327
 2995TIP3    H2 8950   4.552   3.402   3.440
 2996TIP3   OH2 8951   6.728   0.163   2.678
 2996TIP3    H1 8952   6.793   0.096   2.698
 2996TIP3    H2 8953   6.767   0.244   2.709
 2997TIP3   OH2 8954   1.267   2.624   2.120
 2997TIP3    H1 8955   1.337   2.562   2.143
 2997TIP3    H2 8956   1.247   2.669   2.202
 2998TIP3   OH2 8957   2.604   6.297   1.533
 2998TIP3    H1 8958   2.537   6.258   1.589
 2998TIP3    H2 8959   2.623   6.229   1.468
 2999TIP3   OH2 8960   1.441   4.473   2.105
 2999TIP3    H1 8961   1.349   4.497   2.095
 2999TIP3    H2 8962   1.441   4.407   2.174
 3000TIP3   OH2 8963   3.947   2.132   4.359
 3000TIP3    H1 8964   3.999   2.092   4.429
 3000TIP3    H2 8965   3.857   2.105   4.379
 3001TIP3   OH2 8966   4.836   2.872   3.625
 3001TIP3    H1 8967   4.759   2.919   3.656
 3001TIP3    H2 8968   4.820   2.781   3.650
 3002TIP3   OH2 8969   6.502   1.673   2.873
 3002TIP3    H1 8970   6.459   1.678   2.959
 3002TIP3    H2 8971   6.555   1.752   2.868
 3003TIP3   OH2 8972   7.057   6.326   2.479
 3003TIP3    H1 8973   6.973   6.296   2.513
 3003TIP3    H2 8974   7.073   6.271   2.403
 3004TIP3   OH2 8975   1.688   2.418   0.386
 3004TIP3    H1 8976   1.759   2.419   0.322
 3004TIP3    H2 8977   1.707   2.491   0.444
 3005TIP3   OH2 8978   2.351   0.215   3.817
 3005TIP3    H1 8979   2.272   0.170   3.846
 3005TIP3    H2 8980   2.422   0.155   3.837
 3006TIP3   OH2 8981   2.266   4.118   0.128
 3006TIP3    H1 8982   2.170   4.118   0.128
 3006TIP3    H2 8983   2.289   4.039   0.079
 3007TIP3   OH2 8984   3.711   6.157   4.185
 3007TIP3    H1 8985   3.687   6.114   4.267
 3007TIP3    H2 8986   3.635   6.209   4.161
 3008TIP3   OH2 8987   0.333   0.880   5.683
 3008TIP3    H1 8988   0.250   0.924   5.665
 3008TIP3    H2 8989   0.399   0.932   5.636
 3009TIP3   OH2 8990   2.770   2.424   5.781
 3009TIP3    H1 8991   2.865   2.433   5.767
 3009TIP3    H2 8992   2.739   2.377   5.704
 3010TIP3   OH2 8993   0.976   3.225   4.812
 3010TIP3    H1 8994   0.910   3.236   4.744
 3010TIP3    H2 8995   1.050   3.279   4.783
 3011TIP3   OH2 8996   4.964   5.314   5.693
 3011TIP3    H1 8997   4.872   5.339   5.707
 3011TIP3    H2 8998   4.987   5.265   5.772
 3012TIP3   OH2 8999   0.343   0.526   1.415
 3012TIP3    H1 9000   0.287   0.602   1.398
 3012TIP3    H2 9001   0.366   0.493   1.329
 3013TIP3   OH2 9002   2.754   4.984   2.892
 3013TIP3    H1 9003   2.678   4.956   2.840
 3013TIP3    H2 9004   2.819   4.915   2.879
 3014TIP3   OH2 9005   0.749   5.783   3.467
 3014TIP3    H1 9006   0.654   5.771   3.456
 3014TIP3    H2 9007   0.761   5.791   3.561
 3015TIP3   OH2 9008   1.081   1.892   5.059
 3015TIP3    H1 9009   1.149   1.837   5.098
 3015TIP3    H2 9010   1.129   1.962   5.015
 3016TIP3   OH2 9011   6.040   0.283   3.569
 3016TIP3    H1 9012   6.106   0.217   3.547
 3016TIP3    H2 9013   6.090   0.364   3.579
 3017TIP3   OH2 9014   3.958   1.249   2.219
 3017TIP3    H1 9015   4.050   1.225   2.233
 3017TIP3    H2 9016   3.961   1.342   2.199
 3018TIP3   OH2 9017   5.742   0.727   3.137
 3018TIP3    H1 9018   5.811   0.667   3.107
 3018TIP3    H2 9019   5.785   0.811   3.144
 3019TIP3   OH2 9020   5.074   5.928   5.223
 3019TIP3    H1 9021   5.014   5.945   5.295
 3019TIP3    H2 9022   5.136   6.001   5.226
 3020TIP3   OH2 9023   4.763   6.638   3.039
 3020TIP3    H1 9024   4.796   6.646   2.949
 3020TIP3    H2 9025   4.805   6.710   3.086
 3021TIP3   OH2 9026   3.137   5.544   0.852
 3021TIP3    H1 9027   3.162   5.615   0.793
 3021TIP3    H2 9028   3.192   5.470   0.824
 3022TIP3   OH2 9029   5.711   4.250   0.696
 3022TIP3    H1 9030   5.681   4.341   0.686
 3022TIP3    H2 9031   5.748   4.247   0.784
 3023TIP3   OH2 9032   3.611   4.159   5.398
 3023TIP3    H1 9033   3.525   4.197   5.379
 3023TIP3    H2 9034   3.594   4.092   5.463
 3024TIP3   OH2 9035   3.691   6.102   1.282
 3024TIP3    H1 9036   3.726   6.190   1.268
 3024TIP3    H2 9037   3.627   6.113   1.353
 3025TIP3   OH2 9038   6.841   0.394   0.658
 3025TIP3    H1 9039   6.857   0.413   0.565
 3025TIP3    H2 9040   6.758   0.346   0.658
 3026TIP3   OH2 9041   6.638   2.557   5.893
 3026TIP3    H1 9042   6.573   2.622   5.923
 3026TIP3    H2 9043   6.710   2.610   5.858
 3027TIP3   OH2 9044   2.640   3.029   5.593
 3027TIP3    H1 9045   2.552   2.991   5.604
 3027TIP3    H2 9046   2.628   3.122   5.613
 3028TIP3   OH2 9047   5.062   3.896   5.010
 3028TIP3    H1 9048   5.070   3.829   5.077
 3028TIP3    H2 9049   5.142   3.948   5.019
 3029TIP3   OH2 9050   0.128   3.098   5.308
 3029TIP3    H1 9051   0.125   3.170   5.245
 3029TIP3    H2 9052   0.145   3.141   5.392
 3030TIP3   OH2 9053   2.768   3.284   4.320
 3030TIP3    H1 9054   2.784   3.310   4.230
 3030TIP3    H2 9055   2.717   3.203   4.313
 3031TIP3   OH2 9056   5.288   6.637   0.942
 3031TIP3    H1 9057   5.219   6.681   0.892
 3031TIP3    H2 9058   5.301   6.692   1.019
 3032TIP3   OH2 9059   5.738   0.171   0.657
 3032TIP3    H1 9060   5.728   0.076   0.668
 3032TIP3    H2 9061   5.741   0.184   0.562
 3033TIP3   OH2 9062   3.098   3.114   1.040
 3033TIP3    H1 9063   3.028   3.121   1.105
 3033TIP3    H2 9064   3.171   3.164   1.077
 3034TIP3   OH2 9065   0.333   1.462   2.732
 3034TIP3    H1 9066   0.273   1.452   2.806
 3034TIP3    H2 9067   0.300   1.402   2.665
 3035TIP3   OH2 9068   7.225   5.995   1.926
 3035TIP3    H1 9069   7.241   6.059   1.857
 3035TIP3    H2 9070   7.221   6.047   2.006
 3036TIP3   OH2 9071   1.209   0.278   1.744
 3036TIP3    H1 9072   1.251   0.363   1.731
 3036TIP3    H2 9073   1.269   0.229   1.800
 3037TIP3   OH2 9074   2.078   2.921   5.587
 3037TIP3    H1 9075   2.070   3.014   5.568
 3037TIP3    H2 9076   2.015   2.905   5.657
 3038TIP3   OH2 9077   2.250   0.551   2.197
 3038TIP3    H1 9078   2.287   0.497   2.128
 3038TIP3    H2 9079   2.207   0.489   2.256
 3039TIP3   OH2 9080   2.625   2.485   0.959
 3039TIP3    H1 9081   2.715   2.460   0.937
 3039TIP3    H2 9082   2.602   2.552   0.895
 3040TIP3   OH2 9083   1.718   1.251   0.342
 3040TIP3    H1 9084   1.716   1.249   0.246
 3040TIP3    H2 9085   1.807   1.228   0.365
 3041TIP3   OH2 9086   0.157   0.316   0.992
 3041TIP3    H1 9087   0.165   0.357   0.906
 3041TIP3    H2 9088   0.089   0.249   0.980
 3042TIP3   OH2 9089   4.495   0.904   3.473
 3042TIP3    H1 9090   4.540   0.844   3.532
 3042TIP3    H2 9091   4.494   0.987   3.520
 3043TIP3   OH2 9092   1.212   6.645   3.452
 3043TIP3    H1 9093   1.252   6.625   3.536
 3043TIP3    H2 9094   1.158   6.569   3.432
 3044TIP3   OH2 9095   1.008   1.856   5.385
 3044TIP3    H1 9096   1.073   1.825   5.322
 3044TIP3    H2 9097   1.059   1.896   5.455
 3045TIP3   OH2 9098   2.444   3.083   0.874
 3045TIP3    H1 9099   2.492   3.054   0.951
 3045TIP3    H2 9100   2.434   3.004   0.820
 3046TIP3   OH2 9101   6.597   2.898   4.455
 3046TIP3    H1 9102   6.539   2.822   4.463
 3046TIP3    H2 9103   6.636   2.888   4.368
 3047TIP3   OH2 9104   5.792   2.639   0.957
 3047TIP3    H1 9105   5.801   2.734   0.948
 3047TIP3    H2 9106   5.698   2.624   0.960
 3048TIP3   OH2 9107   3.304   0.121   1.527
 3048TIP3    H1 9108   3.299   0.163   1.441
 3048TIP3    H2 9109   3.283   0.191   1.589
 3049TIP3   OH2 9110   2.562   1.161   4.207
 3049TIP3    H1 9111   2.482   1.122   4.172
 3049TIP3    H2 9112   2.535   1.209   4.284
 3050TIP3   OH2 9113   5.100   0.553   1.258
 3050TIP3    H1 9114   5.048   0.531   1.181
 3050TIP3    H2 9115   5.191   0.540   1.230
 3051TIP3   OH2 9116   5.440   1.919   0.160
 3051TIP3    H1 9117   5.346   1.928   0.148
 3051TIP3    H2 9118   5.472   1.889   0.075
 3052TIP3   OH2 9119   0.517   3.152   2.181
 3052TIP3    H1 9120   0.564   3.069   2.169
 3052TIP3    H2 9121   0.557   3.190   2.259
 3053TIP3   OH2 9122   4.286   4.360   0.827
 3053TIP3    H1 9123   4.277   4.442   0.779
 3053TIP3    H2 9124   4.377   4.360   0.858
 3054TIP3   OH2 9125   7.175   5.496   5.857
 3054TIP3    H1 9126   7.167   5.471   5.765
 3054TIP3    H2 9127   7.085   5.510   5.886
 3055TIP3   OH2 9128   2.372   6.787   4.300
 3055TIP3    H1 9129   2.390   6.831   4.217
 3055TIP3    H2 9130   2.402   6.697   4.286
 3056TIP3   OH2 9131   6.902   1.623   3.023
 3056TIP3    H1 9132   6.983   1.660   3.059
 3056TIP3    H2 9133   6.928   1.583   2.941
 3057TIP3   OH2 9134   3.847   4.447   4.888
 3057TIP3    H1 9135   3.922   4.416   4.938
 3057TIP3    H2 9136   3.865   4.419   4.798
 3058TIP3   OH2 9137   0.878   1.853   3.622
 3058TIP3    H1 9138   0.844   1.812   3.702
 3058TIP3    H2 9139   0.862   1.788   3.554
 3059TIP3   OH2 9140   2.549   2.349   3.475
 3059TIP3    H1 9141   2.546   2.329   3.381
 3059TIP3    H2 9142   2.458   2.358   3.500
 3060TIP3   OH2 9143   0.941   1.317   2.571
 3060TIP3    H1 9144   0.959   1.226   2.548
 3060TIP3    H2 9145   0.999   1.336   2.645
 3061TIP3   OH2 9146   1.930   5.271   2.046
 3061TIP3    H1 9147   1.919   5.335   1.975
 3061TIP3    H2 9148   1.865   5.296   2.111
 3062TIP3   OH2 9149   1.051   3.280   0.687
 3062TIP3    H1 9150   1.133   3.261   0.732
 3062TIP3    H2 9151   1.067   3.361   0.640
 3063TIP3   OH2 9152   2.686   1.662   1.821
 3063TIP3    H1 9153   2.781   1.658   1.816
 3063TIP3    H2 9154   2.668   1.708   1.904
 3064TIP3   OH2 9155   1.160   5.279   4.594
 3064TIP3    H1 9156   1.104   5.329   4.653
 3064TIP3    H2 9157   1.243   5.327   4.595
 3065TIP3   OH2 9158   0.858   2.072   0.676
 3065TIP3    H1 9159   0.897   2.074   0.763
 3065TIP3    H2 9160   0.816   1.987   0.670
 3066TIP3   OH2 9161   6.009   5.192   5.603
 3066TIP3    H1 9162   5.937   5.132   5.586
 3066TIP3    H2 9163   6.070   5.179   5.530
 3067TIP3   OH2 9164   0.935   0.935   3.630
 3067TIP3    H1 9165   0.967   0.850   3.599
 3067TIP3    H2 9166   0.841   0.932   3.611
 3068TIP3   OH2 9167   2.006   4.078   2.418
 3068TIP3    H1 9168   2.063   4.070   2.495
 3068TIP3    H2 9169   1.951   4.000   2.421
 3069TIP3   OH2 9170   1.655   6.593   2.475
 3069TIP3    H1 9171   1.621   6.580   2.387
 3069TIP3    H2 9172   1.615   6.675   2.504
 3070TIP3   OH2 9173   0.937   0.574   0.840
 3070TIP3    H1 9174   0.998   0.556   0.912
 3070TIP3    H2 9175   0.983   0.638   0.785
 3071TIP3   OH2 9176   1.177   1.157   5.888
 3071TIP3    H1 9177   1.100   1.104   5.868
 3071TIP3    H2 9178   1.248   1.116   5.839
 3072TIP3   OH2 9179   2.332   6.739   3.116
 3072TIP3    H1 9180   2.380   6.671   3.165
 3072TIP3    H2 9181   2.243   6.706   3.111
 3073TIP3   OH2 9182   5.454   2.973   5.697
 3073TIP3    H1 9183   5.537   2.997   5.658
 3073TIP3    H2 9184   5.425   3.053   5.742
 3074TIP3   OH2 9185   2.787   3.494   4.120
 3074TIP3    H1 9186   2.812   3.524   4.207
 3074TIP3    H2 9187   2.791   3.572   4.065
 3075TIP3   OH2 9188   6.932   2.290   1.412
 3075TIP3    H1 9189   6.966   2.318   1.497
 3075TIP3    H2 9190   6.875   2.215   1.432
 3076TIP3   OH2 9191   0.227   4.793   3.772
 3076TIP3    H1 9192   0.218   4.795   3.677
 3076TIP3    H2 9193   0.320   4.806   3.788
 3077TIP3   OH2 9194   0.588   4.908   0.759
 3077TIP3    H1 9195   0.616   4.918   0.850
 3077TIP3    H2 9196   0.657   4.855   0.719
 3078TIP3   OH2 9197   2.610   0.242   4.667
 3078TIP3    H1 9198   2.572   0.310   4.611
 3078TIP3    H2 9199   2.555   0.244   4.746
 3079TIP3   OH2 9200   3.182   2.905   2.652
 3079TIP3    H1 9201   3.174   2.974   2.587
 3079TIP3    H2 9202   3.236   2.942   2.722
 3080TIP3   OH2 9203   4.730   6.802   1.371
 3080TIP3    H1 9204   4.798   6.775   1.309
 3080TIP3    H2 9205   4.657   6.743   1.352
 3081TIP3   OH2 9206   2.864   5.865   4.248
 3081TIP3    H1 9207   2.794   5.799   4.243
 3081TIP3    H2 9208   2.882   5.887   4.157
 3082TIP3   OH2 9209   5.646   2.610   3.324
 3082TIP3    H1 9210   5.721   2.667   3.338
 3082TIP3    H2 9211   5.632   2.613   3.229
 3083TIP3   OH2 9212   5.669   0.111   0.045
 3083TIP3    H1 9213   5.718   0.130  -0.036
 3083TIP3    H2 9214   5.618   0.033   0.024
 3084TIP3   OH2 9215   2.181   4.937   2.483
 3084TIP3    H1 9216   2.242   4.968   2.550
 3084TIP3    H2 9217   2.205   4.988   2.405
 3085TIP3   OH2 9218   1.299   2.912   1.783
 3085TIP3    H1 9219   1.358   2.845   1.818
 3085TIP3    H2 9220   1.358   2.980   1.748
 3086TIP3   OH2 9221   6.611   4.651  -0.015
 3086TIP3    H1 9222   6.579   4.736  -0.044
 3086TIP3    H2 9223   6.626   4.662   0.079
 3087TIP3   OH2 9224   6.323   5.988   5.452
 3087TIP3    H1 9225   6.274   5.927   5.508
 3087TIP3    H2 9226   6.343   6.062   5.509
 3088TIP3   OH2 9227   5.823   3.180   2.890
 3088TIP3    H1 9228   5.844   3.111   2.827
 3088TIP3    H2 9229   5.832   3.261   2.840
 3089TIP3   OH2 9230   5.689   1.070   0.512
 3089TIP3    H1 9231   5.621   1.018   0.468
 3089TIP3    H2 9232   5.648   1.155   0.527
 3090TIP3   OH2 9233   4.037   1.911   0.914
 3090TIP3    H1 9234   4.054   1.828   0.869
 3090TIP3    H2 9235   4.009   1.971   0.844
 3091TIP3   OH2 9236   5.849   2.149   4.304
 3091TIP3    H1 9237   5.806   2.065   4.293
 3091TIP3    H2 9238   5.804   2.189   4.379
 3092TIP3   OH2 9239   4.854   6.059   2.806
 3092TIP3    H1 9240   4.813   6.032   2.888
 3092TIP3    H2 9241   4.829   6.151   2.795
 3093TIP3   OH2 9242   6.317   0.820   5.684
 3093TIP3    H1 9243   6.229   0.782   5.688
 3093TIP3    H2 9244   6.373   0.747   5.658
 3094TIP3   OH2 9245   6.639   0.240   5.194
 3094TIP3    H1 9246   6.552   0.245   5.234
 3094TIP3    H2 9247   6.679   0.163   5.233
 3095TIP3   OH2 9248   5.022   6.005   0.047
 3095TIP3    H1 9249   5.049   5.950  -0.026
 3095TIP3    H2 9250   5.025   5.947   0.123
 3096TIP3   OH2 9251   4.739   2.017   5.341
 3096TIP3    H1 9252   4.772   1.999   5.429
 3096TIP3    H2 9253   4.645   1.998   5.347
 3097TIP3   OH2 9254   3.209   1.731   0.388
 3097TIP3    H1 9255   3.171   1.806   0.342
 3097TIP3    H2 9256   3.222   1.763   0.478
 3098TIP3   OH2 9257   2.132   0.886   0.581
 3098TIP3    H1 9258   2.085   0.822   0.528
 3098TIP3    H2 9259   2.209   0.908   0.528
 3099TIP3   OH2 9260   6.799   2.606   2.079
 3099TIP3    H1 9261   6.762   2.556   2.006
 3099TIP3    H2 9262   6.860   2.546   2.121
 3100TIP3   OH2 9263   0.657   4.454   5.160
 3100TIP3    H1 9264   0.737   4.406   5.137
 3100TIP3    H2 9265   0.619   4.405   5.233
 3101TIP3   OH2 9266   2.228   1.205   0.821
 3101TIP3    H1 9267   2.249   1.247   0.905
 3101TIP3    H2 9268   2.290   1.243   0.759
 3102TIP3   OH2 9269   3.077   0.212   0.080
 3102TIP3    H1 9270   2.988   0.239   0.099
 3102TIP3    H2 9271   3.097   0.252  -0.004
 3103TIP3   OH2 9272   3.444   4.924   5.828
 3103TIP3    H1 9273   3.515   4.884   5.778
 3103TIP3    H2 9274   3.422   4.859   5.894
 3104TIP3   OH2 9275   4.929   0.066   0.495
 3104TIP3    H1 9276   5.007   0.113   0.525
 3104TIP3    H2 9277   4.917   0.095   0.404
 3105TIP3   OH2 9278   6.847   4.287   1.764
 3105TIP3    H1 9279   6.763   4.325   1.736
 3105TIP3    H2 9280   6.850   4.303   1.858
 3106TIP3   OH2 9281   6.934   6.013   1.756
 3106TIP3    H1 9282   7.021   6.037   1.725
 3106TIP3    H2 9283   6.941   5.920   1.778
 3107TIP3   OH2 9284   5.489   2.030   0.755
 3107TIP3    H1 9285   5.413   1.990   0.713
 3107TIP3    H2 9286   5.561   1.968   0.741
 3108TIP3   OH2 9287   4.677   4.681   5.464
 3108TIP3    H1 9288   4.675   4.724   5.378
 3108TIP3    H2 9289   4.646   4.592   5.447
 3109TIP3   OH2 9290   3.360   6.547   1.068
 3109TIP3    H1 9291   3.394   6.567   0.981
 3109TIP3    H2 9292   3.394   6.618   1.123
 3110TIP3   OH2 9293   2.813   4.396   0.644
 3110TIP3    H1 9294   2.752   4.322   0.644
 3110TIP3    H2 9295   2.759   4.472   0.623
 3111TIP3   OH2 9296   1.286   6.564   2.573
 3111TIP3    H1 9297   1.279   6.481   2.620
 3111TIP3    H2 9298   1.354   6.613   2.620
 3112TIP3   OH2 9299   3.056   1.840   2.812
 3112TIP3    H1 9300   3.005   1.802   2.883
 3112TIP3    H2 9301   2.992   1.857   2.743
 3113TIP3   OH2 9302   3.935   4.995   2.085
 3113TIP3    H1 9303   3.895   5.078   2.061
 3113TIP3    H2 9304   3.883   4.928   2.040
 3114TIP3   OH2 9305   3.683   4.107   5.783
 3114TIP3    H1 9306   3.758   4.127   5.726
 3114TIP3    H2 9307   3.699   4.158   5.862
 3115TIP3   OH2 9308   1.339   3.453   3.442
 3115TIP3    H1 9309   1.252   3.427   3.414
 3115TIP3    H2 9310   1.353   3.408   3.525
 3116TIP3   OH2 9311   0.454   5.914   2.255
 3116TIP3    H1 9312   0.420   5.961   2.179
 3116TIP3    H2 9313   0.467   5.824   2.224
 3117TIP3   OH2 9314   1.686   2.709   0.491
 3117TIP3    H1 9315   1.636   2.717   0.410
 3117TIP3    H2 9316   1.633   2.755   0.557
 3118TIP3   OH2 9317   3.656   6.260   0.631
 3118TIP3    H1 9318   3.638   6.181   0.581
 3118TIP3    H2 9319   3.716   6.310   0.576
 3119TIP3   OH2 9320   5.320   2.776   1.676
 3119TIP3    H1 9321   5.414   2.758   1.671
 3119TIP3    H2 9322   5.286   2.746   1.592
 3120TIP3   OH2 9323   0.703   6.590   3.713
 3120TIP3    H1 9324   0.737   6.502   3.732
 3120TIP3    H2 9325   0.612   6.575   3.687
 3121TIP3   OH2 9326   5.688   4.593   3.288
 3121TIP3    H1 9327   5.630   4.668   3.274
 3121TIP3    H2 9328   5.630   4.521   3.313
 3122TIP3   OH2 9329   4.200   6.491   0.408
 3122TIP3    H1 9330   4.220   6.400   0.430
 3122TIP3    H2 9331   4.222   6.500   0.315
 3123TIP3   OH2 9332   3.726   4.415   1.208
 3123TIP3    H1 9333   3.819   4.405   1.229
 3123TIP3    H2 9334   3.725   4.469   1.129
 3124TIP3   OH2 9335   6.977   6.456   2.239
 3124TIP3    H1 9336   7.008   6.454   2.330
 3124TIP3    H2 9337   6.883   6.435   2.247
 3125TIP3   OH2 9338   2.835   0.571   2.386
 3125TIP3    H1 9339   2.914   0.624   2.395
 3125TIP3    H2 9340   2.767   0.632   2.357
 3126TIP3   OH2 9341   5.169   6.317   2.516
 3126TIP3    H1 9342   5.112   6.348   2.445
 3126TIP3    H2 9343   5.199   6.231   2.486
 3127TIP3   OH2 9344   5.478   0.185   2.706
 3127TIP3    H1 9345   5.567   0.214   2.728
 3127TIP3    H2 9346   5.423   0.223   2.775
 3128TIP3   OH2 9347   6.061   2.207   1.422
 3128TIP3    H1 9348   6.022   2.260   1.353
 3128TIP3    H2 9349   6.105   2.270   1.479
 3129TIP3   OH2 9350   0.408   0.270   0.667
 3129TIP3    H1 9351   0.368   0.351   0.699
 3129TIP3    H2 9352   0.456   0.296   0.588
 3130TIP3   OH2 9353   2.309   2.188   5.345
 3130TIP3    H1 9354   2.326   2.095   5.325
 3130TIP3    H2 9355   2.242   2.214   5.282
 3131TIP3   OH2 9356   6.901   3.467   5.101
 3131TIP3    H1 9357   6.813   3.443   5.072
 3131TIP3    H2 9358   6.903   3.563   5.092
 3132TIP3   OH2 9359   3.644   3.382   2.225
 3132TIP3    H1 9360   3.621   3.452   2.163
 3132TIP3    H2 9361   3.737   3.397   2.244
 3133TIP3   OH2 9362   2.680   6.448   4.053
 3133TIP3    H1 9363   2.641   6.427   4.138
 3133TIP3    H2 9364   2.739   6.522   4.071
 3134TIP3   OH2 9365   6.099   4.452   0.717
 3134TIP3    H1 9366   6.137   4.537   0.698
 3134TIP3    H2 9367   6.142   4.423   0.797
 3135TIP3   OH2 9368   6.634   2.187   4.848
 3135TIP3    H1 9369   6.583   2.156   4.773
 3135TIP3    H2 9370   6.623   2.118   4.914
 3136TIP3   OH2 9371   3.193   4.037   5.168
 3136TIP3    H1 9372   3.176   3.970   5.233
 3136TIP3    H2 9373   3.187   4.120   5.216
 3137TIP3   OH2 9374   0.328   2.570   5.866
 3137TIP3    H1 9375   0.312   2.533   5.952
 3137TIP3    H2 9376   0.336   2.664   5.881
 3138TIP3   OH2 9377   4.999   4.926   5.188
 3138TIP3    H1 9378   4.997   4.943   5.094
 3138TIP3    H2 9379   4.987   4.831   5.196
 3139TIP3   OH2 9380   5.751   4.473   5.642
 3139TIP3    H1 9381   5.663   4.505   5.659
 3139TIP3    H2 9382   5.808   4.534   5.689
 3140TIP3   OH2 9383   4.338   5.396   2.748
 3140TIP3    H1 9384   4.245   5.377   2.740
 3140TIP3    H2 9385   4.343   5.492   2.745
 3141TIP3   OH2 9386   3.178   6.587   4.830
 3141TIP3    H1 9387   3.098   6.562   4.875
 3141TIP3    H2 9388   3.233   6.625   4.898
 3142TIP3   OH2 9389   3.796   4.758   0.145
 3142TIP3    H1 9390   3.779   4.670   0.110
 3142TIP3    H2 9391   3.772   4.753   0.237
 3143TIP3   OH2 9392   5.747   5.862   4.612
 3143TIP3    H1 9393   5.674   5.806   4.637
 3143TIP3    H2 9394   5.822   5.827   4.661
 3144TIP3   OH2 9395   4.653   3.610   2.573
 3144TIP3    H1 9396   4.685   3.655   2.495
 3144TIP3    H2 9397   4.659   3.675   2.642
 3145TIP3   OH2 9398   5.240   2.426   4.951
 3145TIP3    H1 9399   5.212   2.340   4.920
 3145TIP3    H2 9400   5.281   2.409   5.035
 3146TIP3   OH2 9401   5.141   3.532   4.592
 3146TIP3    H1 9402   5.086   3.472   4.542
 3146TIP3    H2 9403   5.127   3.617   4.552
 3147TIP3   OH2 9404   6.917   3.846   2.547
 3147TIP3    H1 9405   6.981   3.866   2.479
 3147TIP3    H2 9406   6.939   3.758   2.576
 3148TIP3   OH2 9407   2.001   2.538   4.993
 3148TIP3    H1 9408   2.043   2.458   4.960
 3148TIP3    H2 9409   2.065   2.573   5.055
 3149TIP3   OH2 9410   3.201   2.473   2.612
 3149TIP3    H1 9411   3.234   2.383   2.620
 3149TIP3    H2 9412   3.213   2.494   2.519
 3150TIP3   OH2 9413   4.262   2.295   4.587
 3150TIP3    H1 9414   4.245   2.322   4.497
 3150TIP3    H2 9415   4.290   2.376   4.631
 3151TIP3   OH2 9416   5.732   0.896   5.324
 3151TIP3    H1 9417   5.771   0.966   5.376
 3151TIP3    H2 9418   5.779   0.899   5.241
 3152TIP3   OH2 9419   0.487   4.828   3.832
 3152TIP3    H1 9420   0.511   4.750   3.881
 3152TIP3    H2 9421   0.570   4.864   3.802
 3153TIP3   OH2 9422   6.206   0.067   3.004
 3153TIP3    H1 9423   6.208   0.159   2.978
 3153TIP3    H2 9424   6.284   0.028   2.963
 3154TIP3   OH2 9425   6.211   3.238   0.730
 3154TIP3    H1 9426   6.236   3.237   0.638
 3154TIP3    H2 9427   6.284   3.279   0.774
 3155TIP3   OH2 9428   6.701   4.671   3.772
 3155TIP3    H1 9429   6.735   4.627   3.850
 3155TIP3    H2 9430   6.760   4.744   3.757
 3156TIP3   OH2 9431   5.328   5.880   3.691
 3156TIP3    H1 9432   5.412   5.842   3.718
 3156TIP3    H2 9433   5.306   5.942   3.760
 3157TIP3   OH2 9434   3.083   0.184   2.709
 3157TIP3    H1 9435   3.176   0.192   2.691
 3157TIP3    H2 9436   3.077   0.184   2.804
 3158TIP3   OH2 9437   0.471   2.584   1.538
 3158TIP3    H1 9438   0.416   2.519   1.582
 3158TIP3    H2 9439   0.554   2.582   1.586
 3159TIP3   OH2 9440   6.631   2.471   1.843
 3159TIP3    H1 9441   6.545   2.512   1.834
 3159TIP3    H2 9442   6.633   2.404   1.775
 3160TIP3   OH2 9443   1.141   0.061   4.648
 3160TIP3    H1 9444   1.112  -0.026   4.674
 3160TIP3    H2 9445   1.237   0.054   4.645
 3161TIP3   OH2 9446   2.873   2.988   2.424
 3161TIP3    H1 9447   2.820   2.979   2.345
 3161TIP3    H2 9448   2.870   2.902   2.466
 3162TIP3   OH2 9449   2.182   1.125   1.900
 3162TIP3    H1 9450   2.093   1.110   1.869
 3162TIP3    H2 9451   2.235   1.127   1.821
 3163TIP3   OH2 9452   7.187   4.868   5.310
 3163TIP3    H1 9453   7.107   4.882   5.259
 3163TIP3    H2 9454   7.255   4.852   5.244
 3164TIP3   OH2 9455   3.854   5.074   0.805
 3164TIP3    H1 9456   3.811   5.028   0.877
 3164TIP3    H2 9457   3.855   5.011   0.733
 3165TIP3   OH2 9458   6.364   3.372   1.144
 3165TIP3    H1 9459   6.338   3.288   1.180
 3165TIP3    H2 9460   6.283   3.424   1.144
 3166TIP3   OH2 9461   4.461   1.967   5.399
 3166TIP3    H1 9462   4.435   2.055   5.425
 3166TIP3    H2 9463   4.384   1.931   5.354
 3167TIP3   OH2 9464   3.369   6.094   3.943
 3167TIP3    H1 9465   3.318   6.163   3.984
 3167TIP3    H2 9466   3.375   6.025   4.010
 3168TIP3   OH2 9467   4.266  -0.015   5.398
 3168TIP3    H1 9468   4.196   0.045   5.370
 3168TIP3    H2 9469   4.323   0.039   5.452
 3169TIP3   OH2 9470   0.964   2.464   1.174
 3169TIP3    H1 9471   0.875   2.459   1.208
 3169TIP3    H2 9472   0.960   2.421   1.089
 3170TIP3   OH2 9473   5.405   1.335   0.745
 3170TIP3    H1 9474   5.470   1.332   0.675
 3170TIP3    H2 9475   5.411   1.250   0.788
 3171TIP3   OH2 9476   1.537   5.939   0.333
 3171TIP3    H1 9477   1.591   5.860   0.340
 3171TIP3    H2 9478   1.484   5.938   0.413
 3172TIP3   OH2 9479   2.401   1.980   2.647
 3172TIP3    H1 9480   2.362   1.945   2.567
 3172TIP3    H2 9481   2.337   2.045   2.677
 3173TIP3   OH2 9482   3.132   2.940   2.297
 3173TIP3    H1 9483   3.051   2.991   2.294
 3173TIP3    H2 9484   3.105   2.850   2.282
 3174TIP3   OH2 9485   3.280   5.887   5.821
 3174TIP3    H1 9486   3.246   5.970   5.788
 3174TIP3    H2 9487   3.211   5.854   5.879
 3175TIP3   OH2 9488   2.888   4.368   4.853
 3175TIP3    H1 9489   2.900   4.402   4.765
 3175TIP3    H2 9490   2.804   4.402   4.882
 3176TIP3   OH2 9491   5.214   1.654   4.228
 3176TIP3    H1 9492   5.279   1.708   4.271
 3176TIP3    H2 9493   5.130   1.691   4.254
 3177TIP3   OH2 9494   2.871   4.476   3.582
 3177TIP3    H1 9495   2.819   4.512   3.511
 3177TIP3    H2 9496   2.942   4.428   3.538
 3178TIP3   OH2 9497   5.485   0.583   1.738
 3178TIP3    H1 9498   5.578   0.562   1.750
 3178TIP3    H2 9499   5.469   0.654   1.800
 3179TIP3   OH2 9500   6.014   0.063   0.842
 3179TIP3    H1 9501   5.998  -0.031   0.837
 3179TIP3    H2 9502   6.109   0.071   0.846
 3180TIP3   OH2 9503   2.219   4.136   5.534
 3180TIP3    H1 9504   2.149   4.074   5.554
 3180TIP3    H2 9505   2.190   4.219   5.574
 3181TIP3   OH2 9506   6.443   4.024   2.626
 3181TIP3    H1 9507   6.429   3.944   2.676
 3181TIP3    H2 9508   6.482   3.994   2.544
 3182TIP3   OH2 9509   6.564   5.287   3.150
 3182TIP3    H1 9510   6.643   5.238   3.173
 3182TIP3    H2 9511   6.499   5.260   3.215
 3183TIP3   OH2 9512   1.109   2.375   0.687
 3183TIP3    H1 9513   1.105   2.298   0.629
 3183TIP3    H2 9514   1.197   2.409   0.675
 3184TIP3   OH2 9515   1.100   5.878   1.979
 3184TIP3    H1 9516   1.086   5.955   1.924
 3184TIP3    H2 9517   1.046   5.893   2.056
 3185TIP3   OH2 9518   6.805   4.111   0.378
 3185TIP3    H1 9519   6.726   4.124   0.431
 3185TIP3    H2 9520   6.873   4.159   0.426
 3186TIP3   OH2 9521   5.727   4.388   4.444
 3186TIP3    H1 9522   5.684   4.362   4.525
 3186TIP3    H2 9523   5.696   4.478   4.428
 3187TIP3   OH2 9524   0.798   3.509   4.396
 3187TIP3    H1 9525   0.833   3.542   4.479
 3187TIP3    H2 9526   0.704   3.505   4.410
 3188TIP3   OH2 9527   1.061   2.879   1.589
 3188TIP3    H1 9528   1.030   2.788   1.593
 3188TIP3    H2 9529   1.106   2.892   1.672
 3189TIP3   OH2 9530   5.245   3.473   2.943
 3189TIP3    H1 9531   5.259   3.496   2.851
 3189TIP3    H2 9532   5.161   3.514   2.965
 3190TIP3   OH2 9533   4.967   3.789   4.770
 3190TIP3    H1 9534   4.987   3.702   4.805
 3190TIP3    H2 9535   5.013   3.850   4.828
 3191TIP3   OH2 9536   5.204   2.335   3.678
 3191TIP3    H1 9537   5.150   2.412   3.663
 3191TIP3    H2 9538   5.155   2.262   3.641
 3192TIP3   OH2 9539   0.538   2.293   3.112
 3192TIP3    H1 9540   0.516   2.251   3.028
 3192TIP3    H2 9541   0.465   2.352   3.129
 3193TIP3   OH2 9542   6.069   4.675   1.892
 3193TIP3    H1 9543   5.980   4.673   1.857
 3193TIP3    H2 9544   6.098   4.765   1.879
 3194TIP3   OH2 9545   2.898   4.591   4.631
 3194TIP3    H1 9546   2.942   4.675   4.619
 3194TIP3    H2 9547   2.906   4.548   4.546
 3195TIP3   OH2 9548   3.105   5.728   5.186
 3195TIP3    H1 9549   3.181   5.772   5.148
 3195TIP3    H2 9550   3.030   5.781   5.159
 3196TIP3   OH2 9551   2.728   6.848   5.183
 3196TIP3    H1 9552   2.751   6.755   5.184
 3196TIP3    H2 9553   2.692   6.864   5.270
 3197TIP3   OH2 9554   1.812   2.675   2.568
 3197TIP3    H1 9555   1.850   2.589   2.587
 3197TIP3    H2 9556   1.887   2.730   2.548
 3198TIP3   OH2 9557   2.255   2.388   2.299
 3198TIP3    H1 9558   2.336   2.436   2.284
 3198TIP3    H2 9559   2.277   2.297   2.281
 3199TIP3   OH2 9560   5.541   0.303   0.775
 3199TIP3    H1 9561   5.553   0.301   0.870
 3199TIP3    H2 9562   5.617   0.257   0.740
 3200TIP3   OH2 9563   0.692   0.508   1.459
 3200TIP3    H1 9564   0.654   0.434   1.412
 3200TIP3    H2 9565   0.785   0.505   1.437
 3201TIP3   OH2 9566   6.005   4.166   5.355
 3201TIP3    H1 9567   6.068   4.149   5.425
 3201TIP3    H2 9568   5.940   4.096   5.364
 3202TIP3   OH2 9569   3.717   2.324   0.453
 3202TIP3    H1 9570   3.715   2.292   0.543
 3202TIP3    H2 9571   3.626   2.347   0.433
 3203TIP3   OH2 9572   3.680   4.951   4.045
 3203TIP3    H1 9573   3.768   4.918   4.026
 3203TIP3    H2 9574   3.631   4.873   4.072
 3204TIP3   OH2 9575   0.251   3.232   0.855
 3204TIP3    H1 9576   0.308   3.260   0.926
 3204TIP3    H2 9577   0.310   3.190   0.792
 3205TIP3   OH2 9578   1.457   4.723   2.714
 3205TIP3    H1 9579   1.490   4.800   2.760
 3205TIP3    H2 9580   1.534   4.671   2.695
 3206TIP3   OH2 9581   3.722   4.028   2.467
 3206TIP3    H1 9582   3.659   4.076   2.520
 3206TIP3    H2 9583   3.685   4.029   2.379
 3207TIP3   OH2 9584   2.165   1.824   5.890
 3207TIP3    H1 9585   2.150   1.735   5.857
 3207TIP3    H2 9586   2.246   1.817   5.941
 3208TIP3   OH2 9587   3.221   3.797   3.450
 3208TIP3    H1 9588   3.133   3.761   3.443
 3208TIP3    H2 9589   3.277   3.720   3.461
 3209TIP3   OH2 9590   3.265   0.228   3.321
 3209TIP3    H1 9591   3.214   0.281   3.383
 3209TIP3    H2 9592   3.289   0.289   3.251
 3210TIP3   OH2 9593   2.033   2.069   0.306
 3210TIP3    H1 9594   2.022   2.063   0.401
 3210TIP3    H2 9595   2.006   2.158   0.284
 3211TIP3   OH2 9596   0.834   0.740   2.342
 3211TIP3    H1 9597   0.847   0.743   2.437
 3211TIP3    H2 9598   0.885   0.664   2.313
 3212TIP3   OH2 9599   5.055   0.300   1.480
 3212TIP3    H1 9600   5.127   0.241   1.456
 3212TIP3    H2 9601   5.098   0.384   1.497
 3213TIP3   OH2 9602   7.243   4.145   3.740
 3213TIP3    H1 9603   7.236   4.068   3.684
 3213TIP3    H2 9604   7.157   4.186   3.738
 3214TIP3   OH2 9605   3.642   0.938   5.006
 3214TIP3    H1 9606   3.563   0.970   4.963
 3214TIP3    H2 9607   3.661   0.855   4.963
 3215TIP3   OH2 9608   7.199   4.119   5.258
 3215TIP3    H1 9609   7.142   4.189   5.289
 3215TIP3    H2 9610   7.157   4.087   5.178
 3216TIP3   OH2 9611   6.813   6.782   0.851
 3216TIP3    H1 9612   6.866   6.703   0.841
 3216TIP3    H2 9613   6.876   6.854   0.845
 3217TIP3   OH2 9614   4.944   5.256   3.515
 3217TIP3    H1 9615   4.927   5.341   3.473
 3217TIP3    H2 9616   4.870   5.201   3.488
 3218TIP3   OH2 9617   1.384   2.071   3.554
 3218TIP3    H1 9618   1.296   2.037   3.569
 3218TIP3    H2 9619   1.373   2.166   3.549
 3219TIP3   OH2 9620   5.929   6.728   5.895
 3219TIP3    H1 9621   5.947   6.635   5.887
 3219TIP3    H2 9622   5.834   6.733   5.902
 3220TIP3   OH2 9623   6.169   0.565   4.968
 3220TIP3    H1 9624   6.181   0.528   4.881
 3220TIP3    H2 9625   6.254   0.554   5.011
 3221TIP3   OH2 9626   1.909   3.035   2.753
 3221TIP3    H1 9627   1.832   3.063   2.704
 3221TIP3    H2 9628   1.876   3.021   2.842
 3222TIP3   OH2 9629   4.188   5.647   3.123
 3222TIP3    H1 9630   4.199   5.562   3.082
 3222TIP3    H2 9631   4.137   5.629   3.202
 3223TIP3   OH2 9632   3.516   1.681   1.318
 3223TIP3    H1 9633   3.459   1.617   1.362
 3223TIP3    H2 9634   3.589   1.628   1.286
 3224TIP3   OH2 9635   5.467   5.848   2.504
 3224TIP3    H1 9636   5.454   5.754   2.488
 3224TIP3    H2 9637   5.556   5.865   2.474
 3225TIP3   OH2 9638   5.377   5.427   1.733
 3225TIP3    H1 9639   5.386   5.350   1.790
 3225TIP3    H2 9640   5.322   5.487   1.783
 3226TIP3   OH2 9641   7.207   2.957   3.404
 3226TIP3    H1 9642   7.231   2.865   3.415
 3226TIP3    H2 9643   7.180   2.963   3.312
 3227TIP3   OH2 9644   6.232   3.588   5.031
 3227TIP3    H1 9645   6.281   3.671   5.033
 3227TIP3    H2 9646   6.188   3.589   4.946
 3228TIP3   OH2 9647   4.864   6.755   1.625
 3228TIP3    H1 9648   4.847   6.803   1.544
 3228TIP3    H2 9649   4.953   6.721   1.615
 3229TIP3   OH2 9650   2.995   5.680   3.147
 3229TIP3    H1 9651   2.904   5.674   3.175
 3229TIP3    H2 9652   3.023   5.589   3.133
 3230TIP3   OH2 9653   7.029   1.368   2.366
 3230TIP3    H1 9654   7.112   1.389   2.323
 3230TIP3    H2 9655   6.974   1.334   2.295
 3231TIP3   OH2 9656   0.851   1.763   5.157
 3231TIP3    H1 9657   0.899   1.784   5.237
 3231TIP3    H2 9658   0.895   1.812   5.088
 3232TIP3   OH2 9659   2.257   5.161   0.475
 3232TIP3    H1 9660   2.281   5.187   0.564
 3232TIP3    H2 9661   2.252   5.066   0.479
 3233TIP3   OH2 9662   1.578   1.763   0.509
 3233TIP3    H1 9663   1.559   1.693   0.572
 3233TIP3    H2 9664   1.563   1.723   0.424
 3234TIP3   OH2 9665   6.689   1.171   3.799
 3234TIP3    H1 9666   6.673   1.176   3.704
 3234TIP3    H2 9667   6.612   1.213   3.838
 3235TIP3   OH2 9668   3.155   6.639   3.721
 3235TIP3    H1 9669   3.191   6.554   3.693
 3235TIP3    H2 9670   3.062   6.634   3.697
 3236TIP3   OH2 9671   4.006   6.329   4.388
 3236TIP3    H1 9672   4.093   6.316   4.426
 3236TIP3    H2 9673   4.005   6.421   4.362
 3237TIP3   OH2 9674   1.548   2.590   2.735
 3237TIP3    H1 9675   1.637   2.624   2.729
 3237TIP3    H2 9676   1.529   2.588   2.829
 3238TIP3   OH2 9677   1.839   4.636   0.186
 3238TIP3    H1 9678   1.783   4.604   0.256
 3238TIP3    H2 9679   1.871   4.557   0.143
 3239TIP3   OH2 9680   0.136   2.886   2.962
 3239TIP3    H1 9681   0.175   2.808   2.923
 3239TIP3    H2 9682   0.125   2.947   2.889
 3240TIP3   OH2 9683   5.978   3.876   4.349
 3240TIP3    H1 9684   6.069   3.907   4.343
 3240TIP3    H2 9685   5.985   3.781   4.343
 3241TIP3   OH2 9686   4.928   2.893   5.439
 3241TIP3    H1 9687   4.877   2.854   5.368
 3241TIP3    H2 9688   4.892   2.981   5.450
 3242TIP3   OH2 9689   4.561   2.266   1.162
 3242TIP3    H1 9690   4.576   2.272   1.068
 3242TIP3    H2 9691   4.622   2.330   1.200
 3243TIP3   OH2 9692   5.234   2.897   5.408
 3243TIP3    H1 9693   5.217   2.857   5.323
 3243TIP3    H2 9694   5.147   2.920   5.441
 3244TIP3   OH2 9695   4.409   0.350   1.376
 3244TIP3    H1 9696   4.401   0.272   1.431
 3244TIP3    H2 9697   4.418   0.422   1.438
 3245TIP3   OH2 9698   2.078   2.841   2.858
 3245TIP3    H1 9699   2.132   2.802   2.790
 3245TIP3    H2 9700   2.022   2.903   2.812
 3246TIP3   OH2 9701   3.043   5.427   2.977
 3246TIP3    H1 9702   3.090   5.469   2.905
 3246TIP3    H2 9703   2.977   5.372   2.933
 3247TIP3   OH2 9704   3.714   0.710   4.061
 3247TIP3    H1 9705   3.657   0.638   4.088
 3247TIP3    H2 9706   3.741   0.686   3.972
 3248TIP3   OH2 9707   4.368   3.601   5.545
 3248TIP3    H1 9708   4.419   3.606   5.464
 3248TIP3    H2 9709   4.302   3.671   5.536
 3249TIP3   OH2 9710   6.220   1.752   1.349
 3249TIP3    H1 9711   6.160   1.703   1.406
 3249TIP3    H2 9712   6.174   1.835   1.332
 3250TIP3   OH2 9713   0.989   4.992   2.530
 3250TIP3    H1 9714   1.050   5.013   2.601
 3250TIP3    H2 9715   0.927   4.931   2.570
 3251TIP3   OH2 9716   0.485   2.863   0.961
 3251TIP3    H1 9717   0.550   2.801   0.993
 3251TIP3    H2 9718   0.493   2.939   1.019
 3252TIP3   OH2 9719   5.155   4.451   2.841
 3252TIP3    H1 9720   5.077   4.473   2.789
 3252TIP3    H2 9721   5.168   4.358   2.827
 3253TIP3   OH2 9722   2.703   3.279   5.735
 3253TIP3    H1 9723   2.617   3.305   5.702
 3253TIP3    H2 9724   2.755   3.359   5.733
 3254TIP3   OH2 9725   5.061   4.837   5.743
 3254TIP3    H1 9726   5.058   4.792   5.658
 3254TIP3    H2 9727   5.001   4.787   5.798
 3255TIP3   OH2 9728   4.752   0.863   2.613
 3255TIP3    H1 9729   4.827   0.853   2.672
 3255TIP3    H2 9730   4.706   0.940   2.646
 3256TIP3   OH2 9731   0.928   0.875   1.552
 3256TIP3    H1 9732   0.983   0.945   1.586
 3256TIP3    H2 9733   0.989   0.807   1.524
 3257TIP3   OH2 9734   2.771   3.688   1.346
 3257TIP3    H1 9735   2.750   3.751   1.277
 3257TIP3    H2 9736   2.855   3.717   1.381
 3258TIP3   OH2 9737   5.526   4.136   5.421
 3258TIP3    H1 9738   5.598   4.146   5.483
 3258TIP3    H2 9739   5.562   4.166   5.338
 3259TIP3   OH2 9740   2.937   0.459   5.414
 3259TIP3    H1 9741   2.877   0.478   5.486
 3259TIP3    H2 9742   2.926   0.532   5.353
 3260TIP3   OH2 9743   6.950   5.812   3.204
 3260TIP3    H1 9744   6.945   5.851   3.117
 3260TIP3    H2 9745   7.002   5.733   3.192
 3261TIP3   OH2 9746   6.823   3.104   2.060
 3261TIP3    H1 9747   6.916   3.112   2.040
 3261TIP3    H2 9748   6.818   3.033   2.124
 3262TIP3   OH2 9749   3.861   3.065   1.250
 3262TIP3    H1 9750   3.798   3.006   1.208
 3262TIP3    H2 9751   3.885   3.020   1.332
 3263TIP3   OH2 9752   6.024   6.055   5.332
 3263TIP3    H1 9753   6.020   6.064   5.427
 3263TIP3    H2 9754   5.935   6.074   5.303
 3264TIP3   OH2 9755   6.210   0.689   1.780
 3264TIP3    H1 9756   6.285   0.729   1.735
 3264TIP3    H2 9757   6.247   0.612   1.822
 3265TIP3   OH2 9758   1.469   6.385   2.811
 3265TIP3    H1 9759   1.415   6.374   2.889
 3265TIP3    H2 9760   1.409   6.369   2.738
 3266TIP3   OH2 9761   0.248   3.791   3.474
 3266TIP3    H1 9762   0.215   3.784   3.384
 3266TIP3    H2 9763   0.179   3.752   3.528
 3267TIP3   OH2 9764   5.049   2.254   2.029
 3267TIP3    H1 9765   4.968   2.205   2.017
 3267TIP3    H2 9766   5.114   2.188   2.054
 3268TIP3   OH2 9767   1.865   2.290   4.517
 3268TIP3    H1 9768   1.802   2.337   4.572
 3268TIP3    H2 9769   1.893   2.355   4.452
 3269TIP3   OH2 9770   5.255   0.539   5.295
 3269TIP3    H1 9771   5.225   0.449   5.307
 3269TIP3    H2 9772   5.175   0.591   5.298
 3270TIP3   OH2 9773   4.075   3.032   5.226
 3270TIP3    H1 9774   4.103   2.985   5.147
 3270TIP3    H2 9775   4.145   3.094   5.243
 3271TIP3   OH2 9776   0.405   2.011   0.565
 3271TIP3    H1 9777   0.433   1.937   0.619
 3271TIP3    H2 9778   0.468   2.081   0.585
 3272TIP3   OH2 9779   5.268   4.731   4.493
 3272TIP3    H1 9780   5.254   4.781   4.574
 3272TIP3    H2 9781   5.190   4.748   4.441
 3273TIP3   OH2 9782   4.869   6.674   5.676
 3273TIP3    H1 9783   4.861   6.593   5.725
 3273TIP3    H2 9784   4.832   6.741   5.733
 3274TIP3   OH2 9785   4.546   4.472   5.294
 3274TIP3    H1 9786   4.625   4.425   5.321
 3274TIP3    H2 9787   4.523   4.435   5.209
 3275TIP3   OH2 9788   6.488   5.085   3.493
 3275TIP3    H1 9789   6.508   5.138   3.571
 3275TIP3    H2 9790   6.393   5.088   3.486
 3276TIP3   OH2 9791   3.774   2.575   0.326
 3276TIP3    H1 9792   3.759   2.492   0.372
 3276TIP3    H2 9793   3.869   2.580   0.316
 3277TIP3   OH2 9794   5.412   0.305   1.972
 3277TIP3    H1 9795   5.354   0.381   1.979
 3277TIP3    H2 9796   5.355   0.229   1.984
 3278TIP3   OH2 9797   2.537   2.718   3.840
 3278TIP3    H1 9798   2.494   2.668   3.771
 3278TIP3    H2 9799   2.609   2.662   3.869
 3279TIP3   OH2 9800   6.142   2.856   4.248
 3279TIP3    H1 9801   6.074   2.913   4.284
 3279TIP3    H2 9802   6.210   2.916   4.217
 3280TIP3   OH2 9803   1.074   1.601   2.686
 3280TIP3    H1 9804   1.075   1.603   2.782
 3280TIP3    H2 9805   1.156   1.559   2.662
 3281TIP3   OH2 9806   4.445   3.208   5.438
 3281TIP3    H1 9807   4.434   3.170   5.525
 3281TIP3    H2 9808   4.531   3.250   5.442
 3282TIP3   OH2 9809   3.372   6.072   0.971
 3282TIP3    H1 9810   3.387   6.164   0.993
 3282TIP3    H2 9811   3.346   6.031   1.054
 3283TIP3   OH2 9812   6.914   5.614   5.612
 3283TIP3    H1 9813   6.886   5.580   5.527
 3283TIP3    H2 9814   6.845   5.675   5.638
 3284TIP3   OH2 9815   3.821   0.775   4.619
 3284TIP3    H1 9816   3.733   0.739   4.610
 3284TIP3    H2 9817   3.879   0.706   4.587
 3285TIP3   OH2 9818   5.239   1.678   0.625
 3285TIP3    H1 9819   5.275   1.746   0.680
 3285TIP3    H2 9820   5.259   1.706   0.535
 3286TIP3   OH2 9821   6.672   6.751   1.391
 3286TIP3    H1 9822   6.696   6.659   1.392
 3286TIP3    H2 9823   6.649   6.771   1.482
 3287TIP3   OH2 9824   2.811   3.043   5.820
 3287TIP3    H1 9825   2.794   3.137   5.822
 3287TIP3    H2 9826   2.787   3.016   5.731
 3288TIP3   OH2 9827   4.340   5.944   4.317
 3288TIP3    H1 9828   4.269   5.929   4.255
 3288TIP3    H2 9829   4.338   6.038   4.333
 3289TIP3   OH2 9830   4.543   0.458   2.880
 3289TIP3    H1 9831   4.500   0.537   2.848
 3289TIP3    H2 9832   4.482   0.387   2.860
 3290TIP3   OH2 9833   6.454   3.392   1.852
 3290TIP3    H1 9834   6.359   3.398   1.856
 3290TIP3    H2 9835   6.473   3.301   1.875
 3291TIP3   OH2 9836   6.551   5.678   3.400
 3291TIP3    H1 9837   6.614   5.620   3.359
 3291TIP3    H2 9838   6.470   5.627   3.405
 3292TIP3   OH2 9839   3.459   5.205   5.911
 3292TIP3    H1 9840   3.548   5.224   5.881
 3292TIP3    H2 9841   3.449   5.110   5.898
 3293TIP3   OH2 9842   6.294   5.620   4.587
 3293TIP3    H1 9843   6.333   5.688   4.533
 3293TIP3    H2 9844   6.347   5.619   4.667
 3294TIP3   OH2 9845   4.501   6.368   5.599
 3294TIP3    H1 9846   4.542   6.401   5.680
 3294TIP3    H2 9847   4.426   6.426   5.585
 3295TIP3   OH2 9848   3.821   2.333   0.778
 3295TIP3    H1 9849   3.804   2.273   0.850
 3295TIP3    H2 9850   3.865   2.407   0.818
 3296TIP3   OH2 9851   5.688   4.386   0.107
 3296TIP3    H1 9852   5.703   4.480   0.095
 3296TIP3    H2 9853   5.722   4.368   0.195
 3297TIP3   OH2 9854   5.842   6.549   0.515
 3297TIP3    H1 9855   5.774   6.482   0.509
 3297TIP3    H2 9856   5.799   6.623   0.557
 3298TIP3   OH2 9857   0.663   4.370   3.787
 3298TIP3    H1 9858   0.744   4.406   3.751
 3298TIP3    H2 9859   0.615   4.339   3.710
 3299TIP3   OH2 9860   1.737   6.237   2.365
 3299TIP3    H1 9861   1.648   6.214   2.340
 3299TIP3    H2 9862   1.731   6.260   2.458
 3300TIP3   OH2 9863   0.685   6.334   3.889
 3300TIP3    H1 9864   0.694   6.248   3.848
 3300TIP3    H2 9865   0.591   6.347   3.898
 3301TIP3   OH2 9866   1.889   4.700   5.395
 3301TIP3    H1 9867   1.974   4.716   5.355
 3301TIP3    H2 9868   1.870   4.608   5.378
 3302TIP3   OH2 9869   6.669   6.487   3.304
 3302TIP3    H1 9870   6.758   6.489   3.269
 3302TIP3    H2 9871   6.627   6.416   3.256
 3303TIP3   OH2 9872   3.189   5.971   5.484
 3303TIP3    H1 9873   3.133   5.965   5.561
 3303TIP3    H2 9874   3.129   5.970   5.410
 3304TIP3   OH2 9875   7.063   2.506   1.926
 3304TIP3    H1 9876   7.148   2.548   1.934
 3304TIP3    H2 9877   7.041   2.479   2.015
 3305TIP3   OH2 9878   2.951   1.721   2.141
 3305TIP3    H1 9879   2.922   1.812   2.143
 3305TIP3    H2 9880   2.882   1.672   2.186
 3306TIP3   OH2 9881   4.453   3.274   4.398
 3306TIP3    H1 9882   4.487   3.332   4.466
 3306TIP3    H2 9883   4.433   3.331   4.324
 3307TIP3   OH2 9884   5.631   5.022   1.324
 3307TIP3    H1 9885   5.693   5.035   1.396
 3307TIP3    H2 9886   5.631   4.927   1.309
 3308TIP3   OH2 9887   6.343   1.162   4.288
 3308TIP3    H1 9888   6.306   1.235   4.237
 3308TIP3    H2 9889   6.295   1.085   4.257
 3309TIP3   OH2 9890   3.540   4.239   1.252
 3309TIP3    H1 9891   3.476   4.289   1.200
 3309TIP3    H2 9892   3.618   4.294   1.252
 3310TIP3   OH2 9893   0.391   4.336   3.095
 3310TIP3    H1 9894   0.357   4.302   3.012
 3310TIP3    H2 9895   0.436   4.417   3.071
 3311TIP3   OH2 9896   2.692   0.309   4.063
 3311TIP3    H1 9897   2.658   0.230   4.019
 3311TIP3    H2 9898   2.677   0.293   4.156
 3312TIP3   OH2 9899   1.379   3.363   2.325
 3312TIP3    H1 9900   1.402   3.382   2.416
 3312TIP3    H2 9901   1.390   3.268   2.318
 3313TIP3   OH2 9902   4.566   1.659   5.467
 3313TIP3    H1 9903   4.555   1.665   5.372
 3313TIP3    H2 9904   4.558   1.749   5.498
 3314TIP3   OH2 9905   6.885   4.355   3.347
 3314TIP3    H1 9906   6.900   4.408   3.425
 3314TIP3    H2 9907   6.793   4.330   3.352
 3315TIP3   OH2 9908   5.905   5.277   1.115
 3315TIP3    H1 9909   5.986   5.320   1.141
 3315TIP3    H2 9910   5.917   5.255   1.023
 3316TIP3   OH2 9911   6.748   1.505   4.101
 3316TIP3    H1 9912   6.744   1.552   4.184
 3316TIP3    H2 9913   6.822   1.545   4.055
 3317TIP3   OH2 9914   5.255   3.194   0.580
 3317TIP3    H1 9915   5.288   3.127   0.521
 3317TIP3    H2 9916   5.169   3.163   0.608
 3318TIP3   OH2 9917   3.511   5.428   2.009
 3318TIP3    H1 9918   3.599   5.455   1.984
 3318TIP3    H2 9919   3.474   5.388   1.931
 3319TIP3   OH2 9920   4.759   0.302   1.598
 3319TIP3    H1 9921   4.751   0.210   1.624
 3319TIP3    H2 9922   4.851   0.313   1.575
 3320TIP3   OH2 9923   5.119   3.813   3.168
 3320TIP3    H1 9924   5.190   3.797   3.107
 3320TIP3    H2 9925   5.046   3.760   3.135
 3321TIP3   OH2 9926   1.185   4.031   0.578
 3321TIP3    H1 9927   1.213   3.965   0.641
 3321TIP3    H2 9928   1.169   3.982   0.497
 3322TIP3   OH2 9929   3.846   0.585   5.320
 3322TIP3    H1 9930   3.808   0.649   5.259
 3322TIP3    H2 9931   3.772   0.555   5.373
 3323TIP3   OH2 9932   7.152   0.323   5.186
 3323TIP3    H1 9933   7.130   0.276   5.266
 3323TIP3    H2 9934   7.204   0.260   5.134
 3324TIP3   OH2 9935   1.948   2.055   5.391
 3324TIP3    H1 9936   1.991   1.986   5.440
 3324TIP3    H2 9937   1.976   2.136   5.434
 3325TIP3   OH2 9938   4.571   1.889   5.679
 3325TIP3    H1 9939   4.642   1.944   5.647
 3325TIP3    H2 9940   4.505   1.951   5.710
 3326TIP3   OH2 9941   5.960   0.263   3.814
 3326TIP3    H1 9942   6.044   0.296   3.847
 3326TIP3    H2 9943   5.972   0.257   3.719
 3327TIP3   OH2 9944   2.810   1.385   0.595
 3327TIP3    H1 9945   2.840   1.474   0.616
 3327TIP3    H2 9946   2.864   1.358   0.521
 3328TIP3   OH2 9947   2.457   2.452   4.904
 3328TIP3    H1 9948   2.501   2.536   4.915
 3328TIP3    H2 9949   2.488   2.420   4.820
 3329TIP3   OH2 9950   6.425   3.459   3.490
 3329TIP3    H1 9951   6.493   3.518   3.457
 3329TIP3    H2 9952   6.392   3.415   3.412
 3330TIP3   OH2 9953   3.926   6.029   4.632
 3330TIP3    H1 9954   3.958   5.971   4.562
 3330TIP3    H2 9955   3.991   6.099   4.636
 3331TIP3   OH2 9956   3.294   1.507   4.227
 3331TIP3    H1 9957   3.366   1.567   4.248
 3331TIP3    H2 9958   3.337   1.422   4.216
 3332TIP3   OH2 9959   1.418   1.728   3.347
 3332TIP3    H1 9960   1.494   1.749   3.294
 3332TIP3    H2 9961   1.448   1.735   3.438
 3333TIP3   OH2 9962   0.086   0.267   2.823
 3333TIP3    H1 9963   0.075   0.198   2.758
 3333TIP3    H2 9964   0.003   0.315   2.822
 3334TIP3   OH2 9965   3.064   1.540   2.375
 3334TIP3    H1 9966   2.977   1.531   2.335
 3334TIP3    H2 9967   3.063   1.478   2.448
 3335TIP3   OH2 9968   6.185   6.710   3.339
 3335TIP3    H1 9969   6.125   6.700   3.265
 3335TIP3    H2 9970   6.225   6.623   3.349
 3336TIP3   OH2 9971   0.312   3.179   2.357
 3336TIP3    H1 9972   0.351   3.247   2.412
 3336TIP3    H2 9973   0.360   3.184   2.275
 3337TIP3   OH2 9974   6.312   4.753   4.170
 3337TIP3    H1 9975   6.375   4.686   4.195
 3337TIP3    H2 9976   6.236   4.737   4.227
 3338TIP3   OH2 9977   2.109   1.488   1.027
 3338TIP3    H1 9978   2.086   1.580   1.019
 3338TIP3    H2 9979   2.090   1.451   0.941
 3339TIP3   OH2 9980   5.202   1.656   3.728
 3339TIP3    H1 9981   5.278   1.699   3.690
 3339TIP3    H2 9982   5.182   1.584   3.668
 3340TIP3   OH2 9983   6.752   5.201   3.694
 3340TIP3    H1 9984   6.838   5.192   3.654
 3340TIP3    H2 9985   6.750   5.290   3.728
 3341TIP3   OH2 9986   0.855   4.993   5.609
 3341TIP3    H1 9987   0.921   5.059   5.632
 3341TIP3    H2 9988   0.776   5.021   5.655
 3342TIP3   OH2 9989   1.858   4.309   2.011
 3342TIP3    H1 9990   1.822   4.256   2.082
 3342TIP3    H2 9991   1.942   4.268   1.990
 3343TIP3   OH2 9992   2.382   2.014   1.302
 3343TIP3    H1 9993   2.315   1.985   1.240
 3343TIP3    H2 9994   2.461   2.025   1.249
 3344TIP3   OH2 9995   2.671   6.823   1.855
 3344TIP3    H1 9996   2.625   6.772   1.922
 3344TIP3    H2 9997   2.633   6.793   1.772
 3345TIP3   OH2 9998   3.408   2.573   5.148
 3345TIP3    H1 9999   3.434   2.665   5.140
 3345TIP3    H210000   3.365   2.568   5.234
 3346TIP3   OH210001   3.720   4.302   3.559
 3346TIP3    H110002   3.648   4.249   3.525
 3346TIP3    H210003   3.685   4.341   3.639
 3347TIP3   OH210004   5.288   1.444   1.343
 3347TIP3    H110005   5.276   1.537   1.322
 3347TIP3    H210006   5.368   1.419   1.297
 3348TIP3   OH210007   3.012   5.250   3.854
 3348TIP3    H110008   2.933   5.303   3.859
 3348TIP3    H210009   3.068   5.297   3.792
 3349TIP3   OH210010   3.944   2.128   1.761
 3349TIP3    H110011   3.919   2.153   1.850
 3349TIP3    H210012   4.018   2.186   1.740
 3350TIP3   OH210013   6.844   0.126   1.921
 3350TIP3    H110014   6.920   0.081   1.958
 3350TIP3    H210015   6.871   0.217   1.914
 3351TIP3   OH210016   1.689   6.221   4.568
 3351TIP3    H110017   1.669   6.130   4.587
 3351TIP3    H210018   1.659   6.234   4.478
 3352TIP3   OH210019   4.208   4.983   2.192
 3352TIP3    H110020   4.264   4.946   2.124
 3352TIP3    H210021   4.119   4.976   2.156
 3353TIP3   OH210022   0.904   3.225   3.073
 3353TIP3    H110023   0.841   3.156   3.095
 3353TIP3    H210024   0.903   3.228   2.977
 3354TIP3   OH210025   1.760   3.759   3.936
 3354TIP3    H110026   1.823   3.818   3.895
 3354TIP3    H210027   1.772   3.676   3.891
 3355TIP3   OH210028   2.416   2.901   0.648
 3355TIP3    H110029   2.385   2.988   0.623
 3355TIP3    H210030   2.339   2.845   0.639
 3356TIP3   OH210031   0.215   0.585   5.689
 3356TIP3    H110032   0.240   0.559   5.600
 3356TIP3    H210033   0.241   0.677   5.695
 3357TIP3   OH210034   5.732   0.964   3.651
 3357TIP3    H110035   5.721   0.880   3.607
 3357TIP3    H210036   5.708   0.947   3.742
 3358TIP3   OH210037   5.783   4.310   2.036
 3358TIP3    H110038   5.813   4.220   2.039
 3358TIP3    H210039   5.863   4.362   2.048
 3359TIP3   OH210040   0.114   3.097   1.060
 3359TIP3    H110041   0.029   3.140   1.065
 3359TIP3    H210042   0.166   3.152   1.001
 3360TIP3   OH210043   3.240   3.593   3.120
 3360TIP3    H110044   3.199   3.563   3.201
 3360TIP3    H210045   3.203   3.680   3.105
 3361TIP3   OH210046   1.944   3.382   1.974
 3361TIP3    H110047   1.885   3.458   1.979
 3361TIP3    H210048   1.978   3.385   1.884
 3362TIP3   OH210049   2.410   5.914   1.120
 3362TIP3    H110050   2.473   5.848   1.090
 3362TIP3    H210051   2.324   5.877   1.099
 3363TIP3   OH210052   1.013   1.083   1.942
 3363TIP3    H110053   0.988   0.996   1.972
 3363TIP3    H210054   1.020   1.135   2.022
 3364TIP3   OH210055   7.167   1.890   5.869
 3364TIP3    H110056   7.168   1.919   5.779
 3364TIP3    H210057   7.208   1.961   5.918
 3365TIP3   OH210058   1.200   4.817   5.584
 3365TIP3    H110059   1.269   4.814   5.651
 3365TIP3    H210060   1.209   4.903   5.544
 3366TIP3   OH210061   1.624   3.750   5.742
 3366TIP3    H110062   1.635   3.658   5.718
 3366TIP3    H210063   1.557   3.750   5.810
 3367TIP3   OH210064   0.145   5.232   5.351
 3367TIP3    H110065   0.117   5.216   5.260
 3367TIP3    H210066   0.168   5.324   5.353
 3368TIP3   OH210067   2.271   4.148   1.614
 3368TIP3    H110068   2.265   4.053   1.624
 3368TIP3    H210069   2.357   4.170   1.649
 3369TIP3   OH210070   2.607   6.200   4.544
 3369TIP3    H110071   2.560   6.168   4.621
 3369TIP3    H210072   2.541   6.201   4.474
 3370TIP3   OH210073   1.698   6.487   5.754
 3370TIP3    H110074   1.629   6.483   5.819
 3370TIP3    H210075   1.688   6.407   5.702
 3371TIP3   OH210076   5.599   1.158   0.160
 3371TIP3    H110077   5.643   1.140   0.077
 3371TIP3    H210078   5.659   1.124   0.226
 3372TIP3   OH210079   3.125   3.630   1.705
 3372TIP3    H110080   3.171   3.699   1.753
 3372TIP3    H210081   3.049   3.609   1.759
 3373TIP3   OH210082   6.266   2.502   0.432
 3373TIP3    H110083   6.233   2.540   0.351
 3373TIP3    H210084   6.208   2.427   0.448
 3374TIP3   OH210085   0.309   4.603   5.110
 3374TIP3    H110086   0.372   4.666   5.143
 3374TIP3    H210087   0.225   4.648   5.116
 3375TIP3   OH210088   1.240   4.157   2.568
 3375TIP3    H110089   1.268   4.066   2.564
 3375TIP3    H210090   1.194   4.165   2.651
 3376TIP3   OH210091   5.310   5.430   2.137
 3376TIP3    H110092   5.289   5.357   2.196
 3376TIP3    H210093   5.369   5.485   2.188
 3377TIP3   OH210094   2.301   5.321   5.417
 3377TIP3    H110095   2.370   5.358   5.472
 3377TIP3    H210096   2.241   5.279   5.480
 3378TIP3   OH210097   5.517   2.226   2.223
 3378TIP3    H110098   5.578   2.298   2.238
 3378TIP3    H210099   5.560   2.149   2.260
 3379TIP3   OH210100   5.760   5.809   1.305
 3379TIP3    H110101   5.738   5.794   1.213
 3379TIP3    H210102   5.705   5.883   1.331
 3380TIP3   OH210103   0.686   3.924   3.741
 3380TIP3    H110104   0.597   3.915   3.708
 3380TIP3    H210105   0.676   3.923   3.836
 3381TIP3   OH210106   5.949   0.521   2.764
 3381TIP3    H110107   5.928   0.495   2.853
 3381TIP3    H210108   5.946   0.616   2.764
 3382TIP3   OH210109   5.361   0.684   0.511
 3382TIP3    H110110   5.331   0.661   0.599
 3382TIP3    H210111   5.416   0.610   0.485
 3383TIP3   OH210112   6.357   4.573   4.678
 3383TIP3    H110113   6.374   4.619   4.596
 3383TIP3    H210114   6.399   4.626   4.745
 3384TIP3   OH210115   2.669   3.406   0.562
 3384TIP3    H110116   2.627   3.436   0.482
 3384TIP3    H210117   2.762   3.407   0.542
 3385TIP3   OH210118   6.944   0.358   0.077
 3385TIP3    H110119   7.017   0.354   0.138
 3385TIP3    H210120   6.929   0.451   0.063
 3386TIP3   OH210121   2.774   2.787   3.415
 3386TIP3    H110122   2.749   2.875   3.442
 3386TIP3    H210123   2.762   2.787   3.320
 3387TIP3   OH210124   0.322   0.522   2.416
 3387TIP3    H110125   0.250   0.490   2.361
 3387TIP3    H210126   0.363   0.591   2.364
 3388TIP3   OH210127   7.122   5.815   5.615
 3388TIP3    H110128   7.044   5.764   5.592
 3388TIP3    H210129   7.186   5.793   5.547
 3389TIP3   OH210130   2.412   6.145   1.687
 3389TIP3    H110131   2.472   6.072   1.696
 3389TIP3    H210132   2.409   6.186   1.773
 3390TIP3   OH210133   4.116   0.843   3.243
 3390TIP3    H110134   4.044   0.900   3.271
 3390TIP3    H210135   4.073   0.769   3.200
 3391TIP3   OH210136   5.263   4.182   3.864
 3391TIP3    H110137   5.328   4.125   3.904
 3391TIP3    H210138   5.250   4.252   3.928
 3392TIP3   OH210139   5.955   3.931   5.533
 3392TIP3    H110140   5.862   3.913   5.545
 3392TIP3    H210141   5.993   3.846   5.510
 3393TIP3   OH210142   1.882   1.646   4.071
 3393TIP3    H110143   1.926   1.598   4.141
 3393TIP3    H210144   1.912   1.604   3.990
 3394TIP3   OH210145   4.079   4.005   5.676
 3394TIP3    H110146   4.075   4.037   5.766
 3394TIP3    H210147   4.148   3.939   5.678
 3395TIP3   OH210148   4.504   6.398   0.823
 3395TIP3    H110149   4.534   6.364   0.739
 3395TIP3    H210150   4.443   6.468   0.800
 3396TIP3   OH210151   0.574   0.496   0.720
 3396TIP3    H110152   0.533   0.582   0.716
 3396TIP3    H210153   0.627   0.491   0.641
 3397TIP3   OH210154   5.837   3.418   3.266
 3397TIP3    H110155   5.778   3.423   3.191
 3397TIP3    H210156   5.779   3.405   3.341
 3398TIP3   OH210157   1.543   2.996   5.092
 3398TIP3    H110158   1.576   2.910   5.118
 3398TIP3    H210159   1.539   2.993   4.997
 3399TIP3   OH210160   6.021   5.914   0.670
 3399TIP3    H110161   5.962   5.938   0.741
 3399TIP3    H210162   6.105   5.954   0.694
 3400TIP3   OH210163   6.687   3.883   4.885
 3400TIP3    H110164   6.610   3.829   4.869
 3400TIP3    H210165   6.693   3.940   4.808
 3401TIP3   OH210166   1.645   1.740   4.224
 3401TIP3    H110167   1.688   1.691   4.154
 3401TIP3    H210168   1.594   1.675   4.271
 3402TIP3   OH210169   1.242   5.660   5.648
 3402TIP3    H110170   1.228   5.744   5.691
 3402TIP3    H210171   1.336   5.657   5.630
 3403TIP3   OH210172   2.492   5.534   3.231
 3403TIP3    H110173   2.585   5.551   3.248
 3403TIP3    H210174   2.490   5.445   3.196
 3404TIP3   OH210175   6.607   3.284   1.252
 3404TIP3    H110176   6.589   3.261   1.343
 3404TIP3    H210177   6.523   3.314   1.218
 3405TIP3   OH210178   0.228   4.203   1.369
 3405TIP3    H110179   0.207   4.212   1.276
 3405TIP3    H210180   0.262   4.114   1.378
 3406TIP3   OH210181   2.428   0.314   2.594
 3406TIP3    H110182   2.491   0.253   2.632
 3406TIP3    H210183   2.346   0.296   2.640
 3407TIP3   OH210184   6.639   0.794   5.451
 3407TIP3    H110185   6.683   0.798   5.536
 3407TIP3    H210186   6.668   0.711   5.413
 3408TIP3   OH210187   1.650   6.275   4.300
 3408TIP3    H110188   1.568   6.257   4.253
 3408TIP3    H210189   1.661   6.370   4.293
 3409TIP3   OH210190   4.824   0.727   2.996
 3409TIP3    H110191   4.773   0.809   2.998
 3409TIP3    H210192   4.761   0.661   2.969
 3410TIP3   OH210193   0.868   2.111   3.473
 3410TIP3    H110194   0.941   2.076   3.421
 3410TIP3    H210195   0.851   2.043   3.539
 3411TIP3   OH210196   4.569   5.596   4.675
 3411TIP3    H110197   4.659   5.571   4.695
 3411TIP3    H210198   4.563   5.688   4.702
 3412TIP3   OH210199   5.134   1.430   2.995
 3412TIP3    H110200   5.044   1.439   2.963
 3412TIP3    H210201   5.162   1.520   3.013
 3413TIP3   OH210202   4.448   5.765   3.672
 3413TIP3    H110203   4.531   5.730   3.702
 3413TIP3    H210204   4.466   5.799   3.585
 3414TIP3   OH210205   2.876   0.445   1.302
 3414TIP3    H110206   2.839   0.373   1.251
 3414TIP3    H210207   2.935   0.401   1.365
 3415TIP3   OH210208   0.416   3.728   3.809
 3415TIP3    H110209   0.490   3.670   3.824
 3415TIP3    H210210   0.436   3.772   3.726
 3416TIP3   OH210211   0.426   5.984   5.519
 3416TIP3    H110212   0.485   6.049   5.558
 3416TIP3    H210213   0.387   5.940   5.594
 3417TIP3   OH210214   1.160   5.200   0.079
 3417TIP3    H110215   1.168   5.254   0.158
 3417TIP3    H210216   1.216   5.124   0.095
 3418TIP3   OH210217   4.205   2.530   1.015
 3418TIP3    H110218   4.202   2.584   1.093
 3418TIP3    H210219   4.238   2.445   1.045
 3419TIP3   OH210220   4.756   1.230   0.187
 3419TIP3    H110221   4.662   1.217   0.180
 3419TIP3    H210222   4.793   1.142   0.181
 3420TIP3   OH210223   3.894   2.158   0.320
 3420TIP3    H110224   3.833   2.229   0.343
 3420TIP3    H210225   3.860   2.082   0.366
 3421TIP3   OH210226   0.474   6.813   0.642
 3421TIP3    H110227   0.444   6.728   0.610
 3421TIP3    H210228   0.554   6.831   0.592
 3422TIP3   OH210229   2.595   5.564   0.894
 3422TIP3    H110230   2.551   5.509   0.829
 3422TIP3    H210231   2.681   5.583   0.855
 3423TIP3   OH210232   4.670   0.954   1.106
 3423TIP3    H110233   4.743   0.893   1.120
 3423TIP3    H210234   4.614   0.943   1.183
 3424TIP3   OH210235   3.868   6.379   4.142
 3424TIP3    H110236   3.941   6.345   4.091
 3424TIP3    H210237   3.811   6.303   4.157
 3425TIP3   OH210238   1.945   0.743   4.752
 3425TIP3    H110239   2.003   0.804   4.705
 3425TIP3    H210240   1.858   0.759   4.715
 3426TIP3   OH210241   5.324   2.737   3.661
 3426TIP3    H110242   5.313   2.801   3.732
 3426TIP3    H210243   5.242   2.744   3.611
 3427TIP3   OH210244   6.629   1.927   3.018
 3427TIP3    H110245   6.628   1.875   3.099
 3427TIP3    H210246   6.686   2.001   3.038
 3428TIP3   OH210247   6.913   0.889   0.676
 3428TIP3    H110248   6.833   0.838   0.663
 3428TIP3    H210249   6.973   0.828   0.718
 3429TIP3   OH210250   0.205   5.531   2.470
 3429TIP3    H110251   0.190   5.601   2.406
 3429TIP3    H210252   0.214   5.452   2.417
 3430TIP3   OH210253   5.140   4.868   0.408
 3430TIP3    H110254   5.203   4.796   0.413
 3430TIP3    H210255   5.062   4.836   0.453
 3431TIP3   OH210256   2.422   2.591   5.591
 3431TIP3    H110257   2.422   2.526   5.520
 3431TIP3    H210258   2.386   2.544   5.666
 3432TIP3   OH210259   6.118   4.792   1.306
 3432TIP3    H110260   6.105   4.816   1.398
 3432TIP3    H210261   6.063   4.715   1.293
 3433TIP3   OH210262   4.024   1.619   1.425
 3433TIP3    H110263   4.114   1.585   1.422
 3433TIP3    H210264   4.031   1.701   1.475
 3434TIP3   OH210265   1.335   2.300   3.777
 3434TIP3    H110266   1.399   2.230   3.790
 3434TIP3    H210267   1.269   2.285   3.844
 3435TIP3   OH210268   1.715   5.951   2.669
 3435TIP3    H110269   1.767   6.030   2.685
 3435TIP3    H210270   1.661   5.942   2.748
 3436TIP3   OH210271   5.944   1.220   4.066
 3436TIP3    H110272   5.894   1.301   4.076
 3436TIP3    H210273   5.920   1.187   3.980
 3437TIP3   OH210274   2.125   5.838   1.097
 3437TIP3    H110275   2.063   5.786   1.148
 3437TIP3    H210276   2.071   5.893   1.040
 3438TIP3   OH210277   5.780   4.209   1.721
 3438TIP3    H110278   5.703   4.266   1.720
 3438TIP3    H210279   5.745   4.122   1.705
 3439TIP3   OH210280   3.594   5.810   5.024
 3439TIP3    H110281   3.667   5.751   5.042
 3439TIP3    H210282   3.622   5.861   4.948
 3440TIP3   OH210283   4.140   3.576   5.920
 3440TIP3    H110284   4.214   3.636   5.905
 3440TIP3    H210285   4.073   3.606   5.859
 3441TIP3   OH210286   0.033   3.873   0.983
 3441TIP3    H110287   0.027   3.956   1.030
 3441TIP3    H210288   0.102   3.888   0.917
 3442TIP3   OH210289   6.632   1.395   5.413
 3442TIP3    H110290   6.659   1.482   5.444
 3442TIP3    H210291   6.549   1.378   5.458
 3443TIP3   OH210292   2.537   4.236   1.788
 3443TIP3    H110293   2.503   4.218   1.876
 3443TIP3    H210294   2.589   4.158   1.766
 3444TIP3   OH210295   5.642   2.558   5.575
 3444TIP3    H110296   5.619   2.553   5.668
 3444TIP3    H210297   5.600   2.638   5.545
 3445TIP3   OH210298   4.263   1.607   1.998
 3445TIP3    H110299   4.347   1.638   2.031
 3445TIP3    H210300   4.281   1.521   1.962
 3446TIP3   OH210301   3.473   2.911   2.602
 3446TIP3    H110302   3.479   2.992   2.551
 3446TIP3    H210303   3.383   2.909   2.634
 3447TIP3   OH210304   2.346   1.557   2.534
 3447TIP3    H110305   2.268   1.504   2.551
 3447TIP3    H210306   2.350   1.619   2.607
 3448TIP3   OH210307   3.610   1.378   4.611
 3448TIP3    H110308   3.538   1.420   4.660
 3448TIP3    H210309   3.596   1.406   4.520
 3449TIP3   OH210310   5.037   4.891   2.209
 3449TIP3    H110311   5.121   4.880   2.165
 3449TIP3    H210312   5.059   4.906   2.300
 3450TIP3   OH210313   6.231   0.117   5.139
 3450TIP3    H110314   6.150   0.146   5.181
 3450TIP3    H210315   6.298   0.176   5.173
 3451TIP3   OH210316   2.052   2.392   1.708
 3451TIP3    H110317   2.079   2.342   1.786
 3451TIP3    H210318   2.047   2.327   1.638
 3452TIP3   OH210319   0.171   0.447   2.122
 3452TIP3    H110320   0.257   0.411   2.099
 3452TIP3    H210321   0.136   0.388   2.188
 3453TIP3   OH210322   6.094   3.458   4.104
 3453TIP3    H110323   6.187   3.463   4.126
 3453TIP3    H210324   6.078   3.366   4.085
 3454TIP3   OH210325   0.773   0.202   5.814
 3454TIP3    H110326   0.685   0.197   5.852
 3454TIP3    H210327   0.808   0.285   5.845
 3455TIP3   OH210328   0.178   0.357   3.419
 3455TIP3    H110329   0.222   0.281   3.456
 3455TIP3    H210330   0.237   0.387   3.349
 3456TIP3   OH210331   3.239   0.998   0.066
 3456TIP3    H110332   3.182   1.073   0.054
 3456TIP3    H210333   3.310   1.030   0.121
 3457TIP3   OH210334   6.576   0.684   0.974
 3457TIP3    H110335   6.663   0.648   0.957
 3457TIP3    H210336   6.517   0.629   0.922
 3458TIP3   OH210337   3.346   2.590   3.347
 3458TIP3    H110338   3.302   2.526   3.290
 3458TIP3    H210339   3.436   2.558   3.354
 3459TIP3   OH210340   1.384   2.885   4.076
 3459TIP3    H110341   1.397   2.799   4.118
 3459TIP3    H210342   1.447   2.886   4.004
 3460TIP3   OH210343   3.398   4.569   4.626
 3460TIP3    H110344   3.425   4.516   4.702
 3460TIP3    H210345   3.434   4.656   4.644
 3461TIP3   OH210346   2.568   6.117   4.123
 3461TIP3    H110347   2.577   6.032   4.080
 3461TIP3    H210348   2.655   6.134   4.160
 3462TIP3   OH210349   6.315   4.377   2.414
 3462TIP3    H110350   6.385   4.371   2.349
 3462TIP3    H210351   6.239   4.337   2.372
 3463TIP3   OH210352   7.083   1.559   0.880
 3463TIP3    H110353   7.112   1.627   0.941
 3463TIP3    H210354   7.165   1.521   0.846
 3464TIP3   OH210355   4.950   3.351   4.478
 3464TIP3    H110356   4.857   3.369   4.471
 3464TIP3    H210357   4.958   3.293   4.554
 3465TIP3   OH210358   6.762   0.924   3.103
 3465TIP3    H110359   6.771   0.941   3.009
 3465TIP3    H210360   6.667   0.922   3.118
 3466TIP3   OH210361   1.091   5.776   4.315
 3466TIP3    H110362   1.046   5.692   4.320
 3466TIP3    H210363   1.104   5.801   4.407
 3467TIP3   OH210364   0.583   1.198   1.808
 3467TIP3    H110365   0.616   1.132   1.747
 3467TIP3    H210366   0.487   1.193   1.801
 3468TIP3   OH210367   3.881   4.021   3.688
 3468TIP3    H110368   3.898   3.927   3.696
 3468TIP3    H210369   3.829   4.042   3.765
 3469TIP3   OH210370  -0.011   5.470   4.632
 3469TIP3    H110371   0.028   5.535   4.573
 3469TIP3    H210372   0.053   5.459   4.702
 3470TIP3   OH210373   0.775   1.544   3.573
 3470TIP3    H110374   0.769   1.593   3.491
 3470TIP3    H210375   0.688   1.508   3.587
 3471TIP3   OH210376   1.115   1.811   2.449
 3471TIP3    H110377   1.165   1.761   2.514
 3471TIP3    H210378   1.124   1.902   2.477
 3472TIP3   OH210379   7.148   5.631   1.149
 3472TIP3    H110380   7.079   5.571   1.179
 3472TIP3    H210381   7.223   5.574   1.131
 3473TIP3   OH210382   4.586   6.688   3.352
 3473TIP3    H110383   4.510   6.747   3.351
 3473TIP3    H210384   4.621   6.696   3.441
 3474TIP3   OH210385   7.045   0.195   4.402
 3474TIP3    H110386   7.088   0.110   4.411
 3474TIP3    H210387   7.077   0.247   4.476
 3475TIP3   OH210388   0.316   0.293   5.719
 3475TIP3    H110389   0.272   0.300   5.634
 3475TIP3    H210390   0.297   0.376   5.762
 3476TIP3   OH210391   6.405   2.161   1.293
 3476TIP3    H110392   6.363   2.247   1.300
 3476TIP3    H210393   6.405   2.127   1.383
 3477TIP3   OH210394   5.153   2.001   1.305
 3477TIP3    H110395   5.123   1.998   1.214
 3477TIP3    H210396   5.073   1.993   1.357
 3478TIP3   OH210397   4.843   5.040   3.980
 3478TIP3    H110398   4.792   5.033   3.899
 3478TIP3    H210399   4.906   5.109   3.963
 3479TIP3   OH210400   3.278   5.071   4.654
 3479TIP3    H110401   3.263   5.063   4.748
 3479TIP3    H210402   3.219   5.141   4.626
 3480TIP3   OH210403   5.597   3.803   4.006
 3480TIP3    H110404   5.676   3.784   4.057
 3480TIP3    H210405   5.544   3.858   4.063
 3481TIP3   OH210406   6.265   5.515   1.119
 3481TIP3    H110407   6.182   5.548   1.152
 3481TIP3    H210408   6.242   5.433   1.075
 3482TIP3   OH210409   0.834   6.581   3.302
 3482TIP3    H110410   0.918   6.536   3.310
 3482TIP3    H210411   0.771   6.524   3.346
 3483TIP3   OH210412   2.999   5.248   5.054
 3483TIP3    H110413   2.947   5.326   5.039
 3483TIP3    H210414   3.079   5.280   5.096
 3484TIP3   OH210415   5.151   1.464   5.202
 3484TIP3    H110416   5.076   1.451   5.144
 3484TIP3    H210417   5.120   1.438   5.289
 3485TIP3   OH210418   3.907   0.204   1.798
 3485TIP3    H110419   3.930   0.204   1.890
 3485TIP3    H210420   3.982   0.162   1.755
 3486TIP3   OH210421   3.073   3.743   1.153
 3486TIP3    H110422   3.080   3.724   1.060
 3486TIP3    H210423   3.116   3.828   1.164
 3487TIP3   OH210424   5.818   4.269   0.941
 3487TIP3    H110425   5.815   4.182   0.981
 3487TIP3    H210426   5.907   4.300   0.960
 3488TIP3   OH210427   2.377   0.666   2.428
 3488TIP3    H110428   2.391   0.620   2.345
 3488TIP3    H210429   2.443   0.629   2.487
 3489TIP3   OH210430   6.093   0.912   0.375
 3489TIP3    H110431   6.069   1.001   0.348
 3489TIP3    H210432   6.188   0.907   0.363
 3490TIP3   OH210433   2.400   6.211   2.560
 3490TIP3    H110434   2.335   6.239   2.624
 3490TIP3    H210435   2.412   6.287   2.503
 3491TIP3   OH210436   2.870   2.010   1.460
 3491TIP3    H110437   2.918   1.940   1.504
 3491TIP3    H210438   2.919   2.089   1.480
 3492TIP3   OH210439   0.154   3.853   0.195
 3492TIP3    H110440   0.111   3.829   0.277
 3492TIP3    H210441   0.183   3.770   0.157
 3493TIP3   OH210442   1.476   5.724   2.828
 3493TIP3    H110443   1.456   5.817   2.825
 3493TIP3    H210444   1.412   5.688   2.890
 3494TIP3   OH210445   4.250   2.316   3.423
 3494TIP3    H110446   4.302   2.388   3.387
 3494TIP3    H210447   4.261   2.323   3.518
 3495TIP3   OH210448   5.740   6.063   5.799
 3495TIP3    H110449   5.800   5.989   5.803
 3495TIP3    H210450   5.679   6.041   5.728
 3496TIP3   OH210451   3.876   2.723   1.140
 3496TIP3    H110452   3.830   2.784   1.198
 3496TIP3    H210453   3.959   2.706   1.183
 3497TIP3   OH210454   5.489   2.038   3.160
 3497TIP3    H110455   5.527   2.115   3.117
 3497TIP3    H210456   5.564   1.980   3.175
 3498TIP3   OH210457   2.101   0.609   5.668
 3498TIP3    H110458   2.169   0.675   5.685
 3498TIP3    H210459   2.065   0.633   5.583
 3499TIP3   OH210460   0.622   1.470   2.727
 3499TIP3    H110461   0.643   1.557   2.762
 3499TIP3    H210462   0.528   1.461   2.740
 3500TIP3   OH210463   1.430   5.139   4.100
 3500TIP3    H110464   1.510   5.094   4.073
 3500TIP3    H210465   1.381   5.072   4.149
 3501TIP3   OH210466   5.833   5.546   3.894
 3501TIP3    H110467   5.769   5.596   3.945
 3501TIP3    H210468   5.863   5.478   3.954
 3502TIP3   OH210469   2.619   0.969   1.997
 3502TIP3    H110470   2.524   0.968   1.988
 3502TIP3    H210471   2.651   0.914   1.926
 3503TIP3   OH210472   3.622   3.817   4.443
 3503TIP3    H110473   3.625   3.743   4.503
 3503TIP3    H210474   3.536   3.856   4.458
 3504TIP3   OH210475   1.631   1.933   5.569
 3504TIP3    H110476   1.719   1.957   5.598
 3504TIP3    H210477   1.646   1.866   5.502
 3505TIP3   OH210478   4.232   0.393   4.858
 3505TIP3    H110479   4.152   0.358   4.898
 3505TIP3    H210480   4.288   0.316   4.846
 3506TIP3   OH210481   6.587   1.426   4.941
 3506TIP3    H110482   6.642   1.380   5.004
 3506TIP3    H210483   6.598   1.378   4.859
 3507TIP3   OH210484   0.836   6.430   5.424
 3507TIP3    H110485   0.758   6.473   5.459
 3507TIP3    H210486   0.897   6.502   5.407
 3508TIP3   OH210487   4.175   4.431   4.466
 3508TIP3    H110488   4.205   4.341   4.477
 3508TIP3    H210489   4.255   4.484   4.476
 3509TIP3   OH210490   1.787   2.218   4.866
 3509TIP3    H110491   1.798   2.216   4.961
 3509TIP3    H210492   1.867   2.178   4.832
 3510TIP3   OH210493   5.078   3.450   4.268
 3510TIP3    H110494   5.019   3.417   4.335
 3510TIP3    H210495   5.165   3.446   4.309
 3511TIP3   OH210496   6.791   0.359   4.052
 3511TIP3    H110497   6.846   0.334   4.127
 3511TIP3    H210498   6.777   0.277   4.005
 3512TIP3   OH210499   6.304   3.721   2.404
 3512TIP3    H110500   6.365   3.763   2.343
 3512TIP3    H210501   6.355   3.648   2.441
 3513TIP3   OH210502   4.607   3.704   0.501
 3513TIP3    H110503   4.605   3.655   0.419
 3513TIP3    H210504   4.625   3.794   0.474
 3514TIP3   OH210505   5.208   6.595   5.123
 3514TIP3    H110506   5.236   6.529   5.060
 3514TIP3    H210507   5.251   6.676   5.096
 3515TIP3   OH210508   4.460   0.295   3.831
 3515TIP3    H110509   4.374   0.267   3.801
 3515TIP3    H210510   4.519   0.225   3.804
 3516TIP3   OH210511   3.321   5.001   5.589
 3516TIP3    H110512   3.341   4.947   5.512
 3516TIP3    H210513   3.388   4.976   5.653
 3517TIP3   OH210514   7.113   4.661   4.773
 3517TIP3    H110515   7.196   4.703   4.754
 3517TIP3    H210516   7.119   4.634   4.865
 3518TIP3   OH210517   1.076   2.098   0.937
 3518TIP3    H110518   1.104   2.007   0.947
 3518TIP3    H210519   1.157   2.147   0.923
 3519TIP3   OH210520   1.416   6.058   2.005
 3519TIP3    H110521   1.395   5.984   2.061
 3519TIP3    H210522   1.469   6.021   1.935
 3520TIP3   OH210523   6.695   6.394   2.291
 3520TIP3    H110524   6.642   6.445   2.230
 3520TIP3    H210525   6.659   6.414   2.377
 3521TIP3   OH210526   0.750   0.975   2.217
 3521TIP3    H110527   0.740   0.964   2.123
 3521TIP3    H210528   0.768   0.887   2.250
 3522TIP3   OH210529   0.168   0.723   3.743
 3522TIP3    H110530   0.113   0.711   3.820
 3522TIP3    H210531   0.141   0.808   3.707
 3523TIP3   OH210532   2.314   2.148   3.847
 3523TIP3    H110533   2.356   2.228   3.879
 3523TIP3    H210534   2.312   2.159   3.752
 3524TIP3   OH210535   4.347   3.735   5.839
 3524TIP3    H110536   4.360   3.830   5.840
 3524TIP3    H210537   4.380   3.707   5.754
 3525TIP3   OH210538   1.114   2.464   5.700
 3525TIP3    H110539   1.134   2.406   5.774
 3525TIP3    H210540   1.113   2.406   5.624
 3526TIP3   OH210541   2.599   6.092   5.098
 3526TIP3    H110542   2.520   6.126   5.140
 3526TIP3    H210543   2.641   6.170   5.061
 3527TIP3   OH210544   4.687   4.065   4.836
 3527TIP3    H110545   4.644   3.980   4.843
 3527TIP3    H210546   4.671   4.093   4.746
 3528TIP3   OH210547   1.068   6.588   2.721
 3528TIP3    H110548   1.127   6.601   2.795
 3528TIP3    H210549   1.124   6.598   2.644
 3529TIP3   OH210550   1.667   0.608   1.545
 3529TIP3    H110551   1.731   0.564   1.600
 3529TIP3    H210552   1.649   0.546   1.474
 3530TIP3   OH210553   4.757   1.740   4.467
 3530TIP3    H110554   4.680   1.748   4.523
 3530TIP3    H210555   4.722   1.745   4.378
 3531TIP3   OH210556   1.476   2.293   4.961
 3531TIP3    H110557   1.562   2.250   4.956
 3531TIP3    H210558   1.493   2.383   4.934
 3532TIP3   OH210559   2.127   6.731   1.215
 3532TIP3    H110560   2.157   6.773   1.295
 3532TIP3    H210561   2.053   6.783   1.186
 3533TIP3   OH210562   2.153   0.122   4.787
 3533TIP3    H110563   2.062   0.142   4.765
 3533TIP3    H210564   2.157   0.026   4.789
 3534TIP3   OH210565   4.830   4.051   5.068
 3534TIP3    H110566   4.888   3.976   5.053
 3534TIP3    H210567   4.797   4.074   4.982
 3535TIP3   OH210568   2.052   0.849   0.838
 3535TIP3    H110569   1.957   0.843   0.836
 3535TIP3    H210570   2.077   0.864   0.747
 3536TIP3   OH210571   4.864   4.488   4.626
 3536TIP3    H110572   4.945   4.530   4.654
 3536TIP3    H210573   4.827   4.548   4.561
 3537TIP3   OH210574   5.777   1.587   1.477
 3537TIP3    H110575   5.740   1.501   1.496
 3537TIP3    H210576   5.830   1.609   1.554
 3538TIP3   OH210577   0.813   4.877   0.089
 3538TIP3    H110578   0.848   4.802   0.137
 3538TIP3    H210579   0.784   4.937   0.157
 3539TIP3   OH210580   2.921   4.397   2.969
 3539TIP3    H110581   2.957   4.384   2.882
 3539TIP3    H210582   2.874   4.315   2.989
 3540TIP3   OH210583   4.578   5.598   1.430
 3540TIP3    H110584   4.586   5.567   1.340
 3540TIP3    H210585   4.598   5.692   1.425
 3541TIP3   OH210586   6.596   4.303   1.543
 3541TIP3    H110587   6.557   4.216   1.529
 3541TIP3    H210588   6.531   4.350   1.595
 3542TIP3   OH210589   3.384   5.017   3.392
 3542TIP3    H110590   3.325   4.946   3.369
 3542TIP3    H210591   3.344   5.058   3.469
 3543TIP3   OH210592   1.022   5.205   5.242
 3543TIP3    H110593   1.025   5.300   5.231
 3543TIP3    H210594   0.936   5.188   5.282
 3544TIP3   OH210595   0.352   2.487   3.886
 3544TIP3    H110596   0.435   2.488   3.932
 3544TIP3    H210597   0.287   2.510   3.953
 3545TIP3   OH210598   1.013   6.730   2.277
 3545TIP3    H110599   0.947   6.691   2.334
 3545TIP3    H210600   0.982   6.712   2.188
 3546TIP3   OH210601   1.218   6.615   3.127
 3546TIP3    H110602   1.218   6.637   3.220
 3546TIP3    H210603   1.204   6.698   3.082
 3547TIP3   OH210604   6.066   2.601   0.200
 3547TIP3    H110605   5.981   2.635   0.228
 3547TIP3    H210606   6.117   2.679   0.178
 3548TIP3   OH210607   4.500   3.900   4.006
 3548TIP3    H110608   4.427   3.905   4.068
 3548TIP3    H210609   4.545   3.818   4.029
 3549TIP3   OH210610   5.781   1.606   1.038
 3549TIP3    H110611   5.815   1.646   0.958
 3549TIP3    H210612   5.850   1.546   1.066
 3550TIP3   OH210613   0.414   6.688   1.023
 3550TIP3    H110614   0.362   6.620   0.979
 3550TIP3    H210615   0.394   6.768   0.974
 3551TIP3   OH210616   6.532   6.699   5.516
 3551TIP3    H110617   6.610   6.735   5.472
 3551TIP3    H210618   6.565   6.623   5.564
 3552TIP3   OH210619   5.990   3.155   2.002
 3552TIP3    H110620   6.057   3.197   1.949
 3552TIP3    H210621   5.916   3.217   2.001
 3553TIP3   OH210622   6.043   4.153   3.327
 3553TIP3    H110623   5.991   4.134   3.249
 3553TIP3    H210624   6.004   4.232   3.364
 3554TIP3   OH210625   6.569   2.777   1.066
 3554TIP3    H110626   6.540   2.860   1.028
 3554TIP3    H210627   6.657   2.795   1.099
 3555TIP3   OH210628   3.201   3.396   5.038
 3555TIP3    H110629   3.295   3.412   5.040
 3555TIP3    H210630   3.167   3.465   4.980
 3556TIP3   OH210631   5.384   5.225   0.293
 3556TIP3    H110632   5.469   5.252   0.328
 3556TIP3    H210633   5.339   5.185   0.368
 3557TIP3   OH210634   6.231   0.672   3.110
 3557TIP3    H110635   6.173   0.741   3.142
 3557TIP3    H210636   6.203   0.594   3.158
 3558TIP3   OH210637   0.790   2.755   3.812
 3558TIP3    H110638   0.725   2.824   3.820
 3558TIP3    H210639   0.797   2.738   3.718
 3559TIP3   OH210640   0.070   4.203   1.713
 3559TIP3    H110641   0.017   4.270   1.671
 3559TIP3    H210642   0.052   4.214   1.807
 3560TIP3   OH210643   0.705   0.427   0.114
 3560TIP3    H110644   0.745   0.390   0.035
 3560TIP3    H210645   0.778   0.437   0.175
 3561TIP3   OH210646   2.046   2.585   0.234
 3561TIP3    H110647   2.068   2.670   0.273
 3561TIP3    H210648   2.044   2.602   0.140
 3562TIP3   OH210649   3.024   3.274   5.248
 3562TIP3    H110650   2.929   3.276   5.246
 3562TIP3    H210651   3.051   3.309   5.163
 3563TIP3   OH210652   1.426   4.350   5.194
 3563TIP3    H110653   1.411   4.413   5.124
 3563TIP3    H210654   1.392   4.267   5.160
 3564TIP3   OH210655   2.416   1.791   4.370
 3564TIP3    H110656   2.337   1.836   4.399
 3564TIP3    H210657   2.387   1.734   4.299
 3565TIP3   OH210658   4.294   4.049   3.450
 3565TIP3    H110659   4.270   4.077   3.539
 3565TIP3    H210660   4.385   4.019   3.459
 3566TIP3   OH210661   4.640   3.596   1.102
 3566TIP3    H110662   4.582   3.536   1.055
 3566TIP3    H210663   4.630   3.572   1.194
 3567TIP3   OH210664   4.304   6.466   4.549
 3567TIP3    H110665   4.358   6.522   4.493
 3567TIP3    H210666   4.216   6.502   4.541
 3568TIP3   OH210667   3.888   3.313   3.490
 3568TIP3    H110668   3.940   3.346   3.417
 3568TIP3    H210669   3.912   3.221   3.497
 3569TIP3   OH210670   1.177   3.120   3.722
 3569TIP3    H110671   1.109   3.080   3.776
 3569TIP3    H210672   1.256   3.112   3.774
 3570TIP3   OH210673   0.618   0.837   4.450
 3570TIP3    H110674   0.536   0.869   4.414
 3570TIP3    H210675   0.613   0.854   4.544
 3571TIP3   OH210676   1.818   4.041   3.159
 3571TIP3    H110677   1.792   3.949   3.157
 3571TIP3    H210678   1.914   4.039   3.165
 3572TIP3   OH210679   2.417   5.514   2.012
 3572TIP3    H110680   2.348   5.458   2.047
 3572TIP3    H210681   2.371   5.580   1.960
 3573TIP3   OH210682   6.583   2.446   5.644
 3573TIP3    H110683   6.526   2.514   5.608
 3573TIP3    H210684   6.600   2.474   5.734
 3574TIP3   OH210685   2.047   4.548   3.387
 3574TIP3    H110686   2.122   4.526   3.443
 3574TIP3    H210687   2.049   4.482   3.318
 3575TIP3   OH210688   2.030   6.171   2.045
 3575TIP3    H110689   2.105   6.178   2.104
 3575TIP3    H210690   1.976   6.102   2.084
 3576TIP3   OH210691   5.182   0.863   1.675
 3576TIP3    H110692   5.140   0.819   1.601
 3576TIP3    H210693   5.268   0.889   1.643
 3577TIP3   OH210694   0.831   3.458   1.845
 3577TIP3    H110695   0.840   3.551   1.864
 3577TIP3    H210696   0.817   3.417   1.930
 3578TIP3   OH210697   5.810   5.656   4.382
 3578TIP3    H110698   5.898   5.658   4.345
 3578TIP3    H210699   5.824   5.638   4.475
 3579TIP3   OH210700   1.492   2.739   0.313
 3579TIP3    H110701   1.401   2.732   0.341
 3579TIP3    H210702   1.508   2.659   0.263
 3580TIP3   OH210703   2.795   2.500   1.716
 3580TIP3    H110704   2.784   2.476   1.624
 3580TIP3    H210705   2.866   2.444   1.747
 3581TIP3   OH210706   1.035   4.850   0.760
 3581TIP3    H110707   1.113   4.855   0.815
 3581TIP3    H210708   0.962   4.843   0.821
 3582TIP3   OH210709   5.300   3.208   0.885
 3582TIP3    H110710   5.282   3.274   0.817
 3582TIP3    H210711   5.302   3.125   0.838
 3583TIP3   OH210712   7.061   4.798   3.837
 3583TIP3    H110713   7.041   4.889   3.857
 3583TIP3    H210714   7.084   4.799   3.744
 3584TIP3   OH210715   0.635   3.656   1.950
 3584TIP3    H110716   0.580   3.590   1.909
 3584TIP3    H210717   0.665   3.711   1.878
 3585TIP3   OH210718   6.767   4.966   5.463
 3585TIP3    H110719   6.732   5.043   5.508
 3585TIP3    H210720   6.861   4.969   5.481
 3586TIP3   OH210721   4.275   3.012   4.077
 3586TIP3    H110722   4.276   2.962   3.995
 3586TIP3    H210723   4.358   3.059   4.078
 3587TIP3   OH210724   4.216   2.369   2.432
 3587TIP3    H110725   4.270   2.317   2.372
 3587TIP3    H210726   4.175   2.435   2.378
 3588TIP3   OH210727   2.187   6.535   4.191
 3588TIP3    H110728   2.132   6.486   4.252
 3588TIP3    H210729   2.250   6.470   4.159
 3589TIP3   OH210730   3.781   2.503   3.111
 3589TIP3    H110731   3.749   2.432   3.166
 3589TIP3    H210732   3.810   2.571   3.172
 3590TIP3   OH210733   5.203   6.553   0.621
 3590TIP3    H110734   5.155   6.630   0.590
 3590TIP3    H210735   5.284   6.588   0.657
 3591TIP3   OH210736   1.305   2.750   4.498
 3591TIP3    H110737   1.279   2.684   4.563
 3591TIP3    H210738   1.226   2.802   4.484
 3592TIP3   OH210739   1.126   2.217   4.668
 3592TIP3    H110740   1.128   2.303   4.626
 3592TIP3    H210741   1.168   2.159   4.605
 3593TIP3   OH210742   3.124   5.462   3.697
 3593TIP3    H110743   3.213   5.432   3.680
 3593TIP3    H210744   3.094   5.496   3.613
 3594TIP3   OH210745   0.449   3.872   5.156
 3594TIP3    H110746   0.497   3.936   5.103
 3594TIP3    H210747   0.360   3.906   5.161
 3595TIP3   OH210748   2.399   1.027   4.916
 3595TIP3    H110749   2.475   1.037   4.859
 3595TIP3    H210750   2.367   1.116   4.929
 3596TIP3   OH210751   3.928   6.158   3.579
 3596TIP3    H110752   3.939   6.143   3.485
 3596TIP3    H210753   3.954   6.250   3.591
 3597TIP3   OH210754   5.948   0.269   4.671
 3597TIP3    H110755   5.864   0.255   4.628
 3597TIP3    H210756   5.958   0.364   4.675
 3598TIP3   OH210757   3.113   1.270   0.465
 3598TIP3    H110758   3.044   1.213   0.499
 3598TIP3    H210759   3.068   1.330   0.407
 3599TIP3   OH210760   3.082   1.256   2.219
 3599TIP3    H110761   3.090   1.350   2.203
 3599TIP3    H210762   3.123   1.243   2.305
 3600TIP3   OH210763   5.062   1.613   1.095
 3600TIP3    H110764   5.095   1.629   1.184
 3600TIP3    H210765   5.011   1.532   1.103
 3601TIP3   OH210766   0.232   1.896   1.898
 3601TIP3    H110767   0.211   1.802   1.901
 3601TIP3    H210768   0.151   1.940   1.921
 3602TIP3   OH210769   0.690   6.124   2.792
 3602TIP3    H110770   0.760   6.101   2.853
 3602TIP3    H210771   0.638   6.189   2.838
 3603TIP3   OH210772   2.340   2.959   0.157
 3603TIP3    H110773   2.344   2.866   0.179
 3603TIP3    H210774   2.408   2.999   0.211
 3604TIP3   OH210775   1.986   1.180   1.170
 3604TIP3    H110776   2.027   1.104   1.212
 3604TIP3    H210777   1.996   1.251   1.233
 3605TIP3   OH210778   0.490   2.877   3.048
 3605TIP3    H110779   0.575   2.893   3.089
 3605TIP3    H210780   0.506   2.887   2.954
 3606TIP3   OH210781   3.822   1.780   4.277
 3606TIP3    H110782   3.768   1.846   4.321
 3606TIP3    H210783   3.912   1.812   4.287
 3607TIP3   OH210784   5.997   4.484   1.494
 3607TIP3    H110785   6.028   4.564   1.538
 3607TIP3    H210786   5.903   4.482   1.513
 3608TIP3   OH210787   3.491   6.648   2.690
 3608TIP3    H110788   3.578   6.608   2.685
 3608TIP3    H210789   3.504   6.724   2.747
 3609TIP3   OH210790   2.646   0.587   1.016
 3609TIP3    H110791   2.619   0.658   0.958
 3609TIP3    H210792   2.626   0.507   0.967
 3610TIP3   OH210793   0.306   1.824   3.252
 3610TIP3    H110794   0.341   1.912   3.263
 3610TIP3    H210795   0.312   1.807   3.158
 3611TIP3   OH210796   0.765   6.105   3.276
 3611TIP3    H110797   0.754   6.061   3.192
 3611TIP3    H210798   0.832   6.054   3.321
 3612TIP3   OH210799   4.799   2.440   2.500
 3612TIP3    H110800   4.780   2.524   2.459
 3612TIP3    H210801   4.852   2.393   2.436
 3613TIP3   OH210802   2.320   0.543   5.396
 3613TIP3    H110803   2.268   0.478   5.349
 3613TIP3    H210804   2.333   0.613   5.332
 3614TIP3   OH210805   2.022   6.566   3.924
 3614TIP3    H110806   2.081   6.601   3.991
 3614TIP3    H210807   2.081   6.534   3.855
 3615TIP3   OH210808   4.445   3.373   1.032
 3615TIP3    H110809   4.519   3.318   1.006
 3615TIP3    H210810   4.397   3.387   0.950
 3616TIP3   OH210811   5.438   2.391   2.824
 3616TIP3    H110812   5.459   2.484   2.816
 3616TIP3    H210813   5.424   2.363   2.733
 3617TIP3   OH210814   4.231   0.399   4.364
 3617TIP3    H110815   4.288   0.435   4.432
 3617TIP3    H210816   4.238   0.304   4.376
 3618TIP3   OH210817   0.793   1.800   1.455
 3618TIP3    H110818   0.858   1.767   1.516
 3618TIP3    H210819   0.713   1.751   1.476
 3619TIP3   OH210820   0.517   3.850   2.508
 3619TIP3    H110821   0.489   3.775   2.456
 3619TIP3    H210822   0.435   3.895   2.530
 3620TIP3   OH210823   1.723   6.080   3.625
 3620TIP3    H110824   1.793   6.080   3.691
 3620TIP3    H210825   1.653   6.027   3.664
 3621TIP3   OH210826   0.815   4.196   5.090
 3621TIP3    H110827   0.881   4.250   5.048
 3621TIP3    H210828   0.826   4.109   5.051
 3622TIP3   OH210829   5.480   3.676   5.692
 3622TIP3    H110830   5.393   3.694   5.655
 3622TIP3    H210831   5.515   3.606   5.637
 3623TIP3   OH210832   4.365   3.310   2.234
 3623TIP3    H110833   4.377   3.405   2.244
 3623TIP3    H210834   4.288   3.302   2.177
 3624TIP3   OH210835   0.835   5.123   0.515
 3624TIP3    H110836   0.762   5.181   0.536
 3624TIP3    H210837   0.795   5.051   0.467
 3625TIP3   OH210838   5.396   0.886   3.508
 3625TIP3    H110839   5.343   0.822   3.461
 3625TIP3    H210840   5.353   0.894   3.594
 3626TIP3   OH210841   2.272   0.503   4.424
 3626TIP3    H110842   2.220   0.424   4.440
 3626TIP3    H210843   2.324   0.483   4.346
 3627TIP3   OH210844   5.227   1.676   5.042
 3627TIP3    H110845   5.218   1.608   5.109
 3627TIP3    H210846   5.197   1.635   4.961
 3628TIP3   OH210847   1.654   6.065   1.858
 3628TIP3    H110848   1.743   6.034   1.847
 3628TIP3    H210849   1.662   6.143   1.913
 3629TIP3   OH210850   5.623   3.088   1.903
 3629TIP3    H110851   5.542   3.047   1.933
 3629TIP3    H210852   5.693   3.034   1.940
 3630TIP3   OH210853   7.010   5.579   4.783
 3630TIP3    H110854   7.072   5.540   4.722
 3630TIP3    H210855   7.030   5.538   4.867
 3631TIP3   OH210856   3.849   5.794   2.787
 3631TIP3    H110857   3.795   5.744   2.848
 3631TIP3    H210858   3.878   5.870   2.837
 3632TIP3   OH210859   0.597   5.001   4.109
 3632TIP3    H110860   0.513   4.967   4.139
 3632TIP3    H210861   0.652   4.924   4.096
 3633TIP3   OH210862   4.254   5.163   4.990
 3633TIP3    H110863   4.197   5.238   4.969
 3633TIP3    H210864   4.193   5.092   5.010
 3634TIP3   OH210865   4.432   0.043   1.694
 3634TIP3    H110866   4.486   0.108   1.739
 3634TIP3    H210867   4.398  -0.013   1.763
 3635TIP3   OH210868   6.670   3.851   0.073
 3635TIP3    H110869   6.638   3.774   0.120
 3635TIP3    H210870   6.650   3.832  -0.019
 3636TIP3   OH210871   4.857   2.101   1.856
 3636TIP3    H110872   4.766   2.112   1.829
 3636TIP3    H210873   4.864   2.009   1.881
 3637TIP3   OH210874   5.306   0.165   1.473
 3637TIP3    H110875   5.382   0.195   1.422
 3637TIP3    H210876   5.312   0.214   1.555
 3638TIP3   OH210877   6.742   5.402   0.185
 3638TIP3    H110878   6.803   5.421   0.256
 3638TIP3    H210879   6.753   5.309   0.168
 3639TIP3   OH210880   3.737   1.689   0.147
 3639TIP3    H110881   3.658   1.636   0.159
 3639TIP3    H210882   3.711   1.755   0.083
 3640TIP3   OH210883   4.944   4.787   5.498
 3640TIP3    H110884   4.853   4.774   5.526
 3640TIP3    H210885   4.959   4.881   5.509
 3641TIP3   OH210886   2.321   2.816   3.560
 3641TIP3    H110887   2.344   2.741   3.505
 3641TIP3    H210888   2.339   2.787   3.649
 3642TIP3   OH210889   6.400   0.992   5.449
 3642TIP3    H110890   6.422   0.915   5.501
 3642TIP3    H210891   6.469   1.056   5.470
 3643TIP3   OH210892   2.875   2.794   0.678
 3643TIP3    H110893   2.861   2.866   0.616
 3643TIP3    H210894   2.949   2.823   0.732
 3644TIP3   OH210895   1.798   3.187   5.226
 3644TIP3    H110896   1.798   3.267   5.174
 3644TIP3    H210897   1.888   3.154   5.218
 3645TIP3   OH210898   6.760   6.271   1.188
 3645TIP3    H110899   6.689   6.266   1.125
 3645TIP3    H210900   6.782   6.180   1.207
 3646TIP3   OH210901   2.618   0.740   4.595
 3646TIP3    H110902   2.614   0.781   4.508
 3646TIP3    H210903   2.672   0.799   4.647
 3647TIP3   OH210904   6.619   0.191   0.177
 3647TIP3    H110905   6.661   0.186   0.091
 3647TIP3    H210906   6.685   0.160   0.238
 3648TIP3   OH210907   5.329   5.253   4.774
 3648TIP3    H110908   5.293   5.199   4.845
 3648TIP3    H210909   5.343   5.339   4.814
 3649TIP3   OH210910   1.799   5.054   1.216
 3649TIP3    H110911   1.819   5.144   1.244
 3649TIP3    H210912   1.857   4.999   1.268
 3650TIP3   OH210913   5.045   2.217   5.320
 3650TIP3    H110914   4.959   2.259   5.325
 3650TIP3    H210915   5.107   2.289   5.331
 3651TIP3   OH210916   4.971   6.498   0.951
 3651TIP3    H110917   4.986   6.454   0.868
 3651TIP3    H210918   4.878   6.482   0.971
 3652TIP3   OH210919   3.148   4.972   4.387
 3652TIP3    H110920   3.133   4.986   4.293
 3652TIP3    H210921   3.243   4.983   4.397
 3653TIP3   OH210922   0.710   2.245   1.129
 3653TIP3    H110923   0.711   2.286   1.216
 3653TIP3    H210924   0.666   2.162   1.142
 3654TIP3   OH210925   1.248   6.084   1.783
 3654TIP3    H110926   1.279   6.096   1.872
 3654TIP3    H210927   1.327   6.072   1.731
 3655TIP3   OH210928   6.258   1.555   3.859
 3655TIP3    H110929   6.354   1.551   3.850
 3655TIP3    H210930   6.242   1.633   3.912
 3656TIP3   OH210931   2.995   1.238   5.774
 3656TIP3    H110932   3.005   1.226   5.868
 3656TIP3    H210933   2.904   1.215   5.756
 3657TIP3   OH210934   0.353   2.137   1.354
 3657TIP3    H110935   0.350   2.121   1.448
 3657TIP3    H210936   0.439   2.107   1.326
 3658TIP3   OH210937   6.304   3.038   0.046
 3658TIP3    H110938   6.272   3.123   0.015
 3658TIP3    H210939   6.332   3.055   0.136
 3659TIP3   OH210940   3.437   3.827   2.938
 3659TIP3    H110941   3.499   3.794   2.873
 3659TIP3    H210942   3.351   3.809   2.899
 3660TIP3   OH210943   2.476   4.701   3.384
 3660TIP3    H110944   2.443   4.763   3.450
 3660TIP3    H210945   2.434   4.728   3.303
 3661TIP3   OH210946   1.564   3.892   3.700
 3661TIP3    H110947   1.617   3.842   3.762
 3661TIP3    H210948   1.513   3.825   3.653
 3662TIP3   OH210949   6.336   0.585   0.827
 3662TIP3    H110950   6.255   0.616   0.868
 3662TIP3    H210951   6.360   0.654   0.765
 3663TIP3   OH210952   6.041   2.505   4.772
 3663TIP3    H110953   6.027   2.414   4.799
 3663TIP3    H210954   5.975   2.520   4.704
 3664TIP3   OH210955   0.903   2.216   0.112
 3664TIP3    H110956   0.864   2.129   0.108
 3664TIP3    H210957   0.838   2.273   0.070
 3665TIP3   OH210958   4.432   4.731   1.743
 3665TIP3    H110959   4.468   4.748   1.655
 3665TIP3    H210960   4.464   4.643   1.765
 3666TIP3   OH210961   5.464   2.285   4.512
 3666TIP3    H110962   5.413   2.365   4.496
 3666TIP3    H210963   5.445   2.230   4.436
 3667TIP3   OH210964   6.483   2.653   2.204
 3667TIP3    H110965   6.522   2.592   2.267
 3667TIP3    H210966   6.449   2.597   2.135
 3668TIP3   OH210967   3.970   4.973   1.392
 3668TIP3    H110968   4.035   4.996   1.326
 3668TIP3    H210969   4.000   5.017   1.472
 3669TIP3   OH210970   5.781   3.505   1.110
 3669TIP3    H110971   5.792   3.598   1.091
 3669TIP3    H210972   5.686   3.490   1.106
 3670TIP3   OH210973   6.552   2.800   5.658
 3670TIP3    H110974   6.533   2.855   5.735
 3670TIP3    H210975   6.616   2.736   5.690
 3671TIP3   OH210976   7.038   3.581   2.064
 3671TIP3    H110977   6.997   3.665   2.045
 3671TIP3    H210978   7.129   3.602   2.083
 3672TIP3   OH210979   0.078   1.472   4.359
 3672TIP3    H110980   0.140   1.412   4.401
 3672TIP3    H210981   0.015   1.494   4.427
 3673TIP3   OH210982   6.452   3.297   4.598
 3673TIP3    H110983   6.468   3.214   4.644
 3673TIP3    H210984   6.403   3.273   4.520
 3674TIP3   OH210985   0.126   0.610   1.633
 3674TIP3    H110986   0.046   0.656   1.604
 3674TIP3    H210987   0.095   0.526   1.664
 3675TIP3   OH210988   5.983   5.552   1.122
 3675TIP3    H110989   5.890   5.567   1.138
 3675TIP3    H210990   6.002   5.603   1.043
 3676TIP3   OH210991   2.101   4.359   4.711
 3676TIP3    H110992   2.178   4.357   4.654
 3676TIP3    H210993   2.134   4.337   4.798
 3677TIP3   OH210994   5.611   0.342   3.051
 3677TIP3    H110995   5.617   0.394   3.131
 3677TIP3    H210996   5.517   0.326   3.039
 3678TIP3   OH210997   4.556   3.907   3.098
 3678TIP3    H110998   4.633   3.955   3.066
 3678TIP3    H210999   4.545   3.836   3.035
 3679TIP3   OH211000   1.370   4.950   5.806
 3679TIP3    H111001   1.310   5.022   5.826
 3679TIP3    H211002   1.455   4.991   5.797
 3680TIP3   OH211003   2.085   6.626   0.432
 3680TIP3    H111004   2.071   6.715   0.465
 3680TIP3    H211005   2.006   6.606   0.383
 3681TIP3   OH211006   1.996   2.665   3.821
 3681TIP3    H111007   1.944   2.743   3.801
 3681TIP3    H211008   1.932   2.595   3.833
 3682TIP3   OH211009   5.802   3.632   5.857
 3682TIP3    H111010   5.793   3.577   5.935
 3682TIP3    H211011   5.818   3.720   5.891
 3683TIP3   OH211012   3.931   4.739   3.098
 3683TIP3    H111013   3.979   4.713   3.176
 3683TIP3    H211014   3.981   4.702   3.025
 3684TIP3   OH211015   6.737   3.252   0.999
 3684TIP3    H111016   6.678   3.239   1.072
 3684TIP3    H211017   6.825   3.245   1.037
 3685TIP3   OH211018   0.133   3.418   1.135
 3685TIP3    H111019   0.119   3.488   1.072
 3685TIP3    H211020   0.045   3.394   1.165
 3686TIP3   OH211021   0.604   3.646   5.851
 3686TIP3    H111022   0.537   3.685   5.907
 3686TIP3    H211023   0.680   3.636   5.908
 3687TIP3   OH211024   0.077   0.702   4.768
 3687TIP3    H111025   0.005   0.677   4.710
 3687TIP3    H211026   0.044   0.686   4.856
 3688TIP3   OH211027   6.918   5.719   1.790
 3688TIP3    H111028   6.885   5.641   1.834
 3688TIP3    H211029   7.008   5.697   1.765
 3689TIP3   OH211030   2.311   6.534   1.110
 3689TIP3    H111031   2.318   6.539   1.015
 3689TIP3    H211032   2.276   6.619   1.137
 3690TIP3   OH211033   3.925   2.710   0.579
 3690TIP3    H111034   3.926   2.715   0.675
 3690TIP3    H211035   3.851   2.653   0.558
 3691TIP3   OH211036   2.159   3.894   0.333
 3691TIP3    H111037   2.068   3.884   0.361
 3691TIP3    H211038   2.184   3.982   0.364
 3692TIP3   OH211039   2.311   3.752   5.653
 3692TIP3    H111040   2.345   3.705   5.729
 3692TIP3    H211041   2.360   3.834   5.651
 3693TIP3   OH211042   6.523   2.690   3.787
 3693TIP3    H111043   6.574   2.617   3.752
 3693TIP3    H211044   6.433   2.657   3.790
 3694TIP3   OH211045   1.747   4.756   4.939
 3694TIP3    H111046   1.800   4.689   4.983
 3694TIP3    H211047   1.700   4.800   5.010
 3695TIP3   OH211048   4.117   1.526   3.478
 3695TIP3    H111049   4.122   1.621   3.472
 3695TIP3    H211050   4.072   1.499   3.398
 3696TIP3   OH211051   4.597   0.360   4.103
 3696TIP3    H111052   4.607   0.315   4.019
 3696TIP3    H211053   4.668   0.424   4.105
 3697TIP3   OH211054   4.987   5.027   1.581
 3697TIP3    H111055   5.029   5.036   1.495
 3697TIP3    H211056   5.051   4.980   1.635
 3698TIP3   OH211057   3.997   0.546   0.663
 3698TIP3    H111058   3.940   0.472   0.680
 3698TIP3    H211059   3.977   0.572   0.573
 3699TIP3   OH211060   2.491   5.486   0.093
 3699TIP3    H111061   2.562   5.532   0.049
 3699TIP3    H211062   2.454   5.550   0.154
 3700TIP3   OH211063   2.084   0.148   3.598
 3700TIP3    H111064   2.153   0.088   3.571
 3700TIP3    H211065   2.084   0.142   3.694
 3701TIP3   OH211066   1.456   6.422   2.176
 3701TIP3    H111067   1.371   6.455   2.204
 3701TIP3    H211068   1.451   6.328   2.188
 3702TIP3   OH211069   2.013   2.865   2.528
 3702TIP3    H111070   2.044   2.864   2.437
 3702TIP3    H211071   2.018   2.957   2.554
 3703TIP3   OH211072   5.130   1.098   3.338
 3703TIP3    H111073   5.099   1.042   3.266
 3703TIP3    H211074   5.192   1.158   3.296
 3704TIP3   OH211075   4.727   5.033   1.177
 3704TIP3    H111076   4.699   5.087   1.251
 3704TIP3    H211077   4.818   5.011   1.196
 3705TIP3   OH211078   2.204   5.184   4.935
 3705TIP3    H111079   2.229   5.273   4.910
 3705TIP3    H211080   2.229   5.177   5.027
 3706TIP3   OH211081   0.721   4.594   1.654
 3706TIP3    H111082   0.753   4.683   1.640
 3706TIP3    H211083   0.666   4.576   1.578
 3707TIP3   OH211084   2.272   2.650   0.817
 3707TIP3    H111085   2.223   2.728   0.788
 3707TIP3    H211086   2.361   2.682   0.830
 3708TIP3   OH211087   6.736   0.772   4.822
 3708TIP3    H111088   6.666   0.834   4.800
 3708TIP3    H211089   6.691   0.690   4.842
 3709TIP3   OH211090   2.355   0.997   1.182
 3709TIP3    H111091   2.437   0.955   1.207
 3709TIP3    H211092   2.346   0.978   1.088
 3710TIP3   OH211093   6.539   2.924   0.490
 3710TIP3    H111094   6.533   2.873   0.571
 3710TIP3    H211095   6.586   3.003   0.516
 3711TIP3   OH211096   0.102   1.569   5.651
 3711TIP3    H111097   0.057   1.584   5.734
 3711TIP3    H211098   0.138   1.654   5.627
 3712TIP3   OH211099   1.981   0.001   4.279
 3712TIP3    H111100   2.063   0.020   4.233
 3712TIP3    H211101   1.915  -0.003   4.210
 3713TIP3   OH211102   0.157   3.300   3.641
 3713TIP3    H111103   0.235   3.299   3.586
 3713TIP3    H211104   0.191   3.295   3.731
 3714TIP3   OH211105   3.802   2.052   2.725
 3714TIP3    H111106   3.813   2.130   2.780
 3714TIP3    H211107   3.776   2.087   2.640
 3715TIP3   OH211108   3.877   2.802   2.575
 3715TIP3    H111109   3.942   2.773   2.511
 3715TIP3    H211110   3.872   2.897   2.564
 3716TIP3   OH211111   4.883   1.017   0.573
 3716TIP3    H111112   4.922   0.952   0.631
 3716TIP3    H211113   4.917   1.101   0.605
 3717TIP3   OH211114   3.901   2.978   4.455
 3717TIP3    H111115   3.809   2.968   4.430
 3717TIP3    H211116   3.936   2.890   4.451
 3718TIP3   OH211117  -0.024   6.673   3.073
 3718TIP3    H111118   0.023   6.662   2.991
 3718TIP3    H211119   0.032   6.633   3.139
 3719TIP3   OH211120   6.518   4.713   4.868
 3719TIP3    H111121   6.595   4.688   4.819
 3719TIP3    H211122   6.527   4.807   4.881
 3720TIP3   OH211123   2.968   6.464   0.231
 3720TIP3    H111124   2.891   6.499   0.187
 3720TIP3    H211125   3.035   6.460   0.163
 3721TIP3   OH211126   5.943   2.632   2.512
 3721TIP3    H111127   6.031   2.652   2.482
 3721TIP3    H211128   5.891   2.709   2.487
 3722TIP3   OH211129   7.198   6.626   2.135
 3722TIP3    H111130   7.173   6.693   2.071
 3722TIP3    H211131   7.117   6.578   2.152
 3723TIP3   OH211132   0.701   0.077   0.968
 3723TIP3    H111133   0.624   0.127   0.940
 3723TIP3    H211134   0.668   0.020   1.037
 3724TIP3   OH211135   0.097   0.128   1.920
 3724TIP3    H111136   0.090   0.074   1.841
 3724TIP3    H211137   0.190   0.124   1.943
 3725TIP3   OH211138   0.201   3.760   1.186
 3725TIP3    H111139   0.137   3.789   1.122
 3725TIP3    H211140   0.259   3.701   1.138
 3726TIP3   OH211141   2.921   4.783   1.864
 3726TIP3    H111142   2.986   4.788   1.933
 3726TIP3    H211143   2.858   4.718   1.895
 3727TIP3   OH211144   0.645   1.002   2.762
 3727TIP3    H111145   0.551   1.005   2.747
 3727TIP3    H211146   0.665   1.087   2.803
 3728TIP3   OH211147   7.053   2.814   5.672
 3728TIP3    H111148   7.117   2.750   5.704
 3728TIP3    H211149   7.061   2.810   5.576
 3729TIP3   OH211150   4.094   1.254   1.532
 3729TIP3    H111151   4.142   1.337   1.540
 3729TIP3    H211152   4.007   1.279   1.502
 3730TIP3   OH211153   6.408   3.363   3.975
 3730TIP3    H111154   6.391   3.370   4.069
 3730TIP3    H211155   6.455   3.280   3.965
 3731TIP3   OH211156   4.398   6.725   3.873
 3731TIP3    H111157   4.364   6.689   3.791
 3731TIP3    H211158   4.471   6.667   3.896
 3732TIP3   OH211159   5.360   5.533   4.898
 3732TIP3    H111160   5.286   5.483   4.933
 3732TIP3    H211161   5.412   5.557   4.975
 3733TIP3   OH211162   3.089   3.432   3.275
 3733TIP3    H111163   3.005   3.388   3.291
 3733TIP3    H211164   3.154   3.363   3.284
 3734TIP3   OH211165   0.012   3.330   0.447
 3734TIP3    H111166   0.041   3.240   0.463
 3734TIP3    H211167   0.015   3.372   0.533
 3735TIP3   OH211168   2.821   3.268   2.774
 3735TIP3    H111169   2.910   3.295   2.798
 3735TIP3    H211170   2.828   3.244   2.682
 3736TIP3   OH211171   6.061   4.187   1.680
 3736TIP3    H111172   6.079   4.245   1.606
 3736TIP3    H211173   5.966   4.186   1.688
 3737TIP3   OH211174   3.564   2.427   0.666
 3737TIP3    H111175   3.488   2.393   0.714
 3737TIP3    H211176   3.638   2.410   0.724
 3738TIP3   OH211177   0.943   0.901   4.564
 3738TIP3    H111178   0.992   0.971   4.520
 3738TIP3    H211179   0.981   0.896   4.651
 3739TIP3   OH211180   0.230   4.068   5.177
 3739TIP3    H111181   0.142   4.063   5.213
 3739TIP3    H211182   0.247   4.162   5.169
 3740TIP3   OH211183   6.522   3.821   1.253
 3740TIP3    H111184   6.507   3.748   1.193
 3740TIP3    H211185   6.599   3.796   1.304
 3741TIP3   OH211186   6.229   6.097   0.780
 3741TIP3    H111187   6.207   6.118   0.689
 3741TIP3    H211188   6.299   6.158   0.803
 3742TIP3   OH211189   5.472   4.479   1.282
 3742TIP3    H111190   5.529   4.429   1.224
 3742TIP3    H211191   5.431   4.545   1.224
 3743TIP3   OH211192   5.214   1.698   5.456
 3743TIP3    H111193   5.275   1.751   5.507
 3743TIP3    H211194   5.181   1.758   5.389
 3744TIP3   OH211195   3.905   3.275   5.130
 3744TIP3    H111196   3.858   3.194   5.149
 3744TIP3    H211197   3.846   3.345   5.160
 3745TIP3   OH211198   1.546   4.624   1.749
 3745TIP3    H111199   1.535   4.571   1.670
 3745TIP3    H211200   1.531   4.563   1.821
 3746TIP3   OH211201   4.271   5.902   5.111
 3746TIP3    H111202   4.259   5.847   5.033
 3746TIP3    H211203   4.340   5.964   5.087
 3747TIP3   OH211204   2.095   2.814   2.246
 3747TIP3    H111205   2.068   2.752   2.178
 3747TIP3    H211206   2.054   2.896   2.220
 3748TIP3   OH211207   2.033   5.816   2.078
 3748TIP3    H111208   2.100   5.838   2.143
 3748TIP3    H211209   1.955   5.863   2.107
 3749TIP3   OH211210   2.621   4.184   1.113
 3749TIP3    H111211   2.596   4.266   1.071
 3749TIP3    H211212   2.545   4.161   1.168
 3750TIP3   OH211213   4.988   0.847   3.664
 3750TIP3    H111214   5.068   0.886   3.700
 3750TIP3    H211215   4.939   0.921   3.628
 3751TIP3   OH211216   6.796   0.501   0.921
 3751TIP3    H111217   6.859   0.451   0.973
 3751TIP3    H211218   6.806   0.468   0.832
 3752TIP3   OH211219   1.594   2.457   1.386
 3752TIP3    H111220   1.591   2.518   1.460
 3752TIP3    H211221   1.649   2.385   1.416
 3753TIP3   OH211222   4.079   2.541   0.262
 3753TIP3    H111223   4.087   2.511   0.172
 3753TIP3    H211224   4.156   2.504   0.307
 3754TIP3   OH211225   1.437   2.084   5.281
 3754TIP3    H111226   1.494   2.054   5.210
 3754TIP3    H211227   1.447   2.179   5.282
 3755TIP3   OH211228   4.481   1.067   3.121
 3755TIP3    H111229   4.427   1.117   3.182
 3755TIP3    H211230   4.433   0.984   3.110
 3756TIP3   OH211231   2.547   2.646   0.724
 3756TIP3    H111232   2.569   2.584   0.654
 3756TIP3    H211233   2.588   2.728   0.697
 3757TIP3   OH211234   2.046   3.349   5.709
 3757TIP3    H111235   2.022   3.306   5.627
 3757TIP3    H211236   2.086   3.280   5.761
 3758TIP3   OH211237   2.373   4.132   5.015
 3758TIP3    H111238   2.339   4.216   5.046
 3758TIP3    H211239   2.464   4.150   4.993
 3759TIP3   OH211240   5.189   4.949   2.803
 3759TIP3    H111241   5.164   5.040   2.787
 3759TIP3    H211242   5.273   4.939   2.759
 3760TIP3   OH211243   3.796   0.925   5.601
 3760TIP3    H111244   3.753   0.840   5.589
 3760TIP3    H211245   3.755   0.981   5.534
 3761TIP3   OH211246   1.681   4.520   0.370
 3761TIP3    H111247   1.634   4.603   0.366
 3761TIP3    H211248   1.655   4.482   0.454
 3762TIP3   OH211249   0.657   4.747   4.640
 3762TIP3    H111250   0.575   4.748   4.591
 3762TIP3    H211251   0.706   4.822   4.607
 3763TIP3   OH211252   6.325   0.602   0.358
 3763TIP3    H111253   6.261   0.624   0.426
 3763TIP3    H211254   6.342   0.508   0.371
 3764TIP3   OH211255   6.381   5.863   0.055
 3764TIP3    H111256   6.425   5.792   0.102
 3764TIP3    H211257   6.442   5.937   0.063
 3765TIP3   OH211258   4.174   6.183   0.592
 3765TIP3    H111259   4.237   6.187   0.521
 3765TIP3    H211260   4.098   6.139   0.555
 3766TIP3   OH211261   0.618   6.183   2.521
 3766TIP3    H111262   0.646   6.182   2.612
 3766TIP3    H211263   0.528   6.216   2.523
 3767TIP3   OH211264   1.601   2.142   4.619
 3767TIP3    H111265   1.640   2.193   4.690
 3767TIP3    H211266   1.592   2.204   4.547
 3768TIP3   OH211267   3.811   5.685   4.651
 3768TIP3    H111268   3.725   5.725   4.667
 3768TIP3    H211269   3.842   5.726   4.571
 3769TIP3   OH211270   3.558   3.695   2.433
 3769TIP3    H111271   3.494   3.766   2.438
 3769TIP3    H211272   3.511   3.623   2.391
 3770TIP3   OH211273   3.482   1.005   5.282
 3770TIP3    H111274   3.437   1.039   5.360
 3770TIP3    H211275   3.526   1.082   5.245
 3771TIP3   OH211276   2.221   3.083   1.963
 3771TIP3    H111277   2.225   2.988   1.949
 3771TIP3    H211278   2.180   3.093   2.049
 3772TIP3   OH211279   2.188   4.852   0.127
 3772TIP3    H111280   2.211   4.820   0.214
 3772TIP3    H211281   2.139   4.780   0.087
 3773TIP3   OH211282   3.531   3.588   0.901
 3773TIP3    H111283   3.491   3.502   0.912
 3773TIP3    H211284   3.479   3.646   0.956
 3774TIP3   OH211285   2.878   4.041   0.467
 3774TIP3    H111286   2.835   4.080   0.391
 3774TIP3    H211287   2.895   3.951   0.441
 3775TIP3   OH211288   4.809   4.052   2.121
 3775TIP3    H111289   4.882   3.997   2.095
 3775TIP3    H211290   4.846   4.115   2.183
 3776TIP3   OH211291   6.312   1.434   4.928
 3776TIP3    H111292   6.407   1.443   4.920
 3776TIP3    H211293   6.284   1.514   4.972
 3777TIP3   OH211294   2.501   3.168   0.324
 3777TIP3    H111295   2.439   3.237   0.299
 3777TIP3    H211296   2.496   3.165   0.420
 3778TIP3   OH211297   4.719   4.125   3.231
 3778TIP3    H111298   4.797   4.095   3.278
 3778TIP3    H211299   4.753   4.163   3.150
 3779TIP3   OH211300   3.280   2.218   5.554
 3779TIP3    H111301   3.243   2.200   5.640
 3779TIP3    H211302   3.368   2.251   5.572
 3780TIP3   OH211303   6.386   0.648   3.828
 3780TIP3    H111304   6.428   0.572   3.786
 3780TIP3    H211305   6.443   0.722   3.806
 3781TIP3   OH211306   6.668   1.158   2.416
 3781TIP3    H111307   6.587   1.127   2.456
 3781TIP3    H211308   6.724   1.081   2.411
 3782TIP3   OH211309   5.024   3.970   0.073
 3782TIP3    H111310   5.003   3.917   0.150
 3782TIP3    H211311   4.943   4.018   0.054
 3783TIP3   OH211312   6.960   2.632   4.366
 3783TIP3    H111313   6.908   2.598   4.294
 3783TIP3    H211314   6.982   2.722   4.341
 3784TIP3   OH211315   6.569   5.875   2.550
 3784TIP3    H111316   6.474   5.878   2.555
 3784TIP3    H211317   6.594   5.806   2.612
 3785TIP3   OH211318   6.108   5.931   1.218
 3785TIP3    H111319   6.024   5.977   1.220
 3785TIP3    H211320   6.147   5.956   1.135
 3786TIP3   OH211321   4.420   5.355   1.250
 3786TIP3    H111322   4.417   5.286   1.185
 3786TIP3    H211323   4.496   5.408   1.226
 3787TIP3   OH211324   4.750   5.590   5.491
 3787TIP3    H111325   4.724   5.576   5.400
 3787TIP3    H211326   4.819   5.655   5.487
 3788TIP3   OH211327   5.846   1.660   4.696
 3788TIP3    H111328   5.891   1.599   4.755
 3788TIP3    H211329   5.777   1.698   4.749
 3789TIP3   OH211330   4.583   0.249   0.073
 3789TIP3    H111331   4.621   0.245  -0.015
 3789TIP3    H211332   4.650   0.292   0.126
 3790TIP3   OH211333   7.160   5.762   3.020
 3790TIP3    H111334   7.172   5.842   2.969
 3790TIP3    H211335   7.196   5.783   3.106
 3791TIP3   OH211336   3.948   5.175   4.071
 3791TIP3    H111337   4.007   5.245   4.098
 3791TIP3    H211338   3.860   5.208   4.094
 3792TIP3   OH211339   3.050   1.433   4.744
 3792TIP3    H111340   3.134   1.389   4.754
 3792TIP3    H211341   3.053   1.505   4.807
 3793TIP3   OH211342   5.136   0.038   1.303
 3793TIP3    H111343   5.086  -0.019   1.361
 3793TIP3    H211344   5.211   0.065   1.356
 3794TIP3   OH211345   6.707   0.972   0.242
 3794TIP3    H111346   6.686   0.886   0.281
 3794TIP3    H211347   6.651   0.978   0.165
 3795TIP3   OH211348   2.317   6.568   4.976
 3795TIP3    H111349   2.243   6.617   4.939
 3795TIP3    H211350   2.283   6.532   5.058
 3796TIP3   OH211351   3.250   2.896   4.157
 3796TIP3    H111352   3.340   2.879   4.187
 3796TIP3    H211353   3.261   2.934   4.070
 3797TIP3   OH211354   5.895   2.088   3.277
 3797TIP3    H111355   5.850   2.036   3.210
 3797TIP3    H211356   5.959   2.028   3.315
 3798TIP3   OH211357   2.458   6.014   0.108
 3798TIP3    H111358   2.402   5.996   0.183
 3798TIP3    H211359   2.491   6.103   0.123
 3799TIP3   OH211360   3.371   1.507   3.440
 3799TIP3    H111361   3.409   1.432   3.485
 3799TIP3    H211362   3.297   1.534   3.495
 3800TIP3   OH211363   3.596   6.053   0.444
 3800TIP3    H111364   3.556   6.024   0.362
 3800TIP3    H211365   3.549   6.005   0.512
 3801TIP3   OH211366   2.049   0.168   5.854
 3801TIP3    H111367   2.031   0.182   5.761
 3801TIP3    H211368   2.080   0.253   5.884
 3802TIP3   OH211369   5.778   4.001   1.985
 3802TIP3    H111370   5.741   4.022   1.899
 3802TIP3    H211371   5.870   3.980   1.967
 3803TIP3   OH211372   3.156   5.477   0.493
 3803TIP3    H111373   3.103   5.398   0.494
 3803TIP3    H211374   3.236   5.454   0.539
 3804TIP3   OH211375   3.903   2.075   0.045
 3804TIP3    H111376   3.927   2.105   0.133
 3804TIP3    H211377   3.835   2.010   0.060
 3805TIP3   OH211378   3.234   2.256   1.374
 3805TIP3    H111379   3.315   2.272   1.423
 3805TIP3    H211380   3.235   2.163   1.355
 3806TIP3   OH211381   1.003   3.639   2.204
 3806TIP3    H111382   1.096   3.634   2.228
 3806TIP3    H211383   0.980   3.731   2.216
 3807TIP3   OH211384   2.511   2.261   2.963
 3807TIP3    H111385   2.419   2.240   2.949
 3807TIP3    H211386   2.513   2.302   3.050
 3808TIP3   OH211387   5.017   2.887   1.026
 3808TIP3    H111388   4.968   2.814   0.988
 3808TIP3    H211389   5.001   2.960   0.968
 3809TIP3   OH211390   0.422   5.667   2.095
 3809TIP3    H111391   0.364   5.728   2.049
 3809TIP3    H211392   0.489   5.645   2.030
 3810TIP3   OH211393   6.622   5.528   4.477
 3810TIP3    H111394   6.641   5.483   4.560
 3810TIP3    H211395   6.636   5.621   4.497
 3811TIP3   OH211396   1.041   5.418   4.113
 3811TIP3    H111397   1.081   5.504   4.123
 3811TIP3    H211398   1.068   5.389   4.025
 3812TIP3   OH211399   1.628  -0.008   2.126
 3812TIP3    H111400   1.626   0.064   2.189
 3812TIP3    H211401   1.560  -0.068   2.155
 3813TIP3   OH211402   4.922   3.402   5.416
 3813TIP3    H111403   5.015   3.425   5.416
 3813TIP3    H211404   4.881   3.472   5.468
 3814TIP3   OH211405   5.355   3.420   0.663
 3814TIP3    H111406   5.297   3.346   0.641
 3814TIP3    H211407   5.339   3.484   0.593
 3815TIP3   OH211408   5.322   2.155   4.295
 3815TIP3    H111409   5.313   2.163   4.200
 3815TIP3    H211410   5.293   2.239   4.329
 3816TIP3   OH211411   3.339   5.867   5.120
 3816TIP3    H111412   3.314   5.957   5.100
 3816TIP3    H211413   3.418   5.852   5.068
 3817TIP3   OH211414   2.454   2.740   5.141
 3817TIP3    H111415   2.528   2.708   5.089
 3817TIP3    H211416   2.492   2.759   5.226
 3818TIP3   OH211417   1.332   5.957   3.904
 3818TIP3    H111418   1.259   5.995   3.952
 3818TIP3    H211419   1.386   5.914   3.970
 3819TIP3   OH211420   3.593   6.660   1.441
 3819TIP3    H111421   3.664   6.630   1.498
 3819TIP3    H211422   3.529   6.699   1.500
 3820TIP3   OH211423   3.630   0.793   0.586
 3820TIP3    H111424   3.591   0.872   0.549
 3820TIP3    H211425   3.722   0.816   0.601
 3821TIP3   OH211426   6.195   5.072   3.418
 3821TIP3    H111427   6.101   5.077   3.407
 3821TIP3    H211428   6.220   4.993   3.369
 3822TIP3   OH211429   7.182   5.158   1.114
 3822TIP3    H111430   7.188   5.071   1.155
 3822TIP3    H211431   7.207   5.143   1.023
 3823TIP3   OH211432   1.975   1.512   0.211
 3823TIP3    H111433   2.033   1.481   0.281
 3823TIP3    H211434   1.979   1.607   0.216
 3824TIP3   OH211435   3.049   4.689   2.550
 3824TIP3    H111436   3.145   4.686   2.549
 3824TIP3    H211437   3.027   4.769   2.503
 3825TIP3   OH211438   5.140   1.859   5.243
 3825TIP3    H111439   5.056   1.825   5.210
 3825TIP3    H211440   5.194   1.869   5.165
 3826TIP3   OH211441   6.982   6.359   5.821
 3826TIP3    H111442   6.972   6.375   5.915
 3826TIP3    H211443   7.077   6.359   5.807
 3827TIP3   OH211444   3.404   5.040   1.785
 3827TIP3    H111445   3.462   5.064   1.857
 3827TIP3    H211446   3.424   4.948   1.768
 3828TIP3   OH211447   1.214   4.629   5.305
 3828TIP3    H111448   1.216   4.563   5.374
 3828TIP3    H211449   1.130   4.615   5.261
 3829TIP3   OH211450   2.949   4.680   4.304
 3829TIP3    H111451   2.976   4.716   4.219
 3829TIP3    H211452   3.030   4.675   4.355
 3830TIP3   OH211453   6.735   3.330   5.355
 3830TIP3    H111454   6.735   3.426   5.359
 3830TIP3    H211455   6.821   3.305   5.387
 3831TIP3   OH211456   2.675   4.611   0.284
 3831TIP3    H111457   2.615   4.593   0.212
 3831TIP3    H211458   2.762   4.605   0.245
 3832TIP3   OH211459   1.711   2.464   5.263
 3832TIP3    H111460   1.617   2.484   5.262
 3832TIP3    H211461   1.754   2.547   5.278
 3833TIP3   OH211462   0.276   0.192   5.192
 3833TIP3    H111463   0.351   0.153   5.147
 3833TIP3    H211464   0.245   0.260   5.132
 3834TIP3   OH211465   0.889   2.257   5.735
 3834TIP3    H111466   0.822   2.228   5.796
 3834TIP3    H211467   0.972   2.242   5.781
 3835TIP3   OH211468   0.054   0.848   0.690
 3835TIP3    H111469  -0.009   0.777   0.676
 3835TIP3    H211470   0.094   0.862   0.604
 3836TIP3   OH211471   5.020   4.376   5.661
 3836TIP3    H111472   5.065   4.376   5.577
 3836TIP3    H211473   5.085   4.409   5.723
 3837TIP3   OH211474   4.679   3.776   4.588
 3837TIP3    H111475   4.595   3.803   4.626
 3837TIP3    H211476   4.739   3.773   4.662
 3838TIP3   OH211477   3.985   6.157   5.427
 3838TIP3    H111478   3.978   6.178   5.333
 3838TIP3    H211479   3.927   6.081   5.439
 3839TIP3   OH211480   0.238   0.991   2.384
 3839TIP3    H111481   0.333   0.982   2.373
 3839TIP3    H211482   0.203   0.906   2.359
 3840TIP3   OH211483   5.934   6.329   0.186
 3840TIP3    H111484   5.993   6.258   0.211
 3840TIP3    H211485   5.960   6.403   0.240
 3841TIP3   OH211486   4.403   3.494   0.350
 3841TIP3    H111487   4.382   3.511   0.258
 3841TIP3    H211488   4.461   3.418   0.347
 3842TIP3   OH211489   4.753   1.739   2.625
 3842TIP3    H111490   4.779   1.774   2.540
 3842TIP3    H211491   4.681   1.796   2.653
 3843TIP3   OH211492   3.810   1.492   0.923
 3843TIP3    H111493   3.737   1.440   0.959
 3843TIP3    H211494   3.872   1.426   0.892
 3844TIP3   OH211495   7.111   5.238   0.788
 3844TIP3    H111496   7.196   5.198   0.773
 3844TIP3    H211497   7.055   5.203   0.719
 3845TIP3   OH211498   4.268   3.101   2.916
 3845TIP3    H111499   4.243   3.035   2.851
 3845TIP3    H211500   4.192   3.160   2.919
 3846TIP3   OH211501   4.124   3.403   2.958
 3846TIP3    H111502   4.064   3.342   3.000
 3846TIP3    H211503   4.069   3.454   2.899
 3847TIP3   OH211504   6.097   6.728   5.443
 3847TIP3    H111505   6.164   6.681   5.393
 3847TIP3    H211506   6.139   6.751   5.525
 3848TIP3   OH211507   3.098   0.065   0.490
 3848TIP3    H111508   3.163   0.019   0.543
 3848TIP3    H211509   3.150   0.112   0.424
 3849TIP3   OH211510   1.079   0.662   4.025
 3849TIP3    H111511   1.120   0.589   4.069
 3849TIP3    H211512   1.085   0.735   4.087
 3850TIP3   OH211513   4.748   6.022   1.523
 3850TIP3    H111514   4.731   6.068   1.605
 3850TIP3    H211515   4.820   5.963   1.542
 3851TIP3   OH211516   6.406   0.904   2.293
 3851TIP3    H111517   6.387   0.995   2.316
 3851TIP3    H211518   6.327   0.875   2.247
 3852TIP3   OH211519   6.750   4.981   2.075
 3852TIP3    H111520   6.782   5.031   2.150
 3852TIP3    H211521   6.655   4.977   2.088
 3853TIP3   OH211522   0.601   5.031   1.992
 3853TIP3    H111523   0.592   4.972   1.917
 3853TIP3    H211524   0.676   4.998   2.041
 3854TIP3   OH211525   0.210   2.017   2.191
 3854TIP3    H111526   0.160   1.939   2.165
 3854TIP3    H211527   0.216   2.011   2.286
 3855TIP3   OH211528   1.832   6.266   1.222
 3855TIP3    H111529   1.923   6.286   1.199
 3855TIP3    H211530   1.782   6.339   1.186
 3856TIP3   OH211531   7.011   3.299   5.456
 3856TIP3    H111532   7.074   3.228   5.469
 3856TIP3    H211533   7.002   3.340   5.542
 3857TIP3   OH211534   0.527   0.305   5.064
 3857TIP3    H111535   0.605   0.354   5.038
 3857TIP3    H211536   0.529   0.305   5.160
 3858TIP3   OH211537   2.093   2.000   3.422
 3858TIP3    H111538   2.112   2.014   3.329
 3858TIP3    H211539   2.171   1.957   3.456
 3859TIP3   OH211540   3.482   6.518   5.731
 3859TIP3    H111541   3.469   6.566   5.812
 3859TIP3    H211542   3.476   6.584   5.662
 3860TIP3   OH211543   6.183   5.133   4.736
 3860TIP3    H111544   6.153   5.070   4.671
 3860TIP3    H211545   6.251   5.183   4.692
 3861TIP3   OH211546   5.850   5.924   4.062
 3861TIP3    H111547   5.939   5.956   4.077
 3861TIP3    H211548   5.846   5.910   3.968
 3862TIP3   OH211549   1.025   1.988   4.425
 3862TIP3    H111550   1.109   1.959   4.389
 3862TIP3    H211551   0.961   1.925   4.392
 3863TIP3   OH211552  -0.027   3.927   3.361
 3863TIP3    H111553   0.062   3.949   3.334
 3863TIP3    H211554  -0.069   3.897   3.280
 3864TIP3   OH211555   4.333   6.377   2.979
 3864TIP3    H111556   4.251   6.426   2.973
 3864TIP3    H211557   4.381   6.418   3.052
 3865TIP3   OH211558   3.653   6.072   2.209
 3865TIP3    H111559   3.718   6.036   2.148
 3865TIP3    H211560   3.705   6.103   2.283
 3866TIP3   OH211561   1.770   3.991   1.232
 3866TIP3    H111562   1.851   4.032   1.202
 3866TIP3    H211563   1.755   3.920   1.170
 3867TIP3   OH211564   6.890   0.818   5.673
 3867TIP3    H111565   6.915   0.726   5.683
 3867TIP3    H211566   6.924   0.861   5.752
 3868TIP3   OH211567   0.090   5.450   4.058
 3868TIP3    H111568   0.181   5.469   4.038
 3868TIP3    H211569   0.049   5.435   3.973
 3869TIP3   OH211570   5.248   6.102   0.141
 3869TIP3    H111571   5.243   6.063   0.228
 3869TIP3    H211572   5.183   6.055   0.089
 3870TIP3   OH211573   1.473   5.831   0.775
 3870TIP3    H111574   1.417   5.896   0.732
 3870TIP3    H211575   1.469   5.754   0.718
 3871TIP3   OH211576   5.484   3.051   4.389
 3871TIP3    H111577   5.468   3.119   4.454
 3871TIP3    H211578   5.408   3.054   4.331
 3872TIP3   OH211579   0.018   0.635   1.088
 3872TIP3    H111580   0.024   0.540   1.094
 3872TIP3    H211581   0.054   0.667   1.171
 3873TIP3   OH211582   5.366   3.722   2.860
 3873TIP3    H111583   5.387   3.714   2.953
 3873TIP3    H211584   5.270   3.725   2.857
 3874TIP3   OH211585   6.481   6.165   2.212
 3874TIP3    H111586   6.544   6.215   2.264
 3874TIP3    H211587   6.474   6.214   2.130
 3875TIP3   OH211588   1.234   4.632   2.816
 3875TIP3    H111589   1.262   4.543   2.841
 3875TIP3    H211590   1.312   4.670   2.776
 3876TIP3   OH211591   6.326   2.485   0.103
 3876TIP3    H111592   6.330   2.394   0.133
 3876TIP3    H211593   6.239   2.515   0.129
 3877TIP3   OH211594   0.633   4.862   0.314
 3877TIP3    H111595   0.573   4.788   0.322
 3877TIP3    H211596   0.717   4.827   0.344
 3878TIP3   OH211597   0.264   6.163   1.464
 3878TIP3    H111598   0.346   6.212   1.463
 3878TIP3    H211599   0.230   6.172   1.375
 3879TIP3   OH211600   2.037   3.906   5.360
 3879TIP3    H111601   2.060   3.815   5.379
 3879TIP3    H211602   2.109   3.938   5.306
 3880TIP3   OH211603   6.260   5.667   1.612
 3880TIP3    H111604   6.297   5.623   1.536
 3880TIP3    H211605   6.215   5.744   1.576
 3881TIP3   OH211606   2.206   4.639   5.505
 3881TIP3    H111607   2.280   4.606   5.556
 3881TIP3    H211608   2.169   4.562   5.463
 3882TIP3   OH211609   1.465   1.567   1.243
 3882TIP3    H111610   1.436   1.493   1.296
 3882TIP3    H211611   1.400   1.574   1.173
 3883TIP3   OH211612   0.249   0.681   3.118
 3883TIP3    H111613   0.303   0.606   3.093
 3883TIP3    H211614   0.277   0.751   3.059
 3884TIP3   OH211615   4.869   2.246   3.250
 3884TIP3    H111616   4.940   2.185   3.267
 3884TIP3    H211617   4.907   2.333   3.263
 3885TIP3   OH211618   6.382   1.318   0.944
 3885TIP3    H111619   6.364   1.255   0.874
 3885TIP3    H211620   6.459   1.367   0.913
 3886TIP3   OH211621   6.365   1.437   1.370
 3886TIP3    H111622   6.413   1.515   1.395
 3886TIP3    H211623   6.275   1.453   1.399
 3887TIP3   OH211624   2.877   1.972   2.168
 3887TIP3    H111625   2.911   1.991   2.255
 3887TIP3    H211626   2.793   2.017   2.165
 3888TIP3   OH211627   3.560   5.665   2.630
 3888TIP3    H111628   3.622   5.635   2.563
 3888TIP3    H211629   3.525   5.585   2.668
 3889TIP3   OH211630   4.752   0.376   3.283
 3889TIP3    H111631   4.785   0.338   3.364
 3889TIP3    H211632   4.808   0.452   3.266
 3890TIP3   OH211633   5.433   0.212   4.721
 3890TIP3    H111634   5.354   0.202   4.776
 3890TIP3    H211635   5.483   0.281   4.764
 3891TIP3   OH211636   3.121   5.745   1.900
 3891TIP3    H111637   3.124   5.824   1.847
 3891TIP3    H211638   3.050   5.693   1.863
 3892TIP3   OH211639   0.910   6.833   4.369
 3892TIP3    H111640   0.970   6.900   4.400
 3892TIP3    H211641   0.966   6.764   4.335
 3893TIP3   OH211642   5.788   6.647   2.342
 3893TIP3    H111643   5.755   6.577   2.287
 3893TIP3    H211644   5.798   6.721   2.282
 3894TIP3   OH211645   0.603   3.626   0.855
 3894TIP3    H111646   0.675   3.651   0.914
 3894TIP3    H211647   0.589   3.704   0.801
 3895TIP3   OH211648   2.652   6.722   4.188
 3895TIP3    H111649   2.689   6.781   4.254
 3895TIP3    H211650   2.648   6.636   4.231
 3896TIP3   OH211651   3.280   1.282   4.737
 3896TIP3    H111652   3.319   1.246   4.657
 3896TIP3    H211653   3.241   1.206   4.781
 3897TIP3   OH211654   3.223   2.368   0.513
 3897TIP3    H111655   3.187   2.456   0.526
 3897TIP3    H211656   3.273   2.350   0.593
 3898TIP3   OH211657   3.604   4.442   3.755
 3898TIP3    H111658   3.591   4.398   3.839
 3898TIP3    H211659   3.671   4.509   3.773
 3899TIP3   OH211660   0.190   5.138   5.807
 3899TIP3    H111661   0.151   5.104   5.727
 3899TIP3    H211662   0.267   5.084   5.822
 3900TIP3   OH211663   0.378   1.668   4.837
 3900TIP3    H111664   0.416   1.649   4.923
 3900TIP3    H211665   0.327   1.590   4.815
 3901TIP3   OH211666   1.980   0.322   1.459
 3901TIP3    H111667   1.944   0.381   1.526
 3901TIP3    H211668   2.026   0.254   1.509
 3902TIP3   OH211669   1.534   4.764   3.055
 3902TIP3    H111670   1.493   4.845   3.025
 3902TIP3    H211671   1.628   4.778   3.042
 3903TIP3   OH211672   1.603   6.403   3.199
 3903TIP3    H111673   1.517   6.372   3.169
 3903TIP3    H211674   1.637   6.331   3.253
 3904TIP3   OH211675   3.006   1.336   2.867
 3904TIP3    H111676   2.963   1.284   2.935
 3904TIP3    H211677   3.083   1.374   2.911
 3905TIP3   OH211678   7.067   6.670   5.705
 3905TIP3    H111679   6.985   6.674   5.754
 3905TIP3    H211680   7.073   6.754   5.661
 3906TIP3   OH211681   6.975   0.399   4.257
 3906TIP3    H111682   6.997   0.333   4.324
 3906TIP3    H211683   7.048   0.394   4.195
 3907TIP3   OH211684   1.091   0.941   5.461
 3907TIP3    H111685   1.019   0.886   5.489
 3907TIP3    H211686   1.116   0.907   5.375
 3908TIP3   OH211687   1.448   3.131   1.686
 3908TIP3    H111688   1.462   3.224   1.704
 3908TIP3    H211689   1.466   3.122   1.593
 3909TIP3   OH211690   5.834   5.784   2.034
 3909TIP3    H111691   5.890   5.733   1.975
 3909TIP3    H211692   5.837   5.737   2.117
 3910TIP3   OH211693   1.459   5.114   5.564
 3910TIP3    H111694   1.381   5.152   5.522
 3910TIP3    H211695   1.468   5.028   5.524
 3911TIP3   OH211696   1.852   6.622   0.652
 3911TIP3    H111697   1.771   6.671   0.663
 3911TIP3    H211698   1.911   6.682   0.608
 3912TIP3   OH211699   3.097   0.487   2.088
 3912TIP3    H111700   3.181   0.451   2.117
 3912TIP3    H211701   3.119   0.572   2.050
 3913TIP3   OH211702   1.785   4.429   5.846
 3913TIP3    H111703   1.841   4.488   5.795
 3913TIP3    H211704   1.714   4.406   5.786
 3914TIP3   OH211705   6.570   4.886   5.196
 3914TIP3    H111706   6.579   4.807   5.143
 3914TIP3    H211707   6.654   4.896   5.240
 3915TIP3   OH211708   3.604   6.699   2.013
 3915TIP3    H111709   3.599   6.609   2.046
 3915TIP3    H211710   3.667   6.742   2.071
 3916TIP3   OH211711   2.079   1.820   4.653
 3916TIP3    H111712   2.058   1.898   4.705
 3916TIP3    H211713   2.104   1.855   4.567
 3917TIP3   OH211714   6.055   6.154   3.786
 3917TIP3    H111715   6.014   6.239   3.805
 3917TIP3    H211716   6.075   6.118   3.872
 3918TIP3   OH211717   1.682   6.564   5.269
 3918TIP3    H111718   1.645   6.594   5.352
 3918TIP3    H211719   1.614   6.582   5.204
 3919TIP3   OH211720   2.585   1.355   2.227
 3919TIP3    H111721   2.539   1.367   2.311
 3919TIP3    H211722   2.593   1.260   2.218
 3920TIP3   OH211723   2.946   6.626   1.860
 3920TIP3    H111724   2.861   6.584   1.852
 3920TIP3    H211725   2.970   6.651   1.771
 3921TIP3   OH211726   1.232   1.799   1.441
 3921TIP3    H111727   1.284   1.856   1.385
 3921TIP3    H211728   1.276   1.714   1.437
 3922TIP3   OH211729   6.910   5.025   1.215
 3922TIP3    H111730   6.862   5.009   1.134
 3922TIP3    H211731   6.959   5.105   1.198
 3923TIP3   OH211732   1.975   3.311   0.649
 3923TIP3    H111733   2.003   3.315   0.740
 3923TIP3    H211734   2.035   3.370   0.603
 3924TIP3   OH211735   1.275   1.115   0.983
 3924TIP3    H111736   1.328   1.038   1.004
 3924TIP3    H211737   1.201   1.111   1.045
 3925TIP3   OH211738   6.554   6.720   0.663
 3925TIP3    H111739   6.573   6.786   0.729
 3925TIP3    H211740   6.579   6.637   0.704
 3926TIP3   OH211741   1.436   2.494   0.179
 3926TIP3    H111742   1.461   2.449   0.098
 3926TIP3    H211743   1.451   2.429   0.248
 3927TIP3   OH211744   3.138   4.159   2.863
 3927TIP3    H111745   3.210   4.133   2.921
 3927TIP3    H211746   3.076   4.085   2.868
 3928TIP3   OH211747   0.407   5.010   3.188
 3928TIP3    H111748   0.317   4.995   3.157
 3928TIP3    H211749   0.460   5.009   3.109
 3929TIP3   OH211750   3.440   3.396   0.538
 3929TIP3    H111751   3.345   3.412   0.541
 3929TIP3    H211752   3.456   3.373   0.446
 3930TIP3   OH211753   5.089   1.674   1.623
 3930TIP3    H111754   5.103   1.579   1.618
 3930TIP3    H211755   5.011   1.684   1.677
 3931TIP3   OH211756   4.438   1.179   3.579
 3931TIP3    H111757   4.479   1.141   3.656
 3931TIP3    H211758   4.388   1.254   3.612
 3932TIP3   OH211759   3.796   6.129   2.431
 3932TIP3    H111760   3.795   6.196   2.499
 3932TIP3    H211761   3.786   6.046   2.478
 3933TIP3   OH211762   3.324   6.053   3.388
 3933TIP3    H111763   3.273   6.132   3.403
 3933TIP3    H211764   3.262   5.992   3.345
 3934TIP3   OH211765   4.457   3.286   3.910
 3934TIP3    H111766   4.474   3.365   3.961
 3934TIP3    H211767   4.386   3.310   3.851
 3935TIP3   OH211768   2.282   0.973   2.575
 3935TIP3    H111769   2.358   0.957   2.519
 3935TIP3    H211770   2.319   0.982   2.663
 3936TIP3   OH211771   3.426   3.313   4.141
 3936TIP3    H111772   3.431   3.283   4.232
 3936TIP3    H211773   3.491   3.383   4.136
 3937TIP3   OH211774   3.217   0.985   2.361
 3937TIP3    H111775   3.295   0.932   2.347
 3937TIP3    H211776   3.211   0.994   2.456
 3938TIP3   OH211777   3.519   3.169   5.435
 3938TIP3    H111778   3.442   3.211   5.474
 3938TIP3    H211779   3.592   3.227   5.457
 3939TIP3   OH211780   2.797   1.535   2.266
 3939TIP3    H111781   2.771   1.562   2.354
 3939TIP3    H211782   2.724   1.480   2.236
 3940TIP3   OH211783   2.227   3.562   4.463
 3940TIP3    H111784   2.287   3.521   4.401
 3940TIP3    H211785   2.260   3.537   4.549
 3941TIP3   OH211786   6.893   6.188   2.277
 3941TIP3    H111787   6.877   6.105   2.232
 3941TIP3    H211788   6.806   6.225   2.292
 3942TIP3   OH211789   0.534   1.417   3.704
 3942TIP3    H111790   0.607   1.402   3.764
 3942TIP3    H211791   0.509   1.330   3.674
 3943TIP3   OH211792   4.966   5.213   3.792
 3943TIP3    H111793   4.942   5.208   3.699
 3943TIP3    H211794   5.059   5.193   3.794
 3944TIP3   OH211795   6.541   6.121   0.026
 3944TIP3    H111796   6.549   6.170  -0.055
 3944TIP3    H211797   6.628   6.128   0.067
 3945TIP3   OH211798   1.326   4.135   1.546
 3945TIP3    H111799   1.357   4.065   1.489
 3945TIP3    H211800   1.405   4.182   1.573
 3946TIP3   OH211801   3.934   1.132   2.471
 3946TIP3    H111802   4.017   1.084   2.476
 3946TIP3    H211803   3.935   1.172   2.384
 3947TIP3   OH211804   3.321   1.520   2.623
 3947TIP3    H111805   3.300   1.460   2.551
 3947TIP3    H211806   3.299   1.606   2.589
 3948TIP3   OH211807   0.820   1.302   3.689
 3948TIP3    H111808   0.886   1.369   3.670
 3948TIP3    H211809   0.852   1.261   3.770
 3949TIP3   OH211810   6.587   4.628   1.358
 3949TIP3    H111811   6.592   4.609   1.451
 3949TIP3    H211812   6.564   4.545   1.317
 3950TIP3   OH211813   6.529   5.841   1.684
 3950TIP3    H111814   6.491   5.789   1.755
 3950TIP3    H211815   6.469   5.830   1.611
 3951TIP3   OH211816   5.324   4.400   5.495
 3951TIP3    H111817   5.255   4.351   5.450
 3951TIP3    H211818   5.318   4.371   5.586
 3952TIP3   OH211819   0.201   4.014   3.202
 3952TIP3    H111820   0.180   4.064   3.122
 3952TIP3    H211821   0.270   4.066   3.244
 3953TIP3   OH211822   7.048   2.012   2.338
 3953TIP3    H111823   7.046   2.104   2.365
 3953TIP3    H211824   7.054   1.963   2.420
 3954TIP3   OH211825   5.831   2.812   4.092
 3954TIP3    H111826   5.827   2.865   4.172
 3954TIP3    H211827   5.739   2.790   4.074
 3955TIP3   OH211828   3.937   5.257   1.368
 3955TIP3    H111829   3.879   5.198   1.320
 3955TIP3    H211830   3.877   5.317   1.413
 3956TIP3   OH211831   2.575   5.068   4.563
 3956TIP3    H111832   2.590   5.039   4.473
 3956TIP3    H211833   2.612   5.156   4.566
 3957TIP3   OH211834   5.816   6.781   0.975
 3957TIP3    H111835   5.869   6.735   1.040
 3957TIP3    H211836   5.795   6.715   0.910
 3958TIP3   OH211837   0.608   6.330   0.884
 3958TIP3    H111838   0.635   6.422   0.888
 3958TIP3    H211839   0.610   6.308   0.791
 3959TIP3   OH211840   1.091   6.291   5.342
 3959TIP3    H111841   1.013   6.335   5.376
 3959TIP3    H211842   1.096   6.209   5.391
 3960TIP3   OH211843   2.991   1.422   5.538
 3960TIP3    H111844   3.030   1.369   5.607
 3960TIP3    H211845   2.929   1.479   5.584
 3961TIP3   OH211846   0.453   2.609   2.780
 3961TIP3    H111847   0.498   2.539   2.733
 3961TIP3    H211848   0.360   2.583   2.778
 3962TIP3   OH211849   3.123   0.402   3.484
 3962TIP3    H111850   3.034   0.382   3.510
 3962TIP3    H211851   3.175   0.389   3.563
 3963TIP3   OH211852   0.469   1.901   0.319
 3963TIP3    H111853   0.475   1.950   0.401
 3963TIP3    H211854   0.431   1.817   0.343
 3964TIP3   OH211855   3.822   1.019   4.779
 3964TIP3    H111856   3.829   0.992   4.871
 3964TIP3    H211857   3.835   0.938   4.729
 3965TIP3   OH211858   5.717   5.318   4.517
 3965TIP3    H111859   5.720   5.293   4.425
 3965TIP3    H211860   5.711   5.235   4.564
 3966TIP3   OH211861   0.132   5.735   4.120
 3966TIP3    H111862   0.154   5.652   4.077
 3966TIP3    H211863   0.084   5.784   4.053
 3967TIP3   OH211864   1.306   6.346   3.049
 3967TIP3    H111865   1.269   6.414   3.106
 3967TIP3    H211866   1.304   6.266   3.103
 3968TIP3   OH211867   5.838   4.983   5.561
 3968TIP3    H111868   5.908   4.925   5.593
 3968TIP3    H211869   5.801   4.937   5.486
 3969TIP3   OH211870   5.729   5.027   4.728
 3969TIP3    H111871   5.724   4.953   4.789
 3969TIP3    H211872   5.677   5.096   4.769
 3970TIP3   OH211873   1.615   3.367   1.332
 3970TIP3    H111874   1.556   3.309   1.381
 3970TIP3    H211875   1.643   3.432   1.397
 3971TIP3   OH211876   4.058   5.604   3.918
 3971TIP3    H111877   3.996   5.655   3.866
 3971TIP3    H211878   4.136   5.596   3.862
 3972TIP3   OH211879   2.295   1.088   5.749
 3972TIP3    H111880   2.257   1.106   5.834
 3972TIP3    H211881   2.389   1.079   5.765
 3973TIP3   OH211882   5.327   5.943   1.513
 3973TIP3    H111883   5.415   5.940   1.551
 3973TIP3    H211884   5.291   6.025   1.543
 3974TIP3   OH211885   3.597   6.057   5.181
 3974TIP3    H111886   3.692   6.069   5.183
 3974TIP3    H211887   3.584   5.977   5.130
 3975TIP3   OH211888   6.033   2.028   2.490
 3975TIP3    H111889   6.020   1.945   2.445
 3975TIP3    H211890   6.058   2.089   2.420
 3976TIP3   OH211891   5.055   2.657   1.249
 3976TIP3    H111892   4.984   2.594   1.257
 3976TIP3    H211893   5.016   2.741   1.274
 3977TIP3   OH211894   3.410   4.965   4.319
 3977TIP3    H111895   3.499   4.943   4.344
 3977TIP3    H211896   3.420   5.033   4.252
 3978TIP3   OH211897   7.191   1.251   4.191
 3978TIP3    H111898   7.207   1.159   4.211
 3978TIP3    H211899   7.212   1.298   4.271
 3979TIP3   OH211900   2.754   5.918   0.319
 3979TIP3    H111901   2.707   5.991   0.358
 3979TIP3    H211902   2.846   5.933   0.343
 3980TIP3   OH211903   4.988   2.819   0.564
 3980TIP3    H111904   4.940   2.788   0.488
 3980TIP3    H211905   5.078   2.830   0.533
 3981TIP3   OH211906   2.536   0.584   0.455
 3981TIP3    H111907   2.527   0.495   0.492
 3981TIP3    H211908   2.490   0.579   0.371
 3982TIP3   OH211909   6.833   4.573   2.944
 3982TIP3    H111910   6.782   4.628   3.003
 3982TIP3    H211911   6.775   4.559   2.868
 3983TIP3   OH211912   3.019   1.941   5.503
 3983TIP3    H111913   3.098   1.969   5.458
 3983TIP3    H211914   3.039   1.852   5.533
 3984TIP3   OH211915   1.943   3.535   2.333
 3984TIP3    H111916   1.857   3.573   2.347
 3984TIP3    H211917   1.995   3.565   2.407
 3985TIP3   OH211918   4.101   3.810   4.280
 3985TIP3    H111919   4.027   3.870   4.264
 3985TIP3    H211920   4.085   3.775   4.367
 3986TIP3   OH211921   6.968   5.948   2.118
 3986TIP3    H111922   6.992   5.988   2.035
 3986TIP3    H211923   6.922   5.867   2.094
 3987TIP3   OH211924   5.156   0.575   3.967
 3987TIP3    H111925   5.065   0.605   3.965
 3987TIP3    H211926   5.206   0.655   3.986
 3988TIP3   OH211927   4.919   3.855   4.307
 3988TIP3    H111928   4.975   3.805   4.366
 3988TIP3    H211929   4.964   3.939   4.297
 3989TIP3   OH211930   5.673   1.219   2.191
 3989TIP3    H111931   5.597   1.184   2.144
 3989TIP3    H211932   5.707   1.144   2.239
 3990TIP3   OH211933   1.806   2.043   2.484
 3990TIP3    H111934   1.745   1.994   2.428
 3990TIP3    H211935   1.818   2.126   2.439
 3991TIP3   OH211936   0.779   6.088   3.787
 3991TIP3    H111937   0.783   5.993   3.781
 3991TIP3    H211938   0.869   6.115   3.807
 3992TIP3   OH211939   5.126   3.872   0.760
 3992TIP3    H111940   5.144   3.785   0.796
 3992TIP3    H211941   5.132   3.931   0.835
 3993TIP3   OH211942   0.654   3.939   3.355
 3993TIP3    H111943   0.643   4.012   3.294
 3993TIP3    H211944   0.747   3.915   3.347
 3994TIP3   OH211945   5.921   0.208   4.977
 3994TIP3    H111946   5.891   0.179   5.063
 3994TIP3    H211947   5.912   0.303   4.979
 3995TIP3   OH211948   1.705   6.067   5.859
 3995TIP3    H111949   1.681   6.031   5.944
 3995TIP3    H211950   1.639   6.033   5.798
 3996TIP3   OH211951   1.055   3.444   3.141
 3996TIP3    H111952   0.977   3.397   3.111
 3996TIP3    H211953   1.080   3.399   3.222
 3997TIP3   OH211954   6.033   1.021   0.660
 3997TIP3    H111955   6.056   0.932   0.631
 3997TIP3    H211956   6.033   1.073   0.580
 3998TIP3   OH211957   1.094   5.149   2.067
 3998TIP3    H111958   1.165   5.166   2.006
 3998TIP3    H211959   1.044   5.078   2.028
 3999TIP3   OH211960   2.516   2.486   2.254
 3999TIP3    H111961   2.582   2.420   2.277
 3999TIP3    H211962   2.564   2.553   2.206
 4000TIP3   OH211963   0.981   3.755   2.571
 4000TIP3    H111964   1.060   3.741   2.518
 4000TIP3    H211965   1.013   3.764   2.661
 4001TIP3   OH211966   5.887   4.672   5.772
 4001TIP3    H111967   5.845   4.736   5.831
 4001TIP3    H211968   5.932   4.726   5.708
 4002TIP3   OH211969   5.016   0.997   4.992
 4002TIP3    H111970   4.999   1.068   5.053
 4002TIP3    H211971   4.943   0.936   5.004
 4003TIP3   OH211972   4.878   1.156   5.174
 4003TIP3    H111973   4.865   1.114   5.259
 4003TIP3    H211974   4.888   1.249   5.194
 4004TIP3   OH211975   0.439   0.057   5.011
 4004TIP3    H111976   0.405  -0.006   4.948
 4004TIP3    H211977   0.454   0.137   4.961
 4005TIP3   OH211978   2.731   1.797   2.375
 4005TIP3    H111979   2.680   1.722   2.407
 4005TIP3    H211980   2.675   1.838   2.309
 4006TIP3   OH211981   5.881   3.401   5.445
 4006TIP3    H111982   5.790   3.432   5.438
 4006TIP3    H211983   5.906   3.422   5.534
 4007TIP3   OH211984   5.393   1.553   3.984
 4007TIP3    H111985   5.427   1.542   3.896
 4007TIP3    H211986   5.425   1.640   4.011
 4008TIP3   OH211987   2.731   3.335   0.927
 4008TIP3    H111988   2.756   3.266   0.866
 4008TIP3    H211989   2.636   3.331   0.932
 4009TIP3   OH211990   2.738   4.519   1.160
 4009TIP3    H111991   2.682   4.590   1.129
 4009TIP3    H211992   2.810   4.564   1.204
 4010TIP3   OH211993   0.525   5.249   3.996
 4010TIP3    H111994   0.559   5.253   3.907
 4010TIP3    H211995   0.542   5.159   4.024
 4011TIP3   OH211996   2.877   3.013   0.528
 4011TIP3    H111997   2.813   3.028   0.459
 4011TIP3    H211998   2.951   3.068   0.504
 4012TIP3   OH211999   4.915   0.868   4.071
 4012TIP3    H112000   4.908   0.853   4.166
 4012TIP3    H212001   4.883   0.958   4.059
 4013TIP3   OH212002   1.311   4.387   3.073
 4013TIP3    H112003   1.316   4.341   2.989
 4013TIP3    H212004   1.379   4.346   3.127
 4014TIP3   OH212005   3.063   0.742   2.383
 4014TIP3    H112006   3.078   0.727   2.289
 4014TIP3    H212007   3.127   0.809   2.406
 4015TIP3   OH212008   3.915   0.271   3.390
 4015TIP3    H112009   3.884   0.300   3.304
 4015TIP3    H212010   3.866   0.191   3.407
 4016TIP3   OH212011   3.444   6.714   3.844
 4016TIP3    H112012   3.396   6.641   3.883
 4016TIP3    H212013   3.402   6.727   3.759
 4017TIP3   OH212014   5.540   5.086   4.322
 4017TIP3    H112015   5.615   5.049   4.369
 4017TIP3    H212016   5.465   5.069   4.379
 4018TIP3   OH212017   6.825   3.105   0.540
 4018TIP3    H112018   6.822   3.196   0.571
 4018TIP3    H212019   6.791   3.109   0.451
 4019TIP3   OH212020   6.694   1.644   5.488
 4019TIP3    H112021   6.736   1.687   5.563
 4019TIP3    H212022   6.600   1.656   5.503
 4020TIP3   OH212023   2.284   0.417   0.884
 4020TIP3    H112024   2.286   0.422   0.980
 4020TIP3    H212025   2.364   0.370   0.861
 4021TIP3   OH212026   3.574   2.657   3.700
 4021TIP3    H112027   3.556   2.730   3.761
 4021TIP3    H212028   3.613   2.700   3.623
 4022TIP3   OH212029   6.319   4.305   3.955
 4022TIP3    H112030   6.308   4.399   3.943
 4022TIP3    H212031   6.258   4.266   3.892
 4023TIP3   OH212032   3.418   4.155   4.529
 4023TIP3    H112033   3.394   4.200   4.448
 4023TIP3    H212034   3.391   4.064   4.515
 4024TIP3   OH212035   5.494   5.742   4.668
 4024TIP3    H112036   5.414   5.757   4.718
 4024TIP3    H212037   5.487   5.651   4.639
 4025TIP3   OH212038   6.621   2.269   5.439
 4025TIP3    H112039   6.637   2.317   5.358
 4025TIP3    H212040   6.624   2.335   5.508
 4026TIP3   OH212041   4.065   4.164   2.697
 4026TIP3    H112042   4.042   4.141   2.606
 4026TIP3    H212043   4.152   4.203   2.691
 4027TIP3   OH212044   2.324   2.370   0.138
 4027TIP3    H112045   2.351   2.446   0.086
 4027TIP3    H212046   2.239   2.345   0.102
 4028TIP3   OH212047   4.071   0.700   2.134
 4028TIP3    H112048   4.117   0.681   2.215
 4028TIP3    H212049   4.140   0.709   2.068
 4029TIP3   OH212050   6.441   2.133   1.566
 4029TIP3    H112051   6.412   2.048   1.600
 4029TIP3    H212052   6.368   2.192   1.584
 4030TIP3   OH212053   1.466   0.232   4.838
 4030TIP3    H112054   1.386   0.271   4.806
 4030TIP3    H212055   1.492   0.287   4.913
 4031TIP3   OH212056   6.688   1.810   4.276
 4031TIP3    H112057   6.598   1.789   4.252
 4031TIP3    H212058   6.722   1.728   4.312
 4032TIP3   OH212059   4.284   0.493   0.938
 4032TIP3    H112060   4.231   0.475   1.016
 4032TIP3    H212061   4.284   0.411   0.889
 4033TIP3   OH212062   1.278   4.472   0.816
 4033TIP3    H112063   1.197   4.480   0.865
 4033TIP3    H212064   1.334   4.542   0.849
 4034TIP3   OH212065   2.489   2.462   3.180
 4034TIP3    H112066   2.470   2.529   3.114
 4034TIP3    H212067   2.584   2.452   3.177
 4035TIP3   OH212068   6.043   4.955   1.791
 4035TIP3    H112069   5.974   4.998   1.740
 4035TIP3    H212070   6.097   5.028   1.823
 4036TIP3   OH212071   6.765   4.063   3.501
 4036TIP3    H112072   6.789   3.977   3.533
 4036TIP3    H212073   6.776   4.058   3.406
 4037TIP3   OH212074   4.675   0.042   4.880
 4037TIP3    H112075   4.752   0.050   4.935
 4037TIP3    H212076   4.627   0.124   4.892
 4038TIP3   OH212077   5.240   2.822   5.780
 4038TIP3    H112078   5.170   2.883   5.757
 4038TIP3    H212079   5.321   2.866   5.751
 4039TIP3   OH212080   6.947   5.318   1.135
 4039TIP3    H112081   6.913   5.352   1.053
 4039TIP3    H212082   7.024   5.265   1.110
 4040TIP3   OH212083   3.683   2.488   3.880
 4040TIP3    H112084   3.690   2.392   3.880
 4040TIP3    H212085   3.624   2.507   3.807
 4041TIP3   OH212086   0.501   3.455   1.824
 4041TIP3    H112087   0.460   3.509   1.756
 4041TIP3    H212088   0.541   3.382   1.776
 4042TIP3   OH212089   6.364   2.010   1.973
 4042TIP3    H112090   6.344   1.959   1.894
 4042TIP3    H212091   6.460   2.014   1.976
 4043TIP3   OH212092   5.814   0.916   2.056
 4043TIP3    H112093   5.897   0.877   2.030
 4043TIP3    H212094   5.822   0.929   2.151
 4044TIP3   OH212095   2.395   6.172   0.549
 4044TIP3    H112096   2.364   6.256   0.581
 4044TIP3    H212097   2.410   6.120   0.628
 4045TIP3   OH212098   6.605   2.658   3.459
 4045TIP3    H112099   6.638   2.577   3.499
 4045TIP3    H212100   6.606   2.722   3.531
 4046TIP3   OH212101   0.153   5.160   0.760
 4046TIP3    H112102   0.202   5.079   0.752
 4046TIP3    H212103   0.216   5.223   0.796
 4047TIP3   OH212104   1.094   2.508   3.107
 4047TIP3    H112105   1.076   2.417   3.131
 4047TIP3    H212106   1.132   2.502   3.019
 4048TIP3   OH212107   3.093   2.776   3.224
 4048TIP3    H112108   3.002   2.785   3.197
 4048TIP3    H212109   3.129   2.710   3.164
 4049TIP3   OH212110   6.142   2.992   2.588
 4049TIP3    H112111   6.207   2.922   2.581
 4049TIP3    H212112   6.097   2.992   2.504
 4050TIP3   OH212113   6.395   4.899   3.264
 4050TIP3    H112114   6.446   4.871   3.340
 4050TIP3    H212115   6.349   4.820   3.236
 4051TIP3   OH212116   3.216   5.198   3.567
 4051TIP3    H112117   3.143   5.246   3.528
 4051TIP3    H212118   3.175   5.140   3.632
 4052TIP3   OH212119   3.891   0.618   2.731
 4052TIP3    H112120   3.935   0.543   2.772
 4052TIP3    H212121   3.841   0.658   2.802
 4053TIP3   OH212122   6.805   2.905   2.588
 4053TIP3    H112123   6.845   2.856   2.515
 4053TIP3    H212124   6.792   2.839   2.656
 4054TIP3   OH212125   0.552   1.087   0.777
 4054TIP3    H112126   0.596   1.007   0.807
 4054TIP3    H212127   0.559   1.147   0.851
 4055TIP3   OH212128   2.992   1.852   3.951
 4055TIP3    H112129   2.960   1.937   3.921
 4055TIP3    H212130   3.026   1.810   3.872
 4056TIP3   OH212131   6.284   1.664   2.352
 4056TIP3    H112132   6.249   1.670   2.441
 4056TIP3    H212133   6.217   1.706   2.297
 4057TIP3   OH212134   7.022   2.429   4.968
 4057TIP3    H112135   7.026   2.337   4.941
 4057TIP3    H212136   6.928   2.447   4.976
 4058TIP3   OH212137   1.898   5.305   3.682
 4058TIP3    H112138   1.928   5.260   3.604
 4058TIP3    H212139   1.844   5.377   3.650
 4059TIP3   OH212140   6.069   6.378   5.577
 4059TIP3    H112141   6.077   6.288   5.545
 4059TIP3    H212142   6.075   6.432   5.498
 4060TIP3   OH212143   0.266   5.649   0.641
 4060TIP3    H112144   0.244   5.698   0.562
 4060TIP3    H212145   0.348   5.604   0.619
 4061TIP3   OH212146   3.136   1.003   3.528
 4061TIP3    H112147   3.091   1.083   3.555
 4061TIP3    H212148   3.228   1.029   3.519
 4062TIP3   OH212149   6.071   1.981   3.779
 4062TIP3    H112150   6.030   2.057   3.736
 4062TIP3    H212151   6.164   1.990   3.759
 4063TIP3   OH212152   3.638   4.774   2.347
 4063TIP3    H112153   3.668   4.853   2.391
 4063TIP3    H212154   3.543   4.777   2.352
 4064TIP3   OH212155   2.024   1.178   3.743
 4064TIP3    H112156   2.063   1.196   3.828
 4064TIP3    H212157   1.931   1.197   3.755
 4065TIP3   OH212158   2.308   6.197   5.021
 4065TIP3    H112159   2.292   6.121   5.078
 4065TIP3    H212160   2.234   6.255   5.039
 4066TIP3   OH212161   7.023   5.864   1.019
 4066TIP3    H112162   7.056   5.789   1.068
 4066TIP3    H212163   7.091   5.881   0.954
 4067TIP3   OH212164   0.365   5.771   4.745
 4067TIP3    H112165   0.398   5.851   4.703
 4067TIP3    H212166   0.373   5.703   4.678
 4068TIP3   OH212167   3.099   4.680   0.937
 4068TIP3    H112168   3.057   4.596   0.920
 4068TIP3    H212169   3.164   4.661   1.005
 4069TIP3   OH212170   5.511   4.883   1.671
 4069TIP3    H112171   5.480   4.953   1.615
 4069TIP3    H212172   5.585   4.921   1.719
 4070TIP3   OH212173   2.867   1.801   3.017
 4070TIP3    H112174   2.816   1.882   3.016
 4070TIP3    H212175   2.877   1.780   3.110
 4071TIP3   OH212176   0.484   3.047   1.156
 4071TIP3    H112177   0.429   3.114   1.115
 4071TIP3    H212178   0.454   3.043   1.247
 4072TIP3   OH212179   3.936   3.495   2.781
 4072TIP3    H112180   3.849   3.460   2.802
 4072TIP3    H212181   3.928   3.589   2.796
 4073TIP3   OH212182   4.493   4.852   1.500
 4073TIP3    H112183   4.589   4.851   1.497
 4073TIP3    H212184   4.467   4.882   1.413
 4074TIP3   OH212185   3.286   4.062   1.330
 4074TIP3    H112186   3.249   4.097   1.411
 4074TIP3    H212187   3.365   4.114   1.315
 4075TIP3   OH212188   0.198   0.778   0.912
 4075TIP3    H112189   0.137   0.722   0.960
 4075TIP3    H212190   0.147   0.814   0.840
 4076TIP3   OH212191   5.325   3.557   2.055
 4076TIP3    H112192   5.373   3.475   2.045
 4076TIP3    H212193   5.249   3.548   1.998
 4077TIP3   OH212194   2.420   2.987   2.226
 4077TIP3    H112195   2.456   2.953   2.144
 4077TIP3    H212196   2.405   3.080   2.209
 4078TIP3   OH212197   6.286   1.006   3.702
 4078TIP3    H112198   6.315   0.986   3.792
 4078TIP3    H212199   6.214   1.068   3.713
 4079TIP3   OH212200   0.134   4.811   4.809
 4079TIP3    H112201   0.175   4.732   4.774
 4079TIP3    H212202   0.206   4.872   4.825
 4080TIP3   OH212203   4.137   0.711   0.811
 4080TIP3    H112204   4.073   0.729   0.880
 4080TIP3    H212205   4.090   0.658   0.747
 4081TIP3   OH212206   5.577   2.836   1.072
 4081TIP3    H112207   5.553   2.747   1.043
 4081TIP3    H212208   5.623   2.874   0.997
 4082TIP3   OH212209   3.335   4.116   5.428
 4082TIP3    H112210   3.291   4.195   5.397
 4082TIP3    H212211   3.364   4.137   5.517
 4083TIP3   OH212212   3.945   4.359   2.830
 4083TIP3    H112213   3.987   4.287   2.784
 4083TIP3    H212214   3.958   4.340   2.923
 4084TIP3   OH212215   1.641   6.692   4.887
 4084TIP3    H112216   1.629   6.671   4.794
 4084TIP3    H212217   1.628   6.787   4.891
 4085TIP3   OH212218   4.535   2.361   0.904
 4085TIP3    H112219   4.504   2.343   0.815
 4085TIP3    H212220   4.615   2.412   0.891
 4086TIP3   OH212221   5.249   1.056   5.335
 4086TIP3    H112222   5.212   1.144   5.336
 4086TIP3    H212223   5.186   1.005   5.284
 4087TIP3   OH212224   5.096   1.758   2.608
 4087TIP3    H112225   5.020   1.702   2.588
 4087TIP3    H212226   5.065   1.816   2.678
 4088TIP3   OH212227   7.170   5.493   2.234
 4088TIP3    H112228   7.146   5.575   2.192
 4088TIP3    H212229   7.247   5.462   2.186
 4089TIP3   OH212230   7.068   4.701   2.578
 4089TIP3    H112231   6.991   4.735   2.623
 4089TIP3    H212232   7.062   4.606   2.587
 4090TIP3   OH212233   1.171   6.497   0.406
 4090TIP3    H112234   1.089   6.449   0.397
 4090TIP3    H212235   1.186   6.534   0.320
 4091TIP3   OH212236   1.056   4.838   5.236
 4091TIP3    H112237   0.981   4.778   5.230
 4091TIP3    H212238   1.102   4.809   5.315
 4092TIP3   OH212239   3.213   3.184   3.301
 4092TIP3    H112240   3.301   3.204   3.332
 4092TIP3    H212241   3.171   3.139   3.374
 4093TIP3   OH212242   0.018   4.641   1.487
 4093TIP3    H112243   0.097   4.647   1.434
 4093TIP3    H212244   0.037   4.573   1.552
 4094TIP3   OH212245   1.247   2.962   2.892
 4094TIP3    H112246   1.249   3.009   2.808
 4094TIP3    H212247   1.328   2.911   2.893
 4095TIP3   OH212248   2.320   3.660   1.064
 4095TIP3    H112249   2.318   3.658   1.160
 4095TIP3    H212250   2.381   3.590   1.040
 4096TIP3   OH212251   0.162   1.827   5.105
 4096TIP3    H112252   0.150   1.857   5.015
 4096TIP3    H212253   0.245   1.866   5.132
 4097TIP3   OH212254   3.881   4.370   2.510
 4097TIP3    H112255   3.847   4.449   2.468
 4097TIP3    H212256   3.856   4.379   2.602
 4098TIP3   OH212257   2.858   6.266   3.126
 4098TIP3    H112258   2.948   6.248   3.096
 4098TIP3    H212259   2.811   6.185   3.107
 4099TIP3   OH212260   0.835   0.777   1.120
 4099TIP3    H112261   0.818   0.869   1.103
 4099TIP3    H212262   0.756   0.745   1.164
 4100TIP3   OH212263   4.878   1.441   3.639
 4100TIP3    H112264   4.904   1.358   3.601
 4100TIP3    H212265   4.798   1.465   3.593
 4101TIP3   OH212266   2.113   6.346   2.619
 4101TIP3    H112267   2.025   6.383   2.623
 4101TIP3    H212268   2.145   6.350   2.710
 4102TIP3   OH212269   3.372   4.120   3.024
 4102TIP3    H112270   3.464   4.129   2.999
 4102TIP3    H212271   3.372   4.049   3.088
 4103TIP3   OH212272   6.183   4.349   1.352
 4103TIP3    H112273   6.121   4.384   1.417
 4103TIP3    H212274   6.129   4.295   1.294
 4104TIP3   OH212275   3.628   2.505   5.348
 4104TIP3    H112276   3.627   2.561   5.270
 4104TIP3    H212277   3.583   2.557   5.415
 4105TIP3   OH212278   3.753   4.389   4.440
 4105TIP3    H112279   3.755   4.405   4.535
 4105TIP3    H212280   3.671   4.430   4.411
 4106TIP3   OH212281   2.820   2.545   3.910
 4106TIP3    H112282   2.807   2.588   3.825
 4106TIP3    H212283   2.851   2.614   3.968
 4107TIP3   OH212284   5.377   4.307   1.923
 4107TIP3    H112285   5.428   4.243   1.971
 4107TIP3    H212286   5.429   4.388   1.927
 4108TIP3   OH212287   0.865   3.489   4.999
 4108TIP3    H112288   0.927   3.417   4.983
 4108TIP3    H212289   0.857   3.532   4.914
 4109TIP3   OH212290   4.783   5.840   3.576
 4109TIP3    H112291   4.730   5.796   3.511
 4109TIP3    H212292   4.775   5.786   3.655
 4110TIP3   OH212293   5.348   3.200   5.810
 4110TIP3    H112294   5.279   3.235   5.866
 4110TIP3    H212295   5.361   3.268   5.743
 4111TIP3   OH212296   2.678   6.336   3.339
 4111TIP3    H112297   2.743   6.327   3.268
 4111TIP3    H212298   2.730   6.360   3.415
 4112TIP3   OH212299   1.113   0.222   3.090
 4112TIP3    H112300   1.093   0.306   3.130
 4112TIP3    H212301   1.065   0.223   3.007
 4113TIP3   OH212302   2.836   5.646   0.806
 4113TIP3    H112303   2.923   5.617   0.779
 4113TIP3    H212304   2.830   5.737   0.775
 4114TIP3   OH212305   6.394   4.623   5.612
 4114TIP3    H112306   6.300   4.622   5.592
 4114TIP3    H212307   6.434   4.665   5.536
 4115TIP3   OH212308   1.460   3.922   3.331
 4115TIP3    H112309   1.506   3.865   3.270
 4115TIP3    H212310   1.429   3.864   3.400
 4116TIP3   OH212311   5.719   6.293   2.532
 4116TIP3    H112312   5.763   6.296   2.617
 4116TIP3    H212313   5.686   6.382   2.519
 4117TIP3   OH212314   4.794   3.536   5.861
 4117TIP3    H112315   4.735   3.537   5.936
 4117TIP3    H212316   4.807   3.443   5.842
 4118TIP3   OH212317   6.829   2.468   3.924
 4118TIP3    H112318   6.774   2.399   3.888
 4118TIP3    H212319   6.830   2.535   3.856
 4119TIP3   OH212320   5.212   5.189   2.265
 4119TIP3    H112321   5.301   5.154   2.275
 4119TIP3    H212322   5.169   5.127   2.206
 4120TIP3   OH212323   2.854   6.544   4.597
 4120TIP3    H112324   2.759   6.550   4.596
 4120TIP3    H212325   2.880   6.593   4.675
 4121TIP3   OH212326   5.502   0.099   3.514
 4121TIP3    H112327   5.551   0.180   3.530
 4121TIP3    H212328   5.412   0.128   3.500
 4122TIP3   OH212329   5.324   5.579   0.058
 4122TIP3    H112330   5.292   5.544  -0.025
 4122TIP3    H212331   5.340   5.672   0.041
 4123TIP3   OH212332   5.083   5.960   4.635
 4123TIP3    H112333   5.022   6.004   4.694
 4123TIP3    H212334   5.085   6.016   4.557
 4124TIP3   OH212335   6.423   3.486   2.444
 4124TIP3    H112336   6.461   3.443   2.368
 4124TIP3    H212337   6.389   3.414   2.498
 4125TIP3   OH212338   3.098   4.259   5.807
 4125TIP3    H112339   3.052   4.245   5.890
 4125TIP3    H212340   3.101   4.354   5.796
 4126TIP3   OH212341   1.267   6.617   2.300
 4126TIP3    H112342   1.256   6.585   2.390
 4126TIP3    H212343   1.180   6.648   2.275
 4127TIP3   OH212344   1.962   1.562   2.433
 4127TIP3    H112345   2.024   1.569   2.505
 4127TIP3    H212346   1.915   1.481   2.449
 4128TIP3   OH212347   2.807   3.083   1.672
 4128TIP3    H112348   2.798   2.996   1.634
 4128TIP3    H212349   2.718   3.108   1.696
 4129TIP3   OH212350   4.791   5.259   5.131
 4129TIP3    H112351   4.709   5.235   5.088
 4129TIP3    H212352   4.808   5.187   5.192
 4130TIP3   OH212353   1.279   6.655   3.896
 4130TIP3    H112354   1.231   6.727   3.855
 4130TIP3    H212355   1.283   6.679   3.989
 4131TIP3   OH212356   3.934   1.019   5.349
 4131TIP3    H112357   3.969   0.964   5.419
 4131TIP3    H212358   3.972   1.105   5.364
 4132TIP3   OH212359   6.650   5.264   5.079
 4132TIP3    H112360   6.627   5.353   5.053
 4132TIP3    H212361   6.574   5.212   5.054
 4133TIP3   OH212362   6.820   1.415   0.383
 4133TIP3    H112363   6.865   1.443   0.463
 4133TIP3    H212364   6.815   1.320   0.391
 4134TIP3   OH212365   0.677   0.831   0.412
 4134TIP3    H112366   0.622   0.866   0.482
 4134TIP3    H212367   0.757   0.882   0.417
 4135TIP3   OH212368   4.880   6.220   1.146
 4135TIP3    H112369   4.788   6.205   1.125
 4135TIP3    H212370   4.878   6.284   1.217
 4136TIP3   OH212371   1.151   1.942   3.603
 4136TIP3    H112372   1.129   1.947   3.509
 4136TIP3    H212373   1.067   1.925   3.645
 4137TIP3   OH212374   5.915   4.054   4.601
 4137TIP3    H112375   5.915   4.122   4.534
 4137TIP3    H212376   5.995   4.069   4.650
 4138TIP3   OH212377   4.750   1.542   0.075
 4138TIP3    H112378   4.823   1.512   0.130
 4138TIP3    H212379   4.680   1.559   0.138
 4139TIP3   OH212380   4.331   2.103   1.715
 4139TIP3    H112381   4.312   2.197   1.723
 4139TIP3    H212382   4.275   2.062   1.780
 4140TIP3   OH212383   3.686   2.256   4.273
 4140TIP3    H112384   3.626   2.314   4.227
 4140TIP3    H212385   3.650   2.250   4.362
 4141TIP3   OH212386   1.167   2.704   4.006
 4141TIP3    H112387   1.240   2.761   4.032
 4141TIP3    H212388   1.197   2.663   3.925
 4142TIP3   OH212389   0.869   0.181   2.428
 4142TIP3    H112390   0.848   0.274   2.417
 4142TIP3    H212391   0.864   0.144   2.340
 4143TIP3   OH212392   4.130   2.786   1.770
 4143TIP3    H112393   4.062   2.852   1.757
 4143TIP3    H212394   4.118   2.725   1.697
 4144TIP3   OH212395   0.560   2.907   0.359
 4144TIP3    H112396   0.546   2.959   0.439
 4144TIP3    H212397   0.651   2.879   0.365
 4145TIP3   OH212398   6.867   4.512   0.482
 4145TIP3    H112399   6.942   4.536   0.538
 4145TIP3    H212400   6.888   4.425   0.449
 4146TIP3   OH212401   4.513   1.161   0.470
 4146TIP3    H112402   4.429   1.131   0.503
 4146TIP3    H212403   4.560   1.082   0.445
 4147TIP3   OH212404   6.628   4.644   1.666
 4147TIP3    H112405   6.719   4.632   1.640
 4147TIP3    H212406   6.630   4.719   1.726
 4148TIP3   OH212407   2.092   4.107   0.778
 4148TIP3    H112408   2.166   4.154   0.815
 4148TIP3    H212409   2.082   4.143   0.690
 4149TIP3   OH212410   0.089   2.760   1.962
 4149TIP3    H112411   0.156   2.758   2.030
 4149TIP3    H212412   0.113   2.835   1.907
 4150TIP3   OH212413   5.826   5.878   3.462
 4150TIP3    H112414   5.742   5.835   3.446
 4150TIP3    H212415   5.861   5.895   3.374
 4151TIP3   OH212416   6.486   5.631   2.069
 4151TIP3    H112417   6.483   5.595   2.157
 4151TIP3    H212418   6.500   5.725   2.081
 4152TIP3   OH212419   6.144   1.995   0.224
 4152TIP3    H112420   6.166   1.993   0.317
 4152TIP3    H212421   6.049   1.981   0.222
 4153TIP3   OH212422   2.810   3.383   3.132
 4153TIP3    H112423   2.780   3.360   3.220
 4153TIP3    H212424   2.864   3.309   3.105
 4154TIP3   OH212425   3.317   1.763   2.967
 4154TIP3    H112426   3.237   1.769   2.914
 4154TIP3    H212427   3.308   1.833   3.031
 4155TIP3   OH212428   3.527   0.729   3.077
 4155TIP3    H112429   3.479   0.770   3.149
 4155TIP3    H212430   3.530   0.636   3.100
 4156TIP3   OH212431   7.113   2.162   0.301
 4156TIP3    H112432   7.201   2.125   0.294
 4156TIP3    H212433   7.086   2.144   0.391
 4157TIP3   OH212434   1.376   3.077   2.353
 4157TIP3    H112435   1.299   3.092   2.297
 4157TIP3    H212436   1.432   3.020   2.300
 4158TIP3   OH212437   6.112   0.605   0.981
 4158TIP3    H112438   6.048   0.604   1.053
 4158TIP3    H212439   6.064   0.645   0.908
 4159TIP3   OH212440   3.562   1.218   3.016
 4159TIP3    H112441   3.528   1.242   3.102
 4159TIP3    H212442   3.656   1.234   3.023
 4160TIP3   OH212443   3.682   5.168   5.514
 4160TIP3    H112444   3.777   5.156   5.522
 4160TIP3    H212445   3.647   5.140   5.598
 4161TIP3   OH212446   5.285   6.572   1.932
 4161TIP3    H112447   5.359   6.619   1.893
 4161TIP3    H212448   5.298   6.581   2.027
 4162TIP3   OH212449   2.874   5.409   1.545
 4162TIP3    H112450   2.831   5.381   1.464
 4162TIP3    H212451   2.950   5.460   1.515
 4163TIP3   OH212452   0.577   6.211   0.631
 4163TIP3    H112453   0.615   6.123   0.632
 4163TIP3    H212454   0.647   6.267   0.597
 4164TIP3   OH212455   6.981   3.058   4.873
 4164TIP3    H112456   6.886   3.066   4.875
 4164TIP3    H212457   6.998   2.985   4.814
 4165TIP3   OH212458   6.708   1.999   5.399
 4165TIP3    H112459   6.760   1.983   5.478
 4165TIP3    H212460   6.650   2.071   5.423
 4166TIP3   OH212461   1.222   5.071   1.532
 4166TIP3    H112462   1.190   5.144   1.478
 4166TIP3    H212463   1.170   5.076   1.612
 4167TIP3   OH212464   3.964   0.121   3.972
 4167TIP3    H112465   3.973   0.211   4.002
 4167TIP3    H212466   4.054   0.087   3.969
 4168TIP3   OH212467   6.669   2.200   3.765
 4168TIP3    H112468   6.705   2.111   3.761
 4168TIP3    H212469   6.587   2.191   3.813
 4169TIP3   OH212470   1.960   2.445   2.674
 4169TIP3    H112471   2.053   2.464   2.660
 4169TIP3    H212472   1.959   2.354   2.704
 4170TIP3   OH212473   5.348   2.967   2.321
 4170TIP3    H112474   5.390   2.882   2.336
 4170TIP3    H212475   5.255   2.952   2.341
 4171TIP3   OH212476   3.461   5.404   2.739
 4171TIP3    H112477   3.382   5.414   2.686
 4171TIP3    H212478   3.435   5.345   2.809
 4172TIP3   OH212479   6.510   1.429   0.352
 4172TIP3    H112480   6.572   1.363   0.320
 4172TIP3    H212481   6.534   1.509   0.305
 4173TIP3   OH212482   2.447   2.067   0.888
 4173TIP3    H112483   2.493   2.123   0.951
 4173TIP3    H212484   2.517   2.013   0.849
 4174TIP3   OH212485   1.804   5.375   4.314
 4174TIP3    H112486   1.866   5.372   4.387
 4174TIP3    H212487   1.747   5.449   4.334
 4175TIP3   OH212488   5.004   1.609   0.476
 4175TIP3    H112489   4.965   1.625   0.562
 4175TIP3    H212490   5.095   1.587   0.495
 4176TIP3   OH212491   0.210   3.178   3.178
 4176TIP3    H112492   0.234   3.091   3.209
 4176TIP3    H212493   0.194   3.166   3.084
 4177TIP3   OH212494   5.816   4.687   4.681
 4177TIP3    H112495   5.762   4.714   4.607
 4177TIP3    H212496   5.763   4.709   4.758
 4178TIP3   OH212497   1.234   0.498   0.895
 4178TIP3    H112498   1.275   0.584   0.888
 4178TIP3    H212499   1.284   0.443   0.835
 4179TIP3   OH212500   6.653   1.777   4.630
 4179TIP3    H112501   6.643   1.871   4.617
 4179TIP3    H212502   6.595   1.756   4.703
 4180TIP3   OH212503   5.247   0.806   2.068
 4180TIP3    H112504   5.321   0.831   2.012
 4180TIP3    H212505   5.170   0.837   2.021
 4181TIP3   OH212506   2.553   4.751   4.044
 4181TIP3    H112507   2.614   4.679   4.029
 4181TIP3    H212508   2.480   4.710   4.091
 4182TIP3   OH212509   0.036   3.676   5.116
 4182TIP3    H112510   0.052   3.720   5.033
 4182TIP3    H212511  -0.053   3.702   5.140
 4183TIP3   OH212512   1.015   6.564   5.780
 4183TIP3    H112513   1.094   6.556   5.727
 4183TIP3    H212514   0.959   6.491   5.753
 4184TIP3   OH212515   3.787   4.496   2.203
 4184TIP3    H112516   3.869   4.488   2.154
 4184TIP3    H212517   3.814   4.533   2.287
 4185TIP3   OH212518   5.444   5.223   2.732
 4185TIP3    H112519   5.462   5.303   2.683
 4185TIP3    H212520   5.531   5.191   2.757
 4186TIP3   OH212521   1.470   0.444   5.029
 4186TIP3    H112522   1.564   0.438   5.048
 4186TIP3    H212523   1.446   0.533   5.054
 4187TIP3   OH212524   3.686   2.130   0.935
 4187TIP3    H112525   3.592   2.114   0.942
 4187TIP3    H212526   3.727   2.053   0.975
 4188TIP3   OH212527   7.045   6.484   3.581
 4188TIP3    H112528   7.117   6.456   3.524
 4188TIP3    H212529   7.000   6.402   3.603
 4189TIP3   OH212530   5.615   4.845   0.817
 4189TIP3    H112531   5.642   4.936   0.806
 4189TIP3    H212532   5.696   4.795   0.817
 4190TIP3   OH212533   2.265   6.569   1.724
 4190TIP3    H112534   2.311   6.568   1.640
 4190TIP3    H212535   2.240   6.478   1.739
 4191TIP3   OH212536   3.617   5.241   0.126
 4191TIP3    H112537   3.565   5.232   0.206
 4191TIP3    H212538   3.646   5.151   0.107
 4192TIP3   OH212539   4.946   1.646   5.528
 4192TIP3    H112540   5.038   1.644   5.501
 4192TIP3    H212541   4.929   1.559   5.563
 4193TIP3   OH212542   2.197   1.958   4.425
 4193TIP3    H112543   2.165   1.958   4.335
 4193TIP3    H212544   2.247   2.039   4.433
 4194TIP3   OH212545   3.812   3.938   4.235
 4194TIP3    H112546   3.797   4.032   4.249
 4194TIP3    H212547   3.752   3.895   4.296
 4195TIP3   OH212548   1.748   2.684   3.363
 4195TIP3    H112549   1.830   2.725   3.390
 4195TIP3    H212550   1.701   2.753   3.316
 4196TIP3   OH212551   4.772   0.664   1.857
 4196TIP3    H112552   4.758   0.756   1.835
 4196TIP3    H212553   4.838   0.635   1.794
 4197TIP3   OH212554   0.076   3.446   2.921
 4197TIP3    H112555   0.166   3.434   2.951
 4197TIP3    H212556   0.050   3.531   2.957
 4198TIP3   OH212557   4.470   3.090   0.137
 4198TIP3    H112558   4.436   3.130   0.057
 4198TIP3    H212559   4.504   3.164   0.188
 4199TIP3   OH212560   5.567   1.620   2.595
 4199TIP3    H112561   5.505   1.551   2.620
 4199TIP3    H212562   5.520   1.701   2.613
 4200TIP3   OH212563   4.202   6.414   1.014
 4200TIP3    H112564   4.194   6.355   0.939
 4200TIP3    H212565   4.122   6.400   1.064
 4201TIP3   OH212566   3.448   5.547   4.067
 4201TIP3    H112567   3.362   5.506   4.066
 4201TIP3    H212568   3.431   5.639   4.047
 4202TIP3   OH212569   0.329   4.412   3.820
 4202TIP3    H112570   0.421   4.424   3.798
 4202TIP3    H212571   0.300   4.340   3.765
 4203TIP3   OH212572   4.256   3.953   4.110
 4203TIP3    H112573   4.225   3.883   4.168
 4203TIP3    H212574   4.226   4.034   4.151
 4204TIP3   OH212575   1.223   0.386   5.104
 4204TIP3    H112576   1.278   0.412   5.178
 4204TIP3    H212577   1.284   0.382   5.030
 4205TIP3   OH212578   4.835   2.059   2.131
 4205TIP3    H112579   4.922   2.058   2.170
 4205TIP3    H212580   4.836   1.986   2.068
 4206TIP3   OH212581   6.352   4.889   3.929
 4206TIP3    H112582   6.346   4.854   4.018
 4206TIP3    H212583   6.428   4.946   3.931
 4207TIP3   OH212584   5.557   5.536   4.415
 4207TIP3    H112585   5.642   5.580   4.413
 4207TIP3    H212586   5.578   5.444   4.428
 4208TIP3   OH212587   5.199   5.379   0.971
 4208TIP3    H112588   5.120   5.364   0.918
 4208TIP3    H212589   5.184   5.465   1.011
 4209TIP3   OH212590   2.513   1.274   0.781
 4209TIP3    H112591   2.601   1.313   0.777
 4209TIP3    H212592   2.517   1.215   0.856
 4210TIP3   OH212593   0.769   0.820   4.858
 4210TIP3    H112594   0.833   0.875   4.904
 4210TIP3    H212595   0.803   0.731   4.865
 4211TIP3   OH212596   2.127   0.604   3.355
 4211TIP3    H112597   2.149   0.545   3.282
 4211TIP3    H212598   2.159   0.689   3.328
 4212TIP3   OH212599   0.710   3.739   3.090
 4212TIP3    H112600   0.734   3.648   3.075
 4212TIP3    H212601   0.661   3.738   3.172
 4213TIP3   OH212602   3.540   3.410   3.101
 4213TIP3    H112603   3.582   3.342   3.155
 4213TIP3    H212604   3.529   3.369   3.015
 4214TIP3   OH212605   6.254   2.152   3.957
 4214TIP3    H112606   6.180   2.205   3.927
 4214TIP3    H212607   6.293   2.118   3.877
 4215TIP3   OH212608   0.319   3.968   0.488
 4215TIP3    H112609   0.272   4.005   0.414
 4215TIP3    H212610   0.270   3.889   0.511
 4216TIP3   OH212611   3.425   0.226   1.893
 4216TIP3    H112612   3.490   0.238   1.824
 4216TIP3    H212613   3.341   0.230   1.847
 4217TIP3   OH212614   5.841   6.665   0.064
 4217TIP3    H112615   5.919   6.672   0.009
 4217TIP3    H212616   5.784   6.605   0.015
 4218TIP3   OH212617   1.801   6.511   0.363
 4218TIP3    H112618   1.820   6.434   0.416
 4218TIP3    H212619   1.710   6.532   0.382
 4219TIP3   OH212620   3.896   4.405   4.017
 4219TIP3    H112621   3.942   4.456   4.083
 4219TIP3    H212622   3.862   4.470   3.956
 4220TIP3   OH212623   3.709   4.483   0.932
 4220TIP3    H112624   3.738   4.395   0.909
 4220TIP3    H212625   3.787   4.537   0.921
 4221TIP3   OH212626   3.608   5.725   3.701
 4221TIP3    H112627   3.619   5.820   3.700
 4221TIP3    H212628   3.526   5.711   3.749
 4222TIP3   OH212629   6.087   4.796   3.295
 4222TIP3    H112630   6.073   4.726   3.231
 4222TIP3    H212631   6.104   4.751   3.377
 4223TIP3   OH212632   2.911   0.048   3.852
 4223TIP3    H112633   2.928  -0.010   3.779
 4223TIP3    H212634   2.924   0.136   3.817
 4224TIP3   OH212635   5.290   6.608   3.759
 4224TIP3    H112636   5.234   6.532   3.745
 4224TIP3    H212637   5.368   6.572   3.803
 4225TIP3   OH212638   1.774   1.701   4.869
 4225TIP3    H112639   1.775   1.717   4.774
 4225TIP3    H212640   1.812   1.780   4.907
 4226TIP3   OH212641   2.616   3.763   5.673
 4226TIP3    H112642   2.702   3.795   5.702
 4226TIP3    H212643   2.578   3.836   5.626
 4227TIP3   OH212644   2.484   1.664   0.639
 4227TIP3    H112645   2.436   1.718   0.576
 4227TIP3    H212646   2.428   1.589   0.654
 4228TIP3   OH212647   5.626   4.641   3.833
 4228TIP3    H112648   5.638   4.550   3.807
 4228TIP3    H212649   5.638   4.691   3.752
 4229TIP3   OH212650   4.217   0.762   4.317
 4229TIP3    H112651   4.240   0.709   4.241
 4229TIP3    H212652   4.159   0.830   4.283
 4230TIP3   OH212653   0.328   6.806   4.611
 4230TIP3    H112654   0.279   6.887   4.626
 4230TIP3    H212655   0.313   6.753   4.689
 4231TIP3   OH212656   2.613   1.787   1.575
 4231TIP3    H112657   2.545   1.851   1.595
 4231TIP3    H212658   2.638   1.751   1.660
 4232TIP3   OH212659   3.889   3.662   5.781
 4232TIP3    H112660   3.880   3.732   5.716
 4232TIP3    H212661   3.849   3.586   5.738
 4233TIP3   OH212662   0.275   4.620   4.687
 4233TIP3    H112663   0.294   4.534   4.725
 4233TIP3    H212664   0.194   4.607   4.637
 4234TIP3   OH212665   0.471   0.198   1.353
 4234TIP3    H112666   0.389   0.171   1.397
 4234TIP3    H212667   0.447   0.275   1.302
 4235TIP3   OH212668   0.916   2.134   5.271
 4235TIP3    H112669   0.930   2.041   5.286
 4235TIP3    H212670   1.004   2.169   5.253
 4236TIP3   OH212671   0.777   5.811  -0.055
 4236TIP3    H112672   0.849   5.793   0.006
 4236TIP3    H212673   0.698   5.805  -0.001
 4237TIP3   OH212674   1.643   0.910   1.818
 4237TIP3    H112675   1.735   0.934   1.821
 4237TIP3    H212676   1.636   0.835   1.877
 4238TIP3   OH212677   1.723   2.870   0.188
 4238TIP3    H112678   1.723   2.924   0.267
 4238TIP3    H212679   1.632   2.840   0.180
 4239TIP3   OH212680   4.464   6.027   0.326
 4239TIP3    H112681   4.508   5.964   0.384
 4239TIP3    H212682   4.371   6.015   0.345
 4240TIP3   OH212683   7.042   3.810   3.133
 4240TIP3    H112684   7.008   3.896   3.109
 4240TIP3    H212685   6.965   3.756   3.146
 4241TIP3   OH212686   6.827   5.972   5.444
 4241TIP3    H112687   6.834   5.944   5.535
 4241TIP3    H212688   6.733   5.984   5.430
 4242TIP3   OH212689   5.059   3.995   2.424
 4242TIP3    H112690   5.116   3.999   2.347
 4242TIP3    H212691   5.118   4.009   2.498
 4243TIP3   OH212692   3.567   0.003   5.244
 4243TIP3    H112693   3.588   0.006   5.151
 4243TIP3    H212694   3.534   0.091   5.265
 4244TIP3   OH212695   0.717   2.416   1.357
 4244TIP3    H112696   0.697   2.354   1.427
 4244TIP3    H212697   0.641   2.473   1.353
 4245TIP3   OH212698   2.741   0.191   5.470
 4245TIP3    H112699   2.757   0.212   5.378
 4245TIP3    H212700   2.734   0.276   5.513
 4246TIP3   OH212701   5.238   0.508   2.640
 4246TIP3    H112702   5.241   0.423   2.596
 4246TIP3    H212703   5.321   0.549   2.619
 4247TIP3   OH212704   1.564   0.184   2.712
 4247TIP3    H112705   1.544   0.248   2.779
 4247TIP3    H212706   1.632   0.225   2.659
 4248TIP3   OH212707   5.919   3.183   3.141
 4248TIP3    H112708   5.914   3.269   3.182
 4248TIP3    H212709   5.893   3.198   3.050
 4249TIP3   OH212710   3.533   0.277   5.295
 4249TIP3    H112711   3.499   0.359   5.257
 4249TIP3    H212712   3.456   0.233   5.330
 4250TIP3   OH212713   5.466   3.808   2.170
 4250TIP3    H112714   5.552   3.768   2.161
 4250TIP3    H212715   5.411   3.761   2.107
 4251TIP3   OH212716   2.931   2.876   3.810
 4251TIP3    H112717   3.005   2.936   3.815
 4251TIP3    H212718   2.919   2.845   3.899
 4252TIP3   OH212719   1.091  -0.021   1.656
 4252TIP3    H112720   1.132   0.055   1.614
 4252TIP3    H212721   1.099  -0.003   1.750
 4253TIP3   OH212722   0.557   2.561   4.025
 4253TIP3    H112723   0.549   2.654   4.002
 4253TIP3    H212724   0.647   2.538   4.000
 4254TIP3   OH212725   6.665   4.613   5.742
 4254TIP3    H112726   6.575   4.582   5.731
 4254TIP3    H212727   6.674   4.683   5.677
 4255TIP3   OH212728   3.946   6.709   4.951
 4255TIP3    H112729   4.013   6.663   5.002
 4255TIP3    H212730   3.905   6.768   5.013
 4256TIP3   OH212731   2.463   5.468   0.687
 4256TIP3    H112732   2.493   5.503   0.603
 4256TIP3    H212733   2.480   5.374   0.682
 4257TIP3   OH212734   5.882   3.056   4.926
 4257TIP3    H112735   5.867   3.148   4.907
 4257TIP3    H212736   5.952   3.055   4.991
 4258TIP3   OH212737   2.487   5.941   3.844
 4258TIP3    H112738   2.572   5.933   3.801
 4258TIP3    H212739   2.427   5.891   3.788
 4259TIP3   OH212740   5.760   4.772   5.404
 4259TIP3    H112741   5.680   4.731   5.438
 4259TIP3    H212742   5.739   4.790   5.312
 4260TIP3   OH212743   0.763   3.106   1.034
 4260TIP3    H112744   0.731   3.121   0.946
 4260TIP3    H212745   0.686   3.111   1.090
 4261TIP3   OH212746   4.744   2.314   4.976
 4261TIP3    H112747   4.790   2.293   4.894
 4261TIP3    H212748   4.734   2.229   5.020
 4262TIP3   OH212749   4.564   0.841   0.883
 4262TIP3    H112750   4.594   0.883   0.964
 4262TIP3    H212751   4.566   0.911   0.817
 4263TIP3   OH212752   6.601   6.309   2.867
 4263TIP3    H112753   6.575   6.399   2.847
 4263TIP3    H212754   6.519   6.261   2.874
 4264TIP3   OH212755   4.762   2.745   5.620
 4264TIP3    H112756   4.783   2.804   5.548
 4264TIP3    H212757   4.841   2.693   5.633
 4265TIP3   OH212758   5.898   5.183   3.064
 4265TIP3    H112759   5.904   5.240   3.141
 4265TIP3    H212760   5.860   5.101   3.097
 4266TIP3   OH212761   5.453   1.758   3.596
 4266TIP3    H112762   5.503   1.785   3.519
 4266TIP3    H212763   5.416   1.839   3.630
 4267TIP3   OH212764   5.732   5.206   3.837
 4267TIP3    H112765   5.812   5.255   3.857
 4267TIP3    H212766   5.739   5.186   3.744
 4268TIP3   OH212767   3.644   0.757   1.951
 4268TIP3    H112768   3.728   0.751   1.905
 4268TIP3    H212769   3.668   0.762   2.044
 4269TIP3   OH212770   6.074   1.470   2.891
 4269TIP3    H112771   6.069   1.557   2.930
 4269TIP3    H212772   5.983   1.442   2.885
 4270TIP3   OH212773   3.763   3.013   0.810
 4270TIP3    H112774   3.771   3.099   0.851
 4270TIP3    H212775   3.838   2.964   0.842
 4271TIP3   OH212776   0.774   5.630   5.504
 4271TIP3    H112777   0.680   5.644   5.510
 4271TIP3    H212778   0.813   5.713   5.532
 4272TIP3   OH212779   3.286   0.363   0.569
 4272TIP3    H112780   3.362   0.407   0.530
 4272TIP3    H212781   3.226   0.350   0.496
 4273TIP3   OH212782   0.842   2.533   3.965
 4273TIP3    H112783   0.910   2.483   3.921
 4273TIP3    H212784   0.841   2.617   3.920
 4274TIP3   OH212785   0.636   0.977   4.056
 4274TIP3    H112786   0.695   0.981   3.980
 4274TIP3    H212787   0.652   0.890   4.094
 4275TIP3   OH212788   4.137   2.724   1.243
 4275TIP3    H112789   4.174   2.805   1.206
 4275TIP3    H212790   4.120   2.745   1.335
 4276TIP3   OH212791   6.109   4.319   5.156
 4276TIP3    H112792   6.079   4.285   5.240
 4276TIP3    H212793   6.063   4.265   5.091
 4277TIP3   OH212794   6.868   4.992   1.641
 4277TIP3    H112795   6.902   5.079   1.620
 4277TIP3    H212796   6.918   4.932   1.586
 4278TIP3   OH212797   2.641   4.638   0.638
 4278TIP3    H112798   2.550   4.609   0.640
 4278TIP3    H212799   2.638   4.723   0.595
 4279TIP3   OH212800   2.626   4.862   3.736
 4279TIP3    H112801   2.670   4.936   3.778
 4279TIP3    H212802   2.561   4.833   3.800
 4280TIP3   OH212803   2.036   4.328   2.562
 4280TIP3    H112804   1.975   4.269   2.519
 4280TIP3    H212805   2.118   4.279   2.567
 4281TIP3   OH212806   2.192   2.649   5.158
 4281TIP3    H112807   2.180   2.676   5.248
 4281TIP3    H212808   2.283   2.672   5.137
 4282TIP3   OH212809   6.312   3.537   4.503
 4282TIP3    H112810   6.275   3.531   4.591
 4282TIP3    H212811   6.366   3.616   4.505
 4283TIP3   OH212812   4.796   6.784   4.369
 4283TIP3    H112813   4.781   6.790   4.275
 4283TIP3    H212814   4.889   6.764   4.378
 4284TIP3   OH212815   0.865   5.197   1.130
 4284TIP3    H112816   0.921   5.224   1.057
 4284TIP3    H212817   0.786   5.251   1.120
 4285TIP3   OH212818   7.191   5.906   3.935
 4285TIP3    H112819   7.164   5.906   3.843
 4285TIP3    H212820   7.113   5.929   3.984
 4286TIP3   OH212821   1.568   0.390   1.378
 4286TIP3    H112822   1.500   0.413   1.314
 4286TIP3    H212823   1.609   0.312   1.341
 4287TIP3   OH212824   3.784   4.470   1.545
 4287TIP3    H112825   3.773   4.487   1.451
 4287TIP3    H212826   3.836   4.390   1.549
 4288TIP3   OH212827   7.066   1.587   4.502
 4288TIP3    H112828   7.023   1.510   4.539
 4288TIP3    H212829   7.099   1.635   4.579
 4289TIP3   OH212830   6.383   5.646   5.733
 4289TIP3    H112831   6.342   5.600   5.806
 4289TIP3    H212832   6.459   5.591   5.710
 4290TIP3   OH212833   0.503   5.245   1.625
 4290TIP3    H112834   0.439   5.274   1.560
 4290TIP3    H212835   0.585   5.237   1.576
 4291TIP3   OH212836   4.063   0.485   1.933
 4291TIP3    H112837   4.009   0.517   2.005
 4291TIP3    H212838   4.065   0.390   1.945
 4292TIP3   OH212839   3.349   3.369   5.539
 4292TIP3    H112840   3.309   3.407   5.461
 4292TIP3    H212841   3.279   3.367   5.604
 4293TIP3   OH212842   3.984   6.356   5.615
 4293TIP3    H112843   3.961   6.309   5.695
 4293TIP3    H212844   3.985   6.289   5.547
 4294TIP3   OH212845   1.360   3.973   5.817
 4294TIP3    H112846   1.387   4.029   5.890
 4294TIP3    H212847   1.364   3.884   5.852
 4295TIP3   OH212848   2.235   0.084   5.553
 4295TIP3    H112849   2.231   0.179   5.567
 4295TIP3    H212850   2.325   0.067   5.528
 4296TIP3   OH212851   2.752   6.017   3.731
 4296TIP3    H112852   2.821   6.012   3.665
 4296TIP3    H212853   2.764   6.102   3.772
 4297TIP3   OH212854   6.722   5.171   0.746
 4297TIP3    H112855   6.649   5.233   0.757
 4297TIP3    H212856   6.717   5.144   0.655
 4298TIP3   OH212857   2.326   1.259   4.619
 4298TIP3    H112858   2.364   1.189   4.567
 4298TIP3    H212859   2.327   1.335   4.561
 4299TIP3   OH212860   7.173   4.639   2.889
 4299TIP3    H112861   7.115   4.681   2.953
 4299TIP3    H212862   7.151   4.546   2.894
 4300TIP3   OH212863   4.370   3.130   0.680
 4300TIP3    H112864   4.403   3.212   0.716
 4300TIP3    H212865   4.286   3.118   0.724
 4301TIP3   OH212866   5.747   1.814   1.958
 4301TIP3    H112867   5.816   1.864   2.002
 4301TIP3    H212868   5.704   1.766   2.029
 4302TIP3   OH212869   2.851   0.641   5.181
 4302TIP3    H112870   2.787   0.607   5.118
 4302TIP3    H212871   2.820   0.729   5.201
 4303TIP3   OH212872   3.857   4.861   5.894
 4303TIP3    H112873   3.880   4.771   5.917
 4303TIP3    H212874   3.875   4.867   5.800
 4304TIP3   OH212875   3.792   1.596   3.057
 4304TIP3    H112876   3.731   1.588   2.984
 4304TIP3    H212877   3.834   1.510   3.064
 4305TIP3   OH212878   3.257   1.659   1.075
 4305TIP3    H112879   3.234   1.600   1.146
 4305TIP3    H212880   3.183   1.719   1.068
 4306TIP3   OH212881   5.483   1.639   0.779
 4306TIP3    H112882   5.461   1.550   0.750
 4306TIP3    H212883   5.434   1.650   0.860
 4307TIP3   OH212884   7.007   4.886   5.647
 4307TIP3    H112885   7.038   4.961   5.699
 4307TIP3    H212886   6.961   4.831   5.710
 4308TIP3   OH212887   5.138   6.402   1.671
 4308TIP3    H112888   5.154   6.496   1.683
 4308TIP3    H212889   5.046   6.390   1.695
 4309TIP3   OH212890   4.016   3.440   4.141
 4309TIP3    H112891   4.021   3.433   4.045
 4309TIP3    H212892   4.074   3.371   4.173
 4310TIP3   OH212893   1.049   3.354   3.429
 4310TIP3    H112894   1.027   3.365   3.521
 4310TIP3    H212895   0.967   3.369   3.382
 4311TIP3   OH212896   2.692   1.377   3.047
 4311TIP3    H112897   2.601   1.353   3.062
 4311TIP3    H212898   2.690   1.438   2.974
 4312TIP3   OH212899   0.933   6.165   4.665
 4312TIP3    H112900   0.846   6.182   4.629
 4312TIP3    H212901   0.916   6.130   4.753
 4313TIP3   OH212902   0.790   2.003   4.070
 4313TIP3    H112903   0.857   1.941   4.041
 4313TIP3    H212904   0.785   2.067   3.998
 4314TIP3   OH212905   0.620   1.434   0.029
 4314TIP3    H112906   0.630   1.358  -0.030
 4314TIP3    H212907   0.553   1.488  -0.012
 4315TIP3   OH212908   1.568   1.386   1.787
 4315TIP3    H112909   1.512   1.454   1.824
 4315TIP3    H212910   1.513   1.343   1.721
 4316TIP3   OH212911   1.407   6.240   4.183
 4316TIP3    H112912   1.375   6.152   4.202
 4316TIP3    H212913   1.413   6.244   4.088
 4317TIP3   OH212914   5.885   2.976   1.631
 4317TIP3    H112915   5.963   2.965   1.576
 4317TIP3    H212916   5.886   3.069   1.655
 4318TIP3   OH212917   5.994   6.689   5.209
 4318TIP3    H112918   5.965   6.768   5.163
 4318TIP3    H212919   6.053   6.722   5.277
 4319TIP3   OH212920   0.693   3.830   0.198
 4319TIP3    H112921   0.711   3.749   0.245
 4319TIP3    H212922   0.657   3.802   0.114
 4320TIP3   OH212923   3.473   2.730   5.439
 4320TIP3    H112924   3.501   2.755   5.527
 4320TIP3    H212925   3.522   2.789   5.381
 4321TIP3   OH212926   3.567   1.437   2.681
 4321TIP3    H112927   3.586   1.486   2.761
 4321TIP3    H212928   3.484   1.474   2.650
 4322TIP3   OH212929   4.364   4.310   2.613
 4322TIP3    H112930   4.428   4.248   2.578
 4322TIP3    H212931   4.313   4.338   2.537
 4323TIP3   OH212932   1.150   1.071   3.693
 4323TIP3    H112933   1.193   1.011   3.754
 4323TIP3    H212934   1.069   1.026   3.668
 4324TIP3   OH212935   0.558   0.341   0.420
 4324TIP3    H112936   0.569   0.421   0.369
 4324TIP3    H212937   0.591   0.272   0.363
 4325TIP3   OH212938   5.341   6.437   2.207
 4325TIP3    H112939   5.319   6.521   2.248
 4325TIP3    H212940   5.362   6.379   2.280
 4326TIP3   OH212941   1.094   1.390   1.612
 4326TIP3    H112942   1.029   1.329   1.648
 4326TIP3    H212943   1.170   1.379   1.669
 4327TIP3   OH212944   0.104   6.112   4.102
 4327TIP3    H112945   0.065   6.192   4.139
 4327TIP3    H212946   0.079   6.114   4.010
 4328TIP3   OH212947   0.779   4.810   4.082
 4328TIP3    H112948   0.740   4.741   4.029
 4328TIP3    H212949   0.861   4.771   4.115
 4329TIP3   OH212950   0.423   1.837   4.288
 4329TIP3    H112951   0.411   1.817   4.381
 4329TIP3    H212952   0.359   1.781   4.244
 4330TIP3   OH212953   1.845   5.125   1.803
 4330TIP3    H112954   1.892   5.204   1.828
 4330TIP3    H212955   1.801   5.097   1.883
 4331TIP3   OH212956   2.375   1.029   4.437
 4331TIP3    H112957   2.389   0.936   4.419
 4331TIP3    H212958   2.464   1.066   4.445
 4332TIP3   OH212959   5.031   3.560   3.272
 4332TIP3    H112960   4.986   3.530   3.351
 4332TIP3    H212961   5.096   3.623   3.304
 4333TIP3   OH212962   2.599   2.106   4.507
 4333TIP3    H112963   2.637   2.099   4.420
 4333TIP3    H212964   2.509   2.134   4.492
 4334TIP3   OH212965   3.029   5.991   3.317
 4334TIP3    H112966   2.949   5.997   3.370
 4334TIP3    H212967   2.998   5.985   3.227
 4335TIP3   OH212968   0.638   3.395   4.109
 4335TIP3    H112969   0.668   3.457   4.176
 4335TIP3    H212970   0.682   3.313   4.131
 4336TIP3   OH212971   5.107   6.350   0.154
 4336TIP3    H112972   5.146   6.380   0.072
 4336TIP3    H212973   5.151   6.268   0.173
 4337TIP3   OH212974   7.025   4.939   0.104
 4337TIP3    H112975   7.040   4.962   0.012
 4337TIP3    H212976   7.023   4.843   0.105
 4338TIP3   OH212977   6.337   1.336   5.841
 4338TIP3    H112978   6.246   1.347   5.813
 4338TIP3    H212979   6.353   1.242   5.834
 4339TIP3   OH212980   4.244   4.560   0.642
 4339TIP3    H112981   4.255   4.546   0.547
 4339TIP3    H212982   4.320   4.613   0.667
 4340TIP3   OH212983   1.937   5.199   4.852
 4340TIP3    H112984   1.852   5.167   4.884
 4340TIP3    H212985   2.001   5.167   4.915
 4341TIP3   OH212986   4.832   2.366   1.620
 4341TIP3    H112987   4.904   2.364   1.683
 4341TIP3    H212988   4.818   2.274   1.596
 4342TIP3   OH212989   6.644   6.572   4.282
 4342TIP3    H112990   6.564   6.590   4.329
 4342TIP3    H212991   6.696   6.652   4.290
 4343TIP3   OH212992   1.421   0.599   0.522
 4343TIP3    H112993   1.452   0.584   0.612
 4343TIP3    H212994   1.410   0.512   0.485
 4344TIP3   OH212995   3.423   6.613   5.025
 4344TIP3    H112996   3.437   6.520   5.010
 4344TIP3    H212997   3.470   6.657   4.954
 4345TIP3   OH212998   7.205   5.194   2.185
 4345TIP3    H112999   7.139   5.194   2.116
 4345TIP3    H213000   7.222   5.287   2.202
 4346TIP3   OH213001   2.466   1.631   5.669
 4346TIP3    H113002   2.541   1.668   5.716
 4346TIP3    H213003   2.502   1.555   5.623
 4347TIP3   OH213004   7.099   2.506   4.053
 4347TIP3    H113005   7.071   2.590   4.015
 4347TIP3    H213006   7.034   2.443   4.023
 4348TIP3   OH213007   5.300   4.171   2.516
 4348TIP3    H113008   5.349   4.112   2.573
 4348TIP3    H213009   5.347   4.169   2.433
 4349TIP3   OH213010   6.016   2.235   3.659
 4349TIP3    H113011   6.094   2.287   3.640
 4349TIP3    H213012   5.964   2.291   3.716
 4350TIP3   OH213013   0.371   6.187   2.648
 4350TIP3    H113014   0.284   6.226   2.643
 4350TIP3    H213015   0.363   6.104   2.602
 4351TIP3   OH213016   3.708   3.518   3.518
 4351TIP3    H113017   3.741   3.577   3.450
 4351TIP3    H213018   3.760   3.439   3.508
 4352TIP3   OH213019   1.608   0.161   0.840
 4352TIP3    H113020   1.626   0.224   0.770
 4352TIP3    H213021   1.687   0.164   0.895
 4353TIP3   OH213022   2.997   2.538   4.829
 4353TIP3    H113023   2.953   2.455   4.847
 4353TIP3    H213024   2.951   2.573   4.753
 4354TIP3   OH213025   4.759   2.389   1.968
 4354TIP3    H113026   4.830   2.342   1.923
 4354TIP3    H213027   4.805   2.446   2.030
 4355TIP3   OH213028   0.111   2.939   2.688
 4355TIP3    H113029   0.185   2.917   2.632
 4355TIP3    H213030   0.039   2.887   2.654
 4356TIP3   OH213031   4.768   2.714   2.401
 4356TIP3    H113032   4.691   2.770   2.388
 4356TIP3    H213033   4.826   2.735   2.328
 4357TIP3   OH213034   5.245   1.149   4.789
 4357TIP3    H113035   5.175   1.091   4.760
 4357TIP3    H213036   5.215   1.237   4.765
 4358TIP3   OH213037   2.942   4.396   1.465
 4358TIP3    H113038   2.927   4.476   1.516
 4358TIP3    H213039   2.997   4.425   1.392
 4359TIP3   OH213040   1.799   4.285   4.526
 4359TIP3    H113041   1.870   4.305   4.465
 4359TIP3    H213042   1.725   4.262   4.470
 4360TIP3   OH213043   2.391   3.930   0.646
 4360TIP3    H113044   2.376   3.872   0.572
 4360TIP3    H213045   2.325   3.904   0.710
 4361TIP3   OH213046   0.360   4.935   5.905
 4361TIP3    H113047   0.352   4.889   5.822
 4361TIP3    H213048   0.279   4.916   5.952
 4362TIP3   OH213049   4.506   0.525   1.108
 4362TIP3    H113050   4.416   0.519   1.077
 4362TIP3    H213051   4.555   0.562   1.035
 4363TIP3   OH213052   6.964   2.570   1.069
 4363TIP3    H113053   6.939   2.640   1.129
 4363TIP3    H213054   6.903   2.499   1.089
 4364TIP3   OH213055   5.556   5.313   5.499
 4364TIP3    H113056   5.468   5.278   5.486
 4364TIP3    H213057   5.606   5.241   5.535
 4365TIP3   OH213058   4.822   4.478   5.068
 4365TIP3    H113059   4.799   4.415   5.136
 4365TIP3    H213060   4.771   4.451   4.991
 4366TIP3   OH213061   0.868   1.507   5.076
 4366TIP3    H113062   0.841   1.593   5.109
 4366TIP3    H213063   0.793   1.478   5.023
 4367TIP3   OH213064   2.339   4.037   1.342
 4367TIP3    H113065   2.308   4.061   1.255
 4367TIP3    H213066   2.260   4.024   1.393
 4368TIP3   OH213067   3.897   0.885   0.640
 4368TIP3    H113068   3.975   0.853   0.594
 4368TIP3    H213069   3.905   0.850   0.728
 4369TIP3   OH213070   2.546   4.326   2.441
 4369TIP3    H113071   2.452   4.311   2.444
 4369TIP3    H213072   2.574   4.320   2.532
 4370TIP3   OH213073   5.401   5.889   5.412
 4370TIP3    H113074   5.332   5.878   5.346
 4370TIP3    H213075   5.432   5.801   5.430
 4371TIP3   OH213076   4.795   2.920   4.448
 4371TIP3    H113077   4.887   2.943   4.455
 4371TIP3    H213078   4.748   2.993   4.489
 4372TIP3   OH213079   5.616   5.467   2.705
 4372TIP3    H113080   5.687   5.467   2.769
 4372TIP3    H213081   5.542   5.507   2.750
 4373TIP3   OH213082   4.260   5.672   0.542
 4373TIP3    H113083   4.240   5.749   0.594
 4373TIP3    H213084   4.198   5.606   0.571
 4374TIP3   OH213085   4.256   1.798   3.964
 4374TIP3    H113086   4.168   1.822   3.991
 4374TIP3    H213087   4.300   1.773   4.046
 4375TIP3   OH213088   1.151   5.003   3.191
 4375TIP3    H113089   1.238   4.992   3.231
 4375TIP3    H213090   1.095   4.941   3.238
 4376TIP3   OH213091   5.498   1.518   3.732
 4376TIP3    H113092   5.503   1.597   3.678
 4376TIP3    H213093   5.477   1.448   3.671
 4377TIP3   OH213094   3.062   4.021   4.142
 4377TIP3    H113095   3.114   4.094   4.109
 4377TIP3    H213096   2.972   4.053   4.141
 4378TIP3   OH213097   4.330   3.446   3.129
 4378TIP3    H113098   4.412   3.407   3.098
 4378TIP3    H213099   4.264   3.416   3.067
 4379TIP3   OH213100   4.183   2.290   4.311
 4379TIP3    H113101   4.185   2.194   4.307
 4379TIP3    H213102   4.090   2.312   4.310
 4380TIP3   OH213103   6.122   4.985   3.811
 4380TIP3    H113104   6.198   4.944   3.853
 4380TIP3    H213105   6.056   4.988   3.880
 4381TIP3   OH213106   4.005   2.787   2.828
 4381TIP3    H113107   3.932   2.790   2.766
 4381TIP3    H213108   4.082   2.810   2.777
 4382TIP3   OH213109   4.389   3.976   5.716
 4382TIP3    H113110   4.380   4.047   5.779
 4382TIP3    H213111   4.415   4.019   5.634
 4383TIP3   OH213112   2.903   4.816   0.302
 4383TIP3    H113113   2.900   4.746   0.237
 4383TIP3    H213114   2.917   4.896   0.250
 4384TIP3   OH213115   3.007   0.462   0.350
 4384TIP3    H113116   2.973   0.398   0.411
 4384TIP3    H213117   2.966   0.545   0.376
 4385TIP3   OH213118   2.131   6.058   4.109
 4385TIP3    H113119   2.050   6.106   4.128
 4385TIP3    H213120   2.167   6.036   4.194
 4386TIP3   OH213121   5.718   1.873   4.300
 4386TIP3    H113122   5.720   1.808   4.231
 4386TIP3    H213123   5.764   1.832   4.373
 4387TIP3   OH213124   7.171   5.514   0.436
 4387TIP3    H113125   7.078   5.510   0.460
 4387TIP3    H213126   7.206   5.429   0.463
 4388TIP3   OH213127   7.046   5.809   3.597
 4388TIP3    H113128   6.964   5.850   3.574
 4388TIP3    H213129   7.111   5.848   3.539
 4389TIP3   OH213130   1.612   5.849   4.875
 4389TIP3    H113131   1.609   5.777   4.938
 4389TIP3    H213132   1.693   5.835   4.827
 4390TIP3   OH213133   3.693   2.790   1.562
 4390TIP3    H113134   3.657   2.809   1.649
 4390TIP3    H213135   3.727   2.701   1.569
 4391TIP3   OH213136   5.163   5.205   5.857
 4391TIP3    H113137   5.238   5.201   5.798
 4391TIP3    H213138   5.190   5.267   5.925
 4392TIP3   OH213139   4.280   1.191   4.834
 4392TIP3    H113140   4.343   1.255   4.800
 4392TIP3    H213141   4.195   1.228   4.812
 4393TIP3   OH213142   3.200   3.186   1.957
 4393TIP3    H113143   3.190   3.275   1.990
 4393TIP3    H213144   3.213   3.197   1.863
 4394TIP3   OH213145   6.429   4.704   3.705
 4394TIP3    H113146   6.395   4.777   3.757
 4394TIP3    H213147   6.518   4.691   3.739
 4395TIP3   OH213148   1.983   4.415   4.313
 4395TIP3    H113149   1.964   4.502   4.347
 4395TIP3    H213150   2.031   4.431   4.232
 4396TIP3   OH213151   2.800   5.197   1.777
 4396TIP3    H113152   2.819   5.208   1.871
 4396TIP3    H213153   2.848   5.268   1.734
 4397TIP3   OH213154   3.567   6.734   5.560
 4397TIP3    H113155   3.531   6.821   5.578
 4397TIP3    H213156   3.521   6.706   5.481
 4398TIP3   OH213157   5.656   1.742   0.202
 4398TIP3    H113158   5.622   1.731   0.291
 4398TIP3    H213159   5.605   1.815   0.166
 4399TIP3   OH213160   0.260   3.126   4.300
 4399TIP3    H113161   0.213   3.180   4.236
 4399TIP3    H213162   0.195   3.106   4.368
 4400TIP3   OH213163   2.466   1.370   5.311
 4400TIP3    H113164   2.533   1.420   5.358
 4400TIP3    H213165   2.446   1.296   5.368
 4401TIP3   OH213166   6.171   3.308   1.836
 4401TIP3    H113167   6.201   3.251   1.765
 4401TIP3    H213168   6.092   3.350   1.801
 4402TIP3   OH213169   1.910   6.541   2.552
 4402TIP3    H113170   1.821   6.567   2.529
 4402TIP3    H213171   1.963   6.571   2.478
 4403TIP3   OH213172   1.468   4.771   5.196
 4403TIP3    H113173   1.391   4.730   5.235
 4403TIP3    H213174   1.499   4.832   5.263
 4404TIP3   OH213175   4.810   0.382   4.640
 4404TIP3    H113176   4.776   0.301   4.601
 4404TIP3    H213177   4.744   0.448   4.618
 4405TIP3   OH213178   1.178   1.598   2.212
 4405TIP3    H113179   1.142   1.666   2.268
 4405TIP3    H213180   1.255   1.567   2.260
 4406TIP3   OH213181   1.273   1.551   1.046
 4406TIP3    H113182   1.179   1.532   1.054
 4406TIP3    H213183   1.288   1.554   0.951
 4407TIP3   OH213184   5.988   2.674   3.033
 4407TIP3    H113185   5.924   2.722   2.981
 4407TIP3    H213186   6.069   2.679   2.981
 4408TIP3   OH213187   0.641   0.223   4.766
 4408TIP3    H113188   0.690   0.142   4.780
 4408TIP3    H213189   0.670   0.281   4.835
 4409TIP3   OH213190   3.687   3.268   0.901
 4409TIP3    H113191   3.721   3.288   0.989
 4409TIP3    H213192   3.592   3.266   0.913
 4410TIP3   OH213193   5.300   0.375   4.077
 4410TIP3    H113194   5.246   0.446   4.041
 4410TIP3    H213195   5.341   0.335   4.000
 4411TIP3   OH213196   0.373   5.169   2.147
 4411TIP3    H113197   0.306   5.139   2.086
 4411TIP3    H213198   0.453   5.123   2.120
 4412TIP3   OH213199   4.372   0.973   0.169
 4412TIP3    H113200   4.337   0.965   0.080
 4412TIP3    H213201   4.353   0.888   0.209
 4413TIP3   OH213202   7.044   3.399   2.808
 4413TIP3    H113203   7.129   3.421   2.846
 4413TIP3    H213204   7.058   3.315   2.765
 4414TIP3   OH213205   6.044   3.052   0.896
 4414TIP3    H113206   6.104   3.084   0.828
 4414TIP3    H213207   6.008   3.131   0.936
 4415TIP3   OH213208   3.089   2.511   3.933
 4415TIP3    H113209   3.066   2.522   4.025
 4415TIP3    H213210   3.006   2.492   3.889
 4416TIP3   OH213211   1.632   4.947   3.670
 4416TIP3    H113212   1.638   4.906   3.584
 4416TIP3    H213213   1.631   5.041   3.653
 4417TIP3   OH213214   0.198   2.525   2.837
 4417TIP3    H113215   0.196   2.465   2.912
 4417TIP3    H213216   0.108   2.523   2.803
 4418TIP3   OH213217   2.256   3.569   2.454
 4418TIP3    H113218   2.304   3.498   2.412
 4418TIP3    H213219   2.298   3.580   2.539
 4419TIP3   OH213220   0.923   4.386   3.614
 4419TIP3    H113221   0.884   4.318   3.559
 4419TIP3    H213222   0.961   4.339   3.688
 4420TIP3   OH213223   3.063   3.006   4.307
 4420TIP3    H113224   3.121   3.052   4.368
 4420TIP3    H213225   3.121   2.967   4.242
 4421TIP3   OH213226   1.608   4.225   4.330
 4421TIP3    H113227   1.611   4.317   4.304
 4421TIP3    H213228   1.611   4.177   4.247
 4422TIP3   OH213229   1.396   2.663   0.665
 4422TIP3    H113230   1.343   2.665   0.585
 4422TIP3    H213231   1.392   2.572   0.693
 4423TIP3   OH213232   2.057   3.721   1.651
 4423TIP3    H113233   2.116   3.766   1.712
 4423TIP3    H213234   1.981   3.697   1.704
 4424TIP3   OH213235   0.996   1.006  -0.007
 4424TIP3    H113236   1.089   1.019  -0.025
 4424TIP3    H213237   0.951   1.063  -0.069
 4425TIP3   OH213238   2.922   3.146   3.036
 4425TIP3    H113239   2.886   3.135   2.948
 4425TIP3    H213240   3.015   3.126   3.027
 4426TIP3   OH213241   1.245   4.030   1.791
 4426TIP3    H113242   1.175   3.980   1.749
 4426TIP3    H213243   1.277   4.088   1.722
 4427TIP3   OH213244   1.294   1.661   0.790
 4427TIP3    H113245   1.295   1.756   0.804
 4427TIP3    H213246   1.275   1.652   0.696
 4428TIP3   OH213247   1.754   1.854   5.343
 4428TIP3    H113248   1.816   1.927   5.345
 4428TIP3    H213249   1.807   1.778   5.319
 4429TIP3   OH213250   0.314   2.435   0.172
 4429TIP3    H113251   0.261   2.375   0.225
 4429TIP3    H213252   0.266   2.518   0.173
 4430TIP3   OH213253   6.978   2.644   1.677
 4430TIP3    H113254   6.973   2.601   1.592
 4430TIP3    H213255   6.983   2.571   1.740
 4431TIP3   OH213256   3.470   2.080   0.073
 4431TIP3    H113257   3.383   2.116   0.087
 4431TIP3    H213258   3.493   2.040   0.157
 4432TIP3   OH213259   2.437   5.989   2.221
 4432TIP3    H113260   2.372   6.058   2.212
 4432TIP3    H213261   2.521   6.034   2.218
 4433TIP3   OH213262   0.994   5.080   3.775
 4433TIP3    H113263   0.965   5.096   3.864
 4433TIP3    H213264   0.995   4.984   3.766
 4434TIP3   OH213265   0.952   1.397   5.354
 4434TIP3    H113266   0.920   1.310   5.377
 4434TIP3    H213267   0.943   1.402   5.259
 4435TIP3   OH213268   5.633   6.720   4.526
 4435TIP3    H113269   5.541   6.721   4.554
 4435TIP3    H213270   5.680   6.690   4.604
 4436TIP3   OH213271   3.962   0.611   0.393
 4436TIP3    H113272   3.896   0.655   0.339
 4436TIP3    H213273   4.006   0.551   0.334
 4437TIP3   OH213274   4.190   3.011   4.931
 4437TIP3    H113275   4.166   3.076   4.866
 4437TIP3    H213276   4.224   2.937   4.881
 4438TIP3   OH213277   6.594   2.940   5.262
 4438TIP3    H113278   6.672   2.994   5.277
 4438TIP3    H213279   6.628   2.851   5.251
 4439TIP3   OH213280   0.142   1.589   0.573
 4439TIP3    H113281   0.194   1.517   0.609
 4439TIP3    H213282   0.069   1.546   0.528
 4440TIP3   OH213283   3.081   1.985   0.397
 4440TIP3    H113284   3.124   2.003   0.481
 4440TIP3    H213285   2.993   2.022   0.407
 4441TIP3   OH213286   5.723   3.363   0.331
 4441TIP3    H113287   5.642   3.357   0.382
 4441TIP3    H213288   5.770   3.282   0.352
 4442TIP3   OH213289   1.422   0.328   4.197
 4442TIP3    H113290   1.416   0.417   4.163
 4442TIP3    H213291   1.453   0.276   4.123
 4443TIP3   OH213292   3.642   4.292   3.965
 4443TIP3    H113293   3.655   4.204   4.000
 4443TIP3    H213294   3.716   4.342   3.997
 4444TIP3   OH213295   6.379   5.072   3.042
 4444TIP3    H113296   6.457   5.048   2.993
 4444TIP3    H213297   6.385   5.019   3.122
 4445TIP3   OH213298   5.049   4.784   2.993
 4445TIP3    H113299   5.141   4.776   3.020
 4445TIP3    H213300   5.050   4.848   2.922
 4446TIP3   OH213301   5.438   4.418   3.183
 4446TIP3    H113302   5.453   4.362   3.259
 4446TIP3    H213303   5.344   4.410   3.165
 4447TIP3   OH213304   6.954   1.077   2.213
 4447TIP3    H113305   7.048   1.061   2.210
 4447TIP3    H213306   6.918   1.001   2.258
 4448TIP3   OH213307   1.555   3.957   1.421
 4448TIP3    H113308   1.613   3.934   1.349
 4448TIP3    H213309   1.471   3.917   1.399
 4449TIP3   OH213310  -0.010   3.144   4.975
 4449TIP3    H113311  -0.082   3.091   4.941
 4449TIP3    H213312   0.059   3.080   4.995
 4450TIP3   OH213313   0.806   5.244   2.932
 4450TIP3    H113314   0.780   5.203   3.015
 4450TIP3    H213315   0.902   5.240   2.933
 4451TIP3   OH213316   2.785   3.089   3.499
 4451TIP3    H113317   2.707   3.105   3.444
 4451TIP3    H213318   2.749   3.057   3.582
 4452TIP3   OH213319   0.126   0.768   2.296
 4452TIP3    H113320   0.108   0.727   2.211
 4452TIP3    H213321   0.086   0.710   2.360
 4453TIP3   OH213322   4.194   2.960   2.660
 4453TIP3    H113323   4.228   3.046   2.635
 4453TIP3    H213324   4.159   2.924   2.579
 4454TIP3   OH213325   4.842   4.535   1.293
 4454TIP3    H113326   4.806   4.446   1.301
 4454TIP3    H213327   4.933   4.522   1.267
 4455TIP3   OH213328   0.715   5.943   5.844
 4455TIP3    H113329   0.713   5.849   5.860
 4455TIP3    H213330   0.636   5.976   5.886
 4456TIP3   OH213331   4.044   4.888   5.433
 4456TIP3    H113332   4.023   4.835   5.356
 4456TIP3    H213333   4.033   4.978   5.404
 4457TIP3   OH213334   6.930   1.112   3.220
 4457TIP3    H113335   6.999   1.045   3.224
 4457TIP3    H213336   6.861   1.071   3.167
 4458TIP3   OH213337   4.372   6.669   1.860
 4458TIP3    H113338   4.372   6.764   1.873
 4458TIP3    H213339   4.443   6.654   1.798
 4459TIP3   OH213340   1.398   0.725   1.597
 4459TIP3    H113341   1.484   0.698   1.565
 4459TIP3    H213342   1.413   0.811   1.636
 4460TIP3   OH213343   2.326   5.775   0.396
 4460TIP3    H113344   2.269   5.725   0.455
 4460TIP3    H213345   2.392   5.813   0.453
 4461TIP3   OH213346   0.034   1.744   2.873
 4461TIP3    H113347  -0.032   1.676   2.869
 4461TIP3    H213348   0.097   1.721   2.805
 4462TIP3   OH213349   7.145   5.238   4.143
 4462TIP3    H113350   7.118   5.283   4.224
 4462TIP3    H213351   7.192   5.306   4.093
 4463TIP3   OH213352   0.302   4.509   0.994
 4463TIP3    H113353   0.288   4.514   0.900
 4463TIP3    H213354   0.365   4.578   1.013
 4464TIP3   OH213355   6.411   2.712   4.358
 4464TIP3    H113356   6.412   2.640   4.295
 4464TIP3    H213357   6.380   2.788   4.308
 4465TIP3   OH213358   0.500   5.885   0.756
 4465TIP3    H113359   0.498   5.976   0.784
 4465TIP3    H213360   0.549   5.886   0.674
 4466TIP3   OH213361   6.944   3.482   0.991
 4466TIP3    H113362   6.910   3.532   1.066
 4466TIP3    H213363   6.870   3.429   0.962
 4467TIP3   OH213364   0.378   0.430   4.143
 4467TIP3    H113365   0.395   0.371   4.069
 4467TIP3    H213366   0.409   0.383   4.220
 4468TIP3   OH213367   4.446   3.393   4.674
 4468TIP3    H113368   4.503   3.410   4.749
 4468TIP3    H213369   4.419   3.480   4.645
 4469TIP3   OH213370   1.840   4.538   5.057
 4469TIP3    H113371   1.875   4.450   5.052
 4469TIP3    H213372   1.811   4.548   5.148
 4470TIP3   OH213373   5.573   6.119   0.359
 4470TIP3    H113374   5.633   6.152   0.292
 4470TIP3    H213375   5.548   6.196   0.409
 4471TIP3   OH213376   0.714   0.489   2.953
 4471TIP3    H113377   0.710   0.416   3.015
 4471TIP3    H213378   0.780   0.548   2.991
 4472TIP3   OH213379   4.894   2.768   2.903
 4472TIP3    H113380   4.889   2.804   2.815
 4472TIP3    H213381   4.844   2.686   2.899
 4473TIP3   OH213382   1.835   1.395   1.822
 4473TIP3    H113383   1.838   1.486   1.852
 4473TIP3    H213384   1.745   1.382   1.795
 4474TIP3   OH213385   4.167   2.069   3.017
 4474TIP3    H113386   4.156   2.022   3.099
 4474TIP3    H213387   4.125   2.014   2.951
 4475TIP3   OH213388   3.363   1.251   2.802
 4475TIP3    H113389   3.301   1.307   2.848
 4475TIP3    H213390   3.443   1.256   2.853
 4476TIP3   OH213391   6.532   1.030   1.300
 4476TIP3    H113392   6.489   1.113   1.278
 4476TIP3    H213393   6.615   1.033   1.254
 4477TIP3   OH213394   5.106   5.464   5.498
 4477TIP3    H113395   5.034   5.431   5.552
 4477TIP3    H213396   5.183   5.459   5.555
 4478TIP3   OH213397   6.550   2.425   3.645
 4478TIP3    H113398   6.581   2.350   3.697
 4478TIP3    H213399   6.455   2.417   3.646
 4479TIP3   OH213400   0.658   5.890   4.046
 4479TIP3    H113401   0.621   5.978   4.047
 4479TIP3    H213402   0.730   5.893   4.109
 4480TIP3   OH213403   5.412   1.427   5.422
 4480TIP3    H113404   5.325   1.460   5.397
 4480TIP3    H213405   5.472   1.498   5.402
 4481TIP3   OH213406   2.047   6.379   5.509
 4481TIP3    H113407   2.143   6.379   5.508
 4481TIP3    H213408   2.024   6.467   5.539
 4482TIP3   OH213409   6.430   1.736   3.145
 4482TIP3    H113410   6.340   1.769   3.142
 4482TIP3    H213411   6.424   1.654   3.195
 4483TIP3   OH213412   5.301   0.438   5.627
 4483TIP3    H113413   5.214   0.462   5.596
 4483TIP3    H213414   5.349   0.413   5.548
 4484TIP3   OH213415   0.162   3.436   1.434
 4484TIP3    H113416   0.165   3.433   1.339
 4484TIP3    H213417   0.117   3.518   1.455
 4485TIP3   OH213418   5.606   3.441   4.853
 4485TIP3    H113419   5.627   3.502   4.924
 4485TIP3    H213420   5.511   3.436   4.852
 4486TIP3   OH213421   0.493   2.770   2.212
 4486TIP3    H113422   0.509   2.845   2.156
 4486TIP3    H213423   0.558   2.778   2.282
 4487TIP3   OH213424   6.268   5.890   1.978
 4487TIP3    H113425   6.359   5.899   2.005
 4487TIP3    H213426   6.219   5.884   2.060
 4488TIP3   OH213427   1.919   3.219   4.319
 4488TIP3    H113428   1.967   3.198   4.399
 4488TIP3    H213429   1.898   3.134   4.280
 4489TIP3   OH213430   3.587   3.680   1.510
 4489TIP3    H113431   3.608   3.591   1.541
 4489TIP3    H213432   3.641   3.692   1.432
 4490TIP3   OH213433   0.338   2.561   1.908
 4490TIP3    H113434   0.313   2.543   1.998
 4490TIP3    H213435   0.294   2.643   1.886
 4491TIP3   OH213436   2.562   4.608   4.513
 4491TIP3    H113437   2.593   4.517   4.510
 4491TIP3    H213438   2.639   4.661   4.494
 4492TIP3   OH213439   0.964   6.531   4.999
 4492TIP3    H113440   0.987   6.446   4.960
 4492TIP3    H213441   0.885   6.514   5.050
 4493TIP3   OH213442   3.649   4.142   3.016
 4493TIP3    H113443   3.678   4.231   3.036
 4493TIP3    H213444   3.721   4.087   3.047
 4494TIP3   OH213445   2.514   4.202   3.797
 4494TIP3    H113446   2.603   4.237   3.789
 4494TIP3    H213447   2.476   4.214   3.710
 4495TIP3   OH213448   0.743   5.798   3.777
 4495TIP3    H113449   0.781   5.715   3.807
 4495TIP3    H213450   0.717   5.843   3.858
 4496TIP3   OH213451   3.502   5.739   1.423
 4496TIP3    H113452   3.526   5.804   1.489
 4496TIP3    H213453   3.582   5.690   1.407
 4497TIP3   OH213454   4.480   3.518   4.203
 4497TIP3    H113455   4.403   3.570   4.181
 4497TIP3    H213456   4.533   3.519   4.124
 4498TIP3   OH213457   0.756   3.228   5.440
 4498TIP3    H113458   0.727   3.265   5.357
 4498TIP3    H213459   0.712   3.143   5.445
 4499TIP3   OH213460   0.193   2.755   0.653
 4499TIP3    H113461   0.177   2.704   0.573
 4499TIP3    H213462   0.168   2.696   0.724
 4500TIP3   OH213463   5.487   3.495   4.089
 4500TIP3    H113464   5.466   3.563   4.154
 4500TIP3    H213465   5.577   3.470   4.110
 4501TIP3   OH213466   4.380   5.585   3.373
 4501TIP3    H113467   4.385   5.599   3.278
 4501TIP3    H213468   4.423   5.500   3.386
 4502TIP3   OH213469   2.759   4.596   1.957
 4502TIP3    H113470   2.806   4.523   1.917
 4502TIP3    H213471   2.700   4.554   2.020
 4503TIP3   OH213472   6.969   2.253   1.123
 4503TIP3    H113473   6.971   2.272   1.217
 4503TIP3    H213474   6.886   2.208   1.109
 4504TIP3   OH213475   5.593   5.001   3.354
 4504TIP3    H113476   5.501   4.979   3.342
 4504TIP3    H213477   5.592   5.094   3.378
 4505TIP3   OH213478   1.370   3.021   4.311
 4505TIP3    H113479   1.340   3.107   4.280
 4505TIP3    H213480   1.374   2.966   4.233
 4506TIP3   OH213481   2.567   1.885   1.128
 4506TIP3    H113482   2.572   1.816   1.194
 4506TIP3    H213483   2.495   1.858   1.071
 4507TIP3   OH213484   4.455   5.016   1.159
 4507TIP3    H113485   4.550   5.009   1.170
 4507TIP3    H213486   4.441   5.004   1.065
 4508TIP3   OH213487   5.078   0.497   2.864
 4508TIP3    H113488   4.984   0.503   2.848
 4508TIP3    H213489   5.117   0.498   2.777
 4509TIP3   OH213490   6.680   1.578   0.208
 4509TIP3    H113491   6.731   1.655   0.235
 4509TIP3    H213492   6.710   1.508   0.265
 4510TIP3   OH213493   5.166   6.383   4.254
 4510TIP3    H113494   5.141   6.449   4.190
 4510TIP3    H213495   5.259   6.368   4.238
 4511TIP3   OH213496   1.426   2.384   1.842
 4511TIP3    H113497   1.454   2.358   1.755
 4511TIP3    H213498   1.501   2.429   1.880
 4512TIP3   OH213499   5.927   2.947   4.663
 4512TIP3    H113500   5.873   3.000   4.604
 4512TIP3    H213501   5.906   2.979   4.751
 4513TIP3   OH213502   6.362   0.355   0.469
 4513TIP3    H113503   6.446   0.359   0.513
 4513TIP3    H213504   6.297   0.356   0.540
 4514TIP3   OH213505   0.616   6.220   3.037
 4514TIP3    H113506   0.564   6.280   3.091
 4514TIP3    H213507   0.660   6.164   3.101
 4515TIP3   OH213508   2.554   4.364   4.162
 4515TIP3    H113509   2.649   4.373   4.153
 4515TIP3    H213510   2.543   4.313   4.242
 4516TIP3   OH213511   2.747   5.137   0.367
 4516TIP3    H113512   2.778   5.084   0.293
 4516TIP3    H213513   2.709   5.215   0.327
 4517TIP3   OH213514   0.286   4.336   5.125
 4517TIP3    H113515   0.278   4.431   5.131
 4517TIP3    H213516   0.371   4.322   5.083
 4518TIP3   OH213517   1.714   2.395   1.912
 4518TIP3    H113518   1.777   2.466   1.923
 4518TIP3    H213519   1.768   2.316   1.906
 4519TIP3   OH213520   3.032   3.818   4.653
 4519TIP3    H113521   2.947   3.786   4.622
 4519TIP3    H213522   3.056   3.887   4.591
 4520TIP3   OH213523   3.773   4.480   0.242
 4520TIP3    H113524   3.747   4.394   0.210
 4520TIP3    H213525   3.762   4.474   0.337
 4521TIP3   OH213526  -0.003   0.415   1.814
 4521TIP3    H113527   0.019   0.343   1.872
 4521TIP3    H213528  -0.040   0.482   1.872
 4522TIP3   OH213529   4.789   6.063   3.772
 4522TIP3    H113530   4.823   6.093   3.687
 4522TIP3    H213531   4.749   5.978   3.753
 4523TIP3   OH213532   0.674   6.345   3.390
 4523TIP3    H113533   0.677   6.261   3.344
 4523TIP3    H213534   0.746   6.340   3.453
 4524TIP3   OH213535   1.111   1.054   4.330
 4524TIP3    H113536   1.085   1.124   4.389
 4524TIP3    H213537   1.142   1.099   4.251
 4525TIP3   OH213538   1.061   6.401   3.354
 4525TIP3    H113539   1.119   6.342   3.305
 4525TIP3    H213540   1.034   6.350   3.430
 4526TIP3   OH213541   1.467   4.845   2.196
 4526TIP3    H113542   1.406   4.911   2.228
 4526TIP3    H213543   1.420   4.800   2.126
 4527TIP3   OH213544   6.061   0.875   4.903
 4527TIP3    H113545   5.978   0.859   4.859
 4527TIP3    H213546   6.127   0.865   4.834
 4528TIP3   OH213547   4.099   0.810   3.850
 4528TIP3    H113548   4.117   0.760   3.771
 4528TIP3    H213549   4.148   0.891   3.839
 4529TIP3   OH213550   1.377   4.887   2.476
 4529TIP3    H113551   1.471   4.905   2.484
 4529TIP3    H213552   1.365   4.806   2.526
 4530TIP3   OH213553   5.593   6.084   4.644
 4530TIP3    H113554   5.546   6.081   4.561
 4530TIP3    H213555   5.659   6.015   4.637
 4531TIP3   OH213556   3.265   5.895   0.032
 4531TIP3    H113557   3.283   5.901  -0.062
 4531TIP3    H213558   3.194   5.832   0.038
 4532TIP3   OH213559   5.212   0.560   1.541
 4532TIP3    H113560   5.240   0.598   1.458
 4532TIP3    H213561   5.287   0.575   1.600
 4533TIP3   OH213562   5.221   1.870   4.523
 4533TIP3    H113563   5.182   1.931   4.585
 4533TIP3    H213564   5.153   1.856   4.457
 4534TIP3   OH213565   1.319   1.889   2.007
 4534TIP3    H113566   1.305   1.973   2.050
 4534TIP3    H213567   1.260   1.892   1.931
 4535TIP3   OH213568   0.644   5.222   3.709
 4535TIP3    H113569   0.627   5.133   3.677
 4535TIP3    H213570   0.665   5.272   3.630
 4536TIP3   OH213571   0.091   0.811   2.017
 4536TIP3    H113572   0.127   0.787   1.932
 4536TIP3    H213573   0.141   0.888   2.044
 4537TIP3   OH213574   0.134   6.231   0.722
 4537TIP3    H113575   0.223   6.200   0.741
 4537TIP3    H213576   0.095   6.161   0.670
 4538TIP3   OH213577   4.654   5.459   1.178
 4538TIP3    H113578   4.644   5.496   1.090
 4538TIP3    H213579   4.735   5.408   1.173
 4539TIP3   OH213580   0.640   4.956   3.599
 4539TIP3    H113581   0.709   4.890   3.599
 4539TIP3    H213582   0.622   4.972   3.506
 4540TIP3   OH213583   3.568   1.502   5.934
 4540TIP3    H113584   3.551   1.418   5.892
 4540TIP3    H213585   3.655   1.527   5.903
 4541TIP3   OH213586   4.508   1.712   3.512
 4541TIP3    H113587   4.494   1.802   3.482
 4541TIP3    H213588   4.464   1.708   3.597
 4542TIP3   OH213589   6.319   5.052   0.089
 4542TIP3    H113590   6.266   5.080   0.163
 4542TIP3    H213591   6.272   4.977   0.053
 4543TIP3   OH213592   5.968   2.389   1.216
 4543TIP3    H113593   5.875   2.411   1.218
 4543TIP3    H213594   6.013   2.473   1.209
 4544TIP3   OH213595   2.460   6.438   4.789
 4544TIP3    H113596   2.407   6.488   4.850
 4544TIP3    H213597   2.525   6.392   4.843
 4545TIP3   OH213598   5.935   6.511   0.809
 4545TIP3    H113599   6.013   6.456   0.816
 4545TIP3    H213600   5.862   6.450   0.821
 4546TIP3   OH213601   2.808   3.579   5.375
 4546TIP3    H113602   2.807   3.631   5.295
 4546TIP3    H213603   2.777   3.493   5.348
 4547TIP3   OH213604   3.607   1.721   0.489
 4547TIP3    H113605   3.662   1.705   0.565
 4547TIP3    H213606   3.522   1.684   0.512
 4548TIP3   OH213607   1.396   1.001   4.185
 4548TIP3    H113608   1.335   1.073   4.169
 4548TIP3    H213609   1.345   0.938   4.237
 4549TIP3   OH213610   6.246   0.196   0.966
 4549TIP3    H113611   6.330   0.237   0.985
 4549TIP3    H213612   6.260   0.103   0.984
 4550TIP3   OH213613   5.350   3.856   1.575
 4550TIP3    H113614   5.348   3.882   1.483
 4550TIP3    H213615   5.373   3.936   1.622
 4551TIP3   OH213616   3.096   0.810   3.786
 4551TIP3    H113617   3.105   0.848   3.698
 4551TIP3    H213618   3.014   0.846   3.819
 4552TIP3   OH213619   6.306   5.833   0.904
 4552TIP3    H113620   6.350   5.832   0.989
 4552TIP3    H213621   6.299   5.925   0.881
 4553TIP3   OH213622   4.574   2.192   3.331
 4553TIP3    H113623   4.667   2.212   3.320
 4553TIP3    H213624   4.549   2.237   3.412
 4554TIP3   OH213625   1.301   0.949   2.366
 4554TIP3    H113626   1.212   0.943   2.332
 4554TIP3    H213627   1.333   0.858   2.365
 4555TIP3   OH213628   3.612   3.939   5.574
 4555TIP3    H113629   3.637   3.973   5.660
 4555TIP3    H213630   3.607   3.844   5.587
 4556TIP3   OH213631   4.880   0.218   5.758
 4556TIP3    H113632   4.804   0.235   5.815
 4556TIP3    H213633   4.933   0.297   5.765
 4557TIP3   OH213634   4.364   1.439   4.696
 4557TIP3    H113635   4.276   1.468   4.674
 4557TIP3    H213636   4.406   1.517   4.733
 4558TIP3   OH213637   6.228   5.091   2.542
 4558TIP3    H113638   6.299   5.034   2.514
 4558TIP3    H213639   6.229   5.086   2.638
 4559TIP3   OH213640   0.266   1.087   4.917
 4559TIP3    H113641   0.193   1.026   4.917
 4559TIP3    H213642   0.339   1.038   4.955
 4560TIP3   OH213643   5.345   5.479   5.699
 4560TIP3    H113644   5.412   5.466   5.766
 4560TIP3    H213645   5.274   5.526   5.745
 4561TIP3   OH213646   1.094   4.415   0.413
 4561TIP3    H113647   1.092   4.466   0.494
 4561TIP3    H213648   1.178   4.368   0.416
 4562TIP3   OH213649   3.501   5.838   2.194
 4562TIP3    H113650   3.486   5.854   2.101
 4562TIP3    H213651   3.511   5.925   2.232
 4563TIP3   OH213652   2.143   4.811   2.940
 4563TIP3    H113653   2.103   4.780   2.860
 4563TIP3    H213654   2.135   4.737   3.001
 4564TIP3   OH213655   0.591   6.633   2.980
 4564TIP3    H113656   0.598   6.603   2.889
 4564TIP3    H213657   0.671   6.684   2.995
 4565TIP3   OH213658   2.159   3.894   1.138
 4565TIP3    H113659   2.152   3.881   1.232
 4565TIP3    H213660   2.131   3.811   1.099
 4566TIP3   OH213661   3.450   1.788   0.252
 4566TIP3    H113662   3.516   1.789   0.321
 4566TIP3    H213663   3.367   1.772   0.298
 4567TIP3   OH213664   1.918   4.271   2.985
 4567TIP3    H113665   2.013   4.269   2.995
 4567TIP3    H213666   1.902   4.227   2.902
 4568TIP3   OH213667   3.154   4.422   4.638
 4568TIP3    H113668   3.248   4.437   4.647
 4568TIP3    H213669   3.114   4.493   4.689
 4569TIP3   OH213670   5.114   2.653   0.785
 4569TIP3    H113671   5.025   2.649   0.820
 4569TIP3    H213672   5.105   2.700   0.702
 4570TIP3   OH213673   4.520   2.515   1.980
 4570TIP3    H113674   4.591   2.451   1.988
 4570TIP3    H213675   4.563   2.600   1.985
 4571TIP3   OH213676   1.311   0.138   1.446
 4571TIP3    H113677   1.345   0.127   1.357
 4571TIP3    H213678   1.385   0.115   1.502
 4572TIP3   OH213679   0.761   1.716   2.768
 4572TIP3    H113680   0.827   1.764   2.820
 4572TIP3    H213681   0.790   1.727   2.678
 4573TIP3   OH213682   4.178   0.273   3.440
 4573TIP3    H113683   4.083   0.281   3.436
 4573TIP3    H213684   4.211   0.356   3.407
 4574TIP3   OH213685   3.143   5.413   4.079
 4574TIP3    H113686   3.093   5.364   4.145
 4574TIP3    H213687   3.149   5.353   4.005
 4575TIP3   OH213688   5.062   5.135   4.670
 4575TIP3    H113689   5.032   5.046   4.656
 4575TIP3    H213690   5.021   5.162   4.752
 4576TIP3   OH213691   6.717   1.792   0.798
 4576TIP3    H113692   6.721   1.747   0.714
 4576TIP3    H213693   6.741   1.726   0.863
 4577TIP3   OH213694   4.146   0.146   0.990
 4577TIP3    H113695   4.165   0.188   0.906
 4577TIP3    H213696   4.147   0.218   1.054
 4578TIP3   OH213697   4.995   6.241   5.106
 4578TIP3    H113698   5.067   6.192   5.066
 4578TIP3    H213699   5.033   6.279   5.186
 4579TIP3   OH213700   2.289   5.144   2.330
 4579TIP3    H113701   2.197   5.154   2.354
 4579TIP3    H213702   2.292   5.170   2.238
 4580TIP3   OH213703   6.444   2.443   2.387
 4580TIP3    H113704   6.517   2.392   2.352
 4580TIP3    H213705   6.482   2.489   2.462
 4581TIP3   OH213706   3.101   2.270   4.286
 4581TIP3    H113707   3.028   2.229   4.332
 4581TIP3    H213708   3.134   2.336   4.347
 4582TIP3   OH213709   2.274   2.913   1.668
 4582TIP3    H113710   2.272   2.875   1.756
 4582TIP3    H213711   2.344   2.979   1.673
 4583TIP3   OH213712   2.650   3.317   4.955
 4583TIP3    H113713   2.642   3.296   4.862
 4583TIP3    H213714   2.677   3.409   4.957
 4584TIP3   OH213715   5.321   3.155   1.554
 4584TIP3    H113716   5.383   3.144   1.482
 4584TIP3    H213717   5.365   3.216   1.614
 4585TIP3   OH213718   1.829   2.850   1.743
 4585TIP3    H113719   1.896   2.830   1.678
 4585TIP3    H213720   1.864   2.926   1.790
 4586TIP3   OH213721   3.356   4.424   0.001
 4586TIP3    H113722   3.315   4.510  -0.006
 4586TIP3    H213723   3.297   4.374   0.059
 4587TIP3   OH213724   3.646   1.085   4.522
 4587TIP3    H113725   3.698   1.070   4.601
 4587TIP3    H213726   3.587   1.157   4.545
 4588TIP3   OH213727   6.594   5.906   0.481
 4588TIP3    H113728   6.509   5.891   0.523
 4588TIP3    H213729   6.615   5.823   0.438
 4589TIP3   OH213730   6.479   3.013   2.799
 4589TIP3    H113731   6.489   2.918   2.794
 4589TIP3    H213732   6.549   3.047   2.743
 4590TIP3   OH213733   4.835   4.379   0.491
 4590TIP3    H113734   4.926   4.392   0.519
 4590TIP3    H213735   4.806   4.303   0.541
 4591TIP3   OH213736   2.261   6.290   0.190
 4591TIP3    H113737   2.181   6.287   0.137
 4591TIP3    H213738   2.262   6.206   0.237
 4592TIP3   OH213739   5.509   0.076   1.048
 4592TIP3    H113740   5.495  -0.015   1.023
 4592TIP3    H213741   5.604   0.085   1.057
 4593TIP3   OH213742   6.434   3.114   5.120
 4593TIP3    H113743   6.480   3.050   5.176
 4593TIP3    H213744   6.358   3.066   5.087
 4594TIP3   OH213745   5.683   2.160   1.904
 4594TIP3    H113746   5.649   2.072   1.891
 4594TIP3    H213747   5.605   2.216   1.907
 4595TIP3   OH213748   0.489   4.324   4.299
 4595TIP3    H113749   0.581   4.309   4.320
 4595TIP3    H213750   0.440   4.276   4.366
 4596TIP3   OH213751   6.600   1.252   3.542
 4596TIP3    H113752   6.644   1.215   3.465
 4596TIP3    H213753   6.507   1.232   3.528
 4597TIP3   OH213754   2.234   1.605   0.333
 4597TIP3    H113755   2.244   1.677   0.271
 4597TIP3    H213756   2.206   1.647   0.414
 4598TIP3   OH213757   4.609   3.292   0.373
 4598TIP3    H113758   4.684   3.273   0.317
 4598TIP3    H213759   4.646   3.315   0.458
 4599TIP3   OH213760   0.993   6.663   5.367
 4599TIP3    H113761   1.073   6.682   5.318
 4599TIP3    H213762   0.933   6.734   5.344
 4600TIP3   OH213763   1.471   5.554   4.942
 4600TIP3    H113764   1.518   5.513   4.870
 4600TIP3    H213765   1.479   5.492   5.014
 4601TIP3   OH213766   6.860   2.426   4.556
 4601TIP3    H113767   6.927   2.357   4.552
 4601TIP3    H213768   6.885   2.487   4.487
 4602TIP3   OH213769   0.328   0.141   3.540
 4602TIP3    H113770   0.416   0.109   3.557
 4602TIP3    H213771   0.292   0.081   3.475
 4603TIP3   OH213772   5.546   6.470   1.650
 4603TIP3    H113773   5.640   6.477   1.636
 4603TIP3    H213774   5.519   6.396   1.596
 4604TIP3   OH213775   1.773   5.176   3.893
 4604TIP3    H113776   1.801   5.085   3.887
 4604TIP3    H213777   1.805   5.216   3.812
 4605TIP3   OH213778   4.795   3.207   0.184
 4605TIP3    H113779   4.846   3.212   0.103
 4605TIP3    H213780   4.842   3.145   0.239
 4606TIP3   OH213781   5.861   2.603   2.188
 4606TIP3    H113782   5.780   2.639   2.152
 4606TIP3    H213783   5.834   2.519   2.226
 4607TIP3   OH213784   3.997   3.418   4.917
 4607TIP3    H113785   4.061   3.363   4.871
 4607TIP3    H213786   3.982   3.373   5.000
 4608TIP3   OH213787   2.027   6.181   1.018
 4608TIP3    H113788   2.072   6.170   0.934
 4608TIP3    H213789   2.050   6.269   1.047
 4609TIP3   OH213790   3.941   2.064   0.691
 4609TIP3    H113791   3.972   2.090   0.604
 4609TIP3    H213792   3.904   2.145   0.727
 4610TIP3   OH213793   5.544   2.688   4.796
 4610TIP3    H113794   5.580   2.604   4.767
 4610TIP3    H213795   5.518   2.674   4.887
 4611TIP3   OH213796   3.471   0.613   2.128
 4611TIP3    H113797   3.503   0.609   2.038
 4611TIP3    H213798   3.437   0.525   2.144
 4612TIP3   OH213799   2.088   5.880   4.531
 4612TIP3    H113800   2.176   5.878   4.567
 4612TIP3    H213801   2.067   5.789   4.511
 4613TIP3   OH213802   5.757   5.602   4.907
 4613TIP3    H113803   5.782   5.692   4.891
 4613TIP3    H213804   5.669   5.608   4.945
 4614TIP3   OH213805   5.440   6.073   5.833
 4614TIP3    H113806   5.469   6.037   5.749
 4614TIP3    H213807   5.430   6.167   5.817
 4615TIP3   OH213808   4.769   0.041   1.744
 4615TIP3    H113809   4.778   0.071   1.835
 4615TIP3    H213810   4.716  -0.038   1.749
 4616TIP3   OH213811   6.341   2.612   3.423
 4616TIP3    H113812   6.344   2.645   3.333
 4616TIP3    H213813   6.430   2.622   3.456
 4617TIP3   OH213814   1.489   4.015   5.164
 4617TIP3    H113815   1.415   4.028   5.104
 4617TIP3    H213816   1.530   3.934   5.134
 4618TIP3   OH213817   5.395   5.903   0.284
 4618TIP3    H113818   5.319   5.890   0.341
 4618TIP3    H213819   5.435   5.984   0.314
 4619TIP3   OH213820   0.519   1.702   3.696
 4619TIP3    H113821   0.518   1.607   3.687
 4619TIP3    H213822   0.503   1.734   3.607
 4620TIP3   OH213823   6.854   0.620   0.468
 4620TIP3    H113824   6.912   0.690   0.439
 4620TIP3    H213825   6.795   0.604   0.394
 4621TIP3   OH213826   5.842   4.700   0.249
 4621TIP3    H113827   5.902   4.775   0.245
 4621TIP3    H213828   5.882   4.640   0.312
 4622TIP3   OH213829   7.019   4.625   5.060
 4622TIP3    H113830   6.926   4.604   5.072
 4622TIP3    H213831   7.034   4.702   5.115
 4623TIP3   OH213832   6.344   3.233   2.587
 4623TIP3    H113833   6.399   3.191   2.653
 4623TIP3    H213834   6.345   3.172   2.513
 4624TIP3   OH213835   0.584   3.465   0.295
 4624TIP3    H113836   0.657   3.479   0.356
 4624TIP3    H213837   0.510   3.511   0.335
 4625TIP3   OH213838   0.500   3.418   0.697
 4625TIP3    H113839   0.541   3.490   0.745
 4625TIP3    H213840   0.406   3.438   0.699
 4626TIP3   OH213841   3.353   5.222   1.073
 4626TIP3    H113842   3.444   5.195   1.062
 4626TIP3    H213843   3.358   5.305   1.120
 4627TIP3   OH213844   0.218   5.575   2.750
 4627TIP3    H113845   0.290   5.638   2.758
 4627TIP3    H213846   0.202   5.570   2.656
 4628TIP3   OH213847   1.941   4.829   0.313
 4628TIP3    H113848   1.900   4.900   0.263
 4628TIP3    H213849   1.918   4.749   0.266
 4629TIP3   OH213850   4.073   2.084   2.524
 4629TIP3    H113851   3.993   2.125   2.491
 4629TIP3    H213852   4.134   2.157   2.536
 4630TIP3   OH213853   0.150   2.617   0.423
 4630TIP3    H113854   0.057   2.613   0.445
 4630TIP3    H213855   0.151   2.636   0.329
 4631TIP3   OH213856   5.576   2.665   1.730
 4631TIP3    H113857   5.663   2.705   1.734
 4631TIP3    H213858   5.572   2.624   1.644
 4632TIP3   OH213859   2.813   2.670   3.674
 4632TIP3    H113860   2.762   2.676   3.593
 4632TIP3    H213861   2.852   2.757   3.683
 4633TIP3   OH213862   7.044   0.567   3.908
 4633TIP3    H113863   7.079   0.487   3.947
 4633TIP3    H213864   7.063   0.636   3.972
 4634TIP3   OH213865   2.197   6.422   5.194
 4634TIP3    H113866   2.226   6.427   5.285
 4634TIP3    H213867   2.112   6.467   5.193
 4635TIP3   OH213868   3.653   1.825   3.915
 4635TIP3    H113869   3.748   1.834   3.916
 4635TIP3    H213870   3.623   1.875   3.991
 4636TIP3   OH213871   2.575   4.418   0.931
 4636TIP3    H113872   2.656   4.467   0.918
 4636TIP3    H213873   2.505   4.481   0.916
 4637TIP3   OH213874   5.840   2.402   5.518
 4637TIP3    H113875   5.772   2.461   5.548
 4637TIP3    H213876   5.817   2.317   5.555
 4638TIP3   OH213877   0.931   1.135   4.824
 4638TIP3    H113878   0.838   1.132   4.847
 4638TIP3    H213879   0.969   1.201   4.881
 4639TIP3   OH213880   2.058   2.132   1.537
 4639TIP3    H113881   2.021   2.123   1.450
 4639TIP3    H213882   2.088   2.044   1.560
 4640TIP3   OH213883   5.754   2.052   1.197
 4640TIP3    H113884   5.834   2.064   1.145
 4640TIP3    H213885   5.760   1.962   1.230
 4641TIP3   OH213886   2.839   0.684   4.147
 4641TIP3    H113887   2.774   0.627   4.107
 4641TIP3    H213888   2.832   0.767   4.099
 4642TIP3   OH213889   3.357   0.348   2.105
 4642TIP3    H113890   3.374   0.304   2.022
 4642TIP3    H213891   3.397   0.291   2.171
 4643TIP3   OH213892   3.126   0.564   3.845
 4643TIP3    H113893   3.110   0.657   3.830
 4643TIP3    H213894   3.041   0.523   3.829
 4644TIP3   OH213895   2.820   5.823   5.825
 4644TIP3    H113896   2.801   5.841   5.917
 4644TIP3    H213897   2.843   5.730   5.823
 4645TIP3   OH213898   2.485   6.121   4.803
 4645TIP3    H113899   2.426   6.137   4.877
 4645TIP3    H213900   2.568   6.096   4.843
 4646TIP3   OH213901   7.046   1.872   2.569
 4646TIP3    H113902   7.011   1.921   2.644
 4646TIP3    H213903   7.044   1.781   2.597
 4647TIP3   OH213904   1.614   5.126   0.844
 4647TIP3    H113905   1.678   5.063   0.877
 4647TIP3    H213906   1.638   5.208   0.887
 4648TIP3   OH213907   0.704   3.887   4.343
 4648TIP3    H113908   0.797   3.878   4.325
 4648TIP3    H213909   0.694   3.861   4.435
 4649TIP3   OH213910   3.714   6.496   2.666
 4649TIP3    H113911   3.758   6.579   2.648
 4649TIP3    H213912   3.673   6.471   2.583
 4650TIP3   OH213913   5.159   4.342   2.091
 4650TIP3    H113914   5.236   4.330   2.035
 4650TIP3    H213915   5.194   4.351   2.179
 4651TIP3   OH213916   5.613   0.686   2.208
 4651TIP3    H113917   5.702   0.713   2.233
 4651TIP3    H213918   5.592   0.740   2.132
 4652TIP3   OH213919   3.435   6.202   1.368
 4652TIP3    H113920   3.444   6.293   1.338
 4652TIP3    H213921   3.429   6.209   1.464
 4653TIP3   OH213922   7.014   5.065   4.711
 4653TIP3    H113923   7.040   5.042   4.622
 4653TIP3    H213924   6.979   5.154   4.703
 4654TIP3   OH213925   4.973   2.030   3.986
 4654TIP3    H113926   4.954   1.937   3.973
 4654TIP3    H213927   4.927   2.053   4.067
 4655TIP3   OH213928   0.738   6.008   1.695
 4655TIP3    H113929   0.670   5.966   1.748
 4655TIP3    H213930   0.797   6.048   1.758
 4656TIP3   OH213931   3.030   0.574   0.111
 4656TIP3    H113932   2.973   0.505   0.078
 4656TIP3    H213933   3.028   0.564   0.206
 4657TIP3   OH213934   0.407   4.776   4.471
 4657TIP3    H113935   0.374   4.755   4.383
 4657TIP3    H213936   0.376   4.704   4.526
 4658TIP3   OH213937   1.528   3.186   5.298
 4658TIP3    H113938   1.512   3.125   5.226
 4658TIP3    H213939   1.620   3.210   5.289
 4659TIP3   OH213940   3.046   0.371   2.396
 4659TIP3    H113941   2.963   0.418   2.394
 4659TIP3    H213942   3.089   0.395   2.314
 4660TIP3   OH213943   2.177   5.790   4.886
 4660TIP3    H113944   2.092   5.805   4.929
 4660TIP3    H213945   2.193   5.697   4.896
 4661TIP3   OH213946   1.906   6.124   2.999
 4661TIP3    H113947   1.898   6.042   3.047
 4661TIP3    H213948   1.816   6.154   2.984
 4662TIP3   OH213949   6.661   5.087   1.436
 4662TIP3    H113950   6.614   5.033   1.373
 4662TIP3    H213951   6.744   5.041   1.450
 4663TIP3   OH213952   5.987   0.939   1.053
 4663TIP3    H113953   5.966   0.853   1.088
 4663TIP3    H213954   6.083   0.939   1.045
 4664TIP3   OH213955   3.359   4.369   1.080
 4664TIP3    H113956   3.375   4.419   1.000
 4664TIP3    H213957   3.283   4.315   1.059
 4665TIP3   OH213958   4.787   3.754   4.116
 4665TIP3    H113959   4.790   3.812   4.040
 4665TIP3    H213960   4.818   3.807   4.189
 4666TIP3   OH213961   6.197   4.343   4.825
 4666TIP3    H113962   6.169   4.307   4.909
 4666TIP3    H213963   6.270   4.288   4.798
 4667TIP3   OH213964   6.441   1.109   0.733
 4667TIP3    H113965   6.449   1.064   0.817
 4667TIP3    H213966   6.530   1.136   0.712
 4668TIP3   OH213967   5.130   1.245   2.204
 4668TIP3    H113968   5.209   1.194   2.225
 4668TIP3    H213969   5.058   1.189   2.231
 4669TIP3   OH213970   3.413   5.587   5.615
 4669TIP3    H113971   3.418   5.505   5.665
 4669TIP3    H213972   3.463   5.649   5.668
 4670TIP3   OH213973   5.899   3.888   1.360
 4670TIP3    H113974   5.857   3.861   1.279
 4670TIP3    H213975   5.860   3.833   1.427
 4671TIP3   OH213976   2.616   3.516   1.456
 4671TIP3    H113977   2.664   3.563   1.387
 4671TIP3    H213978   2.561   3.453   1.408
 4672TIP3   OH213979   1.205   2.712   3.307
 4672TIP3    H113980   1.185   2.657   3.232
 4672TIP3    H213981   1.126   2.709   3.361
 4673TIP3   OH213982   6.188   0.156   4.156
 4673TIP3    H113983   6.151   0.173   4.243
 4673TIP3    H213984   6.129   0.092   4.117
 4674TIP3   OH213985   1.595   2.927   3.784
 4674TIP3    H113986   1.682   2.913   3.746
 4674TIP3    H213987   1.535   2.923   3.709
 4675TIP3   OH213988   4.642   3.557   0.739
 4675TIP3    H113989   4.716   3.606   0.775
 4675TIP3    H213990   4.633   3.590   0.650
 4676TIP3   OH213991   2.269   0.405   0.020
 4676TIP3    H113992   2.189   0.360   0.044
 4676TIP3    H213993   2.338   0.338   0.028
 4677TIP3   OH213994   2.926   6.369   3.742
 4677TIP3    H113995   2.868   6.321   3.802
 4677TIP3    H213996   2.890   6.458   3.741
 4678TIP3   OH213997   2.163   5.120   5.599
 4678TIP3    H113998   2.152   5.045   5.541
 4678TIP3    H213999   2.155   5.083   5.687
 4679TIP3   OH214000   3.661   0.206   0.073
 4679TIP3    H114001   3.641   0.299   0.085
 4679TIP3    H214002   3.578   0.161   0.090
 4680TIP3   OH214003   1.018   0.008   5.414
 4680TIP3    H114004   0.967  -0.040   5.478
 4680TIP3    H214005   1.101  -0.039   5.409
 4681TIP3   OH214006   1.966   6.587   5.234
 4681TIP3    H114007   1.871   6.579   5.239
 4681TIP3    H214008   1.989   6.651   5.301
 4682TIP3   OH214009   3.373   3.530   4.708
 4682TIP3    H114010   3.337   3.614   4.735
 4682TIP3    H214011   3.428   3.502   4.781
 4683TIP3   OH214012   2.546   3.189   5.291
 4683TIP3    H114013   2.461   3.201   5.248
 4683TIP3    H214014   2.530   3.118   5.354
 4684TIP3   OH214015   0.077   1.872   3.952
 4684TIP3    H114016   0.019   1.901   3.882
 4684TIP3    H214017   0.165   1.877   3.914
 4685TIP3   OH214018   5.230   4.464   5.819
 4685TIP3    H114019   5.302   4.406   5.843
 4685TIP3    H214020   5.176   4.470   5.898
 4686TIP3   OH214021   3.157   5.029   2.899
 4686TIP3    H114022   3.118   4.949   2.864
 4686TIP3    H214023   3.128   5.098   2.839
 4687TIP3   OH214024   4.588   2.266   3.702
 4687TIP3    H114025   4.521   2.314   3.653
 4687TIP3    H214026   4.618   2.327   3.768
 4688TIP3   OH214027   1.635   2.211   2.198
 4688TIP3    H114028   1.667   2.254   2.277
 4688TIP3    H214029   1.713   2.200   2.143
 4689TIP3   OH214030   0.044   6.274   0.980
 4689TIP3    H114031   0.119   6.249   1.033
 4689TIP3    H214032   0.066   6.245   0.891
 4690TIP3   OH214033   5.055   3.002   0.763
 4690TIP3    H114034   5.034   2.942   0.691
 4690TIP3    H214035   5.147   2.985   0.782
 4691TIP3   OH214036   0.703   1.179   4.596
 4691TIP3    H114037   0.782   1.196   4.648
 4691TIP3    H214038   0.668   1.098   4.632
 4692TIP3   OH214039   1.862   5.820   4.784
 4692TIP3    H114040   1.900   5.904   4.760
 4692TIP3    H214041   1.894   5.803   4.873
 4693TIP3   OH214042   2.332   2.404   5.793
 4693TIP3    H114043   2.320   2.318   5.753
 4693TIP3    H214044   2.349   2.385   5.886
 4694TIP3   OH214045   3.207   1.775   1.493
 4694TIP3    H114046   3.251   1.701   1.535
 4694TIP3    H214047   3.223   1.849   1.552
 4695TIP3   OH214048   1.783   4.602   3.382
 4695TIP3    H114049   1.734   4.520   3.391
 4695TIP3    H214050   1.875   4.575   3.375
 4696TIP3   OH214051   1.328   3.249   1.146
 4696TIP3    H114052   1.238   3.280   1.136
 4696TIP3    H214053   1.336   3.227   1.239
 4697TIP3   OH214054   3.855   3.662   4.103
 4697TIP3    H114055   3.873   3.704   4.187
 4697TIP3    H214056   3.908   3.583   4.103
 4698TIP3   OH214057   5.901   4.449   5.410
 4698TIP3    H114058   5.831   4.420   5.468
 4698TIP3    H214059   5.953   4.371   5.393
 4699TIP3   OH214060   5.000   6.720   5.242
 4699TIP3    H114061   5.073   6.658   5.246
 4699TIP3    H214062   5.040   6.801   5.209
 4700TIP3   OH214063   1.301   4.216   0.753
 4700TIP3    H114064   1.257   4.189   0.673
 4700TIP3    H214065   1.286   4.311   0.757
 4701TIP3   OH214066   0.601   4.500   5.539
 4701TIP3    H114067   0.507   4.511   5.528
 4701TIP3    H214068   0.609   4.432   5.606
 4702TIP3   OH214069   6.249   5.558   4.922
 4702TIP3    H114070   6.298   5.581   5.001
 4702TIP3    H214071   6.166   5.523   4.955
 4703TIP3   OH214072   1.849   1.022   2.403
 4703TIP3    H114073   1.776   1.083   2.409
 4703TIP3    H214074   1.927   1.078   2.399
 4704TIP3   OH214075   5.692   0.045   2.241
 4704TIP3    H114076   5.758   0.090   2.189
 4704TIP3    H214077   5.722   0.054   2.331
 4705TIP3   OH214078   7.166   6.152   2.263
 4705TIP3    H114079   7.178   6.067   2.305
 4705TIP3    H214080   7.075   6.151   2.233
 4706TIP3   OH214081   4.865   1.120   5.696
 4706TIP3    H114082   4.922   1.114   5.773
 4706TIP3    H214083   4.783   1.080   5.724
 4707TIP3   OH214084   1.041   2.569   5.130
 4707TIP3    H114085   1.001   2.606   5.051
 4707TIP3    H214086   1.119   2.523   5.098
 4708TIP3   OH214087   0.083   3.120   4.509
 4708TIP3    H114088   0.096   3.091   4.599
 4708TIP3    H214089   0.004   3.174   4.511
 4709TIP3   OH214090   3.588   5.770   0.739
 4709TIP3    H114091   3.670   5.758   0.691
 4709TIP3    H214092   3.613   5.757   0.831
 4710TIP3   OH214093   4.382   5.356   5.528
 4710TIP3    H114094   4.341   5.284   5.480
 4710TIP3    H214095   4.470   5.363   5.490
 4711TIP3   OH214096   1.554   5.193   5.250
 4711TIP3    H114097   1.524   5.178   5.340
 4711TIP3    H214098   1.628   5.134   5.239
 4712TIP3   OH214099   4.347   1.710   2.875
 4712TIP3    H114100   4.425   1.693   2.822
 4712TIP3    H214101   4.278   1.730   2.811
 4713TIP3   OH214102   0.905   6.788   2.691
 4713TIP3    H114103   0.965   6.714   2.682
 4713TIP3    H214104   0.823   6.757   2.651
 4714TIP3   OH214105   5.669   4.786   3.552
 4714TIP3    H114106   5.748   4.826   3.589
 4714TIP3    H214107   5.650   4.840   3.475
 4715TIP3   OH214108   6.435   0.050   2.870
 4715TIP3    H114109   6.491  -0.024   2.846
 4715TIP3    H214110   6.495   0.115   2.906
 4716TIP3   OH214111   4.348   2.479   5.498
 4716TIP3    H114112   4.295   2.439   5.568
 4716TIP3    H214113   4.286   2.534   5.450
 4717TIP3   OH214114   3.149   4.629   3.542
 4717TIP3    H114115   3.237   4.616   3.577
 4717TIP3    H214116   3.113   4.541   3.534
 4718TIP3   OH214117   4.084   0.717   5.099
 4718TIP3    H114118   4.079   0.716   5.194
 4718TIP3    H214119   4.176   0.736   5.080
 4719TIP3   OH214120   1.763   5.099   4.333
 4719TIP3    H114121   1.737   5.048   4.256
 4719TIP3    H214122   1.766   5.189   4.301
 4720TIP3   OH214123   1.089   5.763   0.515
 4720TIP3    H114124   1.106   5.670   0.506
 4720TIP3    H214125   1.005   5.777   0.471
 4721TIP3   OH214126   2.489   6.501   3.252
 4721TIP3    H114127   2.485   6.459   3.166
 4721TIP3    H214128   2.561   6.456   3.297
 4722TIP3   OH214129   0.276   6.814   1.225
 4722TIP3    H114130   0.307   6.786   1.311
 4722TIP3    H214131   0.323   6.758   1.163
 4723TIP3   OH214132   1.337   6.762   1.823
 4723TIP3    H114133   1.317   6.850   1.856
 4723TIP3    H214134   1.379   6.777   1.739
 4724TIP3   OH214135   4.720   4.204   4.325
 4724TIP3    H114136   4.741   4.149   4.400
 4724TIP3    H214137   4.804   4.242   4.300
 4725TIP3   OH214138   2.724   3.897   1.168
 4725TIP3    H114139   2.630   3.910   1.155
 4725TIP3    H214140   2.756   3.871   1.082
 4726TIP3   OH214141   2.759   4.931   1.275
 4726TIP3    H114142   2.847   4.934   1.313
 4726TIP3    H214143   2.768   4.878   1.196
 4727TIP3   OH214144   4.069   0.221   2.021
 4727TIP3    H114145   4.054   0.150   2.084
 4727TIP3    H214146   4.153   0.199   1.980
 4728TIP3   OH214147   4.884   5.223   2.856
 4728TIP3    H114148   4.967   5.218   2.808
 4728TIP3    H214149   4.831   5.284   2.805
 4729TIP3   OH214150   0.300   6.544   2.471
 4729TIP3    H114151   0.389   6.533   2.504
 4729TIP3    H214152   0.248   6.564   2.549
 4730TIP3   OH214153   1.276   4.232   0.164
 4730TIP3    H114154   1.256   4.318   0.129
 4730TIP3    H214155   1.213   4.173   0.121
 4731TIP3   OH214156   5.298   6.715   2.373
 4731TIP3    H114157   5.214   6.761   2.370
 4731TIP3    H214158   5.316   6.704   2.466
 4732TIP3   OH214159   5.932   6.001   0.941
 4732TIP3    H114160   5.972   6.088   0.937
 4732TIP3    H214161   5.909   5.988   1.033
 4733TIP3   OH214162   6.457   6.008   4.160
 4733TIP3    H114163   6.543   6.049   4.161
 4733TIP3    H214164   6.400   6.071   4.205
 4734TIP3   OH214165   0.266   3.308   0.124
 4734TIP3    H114166   0.270   3.224   0.079
 4734TIP3    H214167   0.312   3.292   0.207
 4735TIP3   OH214168   1.703   0.586   4.541
 4735TIP3    H114169   1.706   0.626   4.454
 4735TIP3    H214170   1.793   0.560   4.559
 4736TIP3   OH214171   2.996   4.349   0.418
 4736TIP3    H114172   2.977   4.285   0.349
 4736TIP3    H214173   2.938   4.325   0.490
 4737TIP3   OH214174   7.078   4.025   5.019
 4737TIP3    H114175   7.143   4.089   4.991
 4737TIP3    H214176   7.066   3.969   4.942
 4738TIP3   OH214177   0.813   5.717   3.164
 4738TIP3    H114178   0.813   5.626   3.194
 4738TIP3    H214179   0.726   5.730   3.128
 4739TIP3   OH214180   5.401   5.516   3.143
 4739TIP3    H114181   5.380   5.464   3.065
 4739TIP3    H214182   5.319   5.516   3.193
 4740TIP3   OH214183   0.959   3.960   3.717
 4740TIP3    H114184   0.864   3.957   3.725
 4740TIP3    H214185   0.977   3.921   3.631
 4741TIP3   OH214186   2.643   6.711   1.590
 4741TIP3    H114187   2.693   6.634   1.618
 4741TIP3    H214188   2.556   6.678   1.571
 4742TIP3   OH214189   5.424   6.340   0.197
 4742TIP3    H114190   5.420   6.310   0.107
 4742TIP3    H214191   5.388   6.268   0.249
 4743TIP3   OH214192   6.341   1.217   3.436
 4743TIP3    H114193   6.268   1.279   3.439
 4743TIP3    H214194   6.337   1.178   3.348
 4744TIP3   OH214195   4.851   3.983   1.630
 4744TIP3    H114196   4.860   3.957   1.538
 4744TIP3    H214197   4.757   3.993   1.643
 4745TIP3   OH214198   4.240   5.541   3.735
 4745TIP3    H114199   4.277   5.609   3.679
 4745TIP3    H214200   4.190   5.485   3.676
 4746TIP3   OH214201   5.489   4.035   3.471
 4746TIP3    H114202   5.421   3.970   3.448
 4746TIP3    H214203   5.571   3.994   3.445
 4747TIP3   OH214204   6.821   1.080   3.498
 4747TIP3    H114205   6.854   1.083   3.409
 4747TIP3    H214206   6.800   0.988   3.513
 4748TIP3   OH214207   0.626   0.327   3.548
 4748TIP3    H114208   0.666   0.291   3.469
 4748TIP3    H214209   0.644   0.262   3.616
 4749TIP3   OH214210   5.159   4.819   1.161
 4749TIP3    H114211   5.230   4.846   1.102
 4749TIP3    H214212   5.203   4.786   1.239
 4750TIP3   OH214213   6.116   0.782   3.914
 4750TIP3    H114214   6.188   0.843   3.929
 4750TIP3    H214215   6.159   0.698   3.896
 4751TIP3   OH214216   3.973   1.380   4.445
 4751TIP3    H114217   3.986   1.454   4.386
 4751TIP3    H214218   3.896   1.335   4.411
 4752TIP3   OH214219   5.778   5.377   2.262
 4752TIP3    H114220   5.846   5.341   2.319
 4752TIP3    H214221   5.739   5.448   2.313
 4753TIP3   OH214222   5.691   0.914   4.997
 4753TIP3    H114223   5.626   0.921   4.927
 4753TIP3    H214224   5.700   1.003   5.031
 4754TIP3   OH214225   2.194   2.373   4.893
 4754TIP3    H114226   2.207   2.279   4.879
 4754TIP3    H214227   2.277   2.403   4.931
 4755TIP3   OH214228   1.754   3.700   0.280
 4755TIP3    H114229   1.784   3.673   0.194
 4755TIP3    H214230   1.825   3.754   0.314
 4756TIP3   OH214231   1.418   6.003   3.547
 4756TIP3    H114232   1.440   6.033   3.458
 4756TIP3    H214233   1.341   5.948   3.535
 4757TIP3   OH214234   2.171   1.010   1.381
 4757TIP3    H114235   2.134   0.922   1.374
 4757TIP3    H214236   2.237   1.014   1.312
 4758TIP3   OH214237   0.134   2.474   0.761
 4758TIP3    H114238   0.189   2.440   0.831
 4758TIP3    H214239   0.045   2.466   0.795
 4759TIP3   OH214240   2.081   1.188   2.375
 4759TIP3    H114241   2.055   1.190   2.283
 4759TIP3    H214242   2.176   1.174   2.373
 4760TIP3   OH214243   5.375   5.170   0.938
 4760TIP3    H114244   5.328   5.253   0.950
 4760TIP3    H214245   5.431   5.186   0.862
 4761TIP3   OH214246   5.471   3.067   5.320
 4761TIP3    H114247   5.392   3.026   5.356
 4761TIP3    H214248   5.513   2.998   5.269
 4762TIP3   OH214249   6.492   1.880   2.268
 4762TIP3    H114250   6.437   1.947   2.227
 4762TIP3    H214251   6.433   1.830   2.323
 4763TIP3   OH214252   4.345   4.045   0.433
 4763TIP3    H114253   4.325   4.132   0.397
 4763TIP3    H214254   4.260   4.010   0.459
 4764TIP3   OH214255   6.371   6.302   2.565
 4764TIP3    H114256   6.459   6.266   2.549
 4764TIP3    H214257   6.354   6.284   2.658
 4765TIP3   OH214258   5.939   1.991   4.612
 4765TIP3    H114259   5.873   2.052   4.579
 4765TIP3    H214260   5.911   1.905   4.581
 4766TIP3   OH214261   2.783   0.984   5.487
 4766TIP3    H114262   2.705   0.933   5.466
 4766TIP3    H214263   2.847   0.919   5.515
 4767TIP3   OH214264   4.273   5.807   5.720
 4767TIP3    H114265   4.341   5.766   5.666
 4767TIP3    H214266   4.236   5.876   5.664
 4768TIP3   OH214267   2.737   6.308   2.479
 4768TIP3    H114268   2.756   6.352   2.396
 4768TIP3    H214269   2.715   6.378   2.540
 4769TIP3   OH214270   1.468   0.586   4.737
 4769TIP3    H114271   1.488   0.550   4.650
 4769TIP3    H214272   1.540   0.557   4.792
 4770TIP3   OH214273   0.153   4.513   1.238
 4770TIP3    H114274   0.227   4.481   1.290
 4770TIP3    H214275   0.180   4.499   1.147
 4771TIP3   OH214276   6.212   1.819   4.741
 4771TIP3    H114277   6.299   1.801   4.774
 4771TIP3    H214278   6.201   1.758   4.667
 4772TIP3   OH214279   2.653   6.750   2.973
 4772TIP3    H114280   2.662   6.780   3.064
 4772TIP3    H214281   2.743   6.740   2.942
 4773TIP3   OH214282   3.642   1.367   2.051
 4773TIP3    H114283   3.702   1.432   2.015
 4773TIP3    H214284   3.555   1.397   2.023
 4774TIP3   OH214285   5.434   5.811   1.840
 4774TIP3    H114286   5.399   5.890   1.882
 4774TIP3    H214287   5.377   5.741   1.870
 4775TIP3   OH214288   3.646   3.830   4.814
 4775TIP3    H114289   3.568   3.829   4.869
 4775TIP3    H214290   3.656   3.921   4.788
 4776TIP3   OH214291   4.186   1.758   1.715
 4776TIP3    H114292   4.269   1.711   1.706
 4776TIP3    H214293   4.198   1.811   1.794
 4777TIP3   OH214294   1.685   2.458   0.735
 4777TIP3    H114295   1.704   2.435   0.827
 4777TIP3    H214296   1.693   2.375   0.688
 4778TIP3   OH214297   5.096   1.978   2.237
 4778TIP3    H114298   5.178   2.022   2.214
 4778TIP3    H214299   5.116   1.885   2.229
 4779TIP3   OH214300   3.065   4.987   5.012
 4779TIP3    H114301   3.021   5.072   5.007
 4779TIP3    H214302   3.157   5.008   4.999
 4780TIP3   OH214303   3.460   5.754   3.468
 4780TIP3    H114304   3.435   5.691   3.401
 4780TIP3    H214305   3.433   5.713   3.551
 4781TIP3   OH214306   6.355   1.694   0.422
 4781TIP3    H114307   6.354   1.737   0.336
 4781TIP3    H214308   6.393   1.760   0.480
 4782TIP3   OH214309   6.549   4.866   2.740
 4782TIP3    H114310   6.562   4.914   2.822
 4782TIP3    H214311   6.638   4.850   2.709
 4783TIP3   OH214312   4.254   4.920   2.829
 4783TIP3    H114313   4.251   4.858   2.756
 4783TIP3    H214314   4.165   4.954   2.835
 4784TIP3   OH214315   4.105   2.250   4.919
 4784TIP3    H114316   4.029   2.253   4.977
 4784TIP3    H214317   4.069   2.277   4.834
 4785TIP3   OH214318   5.591   1.183   4.020
 4785TIP3    H114319   5.657   1.242   4.056
 4785TIP3    H214320   5.510   1.234   4.022
 4786TIP3   OH214321   2.473   4.934   5.479
 4786TIP3    H114322   2.502   5.021   5.453
 4786TIP3    H214323   2.554   4.887   5.500
 4787TIP3   OH214324   4.748   3.160   1.382
 4787TIP3    H114325   4.813   3.223   1.350
 4787TIP3    H214326   4.683   3.214   1.426
 4788TIP3   OH214327   6.038   1.642   5.628
 4788TIP3    H114328   6.128   1.667   5.649
 4788TIP3    H214329   6.008   1.594   5.705
 4789TIP3   OH214330   6.924   6.429   3.892
 4789TIP3    H114331   6.834   6.445   3.921
 4789TIP3    H214332   6.952   6.512   3.853
 4790TIP3   OH214333   4.052   3.278   5.770
 4790TIP3    H114334   4.131   3.277   5.824
 4790TIP3    H214335   4.002   3.201   5.799
 4791TIP3   OH214336   3.829   1.307   2.994
 4791TIP3    H114337   3.863   1.297   2.905
 4791TIP3    H214338   3.883   1.248   3.046
 4792TIP3   OH214339   3.403   1.827   0.800
 4792TIP3    H114340   3.339   1.756   0.810
 4792TIP3    H214341   3.477   1.800   0.855
 4793TIP3   OH214342   5.121   2.699   2.096
 4793TIP3    H114343   5.107   2.794   2.095
 4793TIP3    H214344   5.116   2.674   2.003
 4794TIP3   OH214345   0.603   3.384   4.811
 4794TIP3    H114346   0.582   3.322   4.881
 4794TIP3    H214347   0.533   3.450   4.816
 4795TIP3   OH214348   4.269   4.272   5.171
 4795TIP3    H114349   4.303   4.183   5.178
 4795TIP3    H214350   4.340   4.322   5.130
 4796TIP3   OH214351   6.229   0.355   2.975
 4796TIP3    H114352   6.198   0.371   3.064
 4796TIP3    H214353   6.310   0.405   2.969
 4797TIP3   OH214354   4.882   1.202   3.031
 4797TIP3    H114355   4.895   1.214   3.125
 4797TIP3    H214356   4.848   1.113   3.022
 4798TIP3   OH214357   6.988   3.168   0.874
 4798TIP3    H114358   7.030   3.190   0.791
 4798TIP3    H214359   6.895   3.184   0.858
 4799TIP3   OH214360   5.573   1.351   3.513
 4799TIP3    H114361   5.607   1.302   3.587
 4799TIP3    H214362   5.484   1.316   3.500
 4800TIP3   OH214363   1.571   3.625   1.826
 4800TIP3    H114364   1.528   3.682   1.889
 4800TIP3    H214365   1.659   3.662   1.816
 4801TIP3   OH214366   2.048   5.901   3.861
 4801TIP3    H114367   1.987   5.974   3.862
 4801TIP3    H214368   2.090   5.903   3.946
 4802TIP3   OH214369   6.192   2.111   4.257
 4802TIP3    H114370   6.272   2.158   4.281
 4802TIP3    H214371   6.206   2.085   4.166
 4803TIP3   OH214372   6.148   4.592   2.198
 4803TIP3    H114373   6.136   4.682   2.166
 4803TIP3    H214374   6.242   4.585   2.215
 4804TIP3   OH214375   6.594   0.143   3.538
 4804TIP3    H114376   6.655   0.094   3.484
 4804TIP3    H214377   6.650   0.193   3.598
 4805TIP3   OH214378   1.014   3.146   1.134
 4805TIP3    H114379   1.030   3.240   1.145
 4805TIP3    H214380   0.920   3.140   1.116
 4806TIP3   OH214381   5.146   4.163   2.778
 4806TIP3    H114382   5.233   4.128   2.757
 4806TIP3    H214383   5.095   4.148   2.698
 4807TIP3   OH214384   3.746   3.373   4.423
 4807TIP3    H114385   3.728   3.446   4.482
 4807TIP3    H214386   3.815   3.323   4.468
 4808TIP3   OH214387   1.667   5.374   0.937
 4808TIP3    H114388   1.718   5.383   1.017
 4808TIP3    H214389   1.620   5.457   0.928
 4809TIP3   OH214390   4.447   2.609   0.308
 4809TIP3    H114391   4.416   2.681   0.362
 4809TIP3    H214392   4.417   2.530   0.354
 4810TIP3   OH214393   5.333   1.997   4.898
 4810TIP3    H114394   5.345   2.036   4.985
 4810TIP3    H214395   5.238   1.982   4.892
 4811TIP3   OH214396   4.700   0.906   1.749
 4811TIP3    H114397   4.734   0.854   1.677
 4811TIP3    H214398   4.726   0.996   1.729
 4812TIP3   OH214399   1.450   0.417   3.902
 4812TIP3    H114400   1.496   0.333   3.899
 4812TIP3    H214401   1.519   0.483   3.909
 4813TIP3   OH214402   5.718   3.690   2.175
 4813TIP3    H114403   5.763   3.773   2.192
 4813TIP3    H214404   5.760   3.627   2.233
 4814TIP3   OH214405   6.149   6.125   3.537
 4814TIP3    H114406   6.111   6.143   3.623
 4814TIP3    H214407   6.232   6.173   3.537
 4815TIP3   OH214408   1.519   3.035   0.802
 4815TIP3    H114409   1.573   2.956   0.810
 4815TIP3    H214410   1.581   3.102   0.771
 4816TIP3   OH214411   5.371   0.488   0.269
 4816TIP3    H114412   5.450   0.436   0.284
 4816TIP3    H214413   5.390   0.539   0.190
 4817TIP3   OH214414   3.110   2.614   4.215
 4817TIP3    H114415   3.136   2.564   4.292
 4817TIP3    H214416   3.145   2.702   4.231
 4818TIP3   OH214417   3.422   0.941   1.915
 4818TIP3    H114418   3.483   0.873   1.943
 4818TIP3    H214419   3.418   1.001   1.989
 4819TIP3   OH214420   3.577   0.645   4.583
 4819TIP3    H114421   3.544   0.561   4.554
 4819TIP3    H214422   3.500   0.701   4.590
 4820TIP3   OH214423   6.494   1.481   2.345
 4820TIP3    H114424   6.405   1.515   2.351
 4820TIP3    H214425   6.524   1.477   2.436
 4821TIP3   OH214426   1.884   2.577   4.156
 4821TIP3    H114427   1.887   2.666   4.122
 4821TIP3    H214428   1.843   2.526   4.085
 4822TIP3   OH214429   0.645   5.090   2.482
 4822TIP3    H114430   0.694   5.150   2.539
 4822TIP3    H214431   0.657   5.004   2.521
 4823TIP3   OH214432   6.634   5.458   5.707
 4823TIP3    H114433   6.611   5.369   5.733
 4823TIP3    H214434   6.592   5.470   5.622
 4824TIP3   OH214435   6.202   0.301   2.076
 4824TIP3    H114436   6.144   0.299   1.999
 4824TIP3    H214437   6.289   0.311   2.039
 4825TIP3   OH214438   4.622   0.506   1.697
 4825TIP3    H114439   4.687   0.544   1.756
 4825TIP3    H214440   4.666   0.429   1.661
 4826TIP3   OH214441   1.226   4.056   3.395
 4826TIP3    H114442   1.196   4.044   3.305
 4826TIP3    H214443   1.301   3.996   3.403
 4827TIP3   OH214444   1.465   5.469   1.206
 4827TIP3    H114445   1.452   5.404   1.276
 4827TIP3    H214446   1.421   5.547   1.239
 4828TIP3   OH214447   4.632   5.111   4.212
 4828TIP3    H114448   4.635   5.205   4.231
 4828TIP3    H214449   4.612   5.106   4.118
 4829TIP3   OH214450   6.276   3.174   4.415
 4829TIP3    H114451   6.183   3.190   4.429
 4829TIP3    H214452   6.279   3.099   4.356
 4830TIP3   OH214453   2.206   0.879   3.868
 4830TIP3    H114454   2.256   0.955   3.839
 4830TIP3    H214455   2.268   0.827   3.919
 4831TIP3   OH214456   6.396   4.658   3.032
 4831TIP3    H114457   6.343   4.614   3.099
 4831TIP3    H214458   6.368   4.618   2.950
 4832TIP3   OH214459   1.945   5.230   5.147
 4832TIP3    H114460   2.019   5.289   5.161
 4832TIP3    H214461   1.980   5.143   5.166
 4833TIP3   OH214462   2.460   1.674   3.753
 4833TIP3    H114463   2.545   1.707   3.782
 4833TIP3    H214464   2.402   1.750   3.761
 4834TIP3   OH214465   1.539   4.127   0.414
 4834TIP3    H114466   1.613   4.126   0.475
 4834TIP3    H214467   1.567   4.071   0.341
 4835TIP3   OH214468   2.679   6.086   2.320
 4835TIP3    H114469   2.752   6.105   2.261
 4835TIP3    H214470   2.686   6.152   2.388
 4836TIP3   OH214471   0.207   3.672   5.660
 4836TIP3    H114472   0.224   3.676   5.754
 4836TIP3    H214473   0.157   3.752   5.641
 4837TIP3   OH214474   1.999   5.649   3.757
 4837TIP3    H114475   1.993   5.729   3.810
 4837TIP3    H214476   1.922   5.652   3.700
 4838TIP3   OH214477   2.089   1.529   4.241
 4838TIP3    H114478   2.047   1.558   4.323
 4838TIP3    H214479   2.111   1.438   4.257
 4839TIP3   OH214480   6.578   3.305   4.335
 4839TIP3    H114481   6.586   3.239   4.266
 4839TIP3    H214482   6.489   3.339   4.325
 4840TIP3   OH214483   1.379   0.456   5.340
 4840TIP3    H114484   1.447   0.507   5.382
 4840TIP3    H214485   1.308   0.453   5.404
 4841TIP3   OH214486   4.461   2.080   0.264
 4841TIP3    H114487   4.521   2.007   0.273
 4841TIP3    H214488   4.465   2.104   0.171
 4842TIP3   OH214489   5.458   6.690   3.108
 4842TIP3    H114490   5.448   6.662   3.017
 4842TIP3    H214491   5.537   6.744   3.108
 4843TIP3   OH214492   2.805   4.029   4.717
 4843TIP3    H114493   2.805   3.979   4.635
 4843TIP3    H214494   2.845   4.113   4.693
 4844TIP3   OH214495   2.557   3.733   2.390
 4844TIP3    H114496   2.627   3.767   2.334
 4844TIP3    H214497   2.579   3.764   2.478
 4845TIP3   OH214498   0.124   2.389   1.525
 4845TIP3    H114499   0.170   2.345   1.597
 4845TIP3    H214500   0.107   2.477   1.558
 4846TIP3   OH214501   2.732   2.498   1.457
 4846TIP3    H114502   2.755   2.413   1.421
 4846TIP3    H214503   2.796   2.559   1.420
 4847TIP3   OH214504   3.915   2.646   3.839
 4847TIP3    H114505   3.839   2.599   3.806
 4847TIP3    H214506   3.955   2.587   3.903
 4848TIP3   OH214507   4.368   3.585   1.977
 4848TIP3    H114508   4.305   3.636   2.028
 4848TIP3    H214509   4.450   3.592   2.026
 4849TIP3   OH214510   0.803   0.801   5.456
 4849TIP3    H114511   0.762   0.872   5.505
 4849TIP3    H214512   0.734   0.768   5.398
 4850TIP3   OH214513   1.536   0.997   4.795
 4850TIP3    H114514   1.564   1.077   4.750
 4850TIP3    H214515   1.519   0.934   4.724
 4851TIP3   OH214516   6.994   2.396   2.996
 4851TIP3    H114517   7.047   2.476   2.994
 4851TIP3    H214518   6.922   2.417   3.055
 4852TIP3   OH214519   6.229   3.988   1.627
 4852TIP3    H114520   6.243   3.911   1.682
 4852TIP3    H214521   6.165   4.040   1.676
 4853TIP3   OH214522   0.114   2.321   3.817
 4853TIP3    H114523   0.086   2.262   3.887
 4853TIP3    H214524   0.188   2.369   3.854
 4854TIP3   OH214525   0.414   5.281   5.173
 4854TIP3    H114526   0.332   5.276   5.123
 4854TIP3    H214527   0.457   5.197   5.155
 4855TIP3   OH214528   2.313   0.384   3.593
 4855TIP3    H114529   2.369   0.460   3.608
 4855TIP3    H214530   2.295   0.351   3.681
 4856TIP3   OH214531   3.723   4.911   1.670
 4856TIP3    H114532   3.737   5.005   1.660
 4856TIP3    H214533   3.689   4.882   1.585
 4857TIP3   OH214534   2.389   3.256   1.638
 4857TIP3    H114535   2.318   3.275   1.699
 4857TIP3    H214536   2.353   3.276   1.552
 4858TIP3   OH214537   3.107   3.039   4.883
 4858TIP3    H114538   3.022   3.047   4.840
 4858TIP3    H214539   3.121   2.944   4.890
 4859TIP3   OH214540   4.109   1.290   0.355
 4859TIP3    H114541   4.143   1.213   0.401
 4859TIP3    H214542   4.103   1.262   0.264
 4860TIP3   OH214543   2.606   3.275   3.000
 4860TIP3    H114544   2.662   3.345   3.036
 4860TIP3    H214545   2.660   3.236   2.931
 4861TIP3   OH214546   5.263   3.743   3.872
 4861TIP3    H114547   5.285   3.795   3.949
 4861TIP3    H214548   5.308   3.660   3.885
 4862TIP3   OH214549   2.703   1.067   3.591
 4862TIP3    H114550   2.648   1.053   3.513
 4862TIP3    H214551   2.791   1.076   3.556
 4863TIP3   OH214552   0.932   1.243   0.686
 4863TIP3    H114553   0.975   1.313   0.636
 4863TIP3    H214554   0.971   1.249   0.773
 4864TIP3   OH214555   6.769   4.294   5.453
 4864TIP3    H114556   6.684   4.337   5.455
 4864TIP3    H214557   6.814   4.324   5.531
 4865TIP3   OH214558   4.003   0.102   5.353
 4865TIP3    H114559   3.954   0.020   5.360
 4865TIP3    H214560   3.935   0.168   5.340
 4866TIP3   OH214561   0.650   3.013   1.559
 4866TIP3    H114562   0.728   2.987   1.510
 4866TIP3    H214563   0.577   2.978   1.509
 4867TIP3   OH214564   3.487   2.814   3.269
 4867TIP3    H114565   3.511   2.778   3.184
 4867TIP3    H214566   3.413   2.760   3.298
 4868TIP3   OH214567   3.117   5.633   3.437
 4868TIP3    H114568   3.053   5.673   3.496
 4868TIP3    H214569   3.106   5.680   3.354
 4869TIP3   OH214570   2.944   5.008   2.044
 4869TIP3    H114571   2.916   5.025   1.954
 4869TIP3    H214572   2.920   5.087   2.092
 4870TIP3   OH214573   6.219   1.331   4.501
 4870TIP3    H114574   6.175   1.248   4.486
 4870TIP3    H214575   6.285   1.312   4.568
 4871TIP3   OH214576   0.859   0.646   4.574
 4871TIP3    H114577   0.773   0.617   4.545
 4871TIP3    H214578   0.862   0.739   4.551
 4872TIP3   OH214579   2.025   1.094   5.409
 4872TIP3    H114580   2.032   1.040   5.488
 4872TIP3    H214581   2.080   1.170   5.428
 4873TIP3   OH214582   6.482   3.547   5.535
 4873TIP3    H114583   6.567   3.548   5.489
 4873TIP3    H214584   6.424   3.598   5.479
 4874TIP3   OH214585   4.816   6.142   1.759
 4874TIP3    H114586   4.773   6.147   1.845
 4874TIP3    H214587   4.909   6.150   1.778
 4875TIP3   OH214588   4.906   3.766   0.249
 4875TIP3    H114589   4.926   3.684   0.296
 4875TIP3    H214590   4.849   3.814   0.309
 4876TIP3   OH214591   3.705   2.792   1.860
 4876TIP3    H114592   3.685   2.703   1.890
 4876TIP3    H214593   3.682   2.848   1.934
 4877TIP3   OH214594   1.920   6.221   3.416
 4877TIP3    H114595   1.933   6.288   3.483
 4877TIP3    H214596   1.826   6.202   3.419
 4878TIP3   OH214597   0.776   3.192   3.428
 4878TIP3    H114598   0.805   3.142   3.352
 4878TIP3    H214599   0.828   3.158   3.500
 4879TIP3   OH214600   0.418   3.612   4.308
 4879TIP3    H114601   0.455   3.579   4.226
 4879TIP3    H214602   0.347   3.670   4.281
 4880TIP3   OH214603   0.645   4.331   5.749
 4880TIP3    H114604   0.723   4.348   5.801
 4880TIP3    H214605   0.615   4.245   5.777
 4881TIP3   OH214606   4.991   0.913   3.149
 4881TIP3    H114607   4.912   0.965   3.166
 4881TIP3    H214608   4.960   0.840   3.095
 4882TIP3   OH214609   5.737   5.125   2.092
 4882TIP3    H114610   5.718   5.092   2.180
 4882TIP3    H214611   5.827   5.155   2.097
 4883TIP3   OH214612   1.384   5.880   1.546
 4883TIP3    H114613   1.468   5.836   1.564
 4883TIP3    H214614   1.404   5.973   1.552
 4884TIP3   OH214615   3.269   3.688   3.926
 4884TIP3    H114616   3.175   3.701   3.932
 4884TIP3    H214617   3.297   3.671   4.016
 4885TIP3   OH214618   6.400   4.553   0.468
 4885TIP3    H114619   6.415   4.459   0.458
 4885TIP3    H214620   6.311   4.566   0.435
 4886TIP3   OH214621   1.826   2.593   2.854
 4886TIP3    H114622   1.909   2.623   2.891
 4886TIP3    H214623   1.850   2.517   2.800
 4887TIP3   OH214624   3.173   3.679   2.817
 4887TIP3    H114625   3.108   3.641   2.876
 4887TIP3    H214626   3.123   3.739   2.763
 4888TIP3   OH214627   2.420   4.220   3.534
 4888TIP3    H114628   2.379   4.240   3.450
 4888TIP3    H214629   2.494   4.163   3.512
 4889TIP3   OH214630   0.022   1.948   0.101
 4889TIP3    H114631   0.085   1.973   0.034
 4889TIP3    H214632   0.059   1.983   0.183
 4890TIP3   OH214633   1.619   6.303   3.464
 4890TIP3    H114634   1.625   6.379   3.523
 4890TIP3    H214635   1.646   6.229   3.518
 4891TIP3   OH214636   5.197   3.445   5.722
 4891TIP3    H114637   5.206   3.540   5.732
 4891TIP3    H214638   5.136   3.419   5.791
 4892TIP3   OH214639   2.663   5.156   5.781
 4892TIP3    H114640   2.574   5.125   5.796
 4892TIP3    H214641   2.654   5.251   5.773
 4893TIP3   OH214642   2.647   6.363   4.997
 4893TIP3    H114643   2.739   6.368   4.974
 4893TIP3    H214644   2.633   6.437   5.056
 4894TIP3   OH214645   5.354   1.760   4.735
 4894TIP3    H114646   5.311   1.756   4.650
 4894TIP3    H214647   5.333   1.848   4.768
 4895TIP3   OH214648   0.406   0.588   1.681
 4895TIP3    H114649   0.414   0.546   1.595
 4895TIP3    H214650   0.313   0.581   1.702
 4896TIP3   OH214651   3.760   5.902   2.559
 4896TIP3    H114652   3.813   5.868   2.631
 4896TIP3    H214653   3.698   5.832   2.540
 4897TIP3   OH214654   4.667   1.520   0.631
 4897TIP3    H114655   4.602   1.563   0.576
 4897TIP3    H214656   4.709   1.456   0.573
 4898TIP3   OH214657   2.645   4.273   2.711
 4898TIP3    H114658   2.732   4.277   2.750
 4898TIP3    H214659   2.589   4.319   2.774
 4899TIP3   OH214660   1.973   5.555   0.023
 4899TIP3    H114661   1.884   5.543  -0.011
 4899TIP3    H214662   2.008   5.466   0.029
 4900TIP3   OH214663   0.844   3.749   4.071
 4900TIP3    H114664   0.780   3.820   4.070
 4900TIP3    H214665   0.903   3.771   4.144
 4901TIP3   OH214666   4.691   3.464   4.427
 4901TIP3    H114667   4.717   3.555   4.442
 4901TIP3    H214668   4.645   3.466   4.343
 4902TIP3   OH214669   3.698   5.410   4.733
 4902TIP3    H114670   3.770   5.361   4.694
 4902TIP3    H214671   3.737   5.493   4.759
 4903TIP3   OH214672   4.544   5.143   0.361
 4903TIP3    H114673   4.567   5.143   0.268
 4903TIP3    H214674   4.605   5.205   0.401
 4904TIP3   OH214675   5.353   5.801   2.208
 4904TIP3    H114676   5.259   5.800   2.229
 4904TIP3    H214677   5.396   5.804   2.294
 4905TIP3   OH214678   6.522   4.729   0.300
 4905TIP3    H114679   6.616   4.716   0.314
 4905TIP3    H214680   6.482   4.705   0.383
 4906TIP3   OH214681   3.560   0.438   3.320
 4906TIP3    H114682   3.631   0.457   3.259
 4906TIP3    H214683   3.480   0.450   3.269
 4907TIP3   OH214684   0.581   2.292   1.561
 4907TIP3    H114685   0.498   2.321   1.599
 4907TIP3    H214686   0.629   2.254   1.634
 4908TIP3   OH214687   2.812   4.288   3.788
 4908TIP3    H114688   2.861   4.212   3.757
 4908TIP3    H214689   2.807   4.346   3.712
 4909TIP3   OH214690   3.961   4.350   4.653
 4909TIP3    H114691   4.031   4.395   4.608
 4909TIP3    H214692   4.002   4.271   4.689
 4910TIP3   OH214693   2.641   0.995   0.567
 4910TIP3    H114694   2.586   1.074   0.573
 4910TIP3    H214695   2.726   1.023   0.599
 4911TIP3   OH214696   5.286   2.686   0.992
 4911TIP3    H114697   5.243   2.672   0.907
 4911TIP3    H214698   5.213   2.699   1.053
 4912TIP3   OH214699   0.072   2.830   0.983
 4912TIP3    H114700  -0.007   2.868   0.946
 4912TIP3    H214701   0.120   2.904   1.019
 4913TIP3   OH214702   1.084   5.838   4.596
 4913TIP3    H114703   1.123   5.855   4.682
 4913TIP3    H214704   0.997   5.803   4.616
 4914TIP3   OH214705   3.107   6.625   0.983
 4914TIP3    H114706   3.054   6.550   0.956
 4914TIP3    H214707   3.186   6.585   1.019
 4915TIP3   OH214708   6.534   2.410   4.550
 4915TIP3    H114709   6.575   2.397   4.635
 4915TIP3    H214710   6.596   2.466   4.503
 4916TIP3   OH214711   5.422   6.127   2.237
 4916TIP3    H114712   5.494   6.186   2.212
 4916TIP3    H214713   5.461   6.040   2.233
 4917TIP3   OH214714   5.093   3.987   1.761
 4917TIP3    H114715   5.138   4.067   1.735
 4917TIP3    H214716   5.005   3.995   1.724
 4918TIP3   OH214717   6.737   4.192   1.002
 4918TIP3    H114718   6.745   4.161   0.911
 4918TIP3    H214719   6.827   4.190   1.035
 4919TIP3   OH214720   2.644   5.187   5.410
 4919TIP3    H114721   2.611   5.277   5.410
 4919TIP3    H214722   2.739   5.197   5.412
 4920TIP3   OH214723   3.159   6.300   5.060
 4920TIP3    H114724   3.197   6.267   4.979
 4920TIP3    H214725   3.222   6.275   5.128
 4921TIP3   OH214726   0.049   6.053   4.645
 4921TIP3    H114727   0.014   6.055   4.734
 4921TIP3    H214728   0.061   6.145   4.621
 4922TIP3   OH214729   0.022   3.710   2.954
 4922TIP3    H114730  -0.046   3.746   3.011
 4922TIP3    H214731   0.004   3.749   2.868
 4923TIP3   OH214732   5.253   1.883   0.871
 4923TIP3    H114733   5.185   1.948   0.855
 4923TIP3    H214734   5.329   1.934   0.900
 4924TIP3   OH214735   5.409   4.672   3.236
 4924TIP3    H114736   5.399   4.581   3.211
 4924TIP3    H214737   5.375   4.722   3.162
 4925TIP3   OH214738   5.298   1.480   0.253
 4925TIP3    H114739   5.261   1.493   0.165
 4925TIP3    H214740   5.261   1.397   0.283
 4926TIP3   OH214741   1.459   0.287   3.576
 4926TIP3    H114742   1.467   0.193   3.559
 4926TIP3    H214743   1.375   0.296   3.621
 4927TIP3   OH214744   4.100   5.378   4.872
 4927TIP3    H114745   4.059   5.380   4.785
 4927TIP3    H214746   4.173   5.440   4.866
 4928TIP3   OH214747   6.339   2.280   5.430
 4928TIP3    H114748   6.275   2.335   5.475
 4928TIP3    H214749   6.424   2.319   5.454
 4929TIP3   OH214750   1.318   3.127   1.963
 4929TIP3    H114751   1.363   3.198   1.918
 4929TIP3    H214752   1.290   3.068   1.893
 4930TIP3   OH214753   0.153   5.403   2.097
 4930TIP3    H114754   0.152   5.332   2.033
 4930TIP3    H214755   0.229   5.456   2.073
 4931TIP3   OH214756   2.823   4.139   3.029
 4931TIP3    H114757   2.742   4.092   3.010
 4931TIP3    H214758   2.889   4.096   2.975
 4932TIP3   OH214759   3.529   1.593   5.139
 4932TIP3    H114760   3.579   1.668   5.172
 4932TIP3    H214761   3.532   1.529   5.211
 4933TIP3   OH214762   3.012   2.180   5.196
 4933TIP3    H114763   3.045   2.111   5.254
 4933TIP3    H214764   3.071   2.253   5.211
 4934TIP3   OH214765   7.010   2.724   3.339
 4934TIP3    H114766   6.946   2.668   3.384
 4934TIP3    H214767   7.094   2.681   3.354
 4935TIP3   OH214768   5.609   4.019   3.164
 4935TIP3    H114769   5.543   4.054   3.105
 4935TIP3    H214770   5.649   3.947   3.116
 4936TIP3   OH214771   2.652   1.470   5.518
 4936TIP3    H114772   2.737   1.513   5.531
 4936TIP3    H214773   2.663   1.383   5.556
 4937TIP3   OH214774   3.741   1.654   2.248
 4937TIP3    H114775   3.753   1.724   2.184
 4937TIP3    H214776   3.828   1.614   2.257
 4938TIP3   OH214777   4.101   3.169   4.490
 4938TIP3    H114778   4.152   3.172   4.409
 4938TIP3    H214779   4.039   3.098   4.478
 4939TIP3   OH214780   5.137   2.812   4.133
 4939TIP3    H114781   5.102   2.769   4.211
 4939TIP3    H214782   5.078   2.885   4.118
 4940TIP3   OH214783   6.491   3.221   5.868
 4940TIP3    H114784   6.556   3.224   5.939
 4940TIP3    H214785   6.477   3.312   5.845
 4941TIP3   OH214786   3.720   3.480   5.669
 4941TIP3    H114787   3.701   3.414   5.735
 4941TIP3    H214788   3.732   3.430   5.588
 4942TIP3   OH214789   2.601   5.460   2.613
 4942TIP3    H114790   2.639   5.391   2.558
 4942TIP3    H214791   2.667   5.530   2.612
 4943TIP3   OH214792   2.371   4.390   3.936
 4943TIP3    H114793   2.411   4.315   3.894
 4943TIP3    H214794   2.422   4.403   4.016
 4944TIP3   OH214795   1.380   1.598   2.934
 4944TIP3    H114796   1.311   1.647   2.890
 4944TIP3    H214797   1.334   1.539   2.993
 4945TIP3   OH214798   0.787   5.311   3.495
 4945TIP3    H114799   0.829   5.397   3.490
 4945TIP3    H214800   0.855   5.253   3.531
 4946TIP3   OH214801   2.264   6.222   3.485
 4946TIP3    H114802   2.330   6.235   3.553
 4946TIP3    H214803   2.239   6.310   3.458
 4947TIP3   OH214804   4.905   4.853   4.919
 4947TIP3    H114805   4.953   4.771   4.917
 4947TIP3    H214806   4.872   4.864   4.829
 4948TIP3   OH214807   1.369   6.114   1.285
 4948TIP3    H114808   1.366   6.209   1.282
 4948TIP3    H214809   1.316   6.090   1.361
 4949TIP3   OH214810   0.706   1.499   2.039
 4949TIP3    H114811   0.734   1.554   1.966
 4949TIP3    H214812   0.611   1.490   2.027
 4950TIP3   OH214813   2.930   2.475   0.347
 4950TIP3    H114814   2.841   2.498   0.373
 4950TIP3    H214815   2.921   2.432   0.262
 4951TIP3   OH214816   6.721   0.447   1.335
 4951TIP3    H114817   6.702   0.538   1.311
 4951TIP3    H214818   6.779   0.416   1.266
 4952TIP3   OH214819   4.477   3.769   2.835
 4952TIP3    H114820   4.462   3.851   2.787
 4952TIP3    H214821   4.479   3.701   2.768
 4953TIP3   OH214822   6.204   3.999   5.075
 4953TIP3    H114823   6.154   3.962   5.148
 4953TIP3    H214824   6.291   3.962   5.084
 4954TIP3   OH214825   3.465   6.003   4.575
 4954TIP3    H114826   3.388   6.051   4.545
 4954TIP3    H214827   3.539   6.053   4.540
 4955TIP3   OH214828   1.385   0.324   0.708
 4955TIP3    H114829   1.323   0.259   0.673
 4955TIP3    H214830   1.459   0.320   0.647
 4956TIP3   OH214831   6.547   5.233   5.834
 4956TIP3    H114832   6.548   5.272   5.922
 4956TIP3    H214833   6.461   5.255   5.799
 4957TIP3   OH214834   1.551   0.298   1.637
 4957TIP3    H114835   1.479   0.351   1.671
 4957TIP3    H214836   1.561   0.327   1.547
 4958TIP3   OH214837   4.258   3.806   0.943
 4958TIP3    H114838   4.200   3.748   0.894
 4958TIP3    H214839   4.213   3.891   0.943
 4959TIP3   OH214840   2.874   4.977   5.758
 4959TIP3    H114841   2.788   5.012   5.781
 4959TIP3    H214842   2.930   5.054   5.751
 4960TIP3   OH214843   0.939   1.605   1.224
 4960TIP3    H114844   0.933   1.700   1.232
 4960TIP3    H214845   0.952   1.589   1.131
 4961TIP3   OH214846   6.718   5.797   4.472
 4961TIP3    H114847   6.687   5.887   4.481
 4961TIP3    H214848   6.804   5.797   4.515
 4962TIP3   OH214849   3.971   5.964   4.919
 4962TIP3    H114850   3.978   5.869   4.920
 4962TIP3    H214851   3.960   5.987   4.826
 4963TIP3   OH214852   5.852   3.326   4.950
 4963TIP3    H114853   5.773   3.365   4.912
 4963TIP3    H214854   5.904   3.400   4.979
 4964TIP3   OH214855   4.132   3.548   0.801
 4964TIP3    H114856   4.116   3.563   0.894
 4964TIP3    H214857   4.098   3.460   0.785
 4965TIP3   OH214858   2.595   6.262   0.102
 4965TIP3    H114859   2.572   6.279   0.194
 4965TIP3    H214860   2.592   6.348   0.061
 4966TIP3   OH214861   3.688   3.461   5.249
 4966TIP3    H114862   3.722   3.505   5.328
 4966TIP3    H214863   3.606   3.506   5.231
 4967TIP3   OH214864   4.025   3.990   0.950
 4967TIP3    H114865   3.942   3.976   0.995
 4967TIP3    H214866   4.047   4.082   0.967
 4968TIP3   OH214867   7.216   5.295   0.130
 4968TIP3    H114868   7.234   5.280   0.223
 4968TIP3    H214869   7.275   5.235   0.085
 4969TIP3   OH214870   4.117   4.592   1.508
 4969TIP3    H114871   4.034   4.549   1.487
 4969TIP3    H214872   4.126   4.582   1.603
 4970TIP3   OH214873   0.457   4.187   1.806
 4970TIP3    H114874   0.552   4.182   1.793
 4970TIP3    H214875   0.439   4.281   1.815
 4971TIP3   OH214876   1.213   5.803   0.885
 4971TIP3    H114877   1.280   5.791   0.818
 4971TIP3    H214878   1.257   5.784   0.967
 4972TIP3   OH214879   2.461   2.698   4.159
 4972TIP3    H114880   2.422   2.655   4.083
 4972TIP3    H214881   2.436   2.790   4.151
 4973TIP3   OH214882   2.521   5.074   5.012
 4973TIP3    H114883   2.599   5.115   5.052
 4973TIP3    H214884   2.449   5.132   5.037
 4974TIP3   OH214885   1.944   5.416   0.756
 4974TIP3    H114886   1.933   5.321   0.754
 4974TIP3    H214887   1.958   5.437   0.848
 4975TIP3   OH214888   4.914   3.153   0.476
 4975TIP3    H114889   4.861   3.204   0.537
 4975TIP3    H214890   4.949   3.217   0.415
 4976TIP3   OH214891   5.214   3.134   3.114
 4976TIP3    H114892   5.234   3.180   3.196
 4976TIP3    H214893   5.179   3.049   3.142
 4977TIP3   OH214894   4.835   2.075   2.741
 4977TIP3    H114895   4.831   2.117   2.655
 4977TIP3    H214896   4.835   2.149   2.803
 4978TIP3   OH214897   3.936   1.065   1.687
 4978TIP3    H114898   3.889   1.128   1.742
 4978TIP3    H214899   3.988   1.119   1.628
 4979TIP3   OH214900   5.803   1.043   1.244
 4979TIP3    H114901   5.858   0.997   1.180
 4979TIP3    H214902   5.860   1.054   1.320
 4980TIP3   OH214903   1.952   5.816   5.034
 4980TIP3    H114904   1.881   5.760   5.065
 4980TIP3    H214905   2.013   5.821   5.108
 4981TIP3   OH214906   4.764   4.802   1.387
 4981TIP3    H114907   4.826   4.847   1.445
 4981TIP3    H214908   4.799   4.714   1.378
 4982TIP3   OH214909   5.111   1.264   1.585
 4982TIP3    H114910   5.038   1.319   1.612
 4982TIP3    H214911   5.073   1.176   1.576
 4983TIP3   OH214912   3.813   5.633   5.087
 4983TIP3    H114913   3.884   5.618   5.024
 4983TIP3    H214914   3.788   5.546   5.116
 4984TIP3   OH214915   7.035   2.161   4.053
 4984TIP3    H114916   7.024   2.202   3.967
 4984TIP3    H214917   6.973   2.089   4.054
 4985TIP3   OH214918   5.444   6.331   1.901
 4985TIP3    H114919   5.394   6.409   1.925
 4985TIP3    H214920   5.410   6.305   1.815
 4986TIP3   OH214921   0.608   3.469   3.535
 4986TIP3    H114922   0.682   3.471   3.474
 4986TIP3    H214923   0.643   3.505   3.616
 4987TIP3   OH214924   1.410   5.642   0.282
 4987TIP3    H114925   1.489   5.622   0.232
 4987TIP3    H214926   1.412   5.580   0.356
 4988TIP3   OH214927   0.090   2.696   3.388
 4988TIP3    H114928   0.087   2.618   3.443
 4988TIP3    H214929   0.179   2.698   3.353
 4989TIP3   OH214930   1.966   0.281   0.330
 4989TIP3    H114931   1.874   0.267   0.353
 4989TIP3    H214932   1.990   0.201   0.283
 4990TIP3   OH214933   2.891   6.616   2.331
 4990TIP3    H114934   2.847   6.539   2.295
 4990TIP3    H214935   2.970   6.625   2.277
 4991TIP3   OH214936   4.144   3.159   5.537
 4991TIP3    H114937   4.230   3.119   5.551
 4991TIP3    H214938   4.117   3.189   5.624
 4992TIP3   OH214939   6.364   6.297   0.160
 4992TIP3    H114940   6.289   6.246   0.190
 4992TIP3    H214941   6.437   6.235   0.160
 4993TIP3   OH214942   2.065   2.391   2.072
 4993TIP3    H114943   2.107   2.306   2.064
 4993TIP3    H214944   2.085   2.420   2.161
 4994TIP3   OH214945   6.427   5.483   5.506
 4994TIP3    H114946   6.460   5.440   5.427
 4994TIP3    H214947   6.365   5.548   5.474
 4995TIP3   OH214948   3.242   4.651   0.062
 4995TIP3    H114949   3.222   4.618   0.149
 4995TIP3    H214950   3.313   4.713   0.075
 4996TIP3   OH214951   6.464   6.233   4.689
 4996TIP3    H114952   6.483   6.289   4.613
 4996TIP3    H214953   6.507   6.276   4.762
 4997TIP3   OH214954   2.793   4.658   3.859
 4997TIP3    H114955   2.748   4.595   3.803
 4997TIP3    H214956   2.761   4.744   3.830
 4998TIP3   OH214957   7.131   2.755   2.578
 4998TIP3    H114958   7.045   2.733   2.542
 4998TIP3    H214959   7.178   2.672   2.581
 4999TIP3   OH214960   5.100   6.541   0.362
 4999TIP3    H114961   5.142   6.511   0.443
 4999TIP3    H214962   5.105   6.465   0.304
 5000TIP3   OH214963   3.013   1.774   4.487
 5000TIP3    H114964   3.074   1.703   4.508
 5000TIP3    H214965   3.055   1.853   4.522
 5001TIP3   OH214966   1.257   4.504   0.076
 5001TIP3    H114967   1.204   4.576   0.111
 5001TIP3    H214968   1.337   4.546   0.044
 5002TIP3   OH214969   0.381   6.075   4.411
 5002TIP3    H114970   0.365   6.096   4.504
 5002TIP3    H214971   0.310   6.014   4.388
 5003TIP3   OH214972   5.449   4.181   2.247
 5003TIP3    H114973   5.506   4.250   2.281
 5003TIP3    H214974   5.502   4.136   2.181
 5004TIP3   OH214975   1.898   4.089   4.697
 5004TIP3    H114976   1.967   4.063   4.636
 5004TIP3    H214977   1.892   4.184   4.687
 5005TIP3   OH214978   6.739   1.821   1.704
 5005TIP3    H114979   6.832   1.803   1.690
 5005TIP3    H214980   6.708   1.747   1.757
 5006TIP3   OH214981   2.146   5.505   1.238
 5006TIP3    H114982   2.223   5.449   1.243
 5006TIP3    H214983   2.103   5.479   1.156
 5007TIP3   OH214984   0.413   6.551   1.369
 5007TIP3    H114985   0.328   6.509   1.360
 5007TIP3    H214986   0.404   6.610   1.443
 5008TIP3   OH214987   4.083   4.390   5.728
 5008TIP3    H114988   4.128   4.439   5.659
 5008TIP3    H214989   4.033   4.323   5.682
 5009TIP3   OH214990   5.455   6.290   4.308
 5009TIP3    H114991   5.527   6.339   4.348
 5009TIP3    H214992   5.470   6.199   4.335
 5010TIP3   OH214993   0.152   2.174   2.823
 5010TIP3    H114994   0.176   2.231   2.896
 5010TIP3    H214995   0.189   2.216   2.745
 5011TIP3   OH214996   1.271   5.464   2.111
 5011TIP3    H114997   1.278   5.555   2.082
 5011TIP3    H214998   1.195   5.463   2.170
 5012TIP3   OH214999   5.652   0.032   1.506
 5012TIP3    H115000   5.589   0.079   1.453
 5012TIP3    H215001   5.662  -0.053   1.462
 5013TIP3   OH215002   0.668   2.273   3.516
 5013TIP3    H115003   0.598   2.218   3.483
 5013TIP3    H215004   0.747   2.219   3.508
 5014TIP3   OH215005   3.020   5.949   5.701
 5014TIP3    H115006   2.944   5.893   5.718
 5014TIP3    H215007   2.992   6.036   5.729
 5015TIP3   OH215008   0.490   1.815   0.732
 5015TIP3    H115009   0.398   1.811   0.758
 5015TIP3    H215010   0.523   1.726   0.748
 5016TIP3   OH215011   7.011   4.106   0.986
 5016TIP3    H115012   7.044   4.138   0.902
 5016TIP3    H215013   7.079   4.127   1.049
 5017TIP3   OH215014   1.361   4.280   2.334
 5017TIP3    H115015   1.372   4.227   2.413
 5017TIP3    H215016   1.270   4.312   2.339
 5018TIP3   OH215017   6.231   2.244   1.696
 5018TIP3    H115018   6.251   2.198   1.777
 5018TIP3    H215019   6.146   2.286   1.713
 5019TIP3   OH215020   3.182   1.628   0.761
 5019TIP3    H115021   3.121   1.614   0.834
 5019TIP3    H215022   3.238   1.550   0.762
 5020TIP3   OH215023   0.720   4.344   2.369
 5020TIP3    H115024   0.652   4.277   2.358
 5020TIP3    H215025   0.689   4.418   2.316
 5021TIP3   OH215026   1.666   5.160   4.898
 5021TIP3    H115027   1.583   5.154   4.851
 5021TIP3    H215028   1.657   5.099   4.971
 5022TIP3   OH215029   4.392   3.840   0.261
 5022TIP3    H115030   4.332   3.775   0.296
 5022TIP3    H215031   4.386   3.914   0.322
 5023TIP3   OH215032   3.395   3.392   1.053
 5023TIP3    H115033   3.398   3.417   1.145
 5023TIP3    H215034   3.316   3.338   1.046
 5024TIP3   OH215035   2.092   1.897   2.212
 5024TIP3    H115036   2.126   1.810   2.192
 5024TIP3    H215037   2.045   1.886   2.295
 5025TIP3   OH215038   0.371   3.920   5.442
 5025TIP3    H115039   0.336   3.832   5.428
 5025TIP3    H215040   0.404   3.947   5.356
 5026TIP3   OH215041   4.609   6.019   4.708
 5026TIP3    H115042   4.630   6.097   4.760
 5026TIP3    H215043   4.659   6.030   4.628
 5027TIP3   OH215044   6.967   0.651   3.635
 5027TIP3    H115045   7.029   0.612   3.573
 5027TIP3    H215046   7.007   0.638   3.721
 5028TIP3   OH215047   3.578   1.354   3.257
 5028TIP3    H115048   3.654   1.410   3.269
 5028TIP3    H215049   3.503   1.411   3.275
 5029TIP3   OH215050   0.950   2.608   2.346
 5029TIP3    H115051   1.019   2.596   2.412
 5029TIP3    H215052   0.956   2.529   2.292
 5030TIP3   OH215053   4.820   5.445   2.077
 5030TIP3    H115054   4.797   5.511   2.012
 5030TIP3    H215055   4.836   5.495   2.157
 5031TIP3   OH215056   3.077   4.367   3.410
 5031TIP3    H115057   3.086   4.276   3.440
 5031TIP3    H215058   3.138   4.375   3.337
 5032TIP3   OH215059   6.639   1.401   1.182
 5032TIP3    H115060   6.716   1.346   1.197
 5032TIP3    H215061   6.568   1.356   1.228
 5033TIP3   OH215062   1.977   6.686   3.646
 5033TIP3    H115063   1.951   6.730   3.726
 5033TIP3    H215064   1.939   6.739   3.576
 5034TIP3   OH215065   2.213   2.604   4.357
 5034TIP3    H115066   2.296   2.575   4.318
 5034TIP3    H215067   2.227   2.696   4.379
 5035TIP3   OH215068   2.632   4.559   3.107
 5035TIP3    H115069   2.705   4.615   3.131
 5035TIP3    H215070   2.635   4.554   3.012
 5036TIP3   OH215071   3.138   2.473   4.472
 5036TIP3    H115072   3.057   2.517   4.498
 5036TIP3    H215073   3.208   2.523   4.514
 5037TIP3   OH215074   6.385   1.887   0.061
 5037TIP3    H115075   6.305   1.927   0.094
 5037TIP3    H215076   6.440   1.961   0.035
 5038TIP3   OH215077   5.451   0.210   0.525
 5038TIP3    H115078   5.506   0.218   0.603
 5038TIP3    H215079   5.491   0.268   0.461
 5039TIP3   OH215080   0.265   5.844   1.422
 5039TIP3    H115081   0.238   5.934   1.436
 5039TIP3    H215082   0.241   5.825   1.332
 5040TIP3   OH215083   0.736   1.163   4.277
 5040TIP3    H115084   0.756   1.094   4.340
 5040TIP3    H215085   0.671   1.124   4.218
 5041TIP3   OH215086   6.134   6.276   4.564
 5041TIP3    H115087   6.170   6.272   4.652
 5041TIP3    H215088   6.098   6.188   4.548
 5042TIP3   OH215089   2.468   6.173   5.352
 5042TIP3    H115090   2.389   6.133   5.315
 5042TIP3    H215091   2.484   6.123   5.433
 5043TIP3   OH215092   3.921   6.164   1.118
 5043TIP3    H115093   3.852   6.173   1.052
 5043TIP3    H215094   3.906   6.077   1.156
 5044TIP3   OH215095   6.321   6.547   5.409
 5044TIP3    H115096   6.400   6.592   5.441
 5044TIP3    H215097   6.352   6.459   5.387
 5045TIP3   OH215098   6.974   0.567   5.661
 5045TIP3    H115099   7.013   0.558   5.574
 5045TIP3    H215100   7.042   0.537   5.721
 5046TIP3   OH215101   4.109   4.911   3.762
 5046TIP3    H115102   4.154   4.829   3.741
 5046TIP3    H215103   4.081   4.946   3.677
 5047TIP3   OH215104   2.095   4.652   5.215
 5047TIP3    H115105   2.035   4.600   5.161
 5047TIP3    H215106   2.141   4.708   5.152
 5048TIP3   OH215107   0.211  -0.004   0.782
 5048TIP3    H115108   0.168   0.061   0.838
 5048TIP3    H215109   0.138  -0.054   0.745
 5049TIP3   OH215110   0.371   6.833   1.466
 5049TIP3    H115111   0.323   6.902   1.510
 5049TIP3    H215112   0.462   6.843   1.497
 5050TIP3   OH215113   1.830   0.542   1.147
 5050TIP3    H115114   1.911   0.560   1.101
 5050TIP3    H215115   1.797   0.628   1.173
 5051TIP3   OH215116   3.777   2.951   0.134
 5051TIP3    H115117   3.750   2.861   0.149
 5051TIP3    H215118   3.698   2.996   0.103
 5052TIP3   OH215119   1.328   2.078   4.506
 5052TIP3    H115120   1.406   2.132   4.520
 5052TIP3    H215121   1.362   1.991   4.489
 5053TIP3   OH215122   5.770   3.240   5.210
 5053TIP3    H115123   5.824   3.198   5.277
 5053TIP3    H215124   5.829   3.250   5.135
 5054TIP3   OH215125   5.938   0.694   5.871
 5054TIP3    H115126   5.853   0.652   5.853
 5054TIP3    H215127   5.986   0.685   5.789
 5055TIP3   OH215128   7.104   0.547   5.006
 5055TIP3    H115129   7.038   0.542   4.937
 5055TIP3    H215130   7.111   0.457   5.039
 5056TIP3   OH215131   4.125   0.464   0.228
 5056TIP3    H115132   4.139   0.552   0.191
 5056TIP3    H215133   4.213   0.432   0.246
 5057TIP3   OH215134   3.636   4.215   2.147
 5057TIP3    H115135   3.571   4.248   2.085
 5057TIP3    H215136   3.644   4.284   2.213
 5058TIP3   OH215137   1.689   4.606   2.130
 5058TIP3    H115138   1.602   4.567   2.135
 5058TIP3    H215139   1.745   4.536   2.096
 5059TIP3   OH215140   0.293   0.225   0.363
 5059TIP3    H115141   0.335   0.308   0.341
 5059TIP3    H215142   0.208   0.250   0.400
 5060TIP3   OH215143   6.049   5.712   4.271
 5060TIP3    H115144   6.120   5.648   4.280
 5060TIP3    H215145   6.085   5.793   4.307
 5061TIP3   OH215146   4.733   4.281   2.969
 5061TIP3    H115147   4.651   4.300   2.923
 5061TIP3    H215148   4.752   4.361   3.017
 5062TIP3   OH215149   0.424   3.969   0.159
 5062TIP3    H115150   0.502   3.932   0.117
 5062TIP3    H215151   0.364   3.895   0.166
 5063TIP3   OH215152   5.841   0.161   5.554
 5063TIP3    H115153   5.773   0.106   5.594
 5063TIP3    H215154   5.806   0.250   5.559
 5064TIP3   OH215155   1.288   0.167   4.393
 5064TIP3    H115156   1.342   0.209   4.325
 5064TIP3    H215157   1.201   0.206   4.382
 5065TIP3   OH215158   6.148   2.476   5.536
 5065TIP3    H115159   6.139   2.571   5.526
 5065TIP3    H215160   6.059   2.443   5.523
 5066TIP3   OH215161   2.751   5.560   2.896
 5066TIP3    H115162   2.788   5.585   2.811
 5066TIP3    H215163   2.774   5.468   2.906
 5067TIP3   OH215164   6.948   6.450   3.291
 5067TIP3    H115165   6.969   6.375   3.348
 5067TIP3    H215166   6.988   6.428   3.207
 5068TIP3   OH215167   2.611   2.492   0.473
 5068TIP3    H115168   2.657   2.418   0.432
 5068TIP3    H215169   2.519   2.478   0.452
 5069TIP3   OH215170   3.379   0.956   4.853
 5069TIP3    H115171   3.332   0.888   4.901
 5069TIP3    H215172   3.369   0.932   4.761
 5070TIP3   OH215173   2.529   4.390   5.848
 5070TIP3    H115174   2.522   4.452   5.921
 5070TIP3    H215175   2.477   4.315   5.875
 5071TIP3   OH215176   4.169   6.410   0.104
 5071TIP3    H115177   4.077   6.384   0.101
 5071TIP3    H215178   4.167   6.506   0.095
 5072TIP3   OH215179   1.797   1.312   0.991
 5072TIP3    H115180   1.808   1.254   0.916
 5072TIP3    H215181   1.867   1.289   1.051
 5073TIP3   OH215182   0.489   0.592   2.626
 5073TIP3    H115183   0.434   0.563   2.553
 5073TIP3    H215184   0.528   0.511   2.660
 5074TIP3   OH215185   5.205   5.167   3.918
 5074TIP3    H115186   5.239   5.081   3.944
 5074TIP3    H215187   5.284   5.218   3.899
 5075TIP3   OH215188   0.534   5.686   5.590
 5075TIP3    H115189   0.441   5.676   5.569
 5075TIP3    H215190   0.535   5.722   5.678
 5076TIP3   OH215191   5.357   4.457   4.541
 5076TIP3    H115192   5.367   4.552   4.533
 5076TIP3    H215193   5.351   4.441   4.635
 5077TIP3   OH215194   3.250   5.710   4.395
 5077TIP3    H115195   3.249   5.614   4.388
 5077TIP3    H215196   3.342   5.734   4.388
 5078TIP3   OH215197   4.834   6.671   2.773
 5078TIP3    H115198   4.929   6.683   2.771
 5078TIP3    H215199   4.816   6.607   2.705
 5079TIP3   OH215200   0.074   2.373   2.359
 5079TIP3    H115201  -0.002   2.316   2.372
 5079TIP3    H215202   0.101   2.357   2.269
 5080TIP3   OH215203   3.641   2.923   0.557
 5080TIP3    H115204   3.657   2.952   0.647
 5080TIP3    H215205   3.651   2.828   0.561
 5081TIP3   OH215206   5.843   5.930   1.723
 5081TIP3    H115207   5.881   5.852   1.762
 5081TIP3    H215208   5.869   5.925   1.631
 5082TIP3   OH215209   1.895   2.011   4.432
 5082TIP3    H115210   1.890   2.094   4.478
 5082TIP3    H215211   1.977   2.015   4.383
 5083TIP3   OH215212   5.962   6.440   5.325
 5083TIP3    H115213   5.921   6.379   5.264
 5083TIP3    H215214   5.967   6.523   5.278
 5084TIP3   OH215215   5.297   4.914   2.100
 5084TIP3    H115216   5.372   4.922   2.041
 5084TIP3    H215217   5.333   4.873   2.179
 5085TIP3   OH215218   0.271   3.203   4.776
 5085TIP3    H115219   0.316   3.199   4.691
 5085TIP3    H215220   0.224   3.120   4.782
 5086TIP3   OH215221   3.558   5.786   4.702
 5086TIP3    H115222   3.539   5.868   4.657
 5086TIP3    H215223   3.475   5.760   4.741
 5087TIP3   OH215224   1.238   5.717   1.710
 5087TIP3    H115225   1.280   5.779   1.651
 5087TIP3    H215226   1.292   5.639   1.706
 5088TIP3   OH215227   0.362   6.232   0.165
 5088TIP3    H115228   0.441   6.212   0.215
 5088TIP3    H215229   0.382   6.205   0.076
 5089TIP3   OH215230   1.625   4.495   4.214
 5089TIP3    H115231   1.652   4.474   4.125
 5089TIP3    H215232   1.536   4.529   4.204
 5090TIP3   OH215233   0.827   2.402   2.878
 5090TIP3    H115234   0.875   2.369   2.802
 5090TIP3    H215235   0.816   2.325   2.934
 5091TIP3   OH215236   3.870   3.999   4.580
 5091TIP3    H115237   3.832   4.033   4.498
 5091TIP3    H215238   3.815   4.036   4.649
 5092TIP3   OH215239   0.828   4.145   0.463
 5092TIP3    H115240   0.751   4.090   0.452
 5092TIP3    H215241   0.862   4.158   0.374
 5093TIP3   OH215242   4.459   2.459   2.910
 5093TIP3    H115243   4.406   2.447   2.831
 5093TIP3    H215244   4.445   2.379   2.960
 5094TIP3   OH215245   5.042   3.324   1.717
 5094TIP3    H115246   5.064   3.347   1.627
 5094TIP3    H215247   5.121   3.343   1.767
 5095TIP3   OH215248   6.696   3.878   5.668
 5095TIP3    H115249   6.734   3.793   5.645
 5095TIP3    H215250   6.734   3.898   5.754
 5096TIP3   OH215251   5.642   5.956   2.268
 5096TIP3    H115252   5.665   6.043   2.302
 5096TIP3    H215253   5.639   5.968   2.173
 5097TIP3   OH215254   7.197   1.845   3.703
 5097TIP3    H115255   7.118   1.899   3.713
 5097TIP3    H215256   7.166   1.768   3.654
 5098TIP3   OH215257   0.201   4.642   2.994
 5098TIP3    H115258   0.240   4.556   3.006
 5098TIP3    H215259   0.125   4.627   2.938
 5099TIP3   OH215260   7.099   2.903   4.669
 5099TIP3    H115261   7.082   2.899   4.575
 5099TIP3    H215262   7.088   2.813   4.700
 5100TIP3   OH215263   4.373   1.573   3.272
 5100TIP3    H115264   4.375   1.664   3.243
 5100TIP3    H215265   4.363   1.578   3.367
 5101TIP3   OH215266   5.995   6.257   1.363
 5101TIP3    H115267   6.048   6.313   1.307
 5101TIP3    H215268   5.908   6.296   1.360
 5102TIP3   OH215269   5.395   1.242   5.072
 5102TIP3    H115270   5.380   1.323   5.024
 5102TIP3    H215271   5.351   1.255   5.156
 5103TIP3   OH215272   3.505   3.239   4.410
 5103TIP3    H115273   3.510   3.150   4.446
 5103TIP3    H215274   3.591   3.277   4.429
 5104TIP3   OH215275   0.157   6.402   5.671
 5104TIP3    H115276   0.144   6.437   5.759
 5104TIP3    H215277   0.093   6.448   5.617
 5105TIP3   OH215278   2.593   0.944   1.335
 5105TIP3    H115279   2.649   0.873   1.306
 5105TIP3    H215280   2.553   0.912   1.415
 5106TIP3   OH215281   5.704   5.969   5.109
 5106TIP3    H115282   5.627   5.915   5.095
 5106TIP3    H215283   5.773   5.928   5.056
 5107TIP3   OH215284   4.175   2.528   2.204
 5107TIP3    H115285   4.149   2.604   2.151
 5107TIP3    H215286   4.207   2.464   2.140
 5108TIP3   OH215287   6.451   4.558   1.049
 5108TIP3    H115288   6.545   4.577   1.051
 5108TIP3    H215289   6.445   4.473   1.005
 5109TIP3   OH215290   5.190   0.731   2.424
 5109TIP3    H115291   5.242   0.703   2.349
 5109TIP3    H215292   5.235   0.694   2.499
 5110TIP3   OH215293   4.295   2.310   1.124
 5110TIP3    H115294   4.391   2.320   1.125
 5110TIP3    H215295   4.274   2.274   1.210
 5111TIP3   OH215296   2.925   4.219   5.209
 5111TIP3    H115297   2.979   4.292   5.180
 5111TIP3    H215298   2.941   4.150   5.144
 5112TIP3   OH215299   0.722   3.924   0.671
 5112TIP3    H115300   0.724   3.918   0.576
 5112TIP3    H215301   0.636   3.892   0.695
 5113TIP3   OH215302   1.602   2.571   2.092
 5113TIP3    H115303   1.638   2.657   2.070
 5113TIP3    H215304   1.645   2.511   2.031
 5114TIP3   OH215305   5.567   0.890   4.481
 5114TIP3    H115306   5.477   0.923   4.472
 5114TIP3    H215307   5.556   0.803   4.520
 5115TIP3   OH215308   2.572   5.187   1.559
 5115TIP3    H115309   2.527   5.120   1.610
 5115TIP3    H215310   2.650   5.208   1.610
 5116TIP3   OH215311   4.429   2.817   5.786
 5116TIP3    H115312   4.417   2.820   5.881
 5116TIP3    H215313   4.491   2.745   5.773
 5117TIP3   OH215314   1.990   5.269   0.458
 5117TIP3    H115315   2.085   5.266   0.470
 5117TIP3    H215316   1.975   5.345   0.402
 5118TIP3   OH215317   2.640   0.154   1.766
 5118TIP3    H115318   2.696   0.223   1.802
 5118TIP3    H215319   2.558   0.161   1.816
 5119TIP3   OH215320   5.039   6.139   1.380
 5119TIP3    H115321   5.021   6.080   1.453
 5119TIP3    H215322   4.958   6.141   1.330
 5120TIP3   OH215323   4.795   4.044   4.526
 5120TIP3    H115324   4.796   3.951   4.548
 5120TIP3    H215325   4.882   4.075   4.550
 5121TIP3   OH215326   2.534   6.383   0.919
 5121TIP3    H115327   2.571   6.457   0.966
 5121TIP3    H215328   2.538   6.310   0.982
 5122TIP3   OH215329   0.674   2.938   2.047
 5122TIP3    H115330   0.664   2.910   1.956
 5122TIP3    H215331   0.732   2.872   2.086
 5123TIP3   OH215332   1.203   6.757   4.649
 5123TIP3    H115333   1.245   6.842   4.661
 5123TIP3    H215334   1.109   6.777   4.649
 5124TIP3   OH215335   5.044   2.972   5.664
 5124TIP3    H115336   5.016   2.923   5.586
 5124TIP3    H215337   4.970   3.030   5.684
 5125TIP3   OH215338  -0.017   5.680   2.577
 5125TIP3    H115339  -0.067   5.606   2.613
 5125TIP3    H215340   0.041   5.639   2.512
 5126TIP3   OH215341   0.571   3.285   0.088
 5126TIP3    H115342   0.563   3.360   0.146
 5126TIP3    H215343   0.661   3.254   0.100
 5127TIP3   OH215344   4.468   1.686   0.483
 5127TIP3    H115345   4.529   1.758   0.498
 5127TIP3    H215346   4.494   1.650   0.398
 5128TIP3   OH215347   5.389   2.355   0.389
 5128TIP3    H115348   5.333   2.284   0.358
 5128TIP3    H215349   5.466   2.352   0.333
 5129TIP3   OH215350   4.344   2.063   0.543
 5129TIP3    H115351   4.298   1.981   0.525
 5129TIP3    H215352   4.377   2.091   0.458
 5130TIP3   OH215353   0.060   5.739   5.844
 5130TIP3    H115354   0.017   5.654   5.851
 5130TIP3    H215355   0.018   5.782   5.770
 5131TIP3   OH215356   5.426   0.304   1.689
 5131TIP3    H115357   5.444   0.306   1.783
 5131TIP3    H215358   5.443   0.394   1.660
 5132TIP3   OH215359   3.296   2.898   1.860
 5132TIP3    H115360   3.372   2.955   1.872
 5132TIP3    H215361   3.305   2.831   1.927
 5133TIP3   OH215362   1.543   4.466   2.489
 5133TIP3    H115363   1.583   4.544   2.449
 5133TIP3    H215364   1.456   4.461   2.449
 5134TIP3   OH215365   4.552   1.162   1.425
 5134TIP3    H115366   4.468   1.132   1.459
 5134TIP3    H215367   4.532   1.195   1.337
 5135TIP3   OH215368   0.989   5.361   1.680
 5135TIP3    H115369   1.001   5.448   1.718
 5135TIP3    H215370   0.904   5.365   1.637
 5136TIP3   OH215371   1.019   6.231   2.973
 5136TIP3    H115372   1.092   6.271   2.928
 5136TIP3    H215373   0.955   6.302   2.983
 5137TIP3   OH215374   2.661   3.840   5.034
 5137TIP3    H115375   2.739   3.871   5.081
 5137TIP3    H215376   2.593   3.837   5.101
 5138TIP3   OH215377   5.818   6.511   1.120
 5138TIP3    H115378   5.786   6.476   1.037
 5138TIP3    H215379   5.852   6.436   1.167
 5139TIP3   OH215380   3.235   0.677   5.703
 5139TIP3    H115381   3.315   0.720   5.734
 5139TIP3    H215382   3.262   0.627   5.626
 5140TIP3   OH215383   3.252   1.914   0.591
 5140TIP3    H115384   3.246   1.874   0.677
 5140TIP3    H215385   3.342   1.947   0.585
 5141TIP3   OH215386   5.632   2.918   1.511
 5141TIP3    H115387   5.588   2.996   1.477
 5141TIP3    H215388   5.698   2.952   1.572
 5142TIP3   OH215389   3.006   0.154   3.596
 5142TIP3    H115390   3.033   0.092   3.529
 5142TIP3    H215391   3.075   0.148   3.663
 5143TIP3   OH215392   3.285   2.267   4.649
 5143TIP3    H115393   3.238   2.341   4.611
 5143TIP3    H215394   3.312   2.297   4.736
 5144TIP3   OH215395   4.001   5.411   1.089
 5144TIP3    H115396   4.001   5.390   1.183
 5144TIP3    H215397   4.038   5.499   1.085
 5145TIP3   OH215398   0.604   6.513   1.169
 5145TIP3    H115399   0.551   6.536   1.246
 5145TIP3    H215400   0.585   6.583   1.107
 5146TIP3   OH215401   5.673   6.047   1.384
 5146TIP3    H115402   5.625   6.109   1.329
 5146TIP3    H215403   5.628   6.049   1.468
 5147TIP3   OH215404   6.240   2.648   1.062
 5147TIP3    H115405   6.144   2.649   1.061
 5147TIP3    H215406   6.265   2.718   1.003
 5148TIP3   OH215407   1.331   4.602   4.149
 5148TIP3    H115408   1.313   4.510   4.130
 5148TIP3    H215409   1.330   4.646   4.064
 5149TIP3   OH215410   3.386   4.777   1.079
 5149TIP3    H115411   3.387   4.853   1.021
 5149TIP3    H215412   3.407   4.703   1.021
 5150TIP3   OH215413   6.626   5.322   2.659
 5150TIP3    H115414   6.591   5.386   2.721
 5150TIP3    H215415   6.703   5.365   2.620
 5151TIP3   OH215416   6.973   5.842   1.425
 5151TIP3    H115417   6.895   5.828   1.478
 5151TIP3    H215418   6.992   5.756   1.386
 5152TIP3   OH215419   0.099   6.429   4.792
 5152TIP3    H115420   0.035   6.432   4.863
 5152TIP3    H215421   0.170   6.487   4.819
 5153TIP3   OH215422   2.781   5.310   1.196
 5153TIP3    H115423   2.803   5.400   1.173
 5153TIP3    H215424   2.719   5.318   1.268
 5154TIP3   OH215425   3.391   1.852   5.648
 5154TIP3    H115426   3.298   1.874   5.651
 5154TIP3    H215427   3.416   1.840   5.740
 5155TIP3   OH215428   3.336   1.360   3.848
 5155TIP3    H115429   3.326   1.274   3.889
 5155TIP3    H215430   3.388   1.410   3.911
 5156TIP3   OH215431   0.201   5.769   0.396
 5156TIP3    H115432   0.235   5.857   0.376
 5156TIP3    H215433   0.106   5.780   0.397
 5157TIP3   OH215434   1.467   1.552   4.360
 5157TIP3    H115435   1.442   1.570   4.451
 5157TIP3    H215436   1.390   1.512   4.321
 5158TIP3   OH215437   5.661   6.785   3.326
 5158TIP3    H115438   5.720   6.738   3.267
 5158TIP3    H215439   5.718   6.820   3.395
 5159TIP3   OH215440   4.051   2.717   2.032
 5159TIP3    H115441   4.070   2.742   1.941
 5159TIP3    H215442   3.957   2.697   2.032
 5160TIP3   OH215443   2.534   2.898   1.985
 5160TIP3    H115444   2.552   2.805   1.971
 5160TIP3    H215445   2.586   2.943   1.919
 5161TIP3   OH215446   4.478   6.759   4.735
 5161TIP3    H115447   4.428   6.680   4.755
 5161TIP3    H215448   4.557   6.727   4.692
 5162TIP3   OH215449   4.300   6.164   2.365
 5162TIP3    H115450   4.324   6.071   2.370
 5162TIP3    H215451   4.333   6.202   2.446
 5163TIP3   OH215452   1.162   5.862   1.342
 5163TIP3    H115453   1.231   5.855   1.408
 5163TIP3    H215454   1.080   5.857   1.393
 5164TIP3   OH215455   4.738   1.887   0.275
 5164TIP3    H115456   4.733   1.881   0.370
 5164TIP3    H215457   4.832   1.893   0.256
 5165TIP3   OH215458   2.836   2.917   0.156
 5165TIP3    H115459   2.789   2.866   0.222
 5165TIP3    H215460   2.852   3.002   0.198
 5166TIP3   OH215461   2.081   5.002   4.567
 5166TIP3    H115462   2.002   4.968   4.609
 5166TIP3    H215463   2.153   4.963   4.615
 5167TIP3   OH215464   3.787   4.235   0.816
 5167TIP3    H115465   3.881   4.226   0.804
 5167TIP3    H215466   3.749   4.208   0.732
 5168TIP3   OH215467   6.758   3.856   3.892
 5168TIP3    H115468   6.683   3.864   3.833
 5168TIP3    H215469   6.740   3.917   3.963
 5169TIP3   OH215470   3.598   1.214   1.554
 5169TIP3    H115471   3.585   1.130   1.599
 5169TIP3    H215472   3.509   1.241   1.529
 5170TIP3   OH215473   4.770   2.098   4.503
 5170TIP3    H115474   4.706   2.046   4.454
 5170TIP3    H215475   4.729   2.184   4.512
 5171TIP3   OH215476   3.051   0.504   5.814
 5171TIP3    H115477   3.103   0.566   5.763
 5171TIP3    H215478   3.085   0.513   5.903
 5172TIP3   OH215479   5.996   4.953   0.296
 5172TIP3    H115480   5.981   4.937   0.203
 5172TIP3    H215481   6.073   5.010   0.298
 5173TIP3   OH215482   3.175   0.566   5.249
 5173TIP3    H115483   3.262   0.569   5.209
 5173TIP3    H215484   3.129   0.497   5.200
 5174TIP3   OH215485   0.865   4.313   0.868
 5174TIP3    H115486   0.944   4.259   0.875
 5174TIP3    H215487   0.795   4.251   0.852
 5175TIP3   OH215488   0.794   6.041   0.688
 5175TIP3    H115489   0.836   5.995   0.760
 5175TIP3    H215490   0.866   6.071   0.633
 5176TIP3   OH215491   5.599   0.951   3.886
 5176TIP3    H115492   5.585   0.867   3.930
 5176TIP3    H215493   5.590   1.016   3.956
 5177TIP3   OH215494   6.163   4.944   4.558
 5177TIP3    H115495   6.259   4.943   4.563
 5177TIP3    H215496   6.139   4.852   4.548
 5178TIP3   OH215497   0.299   6.326   5.256
 5178TIP3    H115498   0.334   6.359   5.339
 5178TIP3    H215499   0.337   6.239   5.247
 5179TIP3   OH215500   1.148   2.085   2.778
 5179TIP3    H115501   1.140   2.041   2.863
 5179TIP3    H215502   1.233   2.056   2.744
 5180TIP3   OH215503   1.319   0.075   2.389
 5180TIP3    H115504   1.274   0.118   2.461
 5180TIP3    H215505   1.321  -0.018   2.414
 5181TIP3   OH215506   5.054   5.539   3.834
 5181TIP3    H115507   5.054   5.633   3.818
 5181TIP3    H215508   4.961   5.515   3.837
 5182TIP3   OH215509   3.746   2.296   2.859
 5182TIP3    H115510   3.752   2.360   2.789
 5182TIP3    H215511   3.765   2.346   2.939
 5183TIP3   OH215512   7.061   3.833   0.363
 5183TIP3    H115513   6.984   3.876   0.401
 5183TIP3    H215514   7.028   3.751   0.327
 5184TIP3   OH215515   4.136   0.713   0.145
 5184TIP3    H115516   4.122   0.808   0.136
 5184TIP3    H215517   4.111   0.678   0.060
 5185TIP3   OH215518   6.870   1.658   3.491
 5185TIP3    H115519   6.858   1.565   3.510
 5185TIP3    H215520   6.956   1.664   3.450
 5186TIP3   OH215521   2.421   1.150   5.511
 5186TIP3    H115522   2.372   1.129   5.590
 5186TIP3    H215523   2.486   1.080   5.503
 5187TIP3   OH215524   4.769   1.718   3.052
 5187TIP3    H115525   4.741   1.716   3.144
 5187TIP3    H215526   4.774   1.626   3.027
 5188TIP3   OH215527   0.921   4.151   2.597
 5188TIP3    H115528   0.915   4.064   2.557
 5188TIP3    H215529   0.955   4.134   2.685
 5189TIP3   OH215530   0.831   1.949   0.145
 5189TIP3    H115531   0.888   1.881   0.108
 5189TIP3    H215532   0.748   1.905   0.161
 5190TIP3   OH215533   2.903   5.687   1.735
 5190TIP3    H115534   2.825   5.743   1.735
 5190TIP3    H215535   2.910   5.655   1.645
 5191TIP3   OH215536   3.929   1.313   1.164
 5191TIP3    H115537   3.839   1.309   1.195
 5191TIP3    H215538   3.979   1.265   1.229
 5192TIP3   OH215539   5.579   5.783   3.706
 5192TIP3    H115540   5.603   5.691   3.698
 5192TIP3    H215541   5.659   5.825   3.739
 5193TIP3   OH215542   7.258   5.131   1.485
 5193TIP3    H115543   7.170   5.168   1.488
 5193TIP3    H215544   7.269   5.090   1.571
 5194TIP3   OH215545   0.676   5.578   4.803
 5194TIP3    H115546   0.620   5.546   4.874
 5194TIP3    H215547   0.615   5.608   4.736
 5195TIP3   OH215548   5.731   0.355   1.239
 5195TIP3    H115549   5.728   0.409   1.160
 5195TIP3    H215550   5.812   0.305   1.231
 5196TIP3   OH215551   1.225   4.563   1.753
 5196TIP3    H115552   1.283   4.625   1.709
 5196TIP3    H215553   1.144   4.566   1.702
 5197TIP3   OH215554   2.145   0.337   5.315
 5197TIP3    H115555   2.063   0.356   5.361
 5197TIP3    H215556   2.128   0.254   5.270
 5198TIP3   OH215557   4.139   1.168   1.931
 5198TIP3    H115558   4.215   1.116   1.957
 5198TIP3    H215559   4.069   1.104   1.923
 5199TIP3   OH215560   0.407   0.054   4.116
 5199TIP3    H115561   0.403   0.108   4.037
 5199TIP3    H215562   0.500   0.045   4.135
 5200TIP3   OH215563   6.845   4.039   5.378
 5200TIP3    H115564   6.853   4.068   5.287
 5200TIP3    H215565   6.823   4.118   5.427
 5201TIP3   OH215566   6.160   5.823   3.890
 5201TIP3    H115567   6.074   5.802   3.855
 5201TIP3    H215568   6.202   5.739   3.905
 5202TIP3   OH215569   2.698   0.459   5.606
 5202TIP3    H115570   2.619   0.512   5.613
 5202TIP3    H215571   2.717   0.431   5.695
 5203TIP3   OH215572   6.862   2.212   3.570
 5203TIP3    H115573   6.881   2.118   3.568
 5203TIP3    H215574   6.789   2.220   3.632
 5204TIP3   OH215575   2.044   3.214   2.502
 5204TIP3    H115576   2.132   3.222   2.537
 5204TIP3    H215577   2.003   3.299   2.520
 5205TIP3   OH215578   1.653   1.039   0.567
 5205TIP3    H115579   1.614   0.960   0.530
 5205TIP3    H215580   1.673   1.094   0.491
 5206TIP3   OH215581   5.560   0.773   5.611
 5206TIP3    H115582   5.531   0.860   5.582
 5206TIP3    H215583   5.528   0.713   5.543
 5207TIP3   OH215584   6.235   2.002   4.985
 5207TIP3    H115585   6.224   1.954   5.068
 5207TIP3    H215586   6.276   2.084   5.010
 5208TIP3   OH215587   2.095   1.377   3.544
 5208TIP3    H115588   2.019   1.366   3.487
 5208TIP3    H215589   2.088   1.306   3.607
 5209TIP3   OH215590   6.849   4.106   5.109
 5209TIP3    H115591   6.791   4.145   5.044
 5209TIP3    H215592   6.930   4.087   5.060
 5210TIP3   OH215593   4.629   2.258   0.401
 5210TIP3    H115594   4.556   2.218   0.354
 5210TIP3    H215595   4.664   2.324   0.341
 5211TIP3   OH215596   3.073   1.875   1.094
 5211TIP3    H115597   2.986   1.882   1.133
 5211TIP3    H215598   3.131   1.914   1.159
 5212TIP3   OH215599   4.546   1.654   2.093
 5212TIP3    H115600   4.624   1.612   2.056
 5212TIP3    H215601   4.577   1.698   2.172
 5213TIP3   OH215602   3.963   5.352   4.639
 5213TIP3    H115603   3.952   5.414   4.566
 5213TIP3    H215604   3.976   5.267   4.597
 5214TIP3   OH215605   1.356   1.192   2.448
 5214TIP3    H115606   1.324   1.104   2.427
 5214TIP3    H215607   1.420   1.179   2.518
 5215TIP3   OH215608   3.394   0.734   3.566
 5215TIP3    H115609   3.391   0.644   3.601
 5215TIP3    H215610   3.302   0.761   3.562
 5216TIP3   OH215611   0.166   1.991   5.398
 5216TIP3    H115612   0.221   2.063   5.430
 5216TIP3    H215613   0.227   1.919   5.385
 5217TIP3   OH215614   1.676   1.697   2.682
 5217TIP3    H115615   1.604   1.697   2.745
 5217TIP3    H215616   1.720   1.781   2.695
 5218TIP3   OH215617   0.354   4.447   1.428
 5218TIP3    H115618   0.326   4.468   1.517
 5218TIP3    H215619   0.341   4.352   1.420
 5219TIP3   OH215620   0.216   1.892   4.833
 5219TIP3    H115621   0.268   1.813   4.839
 5219TIP3    H215622   0.213   1.913   4.739
 5220TIP3   OH215623   3.808   0.832   1.673
 5220TIP3    H115624   3.836   0.918   1.645
 5220TIP3    H215625   3.868   0.810   1.745
 5221TIP3   OH215626   2.792   3.753   4.243
 5221TIP3    H115627   2.887   3.769   4.250
 5221TIP3    H215628   2.773   3.763   4.150
 5222TIP3   OH215629   3.460   3.627   3.446
 5222TIP3    H115630   3.477   3.533   3.441
 5222TIP3    H215631   3.450   3.644   3.540
 5223TIP3   OH215632   6.907   3.108   1.200
 5223TIP3    H115633   6.832   3.051   1.183
 5223TIP3    H215634   6.886   3.151   1.283
 5224TIP3   OH215635   5.881   6.506   3.157
 5224TIP3    H115636   5.899   6.598   3.175
 5224TIP3    H215637   5.966   6.463   3.165
 5225TIP3   OH215638   4.241   5.568   0.931
 5225TIP3    H115639   4.326   5.609   0.943
 5225TIP3    H215640   4.180   5.625   0.978
 5226TIP3   OH215641   3.159   3.945   3.767
 5226TIP3    H115642   3.253   3.927   3.757
 5226TIP3    H215643   3.131   3.884   3.836
 5227TIP3   OH215644   5.937   4.274   5.788
 5227TIP3    H115645   5.900   4.277   5.876
 5227TIP3    H215646   5.880   4.330   5.736
 5228TIP3   OH215647   3.526   5.807   5.743
 5228TIP3    H115648   3.525   5.836   5.652
 5228TIP3    H215649   3.440   5.831   5.778
 5229TIP3   OH215650   1.111   0.864   4.762
 5229TIP3    H115651   1.179   0.851   4.828
 5229TIP3    H215652   1.040   0.907   4.809
 5230TIP3   OH215653   5.632   3.669   3.766
 5230TIP3    H115654   5.605   3.712   3.847
 5230TIP3    H215655   5.597   3.580   3.774
 5231TIP3   OH215656   5.782   3.681   5.375
 5231TIP3    H115657   5.739   3.746   5.429
 5231TIP3    H215658   5.865   3.664   5.419
 5232TIP3   OH215659   3.410   3.173   0.773
 5232TIP3    H115660   3.473   3.213   0.713
 5232TIP3    H215661   3.349   3.244   0.795
 5233TIP3   OH215662   5.579   5.270   3.385
 5233TIP3    H115663   5.560   5.228   3.469
 5233TIP3    H215664   5.497   5.313   3.361
 5234TIP3   OH215665   1.130   0.171   2.569
 5234TIP3    H115666   1.086   0.229   2.507
 5234TIP3    H215667   1.077   0.091   2.569
 5235TIP3   OH215668   0.586   3.387   1.270
 5235TIP3    H115669   0.630   3.467   1.301
 5235TIP3    H215670   0.644   3.316   1.297
 5236TIP3   OH215671   5.015   3.791   5.731
 5236TIP3    H115672   4.950   3.733   5.692
 5236TIP3    H215673   5.040   3.850   5.660
 5237TIP3   OH215674   5.929   3.612   4.907
 5237TIP3    H115675   5.979   3.668   4.848
 5237TIP3    H215676   5.994   3.575   4.967
 5238TIP3   OH215677   1.160   2.439   4.399
 5238TIP3    H115678   1.111   2.471   4.475
 5238TIP3    H215679   1.112   2.473   4.323
 5239TIP3   OH215680   6.015   2.630   5.125
 5239TIP3    H115681   6.109   2.648   5.113
 5239TIP3    H215682   5.982   2.708   5.170
 5240TIP3   OH215683   4.372   2.638   2.596
 5240TIP3    H115684   4.389   2.663   2.687
 5240TIP3    H215685   4.280   2.612   2.595
 5241TIP3   OH215686   0.739   2.227   4.850
 5241TIP3    H115687   0.811   2.217   4.787
 5241TIP3    H215688   0.679   2.289   4.809
 5242TIP3   OH215689   5.592   2.546   2.025
 5242TIP3    H115690   5.564   2.623   1.975
 5242TIP3    H215691   5.683   2.531   1.997
 5243TIP3   OH215692   0.849   0.624   0.474
 5243TIP3    H115693   0.918   0.690   0.476
 5243TIP3    H215694   0.771   0.672   0.447
 5244TIP3   OH215695   0.111   0.583   5.370
 5244TIP3    H115696   0.118   0.678   5.378
 5244TIP3    H215697   0.128   0.566   5.278
 5245TIP3   OH215698   4.022   1.884   2.882
 5245TIP3    H115699   3.942   1.931   2.908
 5245TIP3    H215700   4.030   1.814   2.947
 5246TIP3   OH215701   0.934   4.444   4.601
 5246TIP3    H115702   1.021   4.478   4.623
 5246TIP3    H215703   0.911   4.488   4.519
 5247TIP3   OH215704   5.894   0.417   3.321
 5247TIP3    H115705   5.963   0.483   3.326
 5247TIP3    H215706   5.867   0.403   3.412
 5248TIP3   OH215707   0.458   0.910   4.998
 5248TIP3    H115708   0.455   0.854   4.919
 5248TIP3    H215709   0.514   0.861   5.058
 5249TIP3   OH215710   6.948   0.963   5.433
 5249TIP3    H115711   6.919   1.045   5.474
 5249TIP3    H215712   6.939   0.897   5.501
 5250TIP3   OH215713   0.459   0.255   3.906
 5250TIP3    H115714   0.411   0.324   3.858
 5250TIP3    H215715   0.551   0.281   3.899
 5251TIP3   OH215716   4.242   5.067   0.776
 5251TIP3    H115717   4.260   5.117   0.696
 5251TIP3    H215718   4.229   5.134   0.843
 5252TIP3   OH215719   0.454   1.985   5.129
 5252TIP3    H115720   0.411   2.056   5.081
 5252TIP3    H215721   0.542   2.018   5.147
 5253TIP3   OH215722   3.162   1.194   1.837
 5253TIP3    H115723   3.139   1.200   1.930
 5253TIP3    H215724   3.077   1.200   1.792
 5254TIP3   OH215725   1.657   5.226   0.592
 5254TIP3    H115726   1.624   5.208   0.680
 5254TIP3    H215727   1.731   5.166   0.581
 5255TIP3   OH215728   6.076   1.776  -0.017
 5255TIP3    H115729   6.036   1.841  -0.075
 5255TIP3    H215730   6.116   1.827   0.053
 5256TIP3   OH215731   1.445   1.213   3.558
 5256TIP3    H115732   1.473   1.124   3.534
 5256TIP3    H215733   1.523   1.254   3.595
 5257TIP3   OH215734   5.019   5.973   1.596
 5257TIP3    H115735   5.040   6.013   1.681
 5257TIP3    H215736   5.081   5.901   1.588
 5258TIP3   OH215737   6.020   0.985   1.437
 5258TIP3    H115738   6.082   1.047   1.475
 5258TIP3    H215739   6.074   0.925   1.386
 5259TIP3   OH215740   2.887   6.650   3.747
 5259TIP3    H115741   2.829   6.680   3.816
 5259TIP3    H215742   2.846   6.681   3.666
 5260TIP3   OH215743   5.253   0.024   0.798
 5260TIP3    H115744   5.301  -0.059   0.803
 5260TIP3    H215745   5.220   0.039   0.887
 5261TIP3   OH215746   6.638   1.224   5.733
 5261TIP3    H115747   6.585   1.173   5.794
 5261TIP3    H215748   6.591   1.307   5.725
 5262TIP3   OH215749   4.481   4.377   5.021
 5262TIP3    H115750   4.551   4.347   4.963
 5262TIP3    H215751   4.413   4.408   4.961
 5263TIP3   OH215752   0.472   6.479   0.401
 5263TIP3    H115753   0.567   6.487   0.391
 5263TIP3    H215754   0.456   6.500   0.493
 5264TIP3   OH215755   1.356   4.804   1.941
 5264TIP3    H115756   1.403   4.744   1.884
 5264TIP3    H215757   1.368   4.890   1.900
 5265TIP3   OH215758   5.998   2.440   5.801
 5265TIP3    H115759   5.933   2.438   5.730
 5265TIP3    H215760   5.953   2.399   5.875
 5266TIP3   OH215761   1.936   2.645   0.619
 5266TIP3    H115762   1.963   2.558   0.590
 5266TIP3    H215763   1.841   2.646   0.608
 5267TIP3   OH215764   6.582   5.371   0.492
 5267TIP3    H115765   6.540   5.381   0.578
 5267TIP3    H215766   6.647   5.302   0.505
 5268TIP3   OH215767   5.095   2.095   0.471
 5268TIP3    H115768   5.017   2.120   0.521
 5268TIP3    H215769   5.065   2.027   0.412
 5269TIP3   OH215770   2.811   6.581   4.888
 5269TIP3    H115771   2.864   6.629   4.951
 5269TIP3    H215772   2.726   6.626   4.889
 5270TIP3   OH215773   4.653   3.727   2.280
 5270TIP3    H115774   4.590   3.793   2.306
 5270TIP3    H215775   4.659   3.736   2.185
 5271TIP3   OH215776   5.227   5.674   2.845
 5271TIP3    H115777   5.163   5.651   2.913
 5271TIP3    H215778   5.205   5.764   2.821
 5272TIP3   OH215779   4.926   2.891   4.984
 5272TIP3    H115780   4.994   2.951   5.015
 5272TIP3    H215781   4.870   2.876   5.060
 5273TIP3   OH215782   5.383   4.285   5.186
 5273TIP3    H115783   5.403   4.319   5.274
 5273TIP3    H215784   5.358   4.363   5.136
 5274TIP3   OH215785   3.653   2.663   0.554
 5274TIP3    H115786   3.669   2.638   0.464
 5274TIP3    H215787   3.609   2.588   0.593
 5275TIP3   OH215788   1.344   4.302   0.443
 5275TIP3    H115789   1.306   4.268   0.362
 5275TIP3    H215790   1.411   4.238   0.467
 5276TIP3   OH215791   0.813   1.459   4.597
 5276TIP3    H115792   0.723   1.451   4.628
 5276TIP3    H215793   0.842   1.545   4.628
 5277TIP3   OH215794   2.260   5.610   4.289
 5277TIP3    H115795   2.346   5.624   4.329
 5277TIP3    H215796   2.247   5.515   4.292
 5278TIP3   OH215797   2.360   4.368   5.139
 5278TIP3    H115798   2.397   4.351   5.226
 5278TIP3    H215799   2.425   4.425   5.097
 5279TIP3   OH215800   1.879   1.673   1.395
 5279TIP3    H115801   1.875   1.684   1.490
 5279TIP3    H215802   1.792   1.700   1.364
 5280TIP3   OH215803   6.195   1.151   1.564
 5280TIP3    H115804   6.136   1.177   1.636
 5280TIP3    H215805   6.274   1.121   1.608
 5281TIP3   OH215806   3.723   5.371   1.457
 5281TIP3    H115807   3.719   5.462   1.485
 5281TIP3    H215808   3.632   5.341   1.459
 5282TIP3   OH215809   0.744   2.805   3.068
 5282TIP3    H115810   0.839   2.809   3.085
 5282TIP3    H215811   0.734   2.732   3.007
 5283TIP3   OH215812   3.704   5.563   3.505
 5283TIP3    H115813   3.644   5.611   3.562
 5283TIP3    H215814   3.786   5.561   3.554
 5284TIP3   OH215815   2.748   2.110   5.172
 5284TIP3    H115816   2.819   2.169   5.197
 5284TIP3    H215817   2.725   2.066   5.254
 5285TIP3   OH215818   3.792   1.759   2.676
 5285TIP3    H115819   3.717   1.818   2.670
 5285TIP3    H215820   3.850   1.800   2.740
 5286TIP3   OH215821   6.902   3.334   3.783
 5286TIP3    H115822   6.930   3.407   3.837
 5286TIP3    H215823   6.982   3.303   3.740
 5287TIP3   OH215824   3.880   1.894   5.045
 5287TIP3    H115825   3.917   1.940   4.969
 5287TIP3    H215826   3.928   1.811   5.048
 5288TIP3   OH215827   4.274   0.116   0.303
 5288TIP3    H115828   4.186   0.078   0.309
 5288TIP3    H215829   4.267   0.201   0.347
 5289TIP3   OH215830   1.905   1.527   5.814
 5289TIP3    H115831   1.844   1.546   5.743
 5289TIP3    H215832   1.957   1.453   5.782
 5290TIP3   OH215833   2.046   1.361   4.843
 5290TIP3    H115834   2.120   1.316   4.883
 5290TIP3    H215835   2.082   1.443   4.809
 5291TIP3   OH215836   5.923   4.217   4.400
 5291TIP3    H115837   6.001   4.262   4.370
 5291TIP3    H215838   5.854   4.284   4.398
 5292TIP3   OH215839   5.507   4.037   4.702
 5292TIP3    H115840   5.587   3.984   4.697
 5292TIP3    H215841   5.529   4.106   4.765
 5293TIP3   OH215842   2.331   4.221   3.262
 5293TIP3    H115843   2.397   4.280   3.226
 5293TIP3    H215844   2.349   4.137   3.220
 5294TIP3   OH215845   5.851   0.480   3.050
 5294TIP3    H115846   5.880   0.451   3.137
 5294TIP3    H215847   5.775   0.425   3.030
 5295TIP3   OH215848   6.194   1.063   2.902
 5295TIP3    H115849   6.177   1.155   2.922
 5295TIP3    H215850   6.289   1.053   2.915
 5296TIP3   OH215851   6.867   6.780   1.963
 5296TIP3    H115852   6.833   6.697   1.930
 5296TIP3    H215853   6.858   6.773   2.058
 5297TIP3   OH215854   3.217   0.933   2.961
 5297TIP3    H115855   3.144   0.980   2.920
 5297TIP3    H215856   3.175   0.874   3.024
 5298TIP3   OH215857   6.431   0.224   4.931
 5298TIP3    H115858   6.488   0.250   5.003
 5298TIP3    H215859   6.371   0.160   4.970
 5299TIP3   OH215860   4.098   1.590   4.672
 5299TIP3    H115861   4.094   1.578   4.767
 5299TIP3    H215862   4.017   1.550   4.639
 5300TIP3   OH215863   7.013   3.570   0.299
 5300TIP3    H115864   7.062   3.518   0.235
 5300TIP3    H215865   6.960   3.505   0.346
 5301TIP3   OH215866   5.466   2.755   5.513
 5301TIP3    H115867   5.456   2.775   5.606
 5301TIP3    H215868   5.379   2.771   5.476
 5302TIP3   OH215869   0.874   2.794   5.295
 5302TIP3    H115870   0.833   2.708   5.304
 5302TIP3    H215871   0.949   2.779   5.237
 5303TIP3   OH215872   5.720   3.931   2.721
 5303TIP3    H115873   5.811   3.944   2.748
 5303TIP3    H215874   5.714   3.977   2.637
 5304TIP3   OH215875   5.805   5.861   0.335
 5304TIP3    H115876   5.745   5.851   0.409
 5304TIP3    H215877   5.819   5.771   0.303
 5305TIP3   OH215878   2.812   6.505   5.852
 5305TIP3    H115879   2.866   6.559   5.910
 5305TIP3    H215880   2.849   6.519   5.765
 5306TIP3   OH215881   6.093   2.984   1.453
 5306TIP3    H115882   6.112   2.891   1.446
 5306TIP3    H215883   6.047   3.006   1.372
 5307TIP3   OH215884   1.639   5.936   0.987
 5307TIP3    H115885   1.615   6.028   0.977
 5307TIP3    H215886   1.603   5.893   0.910
 5308TIP3   OH215887   0.980   2.918   5.524
 5308TIP3    H115888   1.033   2.977   5.470
 5308TIP3    H215889   0.930   2.866   5.460
 5309TIP3   OH215890   4.183   1.062   4.546
 5309TIP3    H115891   4.170   1.135   4.607
 5309TIP3    H215892   4.215   0.991   4.600
 5310TIP3   OH215893   5.799   2.350   2.289
 5310TIP3    H115894   5.764   2.271   2.331
 5310TIP3    H215895   5.872   2.318   2.236
 5311TIP3   OH215896   6.102   2.984   3.238
 5311TIP3    H115897   6.154   2.982   3.157
 5311TIP3    H215898   6.048   3.062   3.229
 5312TIP3   OH215899   2.989   0.427   4.156
 5312TIP3    H115900   2.895   0.444   4.148
 5312TIP3    H215901   3.007   0.439   4.249
 5313TIP3   OH215902   6.106   4.695   4.838
 5313TIP3    H115903   6.117   4.791   4.840
 5313TIP3    H215904   6.051   4.676   4.913
 5314TIP3   OH215905   6.357   3.043   5.680
 5314TIP3    H115906   6.396   3.107   5.740
 5314TIP3    H215907   6.417   3.040   5.606
 5315TIP3   OH215908   0.502   5.562   0.544
 5315TIP3    H115909   0.577   5.503   0.549
 5315TIP3    H215910   0.529   5.629   0.481
 5316TIP3   OH215911   4.371   5.671   2.747
 5316TIP3    H115912   4.326   5.720   2.815
 5316TIP3    H215913   4.308   5.664   2.676
 5317TIP3   OH215914   6.972   4.014   2.215
 5317TIP3    H115915   7.041   3.967   2.261
 5317TIP3    H215916   6.896   4.008   2.273
 5318TIP3   OH215917   3.377   1.088   3.393
 5318TIP3    H115918   3.385   0.993   3.382
 5318TIP3    H215919   3.467   1.120   3.385
 5319TIP3   OH215920   1.396   3.794   1.981
 5319TIP3    H115921   1.458   3.867   1.982
 5319TIP3    H215922   1.335   3.814   2.052
 5320TIP3   OH215923   0.994   2.946   4.590
 5320TIP3    H115924   0.914   2.943   4.643
 5320TIP3    H215925   0.964   2.924   4.501
 5321TIP3   OH215926   1.361   1.283   4.832
 5321TIP3    H115927   1.446   1.290   4.790
 5321TIP3    H215928   1.322   1.204   4.793
 5322TIP3   OH215929   0.616   3.516   3.863
 5322TIP3    H115930   0.664   3.500   3.944
 5322TIP3    H215931   0.575   3.432   3.843
 5323TIP3   OH215932   4.377   4.334   4.710
 5323TIP3    H115933   4.439   4.265   4.686
 5323TIP3    H215934   4.296   4.286   4.732
 5324TIP3   OH215935   3.884   1.947   2.166
 5324TIP3    H115936   3.872   1.912   2.254
 5324TIP3    H215937   3.828   1.892   2.110
 5325TIP3   OH215938   2.046   4.469   0.986
 5325TIP3    H115939   2.060   4.479   1.080
 5325TIP3    H215940   1.958   4.434   0.978
 5326TIP3   OH215941   6.544   5.778   1.070
 5326TIP3    H115942   6.590   5.695   1.084
 5326TIP3    H215943   6.614   5.843   1.060
 5327TIP3   OH215944   4.426   6.552   4.312
 5327TIP3    H115945   4.389   6.611   4.247
 5327TIP3    H215946   4.519   6.546   4.288
 5328TIP3   OH215947   2.892   0.263   5.214
 5328TIP3    H115948   2.925   0.322   5.281
 5328TIP3    H215949   2.946   0.281   5.137
 5329TIP3   OH215950   2.787   0.645   0.618
 5329TIP3    H115951   2.729   0.612   0.549
 5329TIP3    H215952   2.827   0.566   0.655
 5330TIP3   OH215953   1.555   0.609   5.481
 5330TIP3    H115954   1.598   0.638   5.401
 5330TIP3    H215955   1.618   0.627   5.550
 5331TIP3   OH215956   0.698   1.603   0.960
 5331TIP3    H115957   0.725   1.684   1.004
 5331TIP3    H215958   0.679   1.542   1.031
 5332TIP3   OH215959   4.187   2.035   3.308
 5332TIP3    H115960   4.193   2.128   3.327
 5332TIP3    H215961   4.129   2.000   3.376
 5333TIP3   OH215962   6.328   1.339   2.010
 5333TIP3    H115963   6.312   1.411   2.071
 5333TIP3    H215964   6.265   1.271   2.035
 5334TIP3   OH215965   1.108   1.283   3.891
 5334TIP3    H115966   1.022   1.245   3.908
 5334TIP3    H215967   1.134   1.246   3.807
 5335TIP3   OH215968   6.884   1.729   4.813
 5335TIP3    H115969   6.840   1.794   4.759
 5335TIP3    H215970   6.967   1.770   4.838
 5336TIP3   OH215971   5.713   1.521   0.645
 5336TIP3    H115972   5.797   1.506   0.688
 5336TIP3    H215973   5.669   1.588   0.698
 5337TIP3   OH215974   1.610   3.346   2.091
 5337TIP3    H115975   1.585   3.391   2.172
 5337TIP3    H215976   1.660   3.270   2.121
 5338TIP3   OH215977   3.942   5.197   5.611
 5338TIP3    H115978   3.983   5.256   5.549
 5338TIP3    H215979   3.999   5.120   5.613
 5339TIP3   OH215980   7.070   4.417   4.015
 5339TIP3    H115981   7.054   4.426   3.921
 5339TIP3    H215982   6.984   4.427   4.055
 5340TIP3   OH215983   2.157   3.650   0.186
 5340TIP3    H115984   2.220   3.639   0.114
 5340TIP3    H215985   2.164   3.743   0.208
 5341TIP3   OH215986   4.999   2.958   3.087
 5341TIP3    H115987   5.034   2.895   3.023
 5341TIP3    H215988   4.934   2.908   3.137
 5342TIP3   OH215989   2.306   1.546   3.533
 5342TIP3    H115990   2.236   1.481   3.536
 5342TIP3    H215991   2.335   1.554   3.624
 5343TIP3   OH215992   3.848   2.087   4.058
 5343TIP3    H115993   3.798   2.152   4.008
 5343TIP3    H215994   3.841   2.116   4.149
 5344TIP3   OH215995   4.932   2.176   3.545
 5344TIP3    H115996   4.883   2.206   3.469
 5344TIP3    H215997   4.961   2.088   3.522
 5345TIP3   OH215998   4.725   5.008   5.534
 5345TIP3    H115999   4.807   5.042   5.569
 5345TIP3    H216000   4.669   4.997   5.611
 5346TIP3   OH216001   3.478   6.102   2.670
 5346TIP3    H116002   3.555   6.131   2.718
 5346TIP3    H216003   3.424   6.058   2.736
 5347TIP3   OH216004   4.291   5.199   0.048
 5347TIP3    H116005   4.279   5.114   0.006
 5347TIP3    H216006   4.382   5.223   0.030
 5348TIP3   OH216007   5.177   4.862   4.746
 5348TIP3    H116008   5.189   4.931   4.811
 5348TIP3    H216009   5.083   4.864   4.726
 5349TIP3   OH216010   2.670   5.825   5.112
 5349TIP3    H116011   2.657   5.918   5.094
 5349TIP3    H216012   2.601   5.803   5.176
 5350TIP3   OH216013   6.943   1.448   4.902
 5350TIP3    H116014   6.984   1.472   4.985
 5350TIP3    H216015   6.920   1.532   4.862
 5351TIP3   OH216016   6.830   2.097   4.672
 5351TIP3    H116017   6.779   2.145   4.737
 5351TIP3    H216018   6.912   2.077   4.716
 5352TIP3   OH216019   0.961   0.063   4.192
 5352TIP3    H116020   1.003   0.080   4.275
 5352TIP3    H216021   0.971  -0.032   4.179
 5353TIP3   OH216022   4.171   2.699   5.452
 5353TIP3    H116023   4.174   2.744   5.368
 5353TIP3    H216024   4.091   2.647   5.449
 5354TIP3   OH216025   5.092   2.089   2.978
 5354TIP3    H116026   5.008   2.053   2.950
 5354TIP3    H216027   5.076   2.183   2.989
 5355TIP3   OH216028   7.035   1.945   4.954
 5355TIP3    H116029   6.990   1.995   5.022
 5355TIP3    H216030   7.048   2.007   4.882
 5356TIP3   OH216031   5.996   4.484   2.953
 5356TIP3    H116032   6.090   4.471   2.945
 5356TIP3    H216033   5.986   4.578   2.967
 5357TIP3   OH216034   3.408   3.079   3.646
 5357TIP3    H116035   3.370   2.992   3.660
 5357TIP3    H216036   3.335   3.140   3.658
 5358TIP3   OH216037   7.121   0.331   2.596
 5358TIP3    H116038   7.171   0.249   2.601
 5358TIP3    H216039   7.037   0.306   2.559
 5359TIP3   OH216040   5.679   6.329   5.889
 5359TIP3    H116041   5.588   6.317   5.863
 5359TIP3    H216042   5.715   6.240   5.889
 5360TIP3   OH216043   6.173   1.120   2.098
 5360TIP3    H116044   6.160   1.125   2.003
 5360TIP3    H216045   6.185   1.026   2.115
 5361TIP3   OH216046   1.765   0.349   1.950
 5361TIP3    H116047   1.771   0.254   1.957
 5361TIP3    H216048   1.675   0.369   1.976
 5362TIP3   OH216049   4.982   3.283   1.096
 5362TIP3    H116050   5.047   3.285   1.167
 5362TIP3    H216051   4.969   3.375   1.074
 5363TIP3   OH216052   4.187   1.945   5.606
 5363TIP3    H116053   4.232   1.988   5.679
 5363TIP3    H216054   4.117   2.005   5.581
 5364TIP3   OH216055   3.418   5.383   3.579
 5364TIP3    H116056   3.359   5.311   3.555
 5364TIP3    H216057   3.502   5.359   3.539
 5365TIP3   OH216058   5.318   3.960   4.523
 5365TIP3    H116059   5.384   3.978   4.590
 5365TIP3    H216060   5.339   4.019   4.451
 5366TIP3   OH216061   6.861   6.803   2.232
 5366TIP3    H116062   6.774   6.768   2.250
 5366TIP3    H216063   6.918   6.760   2.295
 5367TIP3   OH216064   6.935   6.469   0.482
 5367TIP3    H116065   6.994   6.423   0.541
 5367TIP3    H216066   6.848   6.452   0.517
 5368TIP3   OH216067   6.659   5.382   5.344
 5368TIP3    H116068   6.695   5.318   5.405
 5368TIP3    H216069   6.642   5.333   5.264
 5369TIP3   OH216070   5.275   2.637   3.021
 5369TIP3    H116071   5.212   2.653   3.091
 5369TIP3    H216072   5.264   2.712   2.962
 5370TIP3   OH216073   4.685   6.412   1.762
 5370TIP3    H116074   4.602   6.388   1.720
 5370TIP3    H216075   4.752   6.373   1.706
 5371TIP3   OH216076   1.122   1.587   0.292
 5371TIP3    H116077   1.030   1.614   0.294
 5371TIP3    H216078   1.170   1.667   0.272
 5372TIP3   OH216079   3.285   5.557   2.058
 5372TIP3    H116080   3.259   5.583   1.970
 5372TIP3    H216081   3.349   5.487   2.044
 5373TIP3   OH216082   3.361   1.421   2.067
 5373TIP3    H116083   3.312   1.493   2.107
 5373TIP3    H216084   3.334   1.422   1.975
 5374TIP3   OH216085   4.778   4.346   2.470
 5374TIP3    H116086   4.754   4.434   2.499
 5374TIP3    H216087   4.801   4.357   2.378
 5375TIP3   OH216088   6.758   2.305   4.318
 5375TIP3    H116089   6.704   2.226   4.307
 5375TIP3    H216090   6.752   2.325   4.411
 5376TIP3   OH216091   6.255   1.753   5.731
 5376TIP3    H116092   6.194   1.827   5.728
 5376TIP3    H216093   6.321   1.779   5.795
 5377TIP3   OH216094   4.436   0.591   1.526
 5377TIP3    H116095   4.507   0.606   1.588
 5377TIP3    H216096   4.372   0.660   1.545
 5378TIP3   OH216097   4.360   1.966   2.272
 5378TIP3    H116098   4.408   2.016   2.337
 5378TIP3    H216099   4.271   2.000   2.277
 5379TIP3   OH216100   3.260   2.186   3.202
 5379TIP3    H116101   3.260   2.241   3.280
 5379TIP3    H216102   3.302   2.239   3.135
 5380TIP3   OH216103   1.797   1.848   3.884
 5380TIP3    H116104   1.780   1.830   3.976
 5380TIP3    H216105   1.763   1.771   3.838
 5381TIP3   OH216106   2.878   2.398   0.933
 5381TIP3    H116107   2.914   2.331   0.990
 5381TIP3    H216108   2.911   2.376   0.846
 5382TIP3   OH216109   0.839   3.986   3.033
 5382TIP3    H116110   0.786   4.059   3.066
 5382TIP3    H216111   0.792   3.907   3.062
 5383TIP3   OH216112   0.663   1.641   2.264
 5383TIP3    H116113   0.746   1.687   2.264
 5383TIP3    H216114   0.670   1.578   2.192
 5384TIP3   OH216115   6.292   3.036   3.021
 5384TIP3    H116116   6.244   3.082   2.952
 5384TIP3    H216117   6.374   3.009   2.980
 5385TIP3   OH216118   1.575   1.534   4.642
 5385TIP3    H116119   1.614   1.608   4.595
 5385TIP3    H216120   1.517   1.575   4.707
 5386TIP3   OH216121   4.897   4.322   2.236
 5386TIP3    H116122   4.988   4.293   2.227
 5386TIP3    H216123   4.883   4.379   2.161
 5387TIP3   OH216124   0.946   2.613   3.313
 5387TIP3    H116125   0.985   2.553   3.250
 5387TIP3    H216126   0.858   2.580   3.327
 5388TIP3   OH216127   1.035   0.918   2.265
 5388TIP3    H116128   0.952   0.938   2.222
 5388TIP3    H216129   1.042   0.823   2.261
 5389TIP3   OH216130   2.695   5.295   3.869
 5389TIP3    H116131   2.678   5.340   3.952
 5389TIP3    H216132   2.615   5.307   3.819
 5390TIP3   OH216133   5.537   2.591   1.453
 5390TIP3    H116134   5.548   2.517   1.394
 5390TIP3    H216135   5.472   2.646   1.410
 5391TIP3   OH216136   6.783   5.854   3.409
 5391TIP3    H116137   6.830   5.839   3.328
 5391TIP3    H216138   6.715   5.786   3.410
 5392TIP3   OH216139   4.053   2.483   1.724
 5392TIP3    H116140   4.100   2.405   1.694
 5392TIP3    H216141   4.100   2.510   1.803
 5393TIP3   OH216142   2.752   4.800   4.442
 5393TIP3    H116143   2.825   4.774   4.386
 5393TIP3    H216144   2.713   4.875   4.397
 5394TIP3   OH216145   1.288   5.258   0.638
 5394TIP3    H116146   1.203   5.224   0.664
 5394TIP3    H216147   1.337   5.266   0.720
 5395TIP3   OH216148   3.688   5.688   0.427
 5395TIP3    H116149   3.597   5.717   0.425
 5395TIP3    H216150   3.683   5.594   0.441
 5396TIP3   OH216151   3.833   3.917   1.478
 5396TIP3    H116152   3.812   3.888   1.567
 5396TIP3    H216153   3.831   3.837   1.425
 5397TIP3   OH216154   6.682   2.039   4.439
 5397TIP3    H116155   6.712   1.963   4.389
 5397TIP3    H216156   6.741   2.043   4.515
 5398TIP3   OH216157   1.935   0.257   5.608
 5398TIP3    H116158   1.946   0.334   5.551
 5398TIP3    H216159   1.844   0.231   5.594
 5399TIP3   OH216160   4.963   0.943   0.305
 5399TIP3    H116161   5.017   0.865   0.318
 5399TIP3    H216162   4.960   0.984   0.392
 5400TIP3   OH216163   4.150   3.848   1.200
 5400TIP3    H116164   4.206   3.909   1.249
 5400TIP3    H216165   4.183   3.852   1.110
 5401TIP3   OH216166   1.708   5.235   0.320
 5401TIP3    H116167   1.701   5.326   0.293
 5401TIP3    H216168   1.687   5.236   0.414
 5402TIP3   OH216169   4.175   2.716   4.058
 5402TIP3    H116170   4.234   2.790   4.068
 5402TIP3    H216171   4.087   2.753   4.070
 5403TIP3   OH216172   2.354   2.200   4.434
 5403TIP3    H116173   2.367   2.266   4.365
 5403TIP3    H216174   2.282   2.235   4.487
 5404TIP3   OH216175   4.832   1.916   0.736
 5404TIP3    H116176   4.815   2.010   0.745
 5404TIP3    H216177   4.898   1.897   0.802
 5405TIP3   OH216178   5.473   4.648   1.081
 5405TIP3    H116179   5.431   4.731   1.058
 5405TIP3    H216180   5.457   4.592   1.005
 5406TIP3   OH216181   4.910   1.333   1.337
 5406TIP3    H116182   4.829   1.336   1.286
 5406TIP3    H216183   4.887   1.374   1.421
 5407TIP3   OH216184   0.576   4.164   2.705
 5407TIP3    H116185   0.549   4.080   2.742
 5407TIP3    H216186   0.506   4.225   2.731
 5408TIP3   OH216187   3.685   4.492   2.783
 5408TIP3    H116188   3.773   4.469   2.813
 5408TIP3    H216189   3.647   4.541   2.856
 5409TIP3   OH216190   3.842   6.010   2.019
 5409TIP3    H116191   3.843   6.102   1.993
 5409TIP3    H216192   3.900   5.966   1.958
 5410TIP3   OH216193   1.237   4.647   4.392
 5410TIP3    H116194   1.268   4.649   4.301
 5410TIP3    H216195   1.309   4.606   4.440
 5411TIP3   OH216196   0.374   3.377   2.067
 5411TIP3    H116197   0.427   3.302   2.091
 5411TIP3    H216198   0.419   3.415   1.992
 5412TIP3   OH216199   2.124   2.275   4.658
 5412TIP3    H116200   2.153   2.348   4.712
 5412TIP3    H216201   2.049   2.308   4.609
 5413TIP3   OH216202   1.419   6.468   1.289
 5413TIP3    H116203   1.352   6.415   1.331
 5413TIP3    H216204   1.379   6.554   1.277
 5414TIP3   OH216205   7.087   1.555   2.538
 5414TIP3    H116206   7.179   1.570   2.519
 5414TIP3    H216207   7.059   1.491   2.472
 5415TIP3   OH216208   5.986   1.509   4.865
 5415TIP3    H116209   6.060   1.468   4.911
 5415TIP3    H216210   5.911   1.454   4.887
 5416TIP3   OH216211   4.869   2.130   4.208
 5416TIP3    H116212   4.811   2.205   4.195
 5416TIP3    H216213   4.894   2.135   4.300
 5417TIP3   OH216214   3.482   4.980   1.367
 5417TIP3    H116215   3.437   4.910   1.414
 5417TIP3    H216216   3.451   4.974   1.277
 5418TIP3   OH216217   2.832   5.495   5.290
 5418TIP3    H116218   2.799   5.522   5.204
 5418TIP3    H216219   2.851   5.578   5.334
 5419TIP3   OH216220   0.086   6.629   1.104
 5419TIP3    H116221   0.033   6.700   1.068
 5419TIP3    H216222   0.095   6.566   1.032
 5420TIP3   OH216223   4.408   3.625   4.495
 5420TIP3    H116224   4.449   3.602   4.411
 5420TIP3    H216225   4.319   3.590   4.489
 5421TIP3   OH216226   1.324   2.044   2.244
 5421TIP3    H116227   1.333   2.139   2.256
 5421TIP3    H216228   1.271   2.015   2.318
 5422TIP3   OH216229   4.869   2.580   2.154
 5422TIP3    H116230   4.948   2.628   2.128
 5422TIP3    H216231   4.797   2.640   2.138
 5423TIP3   OH216232   3.035   2.029   4.872
 5423TIP3    H116233   2.987   2.106   4.840
 5423TIP3    H216234   3.109   2.066   4.921
 5424TIP3   OH216235   3.675   1.741   3.669
 5424TIP3    H116236   3.666   1.778   3.757
 5424TIP3    H216237   3.703   1.651   3.684
 5425TIP3   OH216238   1.038   5.562   4.992
 5425TIP3    H116239   1.112   5.621   5.006
 5425TIP3    H216240   1.051   5.492   5.057
 5426TIP3   OH216241   4.761   2.044   5.074
 5426TIP3    H116242   4.734   2.036   5.166
 5426TIP3    H216243   4.700   1.987   5.027
 5427TIP3   OH216244   3.440   6.695   0.533
 5427TIP3    H116245   3.433   6.672   0.626
 5427TIP3    H216246   3.407   6.618   0.487
 5428TIP3   OH216247   5.959   3.119   2.370
 5428TIP3    H116248   6.023   3.135   2.301
 5428TIP3    H216249   5.975   3.188   2.435
 5429TIP3   OH216250   6.770   3.420   2.645
 5429TIP3    H116251   6.809   3.403   2.559
 5429TIP3    H216252   6.836   3.390   2.707
 5430TIP3   OH216253   4.542   2.206   0.650
 5430TIP3    H116254   4.580   2.225   0.564
 5430TIP3    H216255   4.464   2.155   0.631
 5431TIP3   OH216256   3.407   0.807   2.303
 5431TIP3    H116257   3.423   0.747   2.229
 5431TIP3    H216258   3.432   0.757   2.380
 5432TIP3   OH216259   5.669   1.175   5.074
 5432TIP3    H116260   5.673   1.204   5.165
 5432TIP3    H216261   5.577   1.182   5.051
 5433TIP3   OH216262   3.846   6.118   1.554
 5433TIP3    H116263   3.883   6.153   1.473
 5433TIP3    H216264   3.882   6.173   1.623
 5434TIP3   OH216265   5.540   4.688   5.577
 5434TIP3    H116266   5.444   4.686   5.575
 5434TIP3    H216267   5.561   4.751   5.646
 5435TIP3   OH216268   4.475   4.159   1.062
 5435TIP3    H116269   4.394   4.143   1.013
 5435TIP3    H216270   4.462   4.115   1.145
 5436TIP3   OH216271   4.371   2.098   5.815
 5436TIP3    H116272   4.448   2.141   5.851
 5436TIP3    H216273   4.338   2.044   5.887
 5437TIP3   OH216274   3.788   3.276   3.939
 5437TIP3    H116275   3.725   3.314   3.878
 5437TIP3    H216276   3.872   3.317   3.916
 5438TIP3   OH216277   4.604   0.019   2.748
 5438TIP3    H116278   4.649   0.070   2.816
 5438TIP3    H216279   4.579   0.084   2.682
 5439TIP3   OH216280   5.690   1.385   5.308
 5439TIP3    H116281   5.747   1.422   5.241
 5439TIP3    H216282   5.636   1.459   5.337
 5440TIP3   OH216283   3.009   5.247   0.444
 5440TIP3    H116284   2.916   5.259   0.426
 5440TIP3    H216285   3.019   5.153   0.461
 5441TIP3   OH216286   0.587   0.107   3.308
 5441TIP3    H116287   0.552   0.068   3.388
 5441TIP3    H216288   0.664   0.055   3.287
 5442TIP3   OH216289   6.745   4.198   4.492
 5442TIP3    H116290   6.707   4.130   4.548
 5442TIP3    H216291   6.836   4.204   4.520
 5443TIP3   OH216292   2.930   0.263   1.767
 5443TIP3    H116293   2.907   0.239   1.857
 5443TIP3    H216294   2.919   0.358   1.764
 5444TIP3   OH216295   3.097   5.153   5.694
 5444TIP3    H116296   3.156   5.086   5.658
 5444TIP3    H216297   3.105   5.227   5.634
 5445TIP3   OH216298   4.754   5.648   1.885
 5445TIP3    H116299   4.826   5.646   1.821
 5445TIP3    H216300   4.724   5.739   1.884
 5446TIP3   OH216301   1.777   0.816   0.787
 5446TIP3    H116302   1.731   0.875   0.727
 5446TIP3    H216303   1.741   0.729   0.768
 5447TIP3   OH216304   5.085   3.026   4.493
 5447TIP3    H116305   5.126   3.052   4.411
 5447TIP3    H216306   5.072   3.108   4.540
 5448TIP3   OH216307   5.013   4.274   3.345
 5448TIP3    H116308   5.010   4.252   3.438
 5448TIP3    H216309   5.055   4.198   3.303
 5449TIP3   OH216310   1.330   3.459   5.427
 5449TIP3    H116311   1.396   3.398   5.461
 5449TIP3    H216312   1.262   3.402   5.392
 5450TIP3   OH216313   2.777   4.035   5.428
 5450TIP3    H116314   2.854   3.988   5.459
 5450TIP3    H216315   2.811   4.098   5.364
 5451TIP3   OH216316   6.289   2.291   2.663
 5451TIP3    H116317   6.277   2.255   2.751
 5451TIP3    H216318   6.316   2.216   2.610
 5452TIP3   OH216319   0.657   6.341   4.397
 5452TIP3    H116320   0.649   6.420   4.451
 5452TIP3    H216321   0.745   6.347   4.360
 5453TIP3   OH216322   0.978   5.912   3.274
 5453TIP3    H116323   0.933   5.837   3.234
 5453TIP3    H216324   1.026   5.874   3.347
 5454TIP3   OH216325   4.271   0.606   5.596
 5454TIP3    H116326   4.361   0.574   5.584
 5454TIP3    H216327   4.280   0.676   5.661
 5455TIP3   OH216328   3.528   3.932   0.804
 5455TIP3    H116329   3.481   3.974   0.732
 5455TIP3    H216330   3.515   3.991   0.878
 5456TIP3   OH216331   3.857   5.133   2.684
 5456TIP3    H116332   3.864   5.177   2.599
 5456TIP3    H216333   3.766   5.146   2.711
 5457TIP3   OH216334   3.242   3.087   5.139
 5457TIP3    H116335   3.204   3.090   5.051
 5457TIP3    H216336   3.205   3.163   5.183
 5458TIP3   OH216337   1.351   2.405   4.195
 5458TIP3    H116338   1.262   2.436   4.215
 5458TIP3    H216339   1.343   2.310   4.195
 5459TIP3   OH216340   1.946   3.566   5.842
 5459TIP3    H116341   2.008   3.637   5.822
 5459TIP3    H216342   1.972   3.494   5.784
 5460TIP3   OH216343   0.593   5.599   0.855
 5460TIP3    H116344   0.613   5.575   0.764
 5460TIP3    H216345   0.554   5.686   0.848
 5461TIP3   OH216346   7.177   5.539   3.219
 5461TIP3    H116347   7.206   5.622   3.180
 5461TIP3    H216348   7.235   5.473   3.180
 5462TIP3   OH216349   6.408   2.652   0.671
 5462TIP3    H116350   6.398   2.582   0.736
 5462TIP3    H216351   6.344   2.630   0.603
 5463TIP3   OH216352   0.368   0.796   3.528
 5463TIP3    H116353   0.339   0.799   3.619
 5463TIP3    H216354   0.408   0.710   3.519
 5464TIP3   OH216355   6.400   5.253   4.638
 5464TIP3    H116356   6.349   5.310   4.581
 5464TIP3    H216357   6.482   5.239   4.590
 5465TIP3   OH216358   5.239   2.180   0.264
 5465TIP3    H116359   5.166   2.178   0.203
 5465TIP3    H216360   5.203   2.148   0.347
 5466TIP3   OH216361   1.139   1.320   2.782
 5466TIP3    H116362   1.133   1.237   2.828
 5466TIP3    H216363   1.146   1.386   2.851
 5467TIP3   OH216364   1.283   0.080   3.839
 5467TIP3    H116365   1.350   0.138   3.873
 5467TIP3    H216366   1.332   0.014   3.789
 5468TIP3   OH216367   6.728   0.494   1.634
 5468TIP3    H116368   6.728   0.483   1.539
 5468TIP3    H216369   6.682   0.417   1.667
 5469TIP3   OH216370   3.512   4.481   4.377
 5469TIP3    H116371   3.424   4.477   4.341
 5469TIP3    H216372   3.501   4.519   4.464
 5470TIP3   OH216373   6.162   1.999   5.509
 5470TIP3    H116374   6.071   1.982   5.483
 5470TIP3    H216375   6.162   1.993   5.604
 5471TIP3   OH216376   2.468   4.172   4.346
 5471TIP3    H116377   2.381   4.176   4.307
 5471TIP3    H216378   2.473   4.084   4.384
 5472TIP3   OH216379   5.343   6.768   1.172
 5472TIP3    H116380   5.312   6.855   1.199
 5472TIP3    H216381   5.419   6.751   1.226
 5473TIP3   OH216382   2.443   4.573   4.750
 5473TIP3    H116383   2.516   4.610   4.701
 5473TIP3    H216384   2.407   4.506   4.692
 5474TIP3   OH216385   1.886   0.642   5.025
 5474TIP3    H116386   1.925   0.710   4.972
 5474TIP3    H216387   1.958   0.580   5.042
 5475TIP3   OH216388   3.059   1.313   3.238
 5475TIP3    H116389   2.993   1.247   3.216
 5475TIP3    H216390   3.142   1.276   3.207
 5476TIP3   OH216391   3.430   2.114   1.820
 5476TIP3    H116392   3.526   2.112   1.825
 5476TIP3    H216393   3.402   2.102   1.911
 5477TIP3   OH216394   6.578   1.805   5.268
 5477TIP3    H116395   6.648   1.766   5.215
 5477TIP3    H216396   6.622   1.864   5.328
 5478TIP3   OH216397   3.760   5.544   1.993
 5478TIP3    H116398   3.700   5.611   2.027
 5478TIP3    H216399   3.823   5.593   1.940
 5479TIP3   OH216400   6.277   1.696   5.062
 5479TIP3    H116401   6.284   1.736   5.148
 5479TIP3    H216402   6.193   1.726   5.027
 5480TIP3   OH216403   4.101   2.520   2.905
 5480TIP3    H116404   4.142   2.458   2.844
 5480TIP3    H216405   4.061   2.587   2.849
 5481TIP3   OH216406   6.365   0.111   1.351
 5481TIP3    H116407   6.280   0.140   1.383
 5481TIP3    H216408   6.429   0.160   1.403
 5482TIP3   OH216409   3.831   6.433   5.208
 5482TIP3    H116410   3.784   6.516   5.204
 5482TIP3    H216411   3.789   6.385   5.280
 5483TIP3   OH216412   2.079   4.243   3.436
 5483TIP3    H116413   2.044   4.159   3.404
 5483TIP3    H216414   2.160   4.255   3.385
 5484TIP3   OH216415   6.927   1.282   1.823
 5484TIP3    H116416   6.888   1.224   1.757
 5484TIP3    H216417   6.875   1.267   1.902
 5485TIP3   OH216418   5.550   4.765   4.564
 5485TIP3    H116419   5.514   4.847   4.596
 5485TIP3    H216420   5.504   4.749   4.482
 5486TIP3   OH216421   6.184   2.940   4.711
 5486TIP3    H116422   6.097   2.922   4.674
 5486TIP3    H216423   6.174   3.024   4.755
 5487TIP3   OH216424   3.553   3.587   0.040
 5487TIP3    H116425   3.631   3.552   0.083
 5487TIP3    H216426   3.501   3.509   0.020
 5488TIP3   OH216427   1.102   5.257   3.072
 5488TIP3    H116428   1.034   5.225   3.132
 5488TIP3    H216429   1.176   5.198   3.085
 5489TIP3   OH216430   0.379   5.582   5.786
 5489TIP3    H116431   0.417   5.500   5.755
 5489TIP3    H216432   0.337   5.559   5.869
 5490TIP3   OH216433   0.517   2.668   3.597
 5490TIP3    H116434   0.439   2.704   3.639
 5490TIP3    H216435   0.504   2.573   3.600
 5491TIP3   OH216436   6.039   3.672   5.468
 5491TIP3    H116437   6.036   3.578   5.485
 5491TIP3    H216438   6.112   3.704   5.521
 5492TIP3   OH216439   1.171   3.680   0.112
 5492TIP3    H116440   1.195   3.607   0.168
 5492TIP3    H216441   1.181   3.757   0.167
 5493TIP3   OH216442   0.872   2.153   4.613
 5493TIP3    H116443   0.893   2.092   4.542
 5493TIP3    H216444   0.955   2.195   4.634
 5494TIP3   OH216445   2.559   1.096   5.246
 5494TIP3    H116446   2.589   1.143   5.323
 5494TIP3    H216447   2.482   1.145   5.216
 5495TIP3   OH216448   0.136   1.442   2.956
 5495TIP3    H116449   0.159   1.387   3.031
 5495TIP3    H216450   0.101   1.522   2.994
 5496TIP3   OH216451   7.136   4.115   2.654
 5496TIP3    H116452   7.222   4.102   2.615
 5496TIP3    H216453   7.115   4.029   2.692
 5497TIP3   OH216454   6.394   4.311   3.661
 5497TIP3    H116455   6.342   4.242   3.703
 5497TIP3    H216456   6.484   4.290   3.685
 5498TIP3   OH216457   3.606   5.976   1.580
 5498TIP3    H116458   3.692   6.005   1.548
 5498TIP3    H216459   3.562   6.057   1.606
 5499TIP3   OH216460   3.488   5.787   2.854
 5499TIP3    H116461   3.428   5.853   2.818
 5499TIP3    H216462   3.519   5.738   2.777
 5500TIP3   OH216463   5.878   5.515   4.638
 5500TIP3    H116464   5.878   5.490   4.730
 5500TIP3    H216465   5.845   5.438   4.592
 5501TIP3   OH216466   1.761   2.181   3.947
 5501TIP3    H116467   1.691   2.129   3.907
 5501TIP3    H216468   1.837   2.168   3.891
 5502TIP3   OH216469   5.187   3.367   5.147
 5502TIP3    H116470   5.278   3.359   5.177
 5502TIP3    H216471   5.158   3.452   5.179
 5503TIP3   OH216472   4.431   4.886   5.258
 5503TIP3    H116473   4.388   4.967   5.283
 5503TIP3    H216474   4.523   4.910   5.246
 5504TIP3   OH216475   2.498   3.217   0.614
 5504TIP3    H116476   2.580   3.263   0.599
 5504TIP3    H216477   2.513   3.168   0.695
 5505TIP3   OH216478   3.271   0.715   0.060
 5505TIP3    H116479   3.209   0.650   0.092
 5505TIP3    H216480   3.252   0.794   0.110
 5506TIP3   OH216481   4.427   0.798   0.420
 5506TIP3    H116482   4.510   0.844   0.430
 5506TIP3    H216483   4.449   0.705   0.420
 5507TIP3   OH216484   4.233   5.313   3.508
 5507TIP3    H116485   4.264   5.322   3.418
 5507TIP3    H216486   4.304   5.267   3.552
 5508TIP3   OH216487   6.732   2.821   4.190
 5508TIP3    H116488   6.743   2.728   4.207
 5508TIP3    H216489   6.754   2.832   4.098
 5509TIP3   OH216490   5.555   3.146   1.358
 5509TIP3    H116491   5.566   3.167   1.265
 5509TIP3    H216492   5.614   3.206   1.403
 5510TIP3   OH216493   0.126   2.026   3.542
 5510TIP3    H116494   0.218   2.007   3.527
 5510TIP3    H216495   0.100   1.968   3.614
 5511TIP3   OH216496   4.853   5.172   2.442
 5511TIP3    H116497   4.787   5.219   2.493
 5511TIP3    H216498   4.807   5.144   2.363
 5512TIP3   OH216499   2.887   6.588   2.909
 5512TIP3    H116500   2.950   6.532   2.864
 5512TIP3    H216501   2.929   6.609   2.993
 5513TIP3   OH216502   1.937   4.521   2.744
 5513TIP3    H116503   1.878   4.550   2.814
 5513TIP3    H216504   1.895   4.443   2.709
 5514TIP3   OH216505   5.006   4.809   4.017
 5514TIP3    H116506   4.956   4.890   4.025
 5514TIP3    H216507   4.949   4.752   3.964
 5515TIP3   OH216508   2.328   4.730   4.422
 5515TIP3    H116509   2.400   4.674   4.451
 5515TIP3    H216510   2.335   4.809   4.475
 5516TIP3   OH216511   5.157   6.081   2.269
 5516TIP3    H116512   5.122   6.096   2.181
 5516TIP3    H216513   5.241   6.127   2.269
 5517TIP3   OH216514   4.968   5.751   5.540
 5517TIP3    H116515   5.037   5.692   5.510
 5517TIP3    H216516   5.010   5.837   5.544
 5518TIP3   OH216517   1.456   1.686   0.165
 5518TIP3    H116518   1.542   1.719   0.138
 5518TIP3    H216519   1.455   1.595   0.135
 5519TIP3   OH216520   1.622   4.446   0.645
 5519TIP3    H116521   1.559   4.498   0.694
 5519TIP3    H216522   1.625   4.362   0.691
 5520TIP3   OH216523   1.804   1.291   2.633
 5520TIP3    H116524   1.860   1.233   2.685
 5520TIP3    H216525   1.737   1.322   2.694
 5521TIP3   OH216526   3.595   3.094   2.965
 5521TIP3    H116527   3.565   3.094   3.056
 5521TIP3    H216528   3.667   3.031   2.964
 5522TIP3   OH216529   4.723   6.351   5.302
 5522TIP3    H116530   4.776   6.429   5.320
 5522TIP3    H216531   4.692   6.323   5.388
 5523TIP3   OH216532   2.895  -0.031   5.089
 5523TIP3    H116533   2.924   0.038   5.148
 5523TIP3    H216534   2.811  -0.001   5.057
 5524TIP3   OH216535   4.268   4.628   1.293
 5524TIP3    H116536   4.220   4.627   1.376
 5524TIP3    H216537   4.246   4.712   1.253
 5525TIP3   OH216538   1.836   0.192   4.415
 5525TIP3    H116539   1.822   0.266   4.356
 5525TIP3    H216540   1.885   0.129   4.361
 5526TIP3   OH216541   2.728   3.182   2.071
 5526TIP3    H116542   2.723   3.225   2.156
 5526TIP3    H216543   2.744   3.254   2.009
 5527TIP3   OH216544   4.917   1.444   5.062
 5527TIP3    H116545   4.919   1.531   5.021
 5527TIP3    H216546   4.912   1.384   4.988
 5528TIP3   OH216547   1.406   1.221   1.598
 5528TIP3    H116548   1.366   1.213   1.511
 5528TIP3    H216549   1.333   1.245   1.655
 5529TIP3   OH216550   0.942   1.065   1.355
 5529TIP3    H116551   0.913   1.149   1.320
 5529TIP3    H216552   0.874   1.040   1.417
 5530TIP3   OH216553   1.066   0.273   0.151
 5530TIP3    H116554   1.029   0.361   0.164
 5530TIP3    H216555   1.159   0.283   0.170
 5531TIP3   OH216556   6.721   2.788   0.733
 5531TIP3    H116557   6.743   2.697   0.749
 5531TIP3    H216558   6.802   2.828   0.703
 5532TIP3   OH216559   2.569   6.594   0.453
 5532TIP3    H116560   2.550   6.684   0.479
 5532TIP3    H216561   2.519   6.582   0.372
 5533TIP3   OH216562   1.165   1.631   4.197
 5533TIP3    H116563   1.110   1.581   4.258
 5533TIP3    H216564   1.195   1.566   4.133
 5534TIP3   OH216565   3.086   3.762   2.123
 5534TIP3    H116566   3.110   3.684   2.074
 5534TIP3    H216567   3.067   3.730   2.212
 5535TIP3   OH216568   4.530   0.313   3.128
 5535TIP3    H116569   4.521   0.344   3.038
 5535TIP3    H216570   4.621   0.332   3.151
 5536TIP3   OH216571   6.923   3.661   2.799
 5536TIP3    H116572   6.979   3.583   2.804
 5536TIP3    H216573   6.836   3.627   2.778
 5537TIP3   OH216574   5.701   1.398   4.126
 5537TIP3    H116575   5.622   1.406   4.179
 5537TIP3    H216576   5.736   1.487   4.122
 5538TIP3   OH216577   0.803   0.431   2.301
 5538TIP3    H116578   0.717   0.466   2.279
 5538TIP3    H216579   0.861   0.470   2.235
 5539TIP3   OH216580   4.690   1.363   4.853
 5539TIP3    H116581   4.672   1.315   4.934
 5539TIP3    H216582   4.701   1.295   4.786
 5540TIP3   OH216583   3.369   5.530   4.939
 5540TIP3    H116584   3.362   5.622   4.914
 5540TIP3    H216585   3.443   5.528   5.000
 5541TIP3   OH216586   3.356   6.454   1.999
 5541TIP3    H116587   3.327   6.518   2.065
 5541TIP3    H216588   3.397   6.507   1.931
 5542TIP3   OH216589   0.966   5.033   4.693
 5542TIP3    H116590   0.975   5.059   4.784
 5542TIP3    H216591   0.876   5.001   4.686
 5543TIP3   OH216592   5.049   4.021   4.621
 5543TIP3    H116593   5.020   3.935   4.652
 5543TIP3    H216594   5.143   4.011   4.606
 5544TIP3   OH216595   0.776   2.520   3.596
 5544TIP3    H116596   0.723   2.599   3.583
 5544TIP3    H216597   0.723   2.450   3.558
 5545TIP3   OH216598   1.003   3.964   0.258
 5545TIP3    H116599   0.912   3.944   0.237
 5545TIP3    H216600   1.014   4.056   0.231
 5546TIP3   OH216601   1.927   0.158   4.666
 5546TIP3    H116602   1.893   0.205   4.590
 5546TIP3    H216603   1.853   0.154   4.727
 5547TIP3   OH216604  -0.011   5.091   3.760
 5547TIP3    H116605   0.056   5.131   3.815
 5547TIP3    H216606   0.033   5.076   3.676
 5548TIP3   OH216607   2.219   5.771   1.532
 5548TIP3    H116608   2.159   5.819   1.476
 5548TIP3    H216609   2.301   5.767   1.483
 5549TIP3   OH216610   5.883   3.874   2.345
 5549TIP3    H116611   5.962   3.919   2.375
 5549TIP3    H216612   5.811   3.917   2.391
 5550TIP3   OH216613   4.438   6.482   3.226
 5550TIP3    H116614   4.505   6.543   3.257
 5550TIP3    H216615   4.361   6.503   3.279
 5551TIP3   OH216616   6.263   3.699   0.670
 5551TIP3    H116617   6.169   3.711   0.669
 5551TIP3    H216618   6.286   3.698   0.763
 5552TIP3   OH216619   3.526   5.897   5.480
 5552TIP3    H116620   3.486   5.970   5.433
 5552TIP3    H216621   3.526   5.825   5.416
 5553TIP3   OH216622   0.350   4.507   2.360
 5553TIP3    H116623   0.368   4.415   2.383
 5553TIP3    H216624   0.287   4.536   2.426
 5554TIP3   OH216625   4.776   1.544   2.022
 5554TIP3    H116626   4.811   1.501   1.944
 5554TIP3    H216627   4.840   1.524   2.090
 5555TIP3   OH216628   0.344   6.094   2.042
 5555TIP3    H116629   0.424   6.144   2.023
 5555TIP3    H216630   0.273   6.158   2.030
 5556TIP3   OH216631   1.368   5.035   0.211
 5556TIP3    H116632   1.397   5.127   0.212
 5556TIP3    H216633   1.449   4.985   0.207
 5557TIP3   OH216634   5.136   3.168   2.832
 5557TIP3    H116635   5.134   3.072   2.836
 5557TIP3    H216636   5.161   3.195   2.921
 5558TIP3   OH216637   2.330   2.979   5.195
 5558TIP3    H116638   2.368   3.022   5.117
 5558TIP3    H216639   2.353   2.887   5.184
 5559TIP3   OH216640   5.912   5.677   0.587
 5559TIP3    H116641   5.955   5.743   0.641
 5559TIP3    H216642   5.984   5.633   0.541
 5560TIP3   OH216643   7.158   2.392   0.129
 5560TIP3    H116644   7.156   2.329   0.200
 5560TIP3    H216645   7.155   2.339   0.049
 5561TIP3   OH216646   5.579   1.636   5.474
 5561TIP3    H116647   5.672   1.650   5.491
 5561TIP3    H216648   5.536   1.650   5.559
 5562TIP3   OH216649   4.499   1.568   0.222
 5562TIP3    H116650   4.494   1.473   0.210
 5562TIP3    H216651   4.431   1.602   0.163
 5563TIP3   OH216652   3.420   0.635   1.047
 5563TIP3    H116653   3.337   0.647   1.092
 5563TIP3    H216654   3.397   0.584   0.968
 5564TIP3   OH216655   3.588   5.583   1.735
 5564TIP3    H116656   3.621   5.648   1.797
 5564TIP3    H216657   3.654   5.581   1.666
 5565TIP3   OH216658   4.062   1.489   4.222
 5565TIP3    H116659   4.118   1.412   4.237
 5565TIP3    H216660   4.040   1.484   4.129
 5566TIP3   OH216661   7.075   2.706   2.915
 5566TIP3    H116662   7.132   2.783   2.904
 5566TIP3    H216663   7.010   2.734   2.980
 5567TIP3   OH216664   0.335   3.610   0.980
 5567TIP3    H116665   0.284   3.605   0.899
 5567TIP3    H216666   0.422   3.578   0.955
 5568TIP3   OH216667  -0.068   0.718   2.990
 5568TIP3    H116668  -0.045   0.692   2.900
 5568TIP3    H216669   0.014   0.710   3.038
 5569TIP3   OH216670   1.470   5.241   2.845
 5569TIP3    H116671   1.513   5.323   2.818
 5569TIP3    H216672   1.431   5.261   2.930
 5570TIP3   OH216673   0.020   1.164   0.604
 5570TIP3    H116674   0.038   1.084   0.556
 5570TIP3    H216675   0.104   1.187   0.644
 5571TIP3   OH216676   1.986   4.754   1.776
 5571TIP3    H116677   1.966   4.749   1.869
 5571TIP3    H216678   2.068   4.804   1.772
 5572TIP3   OH216679   3.110   5.931   4.383
 5572TIP3    H116680   3.023   5.904   4.353
 5572TIP3    H216681   3.158   5.849   4.394
 5573TIP3   OH216682   5.923   1.709   1.715
 5573TIP3    H116683   5.906   1.775   1.648
 5573TIP3    H216684   5.900   1.752   1.798
 5574TIP3   OH216685   5.663   6.652   5.580
 5574TIP3    H116686   5.702   6.565   5.576
 5574TIP3    H216687   5.580   6.639   5.626
 5575TIP3   OH216688   6.232   0.423   5.496
 5575TIP3    H116689   6.198   0.395   5.581
 5575TIP3    H216690   6.160   0.407   5.435
 5576TIP3   OH216691   2.664   4.092   3.457
 5576TIP3    H116692   2.702   4.146   3.387
 5576TIP3    H216693   2.712   4.009   3.451
 5577TIP3   OH216694   5.343   6.260   3.990
 5577TIP3    H116695   5.371   6.237   4.079
 5577TIP3    H216696   5.393   6.338   3.968
 5578TIP3   OH216697   1.264   1.323   5.505
 5578TIP3    H116698   1.190   1.370   5.544
 5578TIP3    H216699   1.255   1.337   5.411
 5579TIP3   OH216700   1.970   0.716   0.452
 5579TIP3    H116701   1.932   0.774   0.387
 5579TIP3    H216702   1.899   0.658   0.478
 5580TIP3   OH216703   3.920   1.138   3.978
 5580TIP3    H116704   3.846   1.078   3.972
 5580TIP3    H216705   3.899   1.209   3.918
 5581TIP3   OH216706   0.912   5.743   4.841
 5581TIP3    H116707   0.839   5.681   4.843
 5581TIP3    H216708   0.979   5.703   4.896
 5582TIP3   OH216709   1.819   3.813   5.236
 5582TIP3    H116710   1.880   3.864   5.289
 5582TIP3    H216711   1.746   3.794   5.295
 5583TIP3   OH216712   4.726   5.485   5.748
 5583TIP3    H116713   4.747   5.527   5.665
 5583TIP3    H216714   4.696   5.557   5.804
 5584TIP3   OH216715   3.619   1.209   2.554
 5584TIP3    H116716   3.618   1.229   2.460
 5584TIP3    H216717   3.598   1.292   2.596
 5585TIP3   OH216718   6.584   3.176   5.531
 5585TIP3    H116719   6.622   3.179   5.618
 5585TIP3    H216720   6.658   3.190   5.472
 5586TIP3   OH216721   3.524   1.121   0.104
 5586TIP3    H116722   3.529   1.183   0.032
 5586TIP3    H216723   3.466   1.163   0.168
 5587TIP3   OH216724   1.207   0.840   1.870
 5587TIP3    H116725   1.236   0.877   1.787
 5587TIP3    H216726   1.253   0.891   1.937
 5588TIP3   OH216727   0.158   3.575   1.858
 5588TIP3    H116728   0.093   3.616   1.915
 5588TIP3    H216729   0.236   3.631   1.865
 5589TIP3   OH216730   4.065   2.775   4.399
 5589TIP3    H116731   4.003   2.778   4.326
 5589TIP3    H216732   4.136   2.834   4.372
 5590TIP3   OH216733   6.035   0.265   2.724
 5590TIP3    H116734   6.018   0.358   2.709
 5590TIP3    H216735   6.118   0.263   2.771
 5591TIP3   OH216736   7.000   2.667   4.740
 5591TIP3    H116737   6.927   2.727   4.728
 5591TIP3    H216738   6.959   2.580   4.740
 5592TIP3   OH216739   5.250   5.279   3.348
 5592TIP3    H116740   5.268   5.357   3.401
 5592TIP3    H216741   5.175   5.303   3.294
 5593TIP3   OH216742   4.775   1.075   4.329
 5593TIP3    H116743   4.682   1.093   4.342
 5593TIP3    H216744   4.784   0.982   4.350
 5594TIP3   OH216745   6.701   4.964   3.398
 5594TIP3    H116746   6.625   5.003   3.441
 5594TIP3    H216747   6.671   4.878   3.369
 5595TIP3   OH216748   5.526   2.598   0.928
 5595TIP3    H116749   5.521   2.510   0.890
 5595TIP3    H216750   5.440   2.637   0.909
 5596TIP3   OH216751   1.529   4.320   5.733
 5596TIP3    H116752   1.485   4.309   5.649
 5596TIP3    H216753   1.574   4.237   5.748
 5597TIP3   OH216754   5.978   4.733   5.122
 5597TIP3    H116755   5.887   4.703   5.122
 5597TIP3    H216756   6.030   4.654   5.133
 5598TIP3   OH216757   0.966   0.902   3.111
 5598TIP3    H116758   0.952   0.994   3.088
 5598TIP3    H216759   1.058   0.897   3.137
 5599TIP3   OH216760   2.109   5.491   0.964
 5599TIP3    H116761   2.200   5.502   0.990
 5599TIP3    H216762   2.090   5.565   0.908
 5600TIP3   OH216763   2.270   1.995   0.692
 5600TIP3    H116764   2.337   1.974   0.626
 5600TIP3    H216765   2.320   2.023   0.769
 5601TIP3   OH216766   0.511   5.926   2.937
 5601TIP3    H116767   0.589   5.960   2.893
 5601TIP3    H216768   0.545   5.866   3.004
 5602TIP3   OH216769   4.124   0.916   1.429
 5602TIP3    H116770   4.113   0.821   1.440
 5602TIP3    H216771   4.035   0.948   1.415
 5603TIP3   OH216772   4.205   1.962   0.186
 5603TIP3    H116773   4.290   1.918   0.180
 5603TIP3    H216774   4.165   1.925   0.265
 5604TIP3   OH216775   3.725   4.212   0.076
 5604TIP3    H116776   3.657   4.193   0.140
 5604TIP3    H216777   3.701   4.162  -0.002
 5605TIP3   OH216778   1.183   1.613   5.621
 5605TIP3    H116779   1.088   1.611   5.617
 5605TIP3    H216780   1.205   1.562   5.699
 5606TIP3   OH216781   5.056   4.604   4.931
 5606TIP3    H116782   5.001   4.564   4.998
 5606TIP3    H216783   5.123   4.538   4.912
 5607TIP3   OH216784   7.225   5.251   0.463
 5607TIP3    H116785   7.243   5.214   0.549
 5607TIP3    H216786   7.164   5.189   0.422
 5608TIP3   OH216787   6.290   1.908   1.733
 5608TIP3    H116788   6.201   1.943   1.725
 5608TIP3    H216789   6.278   1.814   1.744
 5609TIP3   OH216790   6.108   4.908   2.117
 5609TIP3    H116791   6.179   4.906   2.053
 5609TIP3    H216792   6.084   5.000   2.124
 5610TIP3   OH216793   2.710   2.944   4.829
 5610TIP3    H116794   2.718   2.986   4.915
 5610TIP3    H216795   2.702   3.017   4.768
 5611TIP3   OH216796   4.721   6.671   5.137
 5611TIP3    H116797   4.715   6.757   5.095
 5611TIP3    H216798   4.811   6.665   5.166
 5612TIP3   OH216799   4.131   1.537   5.825
 5612TIP3    H116800   4.044   1.556   5.860
 5612TIP3    H216801   4.190   1.594   5.874
 5613TIP3   OH216802   5.296   5.067   5.000
 5613TIP3    H116803   5.377   5.017   5.010
 5613TIP3    H216804   5.271   5.090   5.089
 5614TIP3   OH216805   1.675   3.212   4.049
 5614TIP3    H116806   1.705   3.160   4.124
 5614TIP3    H216807   1.716   3.170   3.973
 5615TIP3   OH216808   3.668   1.773   1.693
 5615TIP3    H116809   3.763   1.777   1.707
 5615TIP3    H216810   3.652   1.838   1.624
 5616TIP3   OH216811   5.853   6.349   4.390
 5616TIP3    H116812   5.823   6.297   4.316
 5616TIP3    H216813   5.948   6.340   4.389
 5617TIP3   OH216814   2.031   5.605   5.913
 5617TIP3    H116815   1.943   5.640   5.898
 5617TIP3    H216816   2.070   5.599   5.826
 5618TIP3   OH216817   6.340   6.188   5.640
 5618TIP3    H116818   6.410   6.240   5.679
 5618TIP3    H216819   6.276   6.178   5.710
 5619TIP3   OH216820   2.236   6.703   2.443
 5619TIP3    H116821   2.215   6.764   2.514
 5619TIP3    H216822   2.299   6.642   2.481
 5620TIP3   OH216823   4.604   4.104   5.236
 5620TIP3    H116824   4.530   4.063   5.191
 5620TIP3    H216825   4.678   4.088   5.178
 5621TIP3   OH216826   3.999   5.103   5.273
 5621TIP3    H116827   3.965   5.189   5.250
 5621TIP3    H216828   3.938   5.042   5.230
 5622TIP3   OH216829   6.400   1.088   1.758
 5622TIP3    H116830   6.486   1.057   1.786
 5622TIP3    H216831   6.356   1.113   1.839
 5623TIP3   OH216832   0.147   3.766   1.632
 5623TIP3    H116833   0.187   3.851   1.648
 5623TIP3    H216834   0.092   3.751   1.709
 5624TIP3   OH216835   4.639   5.886   1.857
 5624TIP3    H116836   4.652   5.910   1.948
 5624TIP3    H216837   4.544   5.896   1.842
 5625TIP3   OH216838   1.225   3.086   3.440
 5625TIP3    H116839   1.214   3.111   3.532
 5625TIP3    H216840   1.179   3.154   3.391
 5626TIP3   OH216841   4.884   4.374   3.886
 5626TIP3    H116842   4.899   4.326   3.804
 5626TIP3    H216843   4.822   4.443   3.863
 5627TIP3   OH216844   6.442   4.547   2.185
 5627TIP3    H116845   6.472   4.611   2.121
 5627TIP3    H216846   6.513   4.482   2.188
 5628TIP3   OH216847   4.731   4.998   2.861
 5628TIP3    H116848   4.752   4.989   2.954
 5628TIP3    H216849   4.766   5.084   2.837
 5629TIP3   OH216850   4.236   0.999   0.796
 5629TIP3    H116851   4.224   1.011   0.890
 5629TIP3    H216852   4.223   0.905   0.783
 5630TIP3   OH216853   4.899   4.918   0.873
 5630TIP3    H116854   4.886   4.864   0.951
 5630TIP3    H216855   4.953   4.991   0.903
 5631TIP3   OH216856   4.006   2.261   3.860
 5631TIP3    H116857   4.038   2.326   3.922
 5631TIP3    H216858   3.911   2.257   3.877
 5632TIP3   OH216859   5.714   3.397   3.539
 5632TIP3    H116860   5.788   3.457   3.549
 5632TIP3    H216861   5.716   3.344   3.618
 5633TIP3   OH216862   3.358   2.419   3.926
 5633TIP3    H116863   3.380   2.326   3.930
 5633TIP3    H216864   3.263   2.420   3.910
 5634TIP3   OH216865   1.912   6.222   4.216
 5634TIP3    H116866   1.980   6.282   4.246
 5634TIP3    H216867   1.833   6.248   4.263
 5635TIP3   OH216868   3.237   6.596   1.726
 5635TIP3    H116869   3.246   6.638   1.812
 5635TIP3    H216870   3.181   6.655   1.676
 5636TIP3   OH216871   2.089   4.190   1.944
 5636TIP3    H116872   2.108   4.282   1.959
 5636TIP3    H216873   2.154   4.142   1.995
 5637TIP3   OH216874   6.489   3.973   5.516
 5637TIP3    H116875   6.517   3.982   5.425
 5637TIP3    H216876   6.567   3.943   5.562
 5638TIP3   OH216877   0.920   5.221   4.947
 5638TIP3    H116878   0.912   5.134   4.987
 5638TIP3    H216879   0.928   5.281   5.022
 5639TIP3   OH216880   2.962   1.704   4.188
 5639TIP3    H116881   2.980   1.742   4.103
 5639TIP3    H216882   2.934   1.778   4.243
 5640TIP3   OH216883   0.344   3.571   0.412
 5640TIP3    H116884   0.319   3.585   0.504
 5640TIP3    H216885   0.304   3.643   0.365
 5641TIP3   OH216886   5.578   1.566   2.907
 5641TIP3    H116887   5.514   1.564   2.978
 5641TIP3    H216888   5.616   1.654   2.912
 5642TIP3   OH216889   6.590   2.503   5.283
 5642TIP3    H116890   6.573   2.566   5.213
 5642TIP3    H216891   6.542   2.537   5.358
 5643TIP3   OH216892   0.819   5.804   0.389
 5643TIP3    H116893   0.824   5.898   0.373
 5643TIP3    H216894   0.734   5.778   0.351
 5644TIP3   OH216895   1.699   2.888   2.409
 5644TIP3    H116896   1.767   2.820   2.415
 5644TIP3    H216897   1.620   2.845   2.441
 5645TIP3   OH216898   0.788   5.277   2.642
 5645TIP3    H116899   0.722   5.346   2.629
 5645TIP3    H216900   0.772   5.247   2.732
 5646TIP3   OH216901   1.177   5.334   1.401
 5646TIP3    H116902   1.169   5.370   1.312
 5646TIP3    H216903   1.126   5.393   1.456
 5647TIP3   OH216904   4.556   4.146   4.603
 5647TIP3    H116905   4.492   4.108   4.543
 5647TIP3    H216906   4.640   4.112   4.572
 5648TIP3   OH216907   3.487   5.184   3.173
 5648TIP3    H116908   3.546   5.229   3.233
 5648TIP3    H216909   3.414   5.155   3.227
 5649TIP3   OH216910   4.675   6.495   1.005
 5649TIP3    H116911   4.613   6.488   1.078
 5649TIP3    H216912   4.632   6.450   0.933
 5650TIP3   OH216913   5.218   2.139   5.708
 5650TIP3    H116914   5.188   2.106   5.793
 5650TIP3    H216915   5.161   2.096   5.644
 5651TIP3   OH216916   4.539   4.433   0.923
 5651TIP3    H116917   4.474   4.503   0.919
 5651TIP3    H216918   4.574   4.438   1.012
 5652TIP3   OH216919   4.631   1.249   5.389
 5652TIP3    H116920   4.704   1.187   5.382
 5652TIP3    H216921   4.665   1.331   5.352
 5653TIP3   OH216922   0.262   4.107   0.840
 5653TIP3    H116923   0.238   4.014   0.830
 5653TIP3    H216924   0.233   4.147   0.758
 5654TIP3   OH216925   1.793   1.030   4.156
 5654TIP3    H116926   1.878   1.022   4.199
 5654TIP3    H216927   1.733   0.982   4.214
 5655TIP3   OH216928   6.524   0.859   3.603
 5655TIP3    H116929   6.452   0.921   3.592
 5655TIP3    H216930   6.562   0.881   3.688
 5656TIP3   OH216931   3.131   4.603   5.371
 5656TIP3    H116932   3.189   4.651   5.311
 5656TIP3    H216933   3.046   4.601   5.327
 5657TIP3   OH216934   5.231   6.570   5.434
 5657TIP3    H116935   5.241   6.664   5.426
 5657TIP3    H216936   5.271   6.535   5.355
 5658TIP3   OH216937   4.661   2.091   0.895
 5658TIP3    H116938   4.628   2.149   0.825
 5658TIP3    H216939   4.593   2.025   0.905
 5659TIP3   OH216940   0.808   1.045   1.046
 5659TIP3    H116941   0.835   1.136   1.052
 5659TIP3    H216942   0.775   1.023   1.133
 5660TIP3   OH216943   0.500   1.740   2.729
 5660TIP3    H116944   0.587   1.753   2.766
 5660TIP3    H216945   0.465   1.828   2.717
 5661TIP3   OH216946   6.201   4.095   5.512
 5661TIP3    H116947   6.159   4.028   5.567
 5661TIP3    H216948   6.293   4.071   5.510
 5662TIP3   OH216949   4.302   5.075   0.487
 5662TIP3    H116950   4.310   4.990   0.444
 5662TIP3    H216951   4.378   5.125   0.455
 5663TIP3   OH216952   0.050   5.939   2.443
 5663TIP3    H116953   0.033   5.858   2.492
 5663TIP3    H216954   0.131   5.973   2.480
 5664TIP3   OH216955   7.250   2.943   4.087
 5664TIP3    H116956   7.195   2.886   4.141
 5664TIP3    H216957   7.336   2.902   4.090
 5665TIP3   OH216958   6.069   3.327   2.511
 5665TIP3    H116959   6.100   3.408   2.552
 5665TIP3    H216960   6.127   3.259   2.546
 5666TIP3   OH216961   6.561   3.578   3.970
 5666TIP3    H116962   6.609   3.588   3.888
 5666TIP3    H216963   6.493   3.512   3.951
 5667TIP3   OH216964   0.866   3.363   5.633
 5667TIP3    H116965   0.874   3.458   5.633
 5667TIP3    H216966   0.808   3.344   5.559
 5668TIP3   OH216967   4.815   5.531   0.687
 5668TIP3    H116968   4.775   5.607   0.728
 5668TIP3    H216969   4.855   5.565   0.607
 5669TIP3   OH216970   5.476   6.726   2.824
 5669TIP3    H116971   5.554   6.771   2.856
 5669TIP3    H216972   5.463   6.762   2.736
 5670TIP3   OH216973   4.520   2.974   2.158
 5670TIP3    H116974   4.542   3.040   2.223
 5670TIP3    H216975   4.563   3.003   2.078
 5671TIP3   OH216976   3.219   1.993   1.289
 5671TIP3    H116977   3.194   1.915   1.340
 5671TIP3    H216978   3.314   1.989   1.285
 5672TIP3   OH216979   0.923   3.696   1.928
 5672TIP3    H116980   0.968   3.777   1.902
 5672TIP3    H216981   0.932   3.693   2.024
 5673TIP3   OH216982   2.794   4.253   3.268
 5673TIP3    H116983   2.819   4.209   3.187
 5673TIP3    H216984   2.877   4.284   3.306
 5674TIP3   OH216985   6.293   5.623   2.661
 5674TIP3    H116986   6.314   5.604   2.753
 5674TIP3    H216987   6.206   5.586   2.648
 5675TIP3   OH216988   7.165   3.806   4.413
 5675TIP3    H116989   7.123   3.755   4.343
 5675TIP3    H216990   7.239   3.850   4.370
 5676TIP3   OH216991   6.906   1.569   5.323
 5676TIP3    H116992   6.893   1.626   5.248
 5676TIP3    H216993   6.832   1.589   5.381
 5677TIP3   OH216994   6.077   6.233   0.965
 5677TIP3    H116995   6.131   6.203   1.038
 5677TIP3    H216996   6.119   6.197   0.887
 5678TIP3   OH216997   0.415   3.155   4.547
 5678TIP3    H116998   0.449   3.066   4.535
 5678TIP3    H216999   0.352   3.167   4.477
 5679TIP3   OH217000   5.584   4.925   0.353
 5679TIP3    H117001   5.599   4.908   0.260
 5679TIP3    H217002   5.520   4.996   0.355
 5680TIP3   OH217003   3.593   1.647   2.877
 5680TIP3    H117004   3.584   1.696   2.795
 5680TIP3    H217005   3.523   1.681   2.933
 5681TIP3   OH217006   1.624   4.118   4.737
 5681TIP3    H117007   1.631   4.212   4.754
 5681TIP3    H217008   1.714   4.088   4.727
 5682TIP3   OH217009   4.938   0.366   4.931
 5682TIP3    H117010   4.970   0.453   4.953
 5682TIP3    H217011   4.920   0.369   4.837
 5683TIP3   OH217012   2.871   0.292   0.508
 5683TIP3    H117013   2.945   0.234   0.522
 5683TIP3    H217014   2.807   0.239   0.462
 5684TIP3   OH217015   2.694   2.402   2.470
 5684TIP3    H117016   2.723   2.351   2.394
 5684TIP3    H217017   2.762   2.388   2.535
 5685TIP3   OH217018   5.082   4.217   1.440
 5685TIP3    H117019   5.161   4.227   1.494
 5685TIP3    H217020   5.010   4.239   1.499
 5686TIP3   OH217021   3.523   0.458   0.105
 5686TIP3    H117022   3.564   0.497   0.183
 5686TIP3    H217023   3.536   0.524   0.036
 5687TIP3   OH217024   4.580   0.383   5.420
 5687TIP3    H117025   4.631   0.312   5.458
 5687TIP3    H217026   4.562   0.355   5.330
 5688TIP3   OH217027   4.818   1.722   1.727
 5688TIP3    H117028   4.822   1.635   1.686
 5688TIP3    H217029   4.728   1.729   1.759
 5689TIP3   OH217030   5.289   1.590   3.310
 5689TIP3    H117031   5.276   1.681   3.283
 5689TIP3    H217032   5.230   1.540   3.255
 5690TIP3   OH217033   1.020   0.063   3.762
 5690TIP3    H117034   1.010  -0.023   3.804
 5690TIP3    H217035   1.101   0.098   3.799
 5691TIP3   OH217036   1.878   3.718   3.049
 5691TIP3    H117037   1.960   3.729   3.000
 5691TIP3    H217038   1.839   3.639   3.012
 5692TIP3   OH217039   1.711   0.687   4.290
 5692TIP3    H117040   1.796   0.695   4.247
 5692TIP3    H217041   1.647   0.696   4.219
 5693TIP3   OH217042   0.319   1.334   1.473
 5693TIP3    H117043   0.351   1.312   1.385
 5693TIP3    H217044   0.294   1.250   1.510
 5694TIP3   OH217045   0.340   4.349   0.496
 5694TIP3    H117046   0.412   4.316   0.442
 5694TIP3    H217047   0.383   4.400   0.564
 5695TIP3   OH217048   1.857   1.636   5.226
 5695TIP3    H117049   1.820   1.548   5.231
 5695TIP3    H217050   1.905   1.637   5.142
 5696TIP3   OH217051   5.796   3.957   0.281
 5696TIP3    H117052   5.721   4.003   0.319
 5696TIP3    H217053   5.759   3.877   0.243
 5697TIP3   OH217054   0.044   4.108   1.125
 5697TIP3    H117055   0.125   4.155   1.106
 5697TIP3    H217056   0.008   4.152   1.202
 5698TIP3   OH217057   2.897   4.746   5.260
 5698TIP3    H117058   2.946   4.828   5.263
 5698TIP3    H217059   2.889   4.727   5.167
 5699TIP3   OH217060   5.009   1.049   1.420
 5699TIP3    H117061   4.916   1.068   1.407
 5699TIP3    H217062   5.030   0.984   1.353
 5700TIP3   OH217063   4.834   0.361   1.310
 5700TIP3    H117064   4.782   0.353   1.390
 5700TIP3    H217065   4.923   0.336   1.337
 5701TIP3   OH217066   3.828   0.726   0.164
 5701TIP3    H117067   3.883   0.799   0.194
 5701TIP3    H217068   3.739   0.760   0.167
 5702TIP3   OH217069   0.292   5.553   1.757
 5702TIP3    H117070   0.356   5.482   1.758
 5702TIP3    H217071   0.345   5.633   1.753
 5703TIP3   OH217072   5.394   3.808   1.907
 5703TIP3    H117073   5.312   3.762   1.890
 5703TIP3    H217074   5.462   3.743   1.887
 5704TIP3   OH217075   4.863   6.730   0.055
 5704TIP3    H117076   4.782   6.776   0.033
 5704TIP3    H217077   4.886   6.682  -0.024
 5705TIP3   OH217078   5.424   6.198   3.692
 5705TIP3    H117079   5.421   6.192   3.788
 5705TIP3    H217080   5.507   6.243   3.674
 5706TIP3   OH217081   0.766   1.000   5.127
 5706TIP3    H117082   0.724   1.059   5.065
 5706TIP3    H217083   0.696   0.943   5.159
 5707TIP3   OH217084   1.349   5.011   0.512
 5707TIP3    H117085   1.327   5.022   0.419
 5707TIP3    H217086   1.334   5.098   0.550
 5708TIP3   OH217087   6.877   0.320   3.270
 5708TIP3    H117088   6.875   0.384   3.341
 5708TIP3    H217089   6.883   0.372   3.191
 5709TIP3   OH217090   6.877   3.249   5.862
 5709TIP3    H117091   6.864   3.166   5.817
 5709TIP3    H217092   6.803   3.256   5.922
 5710TIP3   OH217093   5.771   5.725   2.302
 5710TIP3    H117094   5.751   5.816   2.278
 5710TIP3    H217095   5.741   5.717   2.392
 5711TIP3   OH217096   2.887   4.329   1.087
 5711TIP3    H117097   2.813   4.386   1.108
 5711TIP3    H217098   2.957   4.358   1.145
 5712TIP3   OH217099   0.966   1.551   5.774
 5712TIP3    H117100   0.901   1.620   5.788
 5712TIP3    H217101   0.988   1.521   5.863
 5713TIP3   OH217102   7.103   0.142   3.619
 5713TIP3    H117103   7.164   0.072   3.641
 5713TIP3    H217104   7.155   0.222   3.624
 5714TIP3   OH217105   4.123   0.535   1.674
 5714TIP3    H117106   4.114   0.520   1.768
 5714TIP3    H217107   4.183   0.609   1.667
 5715TIP3   OH217108   5.617   5.417   1.967
 5715TIP3    H117109   5.577   5.487   2.020
 5715TIP3    H217110   5.656   5.358   2.031
 5716TIP3   OH217111   3.853   1.148   0.621
 5716TIP3    H117112   3.867   1.159   0.527
 5716TIP3    H217113   3.871   1.055   0.637
 5717TIP3   OH217114   1.896   0.901   0.282
 5717TIP3    H117115   1.900   0.977   0.340
 5717TIP3    H217116   1.850   0.933   0.204
 5718TIP3   OH217117   0.538   3.733   4.806
 5718TIP3    H117118   0.461   3.778   4.773
 5718TIP3    H217119   0.504   3.666   4.865
 5719TIP3   OH217120   5.745   2.922   0.559
 5719TIP3    H117121   5.757   2.964   0.474
 5719TIP3    H217122   5.813   2.854   0.562
 5720TIP3   OH217123   5.432   4.670   1.973
 5720TIP3    H117124   5.491   4.606   2.011
 5720TIP3    H217125   5.465   4.754   2.005
 5721TIP3   OH217126   0.621   0.743   1.312
 5721TIP3    H117127   0.572   0.790   1.379
 5721TIP3    H217128   0.644   0.660   1.352
 5722TIP3   OH217129   3.784   0.805   2.191
 5722TIP3    H117130   3.802   0.790   2.284
 5722TIP3    H217131   3.783   0.900   2.182
 5723TIP3   OH217132   3.301   2.208   2.641
 5723TIP3    H117133   3.392   2.222   2.613
 5723TIP3    H217134   3.297   2.114   2.661
 5724TIP3   OH217135   6.105   6.174   2.156
 5724TIP3    H117136   6.134   6.166   2.065
 5724TIP3    H217137   6.117   6.087   2.193
 5725TIP3   OH217138   3.423   5.979   1.227
 5725TIP3    H117139   3.418   5.905   1.288
 5725TIP3    H217140   3.430   6.056   1.284
 5726TIP3   OH217141   2.263   3.771   3.017
 5726TIP3    H117142   2.286   3.684   3.052
 5726TIP3    H217143   2.199   3.753   2.949
 5727TIP3   OH217144   1.058   3.186   5.714
 5727TIP3    H117145   1.000   3.241   5.661
 5727TIP3    H217146   1.120   3.149   5.651
 5728TIP3   OH217147   5.447   4.960   2.721
 5728TIP3    H117148   5.464   4.911   2.640
 5728TIP3    H217149   5.415   5.045   2.692
 5729TIP3   OH217150   1.254   2.314   0.399
 5729TIP3    H117151   1.258   2.279   0.310
 5729TIP3    H217152   1.205   2.248   0.448
 5730TIP3   OH217153   0.275   2.171   5.791
 5730TIP3    H117154   0.230   2.253   5.811
 5730TIP3    H217155   0.357   2.197   5.749
 5731TIP3   OH217156   0.741   0.414   4.929
 5731TIP3    H117157   0.810   0.417   4.864
 5731TIP3    H217158   0.782   0.446   5.010
 5732TIP3   OH217159   4.821   1.842   1.983
 5732TIP3    H117160   4.903   1.797   2.006
 5732TIP3    H217161   4.785   1.791   1.910
 5733TIP3   OH217162   7.008   5.051   3.963
 5733TIP3    H117163   6.996   5.131   4.014
 5733TIP3    H217164   7.067   5.076   3.892
 5734TIP3   OH217165   0.666   1.196   2.558
 5734TIP3    H117166   0.621   1.123   2.515
 5734TIP3    H217167   0.738   1.154   2.604
 5735TIP3   OH217168   6.650   0.696   1.265
 5735TIP3    H117169   6.606   0.686   1.180
 5735TIP3    H217170   6.580   0.723   1.325
 5736TIP3   OH217171   2.540   5.324   4.243
 5736TIP3    H117172   2.445   5.334   4.255
 5736TIP3    H217173   2.572   5.305   4.331
 5737TIP3   OH217174   4.590   1.415   1.273
 5737TIP3    H117175   4.523   1.477   1.298
 5737TIP3    H217176   4.551   1.365   1.201
 5738TIP3   OH217177   0.951   0.274   1.091
 5738TIP3    H117178   0.975   0.367   1.098
 5738TIP3    H217179   0.882   0.263   1.156
 5739TIP3   OH217180   3.902   6.041   3.918
 5739TIP3    H117181   3.913   6.012   3.828
 5739TIP3    H217182   3.819   6.088   3.918
 5740TIP3   OH217183   4.441   4.199   3.104
 5740TIP3    H117184   4.513   4.145   3.138
 5740TIP3    H217185   4.460   4.207   3.010
 5741TIP3   OH217186   4.681   3.338   2.452
 5741TIP3    H117187   4.647   3.417   2.493
 5741TIP3    H217188   4.730   3.370   2.376
 5742TIP3   OH217189   3.491   0.538   4.146
 5742TIP3    H117190   3.403   0.515   4.116
 5742TIP3    H217191   3.548   0.472   4.106
 5743TIP3   OH217192   4.157   4.166   3.119
 5743TIP3    H117193   4.132   4.075   3.128
 5743TIP3    H217194   4.252   4.166   3.131
 5744TIP3   OH217195   3.683   3.423   1.621
 5744TIP3    H117196   3.759   3.383   1.663
 5744TIP3    H217197   3.608   3.395   1.673
 5745TIP3   OH217198   5.381   0.702  -0.023
 5745TIP3    H117199   5.311   0.655  -0.066
 5745TIP3    H217200   5.453   0.639  -0.016
 5746TIP3   OH217201   3.362   0.945   0.791
 5746TIP3    H117202   3.308   0.877   0.751
 5746TIP3    H217203   3.309   0.976   0.865
 5747TIP3   OH217204   0.964   1.825   4.169
 5747TIP3    H117205   0.880   1.783   4.186
 5747TIP3    H217206   1.030   1.761   4.195
 5748TIP3   OH217207   7.016   3.858   4.796
 5748TIP3    H117208   6.959   3.860   4.719
 5748TIP3    H217209   7.048   3.768   4.800
 5749TIP3   OH217210   4.407   3.884   1.846
 5749TIP3    H117211   4.342   3.868   1.778
 5749TIP3    H217212   4.363   3.941   1.909
 5750TIP3   OH217213   7.206   0.670   0.272
 5750TIP3    H117214   7.151   0.706   0.341
 5750TIP3    H217215   7.190   0.576   0.275
 5751TIP3   OH217216   2.640   6.591   1.058
 5751TIP3    H117217   2.625   6.685   1.064
 5751TIP3    H217218   2.652   6.563   1.149
 5752TIP3   OH217219   4.540   6.567   0.517
 5752TIP3    H117220   4.556   6.566   0.422
 5752TIP3    H217221   4.552   6.475   0.543
 5753TIP3   OH217222   7.131   4.411   2.624
 5753TIP3    H117223   7.080   4.331   2.612
 5753TIP3    H217224   7.177   4.398   2.706
 5754TIP3   OH217225   3.956   0.465   0.923
 5754TIP3    H117226   4.015   0.482   0.849
 5754TIP3    H217227   3.987   0.524   0.992
 5755TIP3   OH217228   1.862   3.990   1.901
 5755TIP3    H117229   1.823   4.043   1.831
 5755TIP3    H217230   1.949   4.029   1.914
 5756TIP3   OH217231   1.980   2.121   1.280
 5756TIP3    H117232   1.904   2.069   1.255
 5756TIP3    H217233   2.032   2.128   1.200
 5757TIP3   OH217234   0.687   6.180   1.217
 5757TIP3    H117235   0.707   6.255   1.273
 5757TIP3    H217236   0.620   6.213   1.157
 5758TIP3   OH217237   6.266   1.848   4.006
 5758TIP3    H117238   6.318   1.831   4.085
 5758TIP3    H217239   6.189   1.895   4.037
 5759TIP3   OH217240   5.544   0.640   2.914
 5759TIP3    H117241   5.473   0.599   2.964
 5759TIP3    H217242   5.608   0.665   2.981
 5760TIP3   OH217243   3.893   1.830   5.396
 5760TIP3    H117244   3.847   1.852   5.477
 5760TIP3    H217245   3.986   1.832   5.420
 5761TIP3   OH217246   1.855   6.677   0.156
 5761TIP3    H117247   1.831   6.623   0.230
 5761TIP3    H217248   1.874   6.763   0.194
 5762TIP3   OH217249   3.707   2.300   4.760
 5762TIP3    H117250   3.667   2.246   4.692
 5762TIP3    H217251   3.741   2.237   4.824
 5763TIP3   OH217252   4.487   4.885   3.256
 5763TIP3    H117253   4.462   4.860   3.167
 5763TIP3    H217254   4.409   4.867   3.308
 5764TIP3   OH217255   4.733   4.032   2.850
 5764TIP3    H117256   4.751   4.059   2.759
 5764TIP3    H217257   4.750   4.111   2.902
 5765TIP3   OH217258   5.087   0.611   5.582
 5765TIP3    H117259   5.098   0.706   5.583
 5765TIP3    H217260   5.042   0.593   5.499
 5766TIP3   OH217261   2.278   3.261   5.468
 5766TIP3    H117262   2.237   3.289   5.386
 5766TIP3    H217263   2.219   3.294   5.536
 5767TIP3   OH217264   4.443   1.047   4.066
 5767TIP3    H117265   4.481   0.959   4.063
 5767TIP3    H217266   4.356   1.037   4.027
 5768TIP3   OH217267   0.516   0.253   4.534
 5768TIP3    H117268   0.565   0.254   4.616
 5768TIP3    H217269   0.468   0.336   4.533
 5769TIP3   OH217270   1.386   3.475   4.390
 5769TIP3    H117271   1.291   3.476   4.386
 5769TIP3    H217272   1.406   3.494   4.482
 5770TIP3   OH217273   5.748   3.036   3.344
 5770TIP3    H117274   5.813   3.090   3.299
 5770TIP3    H217275   5.700   3.097   3.400
 5771TIP3   OH217276   6.777   1.375   5.144
 5771TIP3    H117277   6.696   1.371   5.194
 5771TIP3    H217278   6.842   1.411   5.204
 5772TIP3   OH217279   2.320   3.003   3.353
 5772TIP3    H117280   2.309   2.941   3.426
 5772TIP3    H217281   2.234   3.006   3.311
 5773TIP3   OH217282   5.904   0.476   0.358
 5773TIP3    H117283   5.875   0.418   0.287
 5773TIP3    H217284   5.913   0.418   0.434
 5774TIP3   OH217285   4.579   6.266   2.887
 5774TIP3    H117286   4.496   6.279   2.932
 5774TIP3    H217287   4.607   6.179   2.914
 5775TIP3   OH217288   6.915   3.784   5.455
 5775TIP3    H117289   6.978   3.754   5.389
 5775TIP3    H217290   6.887   3.870   5.424
 5776TIP3   OH217291   0.272   6.526   0.824
 5776TIP3    H117292   0.202   6.462   0.836
 5776TIP3    H217293   0.227   6.609   0.811
 5777TIP3   OH217294   0.369   1.062   2.816
 5777TIP3    H117295   0.311   0.996   2.778
 5777TIP3    H217296   0.346   1.143   2.771
 5778TIP3   OH217297   1.660   6.241   5.550
 5778TIP3    H117298   1.583   6.205   5.507
 5778TIP3    H217299   1.723   6.256   5.479
 5779TIP3   OH217300   6.571   0.245   2.983
 5779TIP3    H117301   6.542   0.292   3.061
 5779TIP3    H217302   6.559   0.309   2.912
 5780TIP3   OH217303   2.003   0.774   1.381
 5780TIP3    H117304   1.982   0.777   1.475
 5780TIP3    H217305   1.918   0.770   1.338
 5781TIP3   OH217306   0.793   6.162   2.061
 5781TIP3    H117307   0.847   6.233   2.027
 5781TIP3    H217308   0.711   6.168   2.011
 5782TIP3   OH217309   2.415   6.335   1.255
 5782TIP3    H117310   2.393   6.416   1.209
 5782TIP3    H217311   2.337   6.314   1.306
 5783TIP3   OH217312   1.078   0.274   1.501
 5783TIP3    H117313   1.100   0.289   1.593
 5783TIP3    H217314   1.151   0.222   1.467
 5784TIP3   OH217315   2.985   4.219   4.546
 5784TIP3    H117316   2.954   4.275   4.476
 5784TIP3    H217317   3.034   4.278   4.604
 5785TIP3   OH217318   6.072   1.672   1.135
 5785TIP3    H117319   6.151   1.672   1.189
 5785TIP3    H217320   6.017   1.741   1.174
 5786TIP3   OH217321   0.243   0.484   0.724
 5786TIP3    H117322   0.180   0.513   0.657
 5786TIP3    H217323   0.301   0.559   0.736
 5787TIP3   OH217324   6.954   3.094   2.449
 5787TIP3    H117325   6.918   3.006   2.461
 5787TIP3    H217326   7.032   3.082   2.395
 5788TIP3   OH217327   1.966   0.761   2.440
 5788TIP3    H117328   2.018   0.768   2.360
 5788TIP3    H217329   1.921   0.845   2.448
 5789TIP3   OH217330   6.402   1.243   1.193
 5789TIP3    H117331   6.368   1.319   1.240
 5789TIP3    H217332   6.429   1.278   1.108
 5790TIP3   OH217333   0.246   0.090   2.365
 5790TIP3    H117334   0.192   0.169   2.357
 5790TIP3    H217335   0.199   0.025   2.313
 5791TIP3   OH217336   0.467   5.360   5.645
 5791TIP3    H117337   0.479   5.384   5.553
 5791TIP3    H217338   0.536   5.296   5.662
 5792TIP3   OH217339   2.220   4.428   2.732
 5792TIP3    H117340   2.134   4.460   2.705
 5792TIP3    H217341   2.248   4.371   2.661
 5793TIP3   OH217342   6.417   4.017   0.239
 5793TIP3    H117343   6.499   3.983   0.203
 5793TIP3    H217344   6.437   4.108   0.263
 5794TIP3   OH217345   2.346   5.729   5.123
 5794TIP3    H117346   2.310   5.775   5.048
 5794TIP3    H217347   2.346   5.636   5.097
 5795TIP3   OH217348   1.529   3.426   2.966
 5795TIP3    H117349   1.512   3.435   3.060
 5795TIP3    H217350   1.620   3.454   2.955
 5796TIP3   OH217351   1.419   4.160   1.267
 5796TIP3    H117352   1.348   4.117   1.219
 5796TIP3    H217353   1.374   4.213   1.333
 5797TIP3   OH217354   2.103   3.496   4.215
 5797TIP3    H117355   2.127   3.570   4.160
 5797TIP3    H217356   2.159   3.424   4.185
 5798TIP3   OH217357   5.355   4.153   1.153
 5798TIP3    H117358   5.275   4.204   1.140
 5798TIP3    H217359   5.419   4.194   1.095
 5799TIP3   OH217360   1.637   5.759   0.108
 5799TIP3    H117361   1.714   5.810   0.082
 5799TIP3    H217362   1.569   5.785   0.047
 5800TIP3   OH217363   3.083   3.468   4.281
 5800TIP3    H117364   3.172   3.452   4.311
 5800TIP3    H217365   3.079   3.562   4.265
 5801TIP3   OH217366   5.989   3.625   1.663
 5801TIP3    H117367   5.963   3.561   1.730
 5801TIP3    H217368   6.010   3.571   1.586
 5802TIP3   OH217369   1.773   2.256   1.404
 5802TIP3    H117370   1.819   2.311   1.468
 5802TIP3    H217371   1.842   2.205   1.361
 5803TIP3   OH217372   1.135   0.730   0.499
 5803TIP3    H117373   1.224   0.695   0.498
 5803TIP3    H217374   1.131   0.782   0.579
 5804TIP3   OH217375   4.689   6.060   4.175
 5804TIP3    H117376   4.776   6.036   4.144
 5804TIP3    H217377   4.705   6.115   4.252
 5805TIP3   OH217378   0.125   3.927   5.617
 5805TIP3    H117379   0.065   4.002   5.623
 5805TIP3    H217380   0.170   3.939   5.534
 5806TIP3   OH217381   3.354   2.165   4.306
 5806TIP3    H117382   3.262   2.181   4.285
 5806TIP3    H217383   3.352   2.127   4.394
 5807TIP3   OH217384   5.452   4.203   4.455
 5807TIP3    H117385   5.516   4.177   4.521
 5807TIP3    H217386   5.407   4.278   4.494
 5808TIP3   OH217387   1.517   2.562   3.308
 5808TIP3    H117388   1.612   2.570   3.314
 5808TIP3    H217389   1.486   2.588   3.395
 5809TIP3   OH217390   6.021   6.588   0.320
 5809TIP3    H117391   5.996   6.667   0.271
 5809TIP3    H217392   5.964   6.589   0.397
 5810TIP3   OH217393   1.401   3.505   0.805
 5810TIP3    H117394   1.405   3.510   0.709
 5810TIP3    H217395   1.309   3.517   0.826
 5811TIP3   OH217396   6.190   5.545   3.963
 5811TIP3    H117397   6.203   5.557   4.057
 5811TIP3    H217398   6.118   5.483   3.956
 5812TIP3   OH217399   1.696   0.445   3.384
 5812TIP3    H117400   1.614   0.402   3.359
 5812TIP3    H217401   1.684   0.536   3.357
 5813TIP3   OH217402   6.492   2.903   1.911
 5813TIP3    H117403   6.479   2.812   1.883
 5813TIP3    H217404   6.557   2.898   1.980
 5814TIP3   OH217405   0.751   3.087   5.694
 5814TIP3    H117406   0.765   3.179   5.671
 5814TIP3    H217407   0.829   3.042   5.660
 5815TIP3   OH217408   0.607   3.757   2.220
 5815TIP3    H117409   0.539   3.824   2.218
 5815TIP3    H217410   0.626   3.740   2.128
 5816TIP3   OH217411   4.610   0.654   1.315
 5816TIP3    H117412   4.558   0.616   1.386
 5816TIP3    H217413   4.594   0.597   1.240
 5817TIP3   OH217414   0.902   1.119   5.376
 5817TIP3    H117415   0.956   1.058   5.425
 5817TIP3    H217416   0.854   1.064   5.314
 5818TIP3   OH217417   5.385   0.680   5.789
 5818TIP3    H117418   5.465   0.721   5.758
 5818TIP3    H217419   5.357   0.623   5.717
 5819TIP3   OH217420   6.033   3.595   0.384
 5819TIP3    H117421   6.081   3.664   0.338
 5819TIP3    H217422   6.093   3.521   0.386
 5820TIP3   OH217423   1.474   3.070   0.109
 5820TIP3    H117424   1.438   3.130   0.044
 5820TIP3    H217425   1.473   2.985   0.066
 5821TIP3   OH217426   6.190   5.320   2.402
 5821TIP3    H117427   6.210   5.243   2.455
 5821TIP3    H217428   6.102   5.346   2.429
 5822TIP3   OH217429   3.674   0.400   1.872
 5822TIP3    H117430   3.721   0.357   1.943
 5822TIP3    H217431   3.736   0.400   1.799
 5823TIP3   OH217432   1.666   3.972   0.219
 5823TIP3    H117433   1.658   3.879   0.240
 5823TIP3    H217434   1.742   3.977   0.162
 5824TIP3   OH217435   6.865   2.804   5.189
 5824TIP3    H117436   6.952   2.792   5.151
 5824TIP3    H217437   6.858   2.898   5.203
 5825TIP3   OH217438   2.262   5.362   1.571
 5825TIP3    H117439   2.292   5.398   1.655
 5825TIP3    H217440   2.232   5.274   1.594
 5826TIP3   OH217441   3.952   5.476   4.142
 5826TIP3    H117442   3.976   5.487   4.050
 5826TIP3    H217443   3.860   5.502   4.146
 5827TIP3   OH217444   1.419   2.682   5.177
 5827TIP3    H117445   1.395   2.643   5.093
 5827TIP3    H217446   1.514   2.697   5.170
 5828TIP3   OH217447   0.341   5.021   1.728
 5828TIP3    H117448   0.403   4.948   1.724
 5828TIP3    H217449   0.392   5.097   1.697
 5829TIP3   OH217450   7.181   0.560   3.466
 5829TIP3    H117451   7.221   0.476   3.445
 5829TIP3    H217452   7.239   0.625   3.427
 5830TIP3   OH217453   1.033   5.155   0.712
 5830TIP3    H117454   1.031   5.059   0.718
 5830TIP3    H217455   0.966   5.176   0.647
 5831TIP3   OH217456   5.199   5.519   0.545
 5831TIP3    H117457   5.290   5.510   0.576
 5831TIP3    H217458   5.152   5.551   0.622
 5832TIP3   OH217459   1.223   3.704   5.506
 5832TIP3    H117460   1.264   3.627   5.466
 5832TIP3    H217461   1.149   3.724   5.449
 5833TIP3   OH217462   2.239   1.873   3.764
 5833TIP3    H117463   2.177   1.938   3.731
 5833TIP3    H217464   2.244   1.889   3.858
 5834TIP3   OH217465   1.081   0.970   1.130
 5834TIP3    H117466   1.065   0.876   1.137
 5834TIP3    H217467   1.032   1.007   1.203
 5835TIP3   OH217468   6.020   5.452   3.501
 5835TIP3    H117469   6.107   5.460   3.463
 5835TIP3    H217470   5.962   5.435   3.427
 5836TIP3   OH217471   0.616   1.379   5.056
 5836TIP3    H117472   0.651   1.392   5.143
 5836TIP3    H217473   0.523   1.403   5.063
 5837TIP3   OH217474   0.576   1.674   1.254
 5837TIP3    H117475   0.586   1.643   1.344
 5837TIP3    H217476   0.635   1.749   1.248
 5838TIP3   OH217477   4.681   5.743   3.812
 5838TIP3    H117478   4.638   5.807   3.868
 5838TIP3    H217479   4.737   5.692   3.871
 5839TIP3   OH217480   5.696   2.325   1.603
 5839TIP3    H117481   5.611   2.350   1.640
 5839TIP3    H217482   5.683   2.237   1.570
 5840TIP3   OH217483   6.566   3.454   0.504
 5840TIP3    H117484   6.602   3.436   0.417
 5840TIP3    H217485   6.493   3.514   0.488
 5841TIP3   OH217486   1.798   2.350   5.911
 5841TIP3    H117487   1.746   2.427   5.888
 5841TIP3    H217488   1.769   2.282   5.850
 5842TIP3   OH217489   1.430   6.620   5.083
 5842TIP3    H117490   1.413   6.712   5.059
 5842TIP3    H217491   1.347   6.590   5.120
 5843TIP3   OH217492   0.364   6.607   0.161
 5843TIP3    H117493   0.362   6.513   0.142
 5843TIP3    H217494   0.418   6.615   0.240
 5844TIP3   OH217495   0.291   5.450   0.048
 5844TIP3    H117496   0.282   5.366   0.003
 5844TIP3    H217497   0.232   5.443   0.123
 5845TIP3   OH217498   5.745   0.616   3.634
 5845TIP3    H117499   5.839   0.631   3.643
 5845TIP3    H217500   5.720   0.570   3.714
 5846TIP3   OH217501   0.170   3.916   2.149
 5846TIP3    H117502   0.266   3.917   2.141
 5846TIP3    H217503   0.144   4.007   2.133
 5847TIP3   OH217504   4.658   0.787   3.260
 5847TIP3    H117505   4.579   0.804   3.209
 5847TIP3    H217506   4.632   0.806   3.351
 5848TIP3   OH217507   6.505   2.450   2.690
 5848TIP3    H117508   6.429   2.391   2.691
 5848TIP3    H217509   6.567   2.411   2.750
 5849TIP3   OH217510   1.226   1.430   3.140
 5849TIP3    H117511   1.165   1.394   3.204
 5849TIP3    H217512   1.312   1.421   3.180
 5850TIP3   OH217513   6.387   5.760   0.642
 5850TIP3    H117514   6.408   5.680   0.690
 5850TIP3    H217515   6.335   5.812   0.705
 5851TIP3   OH217516   3.285   4.201   4.761
 5851TIP3    H117517   3.228   4.268   4.722
 5851TIP3    H217518   3.340   4.172   4.688
 5852TIP3   OH217519   1.832   1.974   3.200
 5852TIP3    H117520   1.872   1.893   3.232
 5852TIP3    H217521   1.817   2.026   3.279
 5853TIP3   OH217522   5.998   5.689   0.198
 5853TIP3    H117523   6.007   5.594   0.190
 5853TIP3    H217524   6.005   5.722   0.108
 5854TIP3   OH217525   3.473   3.105   1.279
 5854TIP3    H117526   3.515   3.189   1.295
 5854TIP3    H217527   3.379   3.122   1.288
 5855TIP3   OH217528   2.716   1.740   3.865
 5855TIP3    H117529   2.726   1.645   3.869
 5855TIP3    H217530   2.786   1.769   3.807
 5856TIP3   OH217531   1.267   5.734   3.040
 5856TIP3    H117532   1.215   5.713   3.118
 5856TIP3    H217533   1.201   5.753   2.972
 5857TIP3   OH217534   0.194   0.831   1.762
 5857TIP3    H117535   0.189   0.915   1.716
 5857TIP3    H217536   0.179   0.766   1.694
 5858TIP3   OH217537   3.725   2.615   4.246
 5858TIP3    H117538   3.657   2.570   4.196
 5858TIP3    H217539   3.685   2.631   4.332
 5859TIP3   OH217540   2.672   4.354   4.508
 5859TIP3    H117541   2.703   4.299   4.436
 5859TIP3    H217542   2.605   4.301   4.552
 5860TIP3   OH217543   3.475   1.962   5.290
 5860TIP3    H117544   3.545   1.897   5.302
 5860TIP3    H217545   3.514   2.028   5.233
 5861TIP3   OH217546   4.060   2.489   4.027
 5861TIP3    H117547   4.033   2.456   4.113
 5861TIP3    H217548   4.110   2.568   4.047
 5862TIP3   OH217549   4.365   0.688   4.836
 5862TIP3    H117550   4.298   0.751   4.809
 5862TIP3    H217551   4.316   0.615   4.873
 5863TIP3   OH217552   6.898   5.865   4.040
 5863TIP3    H117553   6.873   5.792   4.098
 5863TIP3    H217554   6.818   5.888   3.994
 5864TIP3   OH217555   6.804   6.308   1.887
 5864TIP3    H117556   6.800   6.276   1.797
 5864TIP3    H217557   6.884   6.270   1.923
 5865TIP3   OH217558   1.198   5.137   5.461
 5865TIP3    H117559   1.136   5.171   5.525
 5865TIP3    H217560   1.151   5.142   5.378
 5866TIP3   OH217561   7.088   0.867   3.227
 5866TIP3    H117562   7.038   0.796   3.267
 5866TIP3    H217563   7.112   0.834   3.141
 5867TIP3   OH217564   4.349   3.958   2.665
 5867TIP3    H117565   4.256   3.939   2.677
 5867TIP3    H217566   4.358   3.975   2.572
 5868TIP3   OH217567   3.592   0.133   2.772
 5868TIP3    H117568   3.500   0.121   2.750
 5868TIP3    H217569   3.600   0.096   2.860
 5869TIP3   OH217570   4.811   3.674   5.437
 5869TIP3    H117571   4.838   3.719   5.357
 5869TIP3    H217572   4.778   3.744   5.494
 5870TIP3   OH217573   4.993   5.055   5.575
 5870TIP3    H117574   5.001   5.148   5.593
 5870TIP3    H217575   5.012   5.012   5.659
 5871TIP3   OH217576   4.601   6.578   3.968
 5871TIP3    H117577   4.649   6.654   4.001
 5871TIP3    H217578   4.603   6.515   4.040
 5872TIP3   OH217579   0.417   4.662   0.370
 5872TIP3    H117580   0.469   4.583   0.356
 5872TIP3    H217581   0.378   4.681   0.285
 5873TIP3   OH217582   7.026   5.053   0.605
 5873TIP3    H117583   7.071   4.969   0.603
 5873TIP3    H217584   6.938   5.033   0.573
 5874TIP3   OH217585   0.636   4.953   1.046
 5874TIP3    H117586   0.582   5.032   1.039
 5874TIP3    H217587   0.621   4.923   1.136
 5875TIP3   OH217588   1.145   2.014   5.595
 5875TIP3    H117589   1.120   2.103   5.572
 5875TIP3    H217590   1.108   2.001   5.682
 5876TIP3   OH217591   0.716   6.535   5.816
 5876TIP3    H117592   0.759   6.464   5.863
 5876TIP3    H217593   0.749   6.615   5.858
 5877TIP3   OH217594   5.468   1.930   5.364
 5877TIP3    H117595   5.432   1.987   5.432
 5877TIP3    H217596   5.530   1.874   5.411
 5878TIP3   OH217597   1.801   6.758   3.919
 5878TIP3    H117598   1.837   6.832   3.968
 5878TIP3    H217599   1.873   6.695   3.913
 5879TIP3   OH217600   2.277   5.753   0.109
 5879TIP3    H117601   2.185   5.777   0.122
 5879TIP3    H217602   2.310   5.737   0.198
 5880TIP3   OH217603   4.583   2.704   1.686
 5880TIP3    H117604   4.597   2.797   1.672
 5880TIP3    H217605   4.510   2.699   1.747
 5881TIP3   OH217606   4.666   4.229   0.678
 5881TIP3    H117607   4.621   4.147   0.659
 5881TIP3    H217608   4.689   4.223   0.771
 5882TIP3   OH217609   5.425   3.574   0.256
 5882TIP3    H117610   5.516   3.604   0.251
 5882TIP3    H217611   5.384   3.606   0.176
 5883TIP3   OH217612   5.532   4.206   4.907
 5883TIP3    H117613   5.455   4.252   4.873
 5883TIP3    H217614   5.520   4.205   5.002
 5884TIP3   OH217615   3.558   2.683   2.491
 5884TIP3    H117616   3.605   2.724   2.418
 5884TIP3    H217617   3.542   2.755   2.552
 5885TIP3   OH217618   2.715   3.584   4.943
 5885TIP3    H117619   2.659   3.591   4.866
 5885TIP3    H217620   2.715   3.672   4.981
 5886TIP3   OH217621   1.730   2.796   1.445
 5886TIP3    H117622   1.752   2.851   1.521
 5886TIP3    H217623   1.656   2.744   1.474
 5887TIP3   OH217624   3.408   0.569   5.509
 5887TIP3    H117625   3.411   0.540   5.418
 5887TIP3    H217626   3.469   0.642   5.513
 5888TIP3   OH217627   2.148   1.616   1.253
 5888TIP3    H117628   2.133   1.537   1.200
 5888TIP3    H217629   2.078   1.615   1.318
 5889TIP3   OH217630   0.084   4.962   1.684
 5889TIP3    H117631   0.179   4.968   1.683
 5889TIP3    H217632   0.064   4.910   1.762
 5890TIP3   OH217633   2.221   5.324   2.095
 5890TIP3    H117634   2.170   5.304   2.173
 5890TIP3    H217635   2.161   5.309   2.022
 5891TIP3   OH217636   2.053   6.637   5.693
 5891TIP3    H117637   1.994   6.708   5.720
 5891TIP3    H217638   2.108   6.621   5.770
 5892TIP3   OH217639   3.043   4.947   0.476
 5892TIP3    H117640   2.985   4.882   0.436
 5892TIP3    H217641   3.051   4.918   0.567
 5893TIP3   OH217642   6.195   0.550   4.125
 5893TIP3    H117643   6.100   0.557   4.114
 5893TIP3    H217644   6.222   0.633   4.165
 5894TIP3   OH217645   0.889   0.070   0.158
 5894TIP3    H117646   0.930  -0.013   0.132
 5894TIP3    H217647   0.962   0.130   0.171
 5895TIP3   OH217648   5.726   5.100   2.514
 5895TIP3    H117649   5.639   5.117   2.478
 5895TIP3    H217650   5.713   5.103   2.609
 5896TIP3   OH217651   0.304   0.207   4.735
 5896TIP3    H117652   0.226   0.167   4.698
 5896TIP3    H217653   0.356   0.233   4.659
 5897TIP3   OH217654   0.432   1.105   2.079
 5897TIP3    H117655   0.391   1.026   2.045
 5897TIP3    H217656   0.467   1.150   2.002
 5898TIP3   OH217657   5.578   4.202   3.929
 5898TIP3    H117658   5.568   4.113   3.896
 5898TIP3    H217659   5.544   4.198   4.018
 5899TIP3   OH217660   4.877   1.283   0.790
 5899TIP3    H117661   4.971   1.298   0.780
 5899TIP3    H217662   4.838   1.331   0.717
 5900TIP3   OH217663   1.344   1.552   1.556
 5900TIP3    H117664   1.439   1.543   1.560
 5900TIP3    H217665   1.316   1.480   1.499
 5901TIP3   OH217666   3.225   2.027   5.349
 5901TIP3    H117667   3.314   1.991   5.343
 5901TIP3    H217668   3.232   2.097   5.414
 5902TIP3   OH217669   1.443   0.068   0.398
 5902TIP3    H117670   1.447  -0.015   0.446
 5902TIP3    H217671   1.468   0.046   0.309
 5903TIP3   OH217672   2.472   1.788   2.803
 5903TIP3    H117673   2.456   1.841   2.725
 5903TIP3    H217674   2.456   1.847   2.876
 5904TIP3   OH217675   3.159   0.988   1.098
 5904TIP3    H117676   3.223   0.993   1.169
 5904TIP3    H217677   3.151   1.078   1.067
 5905TIP3   OH217678   5.691   6.372   1.988
 5905TIP3    H117679   5.706   6.466   1.982
 5905TIP3    H217680   5.616   6.356   1.932
 5906TIP3   OH217681   3.396   1.283   5.230
 5906TIP3    H117682   3.461   1.323   5.288
 5906TIP3    H217683   3.336   1.354   5.209
 5907TIP3   OH217684   5.913   4.472   2.304
 5907TIP3    H117685   5.976   4.522   2.252
 5907TIP3    H217686   5.869   4.538   2.359
 5908TIP3   OH217687   3.833   0.541   2.081
 5908TIP3    H117688   3.750   0.507   2.115
 5908TIP3    H217689   3.837   0.631   2.114
 5909TIP3   OH217690   2.390   6.493   1.504
 5909TIP3    H117691   2.334   6.475   1.429
 5909TIP3    H217692   2.465   6.434   1.493
 5910TIP3   OH217693   5.286   5.572   4.385
 5910TIP3    H117694   5.381   5.568   4.382
 5910TIP3    H217695   5.262   5.512   4.456
 5911TIP3   OH217696   5.688   2.894   5.050
 5911TIP3    H117697   5.759   2.950   5.019
 5911TIP3    H217698   5.697   2.895   5.146
 5912TIP3   OH217699   6.764   5.385   1.323
 5912TIP3    H117700   6.696   5.323   1.350
 5912TIP3    H217701   6.824   5.333   1.270
 5913TIP3   OH217702   3.682   1.188   5.165
 5913TIP3    H117703   3.706   1.270   5.122
 5913TIP3    H217704   3.691   1.122   5.097
 5914TIP3   OH217705   3.550   6.683   2.404
 5914TIP3    H117706   3.568   6.718   2.317
 5914TIP3    H217707   3.510   6.756   2.451
 5915TIP3   OH217708   6.650   0.942   1.579
 5915TIP3    H117709   6.610   0.971   1.661
 5915TIP3    H217710   6.714   1.011   1.558
 5916TIP3   OH217711   6.099   6.059   3.192
 5916TIP3    H117712   6.185   6.022   3.214
 5916TIP3    H217713   6.048   5.985   3.159
 5917TIP3   OH217714   6.000   1.465   3.901
 5917TIP3    H117715   6.094   1.478   3.886
 5917TIP3    H217716   5.965   1.553   3.913
 5918TIP3   OH217717   5.151   2.573   4.696
 5918TIP3    H117718   5.182   2.537   4.779
 5918TIP3    H217719   5.138   2.666   4.713
 5919TIP3   OH217720   3.855   6.479   2.257
 5919TIP3    H117721   3.938   6.446   2.291
 5919TIP3    H217722   3.795   6.476   2.332
 5920TIP3   OH217723   2.235   5.917   1.776
 5920TIP3    H117724   2.190   6.002   1.785
 5920TIP3    H217725   2.218   5.890   1.686
 5921TIP3   OH217726   4.052   0.391   4.019
 5921TIP3    H117727   4.013   0.420   3.937
 5921TIP3    H217728   4.064   0.472   4.069
 5922TIP3   OH217729   3.049   2.125   1.979
 5922TIP3    H117730   3.138   2.108   2.009
 5922TIP3    H217731   2.993   2.068   2.032
 5923TIP3   OH217732   0.300   2.910   2.467
 5923TIP3    H117733   0.377   2.892   2.413
 5923TIP3    H217734   0.265   2.992   2.434
 5924TIP3   OH217735   1.293   1.298   2.207
 5924TIP3    H117736   1.365   1.358   2.224
 5924TIP3    H217737   1.296   1.235   2.278
 5925TIP3   OH217738   5.723   1.419   3.299
 5925TIP3    H117739   5.677   1.382   3.375
 5925TIP3    H217740   5.778   1.488   3.336
 5926TIP3   OH217741   2.021   3.616   5.105
 5926TIP3    H117742   2.088   3.583   5.165
 5926TIP3    H217743   1.980   3.688   5.152
 5927TIP3   OH217744   5.613   2.078   1.461
 5927TIP3    H117745   5.520   2.090   1.482
 5927TIP3    H217746   5.618   2.095   1.367
 5928TIP3   OH217747   0.715   4.005   2.014
 5928TIP3    H117748   0.715   3.931   1.953
 5928TIP3    H217749   0.801   4.001   2.056
 5929TIP3   OH217750   4.320   3.768   0.637
 5929TIP3    H117751   4.391   3.752   0.574
 5929TIP3    H217752   4.365   3.792   0.718
 5930TIP3   OH217753   3.279   1.102   3.904
 5930TIP3    H117754   3.313   1.050   3.976
 5930TIP3    H217755   3.335   1.081   3.829
 5931TIP3   OH217756   6.821   5.209   2.975
 5931TIP3    H117757   6.818   5.211   3.071
 5931TIP3    H217758   6.866   5.290   2.951
 5932TIP3   OH217759   1.626   2.084   0.050
 5932TIP3    H117760   1.546   2.055   0.005
 5932TIP3    H217761   1.643   2.171   0.014
 5933TIP3   OH217762   6.494   3.708   1.915
 5933TIP3    H117763   6.468   3.653   1.841
 5933TIP3    H217764   6.437   3.784   1.909
 5934TIP3   OH217765   5.704   6.476   2.798
 5934TIP3    H117766   5.780   6.531   2.820
 5934TIP3    H217767   5.666   6.516   2.720
 5935TIP3   OH217768   7.108   0.935   4.581
 5935TIP3    H117769   7.099   0.922   4.676
 5935TIP3    H217770   7.079   0.852   4.543
 5936TIP3   OH217771   1.962   2.751   3.075
 5936TIP3    H117772   2.009   2.791   3.002
 5936TIP3    H217773   1.919   2.825   3.118
 5937TIP3   OH217774   6.377   3.054   2.346
 5937TIP3    H117775   6.343   2.984   2.291
 5937TIP3    H217776   6.458   3.018   2.383
 5938TIP3   OH217777   0.396   1.953   3.566
 5938TIP3    H117778   0.436   1.985   3.485
 5938TIP3    H217779   0.459   1.975   3.635
 5939TIP3   OH217780   1.176   4.831   1.347
 5939TIP3    H117781   1.221   4.913   1.365
 5939TIP3    H217782   1.181   4.783   1.430
 5940TIP3   OH217783   3.870   2.492   2.457
 5940TIP3    H117784   3.883   2.583   2.483
 5940TIP3    H217785   3.824   2.452   2.530
 5941TIP3   OH217786   0.376   2.523   3.105
 5941TIP3    H117787   0.379   2.606   3.152
 5941TIP3    H217788   0.400   2.546   3.015
 5942TIP3   OH217789   2.469   2.596   2.914
 5942TIP3    H117790   2.553   2.638   2.894
 5942TIP3    H217791   2.451   2.541   2.838
 5943TIP3   OH217792   6.360   2.677   4.626
 5943TIP3    H117793   6.361   2.685   4.531
 5943TIP3    H217794   6.271   2.702   4.651
 5944TIP3   OH217795   5.448   6.754   0.551
 5944TIP3    H117796   5.470   6.717   0.465
 5944TIP3    H217797   5.360   6.790   0.539
 5945TIP3   OH217798   3.918   4.850   4.947
 5945TIP3    H117799   4.011   4.835   4.967
 5945TIP3    H217800   3.919   4.913   4.875
 5946TIP3   OH217801   3.916   4.855   1.060
 5946TIP3    H117802   3.944   4.766   1.081
 5946TIP3    H217803   3.834   4.844   1.012
 5947TIP3   OH217804   2.393   0.415   1.992
 5947TIP3    H117805   2.467   0.402   1.933
 5947TIP3    H217806   2.385   0.332   2.038
 5948TIP3   OH217807   5.198   4.680   1.828
 5948TIP3    H117808   5.129   4.622   1.859
 5948TIP3    H217809   5.266   4.674   1.895
 5949TIP3   OH217810   6.562   0.465   5.362
 5949TIP3    H117811   6.602   0.494   5.444
 5949TIP3    H217812   6.635   0.465   5.299
 5950TIP3   OH217813   1.326   2.728   4.850
 5950TIP3    H117814   1.279   2.667   4.794
 5950TIP3    H217815   1.259   2.789   4.881
 5951TIP3   OH217816   7.118   4.384   1.591
 5951TIP3    H117817   7.031   4.422   1.583
 5951TIP3    H217818   7.137   4.351   1.503
 5952TIP3   OH217819   2.518   0.592   3.572
 5952TIP3    H117820   2.596   0.643   3.549
 5952TIP3    H217821   2.448   0.657   3.576
 5953TIP3   OH217822   3.440   3.325   2.377
 5953TIP3    H117823   3.361   3.352   2.331
 5953TIP3    H217824   3.511   3.371   2.332
 5954TIP3   OH217825   3.807   2.993   4.000
 5954TIP3    H117826   3.787   3.054   3.929
 5954TIP3    H217827   3.799   3.045   4.080
 5955TIP3   OH217828   6.954   3.843   1.995
 5955TIP3    H117829   6.951   3.903   2.069
 5955TIP3    H217830   6.916   3.892   1.922
 5956TIP3   OH217831   6.494   1.807   4.894
 5956TIP3    H117832   6.551   1.860   4.949
 5956TIP3    H217833   6.442   1.755   4.955
 5957TIP3   OH217834   1.818   5.704   1.143
 5957TIP3    H117835   1.727   5.732   1.151
 5957TIP3    H217836   1.813   5.609   1.129
 5958TIP3   OH217837   4.719   5.001   1.634
 5958TIP3    H117838   4.812   5.003   1.611
 5958TIP3    H217839   4.677   5.052   1.565
 5959TIP3   OH217840   6.920   0.393   1.909
 5959TIP3    H117841   6.983   0.446   1.960
 5959TIP3    H217842   6.899   0.448   1.834
 5960TIP3   OH217843   2.387   3.997   3.080
 5960TIP3    H117844   2.346   3.915   3.051
 5960TIP3    H217845   2.480   3.984   3.064
 5961TIP3   OH217846   0.748   5.127   5.356
 5961TIP3    H117847   0.721   5.111   5.266
 5961TIP3    H217848   0.771   5.041   5.390
 5962TIP3   OH217849   2.931   5.089   4.525
 5962TIP3    H117850   2.864   5.021   4.534
 5962TIP3    H217851   3.002   5.047   4.476
 5963TIP3   OH217852   2.279   1.090   5.156
 5963TIP3    H117853   2.221   1.165   5.149
 5963TIP3    H217854   2.290   1.059   5.066
 5964TIP3   OH217855   2.569   0.819   5.456
 5964TIP3    H117856   2.538   0.761   5.524
 5964TIP3    H217857   2.492   0.837   5.402
 5965TIP3   OH217858   2.860   5.008   3.821
 5965TIP3    H117859   2.856   4.987   3.728
 5965TIP3    H217860   2.908   5.090   3.825
 5966TIP3   OH217861   0.077   5.781   3.286
 5966TIP3    H117862   0.064   5.858   3.341
 5966TIP3    H217863   0.047   5.708   3.340
 5967TIP3   OH217864   2.122   2.117   2.033
 5967TIP3    H117865   2.114   2.052   2.103
 5967TIP3    H217866   2.200   2.090   1.984
 5968TIP3   OH217867   0.566   3.639   5.218
 5968TIP3    H117868   0.526   3.725   5.201
 5968TIP3    H217869   0.500   3.576   5.191
 5969TIP3   OH217870   3.611   5.326   3.377
 5969TIP3    H117871   3.651   5.254   3.426
 5969TIP3    H217872   3.663   5.403   3.402
 5970TIP3   OH217873   5.913   1.358   1.103
 5970TIP3    H117874   5.915   1.283   1.044
 5970TIP3    H217875   5.973   1.334   1.174
 5971TIP3   OH217876   2.311   2.524   1.776
 5971TIP3    H117877   2.245   2.532   1.707
 5971TIP3    H217878   2.387   2.486   1.732
 5972TIP3   OH217879   6.790   2.163   3.077
 5972TIP3    H117880   6.773   2.199   3.164
 5972TIP3    H217881   6.771   2.235   3.017
 5973TIP3   OH217882   5.956   5.593   2.813
 5973TIP3    H117883   5.876   5.644   2.806
 5973TIP3    H217884   5.927   5.505   2.838
 5974TIP3   OH217885   5.616   3.650   1.915
 5974TIP3    H117886   5.602   3.587   1.986
 5974TIP3    H217887   5.700   3.691   1.935
 5975TIP3   OH217888   6.429   0.236   5.527
 5975TIP3    H117889   6.350   0.276   5.491
 5975TIP3    H217890   6.434   0.269   5.617
 5976TIP3   OH217891   3.871   5.004   4.720
 5976TIP3    H117892   3.859   5.050   4.637
 5976TIP3    H217893   3.853   5.071   4.786
 5977TIP3   OH217894   1.470   4.537   3.422
 5977TIP3    H117895   1.443   4.445   3.419
 5977TIP3    H217896   1.458   4.569   3.333
 5978TIP3   OH217897   6.359   3.026   0.334
 5978TIP3    H117898   6.418   3.102   0.336
 5978TIP3    H217899   6.385   2.974   0.409
 5979TIP3   OH217900   4.360   5.944   2.551
 5979TIP3    H117901   4.434   5.898   2.589
 5979TIP3    H217902   4.302   5.876   2.520
 5980TIP3   OH217903   6.100   2.906   0.315
 5980TIP3    H117904   6.181   2.958   0.313
 5980TIP3    H217905   6.042   2.950   0.253
 5981TIP3   OH217906   6.291   1.216   0.478
 5981TIP3    H117907   6.287   1.207   0.574
 5981TIP3    H217908   6.327   1.134   0.448
 5982TIP3   OH217909   4.712   4.742   5.079
 5982TIP3    H117910   4.755   4.802   5.017
 5982TIP3    H217911   4.768   4.664   5.080
 5983TIP3   OH217912   0.541   6.191   1.880
 5983TIP3    H117913   0.566   6.266   1.827
 5983TIP3    H217914   0.489   6.137   1.821
 5984TIP3   OH217915   1.275   4.176   3.655
 5984TIP3    H117916   1.257   4.164   3.562
 5984TIP3    H217917   1.371   4.169   3.662
 5985TIP3   OH217918   6.221   6.782   4.547
 5985TIP3    H117919   6.187   6.694   4.530
 5985TIP3    H217920   6.172   6.838   4.486
 5986TIP3   OH217921   1.560   4.593   4.763
 5986TIP3    H117922   1.617   4.518   4.746
 5986TIP3    H217923   1.618   4.662   4.793
 5987TIP3   OH217924   1.884   5.624   0.589
 5987TIP3    H117925   1.917   5.700   0.638
 5987TIP3    H217926   1.909   5.548   0.642
 5988TIP3   OH217927   2.748  -0.006   5.825
 5988TIP3    H117928   2.814   0.022   5.888
 5988TIP3    H217929   2.797  -0.022   5.744
 5989TIP3   OH217930   1.597   4.110   2.682
 5989TIP3    H117931   1.601   4.104   2.778
 5989TIP3    H217932   1.684   4.141   2.657
 5990TIP3   OH217933   4.633   4.802   4.689
 5990TIP3    H117934   4.596   4.725   4.647
 5990TIP3    H217935   4.617   4.873   4.627
 5991TIP3   OH217936   5.255   0.669   0.775
 5991TIP3    H117937   5.295   0.651   0.860
 5991TIP3    H217938   5.164   0.644   0.786
 5992TIP3   OH217939   4.643   6.610   3.675
 5992TIP3    H117940   4.615   6.570   3.758
 5992TIP3    H217941   4.720   6.663   3.699
 5993TIP3   OH217942   6.835   1.283   0.940
 5993TIP3    H117943   6.872   1.238   0.865
 5993TIP3    H217944   6.909   1.294   1.000
 5994TIP3   OH217945   3.542   6.259   5.678
 5994TIP3    H117946   3.519   6.350   5.697
 5994TIP3    H217947   3.488   6.235   5.603
 5995TIP3   OH217948   4.879   0.812   4.711
 5995TIP3    H117949   4.817   0.764   4.656
 5995TIP3    H217950   4.824   0.871   4.763
 5996TIP3   OH217951   5.101   2.670   3.234
 5996TIP3    H117952   5.123   2.732   3.303
 5996TIP3    H217953   5.007   2.680   3.221
 5997TIP3   OH217954   5.834   4.958   0.503
 5997TIP3    H117955   5.752   4.952   0.455
 5997TIP3    H217956   5.902   4.955   0.436
 5998TIP3   OH217957   2.984   2.938   1.851
 5998TIP3    H117958   2.925   3.008   1.823
 5998TIP3    H217959   3.071   2.976   1.846
 5999TIP3   OH217960   3.827   6.764   0.677
 5999TIP3    H117961   3.902   6.810   0.638
 5999TIP3    H217962   3.773   6.739   0.603
 6000TIP3   OH217963   2.857   5.506   4.438
 6000TIP3    H117964   2.879   5.433   4.379
 6000TIP3    H217965   2.917   5.496   4.511
 6001TIP3   OH217966   5.153   0.535   3.711
 6001TIP3    H117967   5.173   0.446   3.681
 6001TIP3    H217968   5.180   0.537   3.802
 6002TIP3   OH217969   6.259   0.155   2.435
 6002TIP3    H117970   6.336   0.125   2.387
 6002TIP3    H217971   6.259   0.250   2.422
 6003TIP3   OH217972   1.671   2.603   3.884
 6003TIP3    H117973   1.638   2.551   3.958
 6003TIP3    H217974   1.611   2.584   3.812
 6004TIP3   OH217975   2.359   5.713   1.311
 6004TIP3    H117976   2.388   5.788   1.259
 6004TIP3    H217977   2.316   5.655   1.249
 6005TIP3   OH217978   3.005   3.810   0.378
 6005TIP3    H117979   2.933   3.772   0.429
 6005TIP3    H217980   3.074   3.824   0.443
 6006TIP3   OH217981   2.858   0.905   5.244
 6006TIP3    H117982   2.867   0.960   5.166
 6006TIP3    H217983   2.833   0.966   5.313
 6007TIP3   OH217984   0.513   1.308   0.927
 6007TIP3    H117985   0.504   1.345   1.015
 6007TIP3    H217986   0.435   1.337   0.881
 6008TIP3   OH217987   5.155   5.647   5.795
 6008TIP3    H117988   5.140   5.738   5.769
 6008TIP3    H217989   5.073   5.621   5.838
 6009TIP3   OH217990   0.227   3.678   4.754
 6009TIP3    H117991   0.185   3.754   4.794
 6009TIP3    H217992   0.191   3.603   4.800
 6010TIP3   OH217993   4.564   4.182   2.445
 6010TIP3    H117994   4.567   4.213   2.354
 6010TIP3    H217995   4.634   4.229   2.490
 6011TIP3   OH217996   0.993   4.397   2.097
 6011TIP3    H117997   0.970   4.400   2.190
 6011TIP3    H217998   1.062   4.463   2.088
 6012TIP3   OH217999   5.163   5.876   4.287
 6012TIP3    H118000   5.250   5.855   4.253
 6012TIP3    H218001   5.154   5.820   4.364
 6013TIP3   OH218002   1.589   1.648   5.422
 6013TIP3    H118003   1.564   1.569   5.375
 6013TIP3    H218004   1.635   1.701   5.357
 6014TIP3   OH218005   5.776   0.164   3.988
 6014TIP3    H118006   5.721   0.123   3.922
 6014TIP3    H218007   5.859   0.179   3.943
 6015TIP3   OH218008   6.861   4.430   3.664
 6015TIP3    H118009   6.946   4.430   3.708
 6015TIP3    H218010   6.849   4.521   3.636
 6016TIP3   OH218011   3.996   1.342   0.776
 6016TIP3    H118012   3.940   1.309   0.706
 6016TIP3    H218013   4.027   1.264   0.821
 6017TIP3   OH218014   5.337   3.525   3.415
 6017TIP3    H118015   5.408   3.586   3.397
 6017TIP3    H218016   5.322   3.479   3.333
 6018TIP3   OH218017   5.865   0.432   2.525
 6018TIP3    H118018   5.815   0.353   2.544
 6018TIP3    H218019   5.878   0.473   2.610
 6019TIP3   OH218020   0.556   5.244   0.664
 6019TIP3    H118021   0.600   5.164   0.690
 6019TIP3    H218022   0.507   5.220   0.585
 6020TIP3   OH218023   4.212   5.791   3.478
 6020TIP3    H118024   4.143   5.750   3.426
 6020TIP3    H218025   4.292   5.745   3.451
 6021TIP3   OH218026   2.189   0.807   0.245
 6021TIP3    H118027   2.094   0.813   0.253
 6021TIP3    H218028   2.221   0.896   0.259
 6022TIP3   OH218029   4.887   5.426   4.150
 6022TIP3    H118030   4.890   5.351   4.209
 6022TIP3    H218031   4.979   5.451   4.139
 6023TIP3   OH218032   1.194   6.021   4.147
 6023TIP3    H118033   1.138   6.092   4.180
 6023TIP3    H218034   1.146   5.941   4.169
 6024TIP3   OH218035   0.794   0.239   3.114
 6024TIP3    H118036   0.822   0.162   3.065
 6024TIP3    H218037   0.731   0.206   3.178
 6025TIP3   OH218038   4.069   1.276   4.691
 6025TIP3    H118039   4.065   1.325   4.609
 6025TIP3    H218040   3.985   1.292   4.733
 6026TIP3   OH218041   0.740   0.862   0.754
 6026TIP3    H118042   0.809   0.928   0.766
 6026TIP3    H218043   0.785   0.778   0.767
 6027TIP3   OH218044   3.056   5.236   2.742
 6027TIP3    H118045   3.041   5.281   2.659
 6027TIP3    H218046   2.977   5.254   2.793
 6028TIP3   OH218047   5.455   1.050   3.116
 6028TIP3    H118048   5.515   1.052   3.190
 6028TIP3    H218049   5.387   0.987   3.141
 6029TIP3   OH218050   0.443   2.808   5.745
 6029TIP3    H118051   0.375   2.856   5.793
 6029TIP3    H218052   0.445   2.849   5.659
 6030TIP3   OH218053   0.378   2.270   5.136
 6030TIP3    H118054   0.440   2.328   5.180
 6030TIP3    H218055   0.307   2.260   5.199
 6031TIP3   OH218056   3.339   3.050   2.152
 6031TIP3    H118057   3.282   3.074   2.079
 6031TIP3    H218058   3.279   3.010   2.216
 6032TIP3   OH218059   4.290   2.923   4.362
 6032TIP3    H118060   4.350   2.943   4.434
 6032TIP3    H218061   4.332   2.959   4.284
 6033TIP3   OH218062   3.009   6.202   2.463
 6033TIP3    H118063   3.029   6.271   2.399
 6033TIP3    H218064   2.915   6.211   2.478
 6034TIP3   OH218065   1.356   2.135   4.193
 6034TIP3    H118066   1.424   2.087   4.147
 6034TIP3    H218067   1.336   2.082   4.270
 6035TIP3   OH218068   0.487   0.989   5.470
 6035TIP3    H118069   0.563   1.042   5.444
 6035TIP3    H218070   0.416   1.053   5.481
 6036TIP3   OH218071   2.237   1.090   0.299
 6036TIP3    H118072   2.293   1.163   0.326
 6036TIP3    H218073   2.242   1.090   0.203
 6037TIP3   OH218074   6.273   2.053   2.229
 6037TIP3    H118075   6.288   2.044   2.135
 6037TIP3    H218076   6.227   2.137   2.238
 6038TIP3   OH218077   4.706   1.128   2.407
 6038TIP3    H118078   4.723   1.077   2.328
 6038TIP3    H218079   4.743   1.215   2.388
 6039TIP3   OH218080   2.863   1.170   3.029
 6039TIP3    H118081   2.852   1.099   3.092
 6039TIP3    H218082   2.793   1.232   3.050
 6040TIP3   OH218083   4.817   5.687   0.460
 6040TIP3    H118084   4.857   5.648   0.382
 6040TIP3    H218085   4.724   5.667   0.453
 6041TIP3   OH218086   2.225   6.238   4.715
 6041TIP3    H118087   2.252   6.322   4.678
 6041TIP3    H218088   2.280   6.228   4.793
 6042TIP3   OH218089   6.806   3.092   5.183
 6042TIP3    H118090   6.784   3.163   5.243
 6042TIP3    H218091   6.852   3.136   5.111
 6043TIP3   OH218092   0.135   5.403   1.124
 6043TIP3    H118093   0.093   5.324   1.157
 6043TIP3    H218094   0.084   5.427   1.046
 6044TIP3   OH218095   6.121   2.646   2.261
 6044TIP3    H118096   6.155   2.719   2.210
 6044TIP3    H218097   6.026   2.649   2.248
 6045TIP3   OH218098   0.180   5.949   3.714
 6045TIP3    H118099   0.217   5.861   3.706
 6045TIP3    H218100   0.238   5.994   3.776
 6046TIP3   OH218101   0.606   5.853   1.229
 6046TIP3    H118102   0.577   5.914   1.296
 6046TIP3    H218103   0.613   5.769   1.275
 6047TIP3   OH218104   7.225   6.585   2.483
 6047TIP3    H118105   7.209   6.497   2.450
 6047TIP3    H218106   7.242   6.574   2.577
 6048TIP3   OH218107   3.626   3.585   4.596
 6048TIP3    H118108   3.663   3.569   4.683
 6048TIP3    H218109   3.533   3.561   4.605
 6049TIP3   OH218110   3.907   2.420   4.229
 6049TIP3    H118111   3.847   2.493   4.209
 6049TIP3    H218112   3.850   2.352   4.266
 6050TIP3   OH218113   1.215   3.675   5.167
 6050TIP3    H118114   1.306   3.661   5.194
 6050TIP3    H218115   1.186   3.588   5.137
 6051TIP3   OH218116   6.189   2.727   4.895
 6051TIP3    H118117   6.128   2.676   4.843
 6051TIP3    H218118   6.186   2.815   4.858
 6052TIP3   OH218119   3.852   5.201   1.683
 6052TIP3    H118120   3.933   5.152   1.695
 6052TIP3    H218121   3.869   5.260   1.610
 6053TIP3   OH218122   6.768   2.212   2.611
 6053TIP3    H118123   6.830   2.270   2.567
 6053TIP3    H218124   6.771   2.131   2.561
 6054TIP3   OH218125   6.463   0.574   2.073
 6054TIP3    H118126   6.438   0.539   1.987
 6054TIP3    H218127   6.381   0.585   2.119
 6055TIP3   OH218128   1.754   1.048   1.084
 6055TIP3    H118129   1.798   1.126   1.118
 6055TIP3    H218130   1.749   1.063   0.989
 6056TIP3   OH218131   3.673   4.902   4.363
 6056TIP3    H118132   3.732   4.856   4.303
 6056TIP3    H218133   3.692   4.865   4.449
 6057TIP3   OH218134   5.856   5.880   3.770
 6057TIP3    H118135   5.898   5.809   3.723
 6057TIP3    H218136   5.908   5.957   3.749
 6058TIP3   OH218137   5.208   4.235   1.717
 6058TIP3    H118138   5.247   4.296   1.654
 6058TIP3    H218139   5.252   4.255   1.800
 6059TIP3   OH218140   5.658   3.958   1.736
 6059TIP3    H118141   5.573   3.986   1.702
 6059TIP3    H218142   5.684   3.885   1.679
 6060TIP3   OH218143   3.299   2.679   3.897
 6060TIP3    H118144   3.375   2.624   3.879
 6060TIP3    H218145   3.229   2.616   3.917
 6061TIP3   OH218146   6.590   4.290   3.348
 6061TIP3    H118147   6.527   4.307   3.278
 6061TIP3    H218148   6.550   4.328   3.426
 6062TIP3   OH218149   3.566   2.677   5.701
 6062TIP3    H118150   3.649   2.651   5.741
 6062TIP3    H218151   3.543   2.759   5.746
 6063TIP3   OH218152   2.951   2.533   2.973
 6063TIP3    H118153   3.009   2.608   2.979
 6063TIP3    H218154   3.010   2.457   2.968
 6064TIP3   OH218155   5.523   0.994   4.781
 6064TIP3    H118156   5.482   0.952   4.705
 6064TIP3    H218157   5.466   1.068   4.802
 6065TIP3   OH218158   2.338   5.138   4.104
 6065TIP3    H118159   2.314   5.167   4.193
 6065TIP3    H218160   2.255   5.130   4.058
 6066TIP3   OH218161   5.887   6.271   5.124
 6066TIP3    H118162   5.811   6.216   5.145
 6066TIP3    H218163   5.848   6.352   5.090
 6067TIP3   OH218164   2.384   6.276   1.936
 6067TIP3    H118165   2.317   6.279   2.005
 6067TIP3    H218166   2.462   6.313   1.977
 6068TIP3   OH218167   4.316   2.841   5.109
 6068TIP3    H118168   4.367   2.873   5.183
 6068TIP3    H218169   4.303   2.918   5.053
 6069TIP3   OH218170   2.286   0.525   4.702
 6069TIP3    H118171   2.328   0.551   4.620
 6069TIP3    H218172   2.302   0.599   4.761
 6070TIP3   OH218173   5.670   2.340   0.414
 6070TIP3    H118174   5.714   2.403   0.356
 6070TIP3    H218175   5.732   2.325   0.485
 6071TIP3   OH218176   5.917   6.112   4.872
 6071TIP3    H118177   5.851   6.143   4.934
 6071TIP3    H218178   5.988   6.176   4.878
 6072TIP3   OH218179   1.025   4.000   2.821
 6072TIP3    H118180   0.950   4.010   2.880
 6072TIP3    H218181   1.086   3.944   2.869
 6073TIP3   OH218182   5.147   6.329   3.692
 6073TIP3    H118183   5.186   6.314   3.606
 6073TIP3    H218184   5.182   6.258   3.746
 6074TIP3   OH218185   4.930   4.074   3.962
 6074TIP3    H118186   4.961   4.129   3.890
 6074TIP3    H218187   4.844   4.109   3.985
 6075TIP3   OH218188   4.390   2.794   1.867
 6075TIP3    H118189   4.382   2.795   1.962
 6075TIP3    H218190   4.301   2.777   1.835
 6076TIP3   OH218191   5.519   0.180   1.301
 6076TIP3    H118192   5.485   0.151   1.217
 6076TIP3    H218193   5.597   0.232   1.280
 6077TIP3   OH218194   4.182   3.558   3.732
 6077TIP3    H118195   4.179   3.629   3.668
 6077TIP3    H218196   4.270   3.564   3.769
 6078TIP3   OH218197   6.980   4.071   3.036
 6078TIP3    H118198   6.891   4.081   3.004
 6078TIP3    H218199   7.013   4.161   3.045
 6079TIP3   OH218200   4.842   1.387   5.618
 6079TIP3    H118201   4.760   1.405   5.665
 6079TIP3    H218202   4.868   1.300   5.650
 6080TIP3   OH218203   6.700   4.027   0.763
 6080TIP3    H118204   6.774   3.983   0.806
 6080TIP3    H218205   6.625   3.969   0.778
 6081TIP3   OH218206   2.067   3.548   1.369
 6081TIP3    H118207   2.020   3.557   1.286
 6081TIP3    H218208   2.022   3.607   1.429
 6082TIP3   OH218209   5.230   5.788   1.300
 6082TIP3    H118210   5.252   5.859   1.360
 6082TIP3    H218211   5.313   5.741   1.287
 6083TIP3   OH218212   4.720   3.180   4.082
 6083TIP3    H118213   4.663   3.146   4.151
 6083TIP3    H218214   4.661   3.215   4.016
 6084TIP3   OH218215   6.574   0.933   2.828
 6084TIP3    H118216   6.666   0.907   2.836
 6084TIP3    H218217   6.575   1.018   2.786
 6085TIP3   OH218218   6.312   1.784   0.746
 6085TIP3    H118219   6.255   1.861   0.753
 6085TIP3    H218220   6.256   1.710   0.763
 6086TIP3   OH218221   6.270   3.107   1.667
 6086TIP3    H118222   6.245   3.030   1.616
 6086TIP3    H218223   6.356   3.132   1.632
 6087TIP3   OH218224   6.593   0.690   0.326
 6087TIP3    H118225   6.644   0.649   0.256
 6087TIP3    H218226   6.508   0.646   0.322
 6088TIP3   OH218227   3.716   3.722   1.086
 6088TIP3    H118228   3.763   3.805   1.083
 6088TIP3    H218229   3.709   3.694   0.995
 6089TIP3   OH218230   0.165   4.458   0.037
 6089TIP3    H118231   0.236   4.402   0.006
 6089TIP3    H218232   0.103   4.397   0.079
 6090TIP3   OH218233   3.089   0.413   5.039
 6090TIP3    H118234   3.088   0.483   4.973
 6090TIP3    H218235   3.108   0.334   4.989
 6091TIP3   OH218236   1.725   5.672   5.328
 6091TIP3    H118237   1.696   5.589   5.290
 6091TIP3    H218238   1.672   5.739   5.285
 6092TIP3   OH218239   5.917   6.468   3.633
 6092TIP3    H118240   6.005   6.505   3.637
 6092TIP3    H218241   5.920   6.405   3.561
 6093TIP3   OH218242   5.014   4.141   0.369
 6093TIP3    H118243   4.962   4.086   0.310
 6093TIP3    H218244   4.950   4.197   0.412
 6094TIP3   OH218245   1.524   5.898   5.667
 6094TIP3    H118246   1.465   5.902   5.742
 6094TIP3    H218247   1.518   5.807   5.638
 6095TIP3   OH218248   6.590   2.539   0.961
 6095TIP3    H118249   6.566   2.623   1.000
 6095TIP3    H218250   6.661   2.506   1.016
 6096TIP3   OH218251   3.928   6.006   0.622
 6096TIP3    H118252   3.899   6.043   0.539
 6096TIP3    H218253   3.884   5.921   0.628
 6097TIP3   OH218254   0.831   4.933   2.301
 6097TIP3    H118255   0.754   4.987   2.318
 6097TIP3    H218256   0.896   4.964   2.364
 6098TIP3   OH218257   3.344   1.144   2.100
 6098TIP3    H118258   3.262   1.131   2.147
 6098TIP3    H218259   3.347   1.238   2.082
 6099TIP3   OH218260   0.173   4.906   1.375
 6099TIP3    H118261   0.150   4.991   1.412
 6099TIP3    H218262   0.217   4.860   1.446
 6100TIP3   OH218263   1.817   5.345   2.848
 6100TIP3    H118264   1.764   5.411   2.804
 6100TIP3    H218265   1.907   5.369   2.827
 6101TIP3   OH218266   4.267   4.568   0.378
 6101TIP3    H118267   4.314   4.641   0.339
 6101TIP3    H218268   4.186   4.561   0.327
 6102TIP3   OH218269   7.218   1.676   0.151
 6102TIP3    H118270   7.210   1.769   0.130
 6102TIP3    H218271   7.138   1.654   0.198
 6103TIP3   OH218272   0.993   4.157   4.655
 6103TIP3    H118273   0.970   4.245   4.626
 6103TIP3    H218274   1.068   4.133   4.601
 6104TIP3   OH218275   1.338   4.643   3.208
 6104TIP3    H118276   1.419   4.683   3.175
 6104TIP3    H218277   1.314   4.578   3.142
 6105TIP3   OH218278   6.406   5.751   4.257
 6105TIP3    H118279   6.429   5.771   4.347
 6105TIP3    H218280   6.415   5.835   4.210
 6106TIP3   OH218281   1.965   4.210   5.176
 6106TIP3    H118282   1.989   4.236   5.265
 6106TIP3    H218283   1.871   4.191   5.182
 6107TIP3   OH218284   3.214   1.843   4.310
 6107TIP3    H118285   3.146   1.781   4.334
 6107TIP3    H218286   3.217   1.839   4.214
 6108TIP3   OH218287   4.632   4.571   2.943
 6108TIP3    H118288   4.648   4.608   3.030
 6108TIP3    H218289   4.571   4.631   2.902
 6109TIP3   OH218290   5.755   0.895   5.844
 6109TIP3    H118291   5.839   0.849   5.841
 6109TIP3    H218292   5.693   0.836   5.800
 6110TIP3   OH218293   5.149   3.584   1.524
 6110TIP3    H118294   5.224   3.580   1.465
 6110TIP3    H218295   5.073   3.588   1.466
 6111TIP3   OH218296   3.176   2.177   5.796
 6111TIP3    H118297   3.161   2.250   5.857
 6111TIP3    H218298   3.101   2.119   5.810
 6112TIP3   OH218299   2.326   1.670   4.142
 6112TIP3    H118300   2.236   1.644   4.164
 6112TIP3    H218301   2.316   1.739   4.077
 6113TIP3   OH218302   6.819   0.903   2.402
 6113TIP3    H118303   6.743   0.851   2.428
 6113TIP3    H218304   6.894   0.846   2.418
 6114TIP3   OH218305   1.003   2.582   4.184
 6114TIP3    H118306   1.065   2.620   4.122
 6114TIP3    H218307   0.927   2.559   4.131
 6115TIP3   OH218308   3.237   0.161   0.752
 6115TIP3    H118309   3.328   0.187   0.769
 6115TIP3    H218310   3.209   0.217   0.679
 6116TIP3   OH218311   4.153   4.896   5.080
 6116TIP3    H118312   4.096   4.825   5.110
 6116TIP3    H218313   4.239   4.875   5.116
 6117TIP3   OH218314   7.180   5.509   5.274
 6117TIP3    H118315   7.271   5.524   5.251
 6117TIP3    H218316   7.141   5.597   5.276
 6118TIP3   OH218317   1.865   2.633   1.238
 6118TIP3    H118318   1.878   2.724   1.212
 6118TIP3    H218319   1.811   2.639   1.317
 6119TIP3   OH218320   0.680   3.456   3.085
 6119TIP3    H118321   0.696   3.398   3.011
 6119TIP3    H218322   0.586   3.445   3.104
 6120TIP3   OH218323   0.727   2.667   2.809
 6120TIP3    H118324   0.639   2.664   2.772
 6120TIP3    H218325   0.745   2.577   2.836
 6121TIP3   OH218326   5.247   6.586   3.324
 6121TIP3    H118327   5.194   6.506   3.320
 6121TIP3    H218328   5.285   6.593   3.236
 6122TIP3   OH218329   4.582   5.373   3.507
 6122TIP3    H118330   4.638   5.312   3.459
 6122TIP3    H218331   4.538   5.318   3.572
 6123TIP3   OH218332   5.609   4.455   1.732
 6123TIP3    H118333   5.555   4.534   1.732
 6123TIP3    H218334   5.679   4.473   1.795
 6124TIP3   OH218335   2.491   5.366   2.860
 6124TIP3    H118336   2.511   5.400   2.772
 6124TIP3    H218337   2.478   5.445   2.913
 6125TIP3   OH218338   5.283   1.378   1.012
 6125TIP3    H118339   5.340   1.378   0.935
 6125TIP3    H218340   5.247   1.467   1.015
 6126TIP3   OH218341   6.620   3.307   4.966
 6126TIP3    H118342   6.563   3.358   4.909
 6126TIP3    H218343   6.560   3.251   5.016
 6127TIP3   OH218344   5.359   3.397   3.178
 6127TIP3    H118345   5.444   3.367   3.145
 6127TIP3    H218346   5.301   3.390   3.102
 6128TIP3   OH218347   4.308   1.772   4.727
 6128TIP3    H118348   4.261   1.855   4.726
 6128TIP3    H218349   4.309   1.745   4.819
 6129TIP3   OH218350   5.593   5.601   3.449
 6129TIP3    H118351   5.501   5.619   3.471
 6129TIP3    H218352   5.628   5.559   3.528
 6130TIP3   OH218353   4.090   2.317   3.135
 6130TIP3    H118354   4.126   2.243   3.086
 6130TIP3    H218355   4.087   2.389   3.072
 6131TIP3   OH218356   0.496   0.548   3.511
 6131TIP3    H118357   0.537   0.465   3.538
 6131TIP3    H218358   0.552   0.581   3.442
 6132TIP3   OH218359   1.961   4.409   0.069
 6132TIP3    H118360   2.051   4.425   0.098
 6132TIP3    H218361   1.954   4.314   0.064
 6133TIP3   OH218362   6.506   0.952   4.398
 6133TIP3    H118363   6.560   1.001   4.336
 6133TIP3    H218364   6.458   1.020   4.446
 6134TIP3   OH218365   7.166   1.161   1.568
 6134TIP3    H118366   7.249   1.141   1.524
 6134TIP3    H218367   7.188   1.164   1.661
 6135TIP3   OH218368   5.458   6.433   0.973
 6135TIP3    H118369   5.389   6.496   0.952
 6135TIP3    H218370   5.500   6.467   1.052
 6136TIP3   OH218371   1.210   0.184   2.126
 6136TIP3    H118372   1.257   0.167   2.208
 6136TIP3    H218373   1.245   0.268   2.096
 6137TIP3   OH218374   5.073   6.376   3.270
 6137TIP3    H118375   4.981   6.368   3.246
 6137TIP3    H218376   5.094   6.294   3.314
 6138TIP3   OH218377   6.688   0.542   2.949
 6138TIP3    H118378   6.614   0.525   2.891
 6138TIP3    H218379   6.648   0.567   3.033
 6139TIP3   OH218380   3.565   0.266   3.518
 6139TIP3    H118381   3.563   0.332   3.449
 6139TIP3    H218382   3.611   0.192   3.478
 6140TIP3   OH218383   6.138   0.996  -0.004
 6140TIP3    H118384   6.213   0.949  -0.040
 6140TIP3    H218385   6.172   1.082   0.020
 6141TIP3   OH218386   4.247   6.741   0.541
 6141TIP3    H118387   4.158   6.773   0.528
 6141TIP3    H218388   4.246   6.652   0.506
 6142TIP3   OH218389   4.588   4.091   5.495
 6142TIP3    H118390   4.585   4.182   5.524
 6142TIP3    H218391   4.606   4.096   5.401
 6143TIP3   OH218392   4.251   2.927   1.052
 6143TIP3    H118393   4.330   2.923   0.997
 6143TIP3    H218394   4.212   3.013   1.032
 6144TIP3   OH218395   3.186   6.306   3.769
 6144TIP3    H118396   3.095   6.335   3.777
 6144TIP3    H218397   3.180   6.215   3.742
 6145TIP3   OH218398   0.135   0.440   4.438
 6145TIP3    H118399   0.113   0.473   4.351
 6145TIP3    H218400   0.206   0.496   4.469
 6146TIP3   OH218401   5.659   5.489   3.694
 6146TIP3    H118402   5.639   5.398   3.713
 6146TIP3    H218403   5.723   5.515   3.760
 6147TIP3   OH218404   5.386   0.265   4.441
 6147TIP3    H118405   5.419   0.233   4.525
 6147TIP3    H218406   5.428   0.350   4.429
 6148TIP3   OH218407   5.901   2.395   2.661
 6148TIP3    H118408   5.965   2.385   2.732
 6148TIP3    H218409   5.921   2.480   2.622
 6149TIP3   OH218410   5.341   1.123   0.021
 6149TIP3    H118411   5.343   1.197  -0.040
 6149TIP3    H218412   5.362   1.047  -0.034
 6150TIP3   OH218413   5.758   5.034   4.470
 6150TIP3    H118414   5.836   4.989   4.438
 6150TIP3    H218415   5.752   5.010   4.562
 6151TIP3   OH218416   0.639   3.732   2.740
 6151TIP3    H118417   0.669   3.791   2.810
 6151TIP3    H218418   0.628   3.790   2.664
 6152TIP3   OH218419   1.658   1.993   0.818
 6152TIP3    H118420   1.601   2.054   0.865
 6152TIP3    H218421   1.619   1.907   0.833
 6153TIP3   OH218422   0.019   5.964   3.487
 6153TIP3    H118423   0.052   5.939   3.573
 6153TIP3    H218424   0.066   6.044   3.466
 6154TIP3   OH218425   2.328   1.294   4.877
 6154TIP3    H118426   2.334   1.295   4.781
 6154TIP3    H218427   2.390   1.361   4.906
 6155TIP3   OH218428   5.557   2.038   5.816
 6155TIP3    H118429   5.608   1.960   5.839
 6155TIP3    H218430   5.553   2.089   5.897
 6156TIP3   OH218431   4.081   0.763   5.424
 6156TIP3    H118432   4.004   0.724   5.383
 6156TIP3    H218433   4.133   0.688   5.454
 6157TIP3   OH218434   0.334   0.497   3.748
 6157TIP3    H118435   0.294   0.584   3.750
 6157TIP3    H218436   0.368   0.488   3.659
 6158TIP3   OH218437   5.772   4.658   1.894
 6158TIP3    H118438   5.734   4.741   1.866
 6158TIP3    H218439   5.799   4.673   1.985
 6159TIP3   OH218440   1.757   5.699   3.628
 6159TIP3    H118441   1.756   5.716   3.534
 6159TIP3    H218442   1.687   5.754   3.663
 6160TIP3   OH218443   6.380   5.561   2.360
 6160TIP3    H118444   6.469   5.573   2.393
 6160TIP3    H218445   6.340   5.499   2.422
 6161TIP3   OH218446   1.475   1.061   2.663
 6161TIP3    H118447   1.527   0.983   2.679
 6161TIP3    H218448   1.450   1.091   2.751
 6162TIP3   OH218449   6.317   5.198   2.796
 6162TIP3    H118450   6.318   5.162   2.885
 6162TIP3    H218451   6.407   5.222   2.778
 6163TIP3   OH218452   6.541   3.199   0.728
 6163TIP3    H118453   6.606   3.240   0.786
 6163TIP3    H218454   6.519   3.267   0.664
 6164TIP3   OH218455   3.348   5.232   4.179
 6164TIP3    H118456   3.278   5.288   4.211
 6164TIP3    H218457   3.424   5.290   4.173
 6165TIP3   OH218458   2.322   3.162   2.640
 6165TIP3    H118459   2.285   3.126   2.721
 6165TIP3    H218460   2.344   3.085   2.587
 6166TIP3   OH218461   3.159   0.829   5.301
 6166TIP3    H118462   3.082   0.860   5.253
 6166TIP3    H218463   3.169   0.737   5.273
 6167TIP3   OH218464   4.244   0.168   3.683
 6167TIP3    H118465   4.168   0.126   3.721
 6167TIP3    H218466   4.216   0.194   3.595
 6168TIP3   OH218467   5.084   5.849   3.526
 6168TIP3    H118468   5.107   5.889   3.610
 6168TIP3    H218469   4.988   5.847   3.526
 6169TIP3   OH218470   6.271   6.503   0.967
 6169TIP3    H118471   6.221   6.468   0.893
 6169TIP3    H218472   6.281   6.597   0.948
 6170TIP3   OH218473   5.996   2.126   1.097
 6170TIP3    H118474   6.003   2.211   1.141
 6170TIP3    H218475   6.007   2.146   1.004
 6171TIP3   OH218476   6.867   3.613   3.953
 6171TIP3    H118477   6.841   3.703   3.932
 6171TIP3    H218478   6.797   3.581   4.009
 6172TIP3   OH218479   2.669   1.180   1.217
 6172TIP3    H118480   2.664   1.093   1.256
 6172TIP3    H218481   2.654   1.167   1.124
 6173TIP3   OH218482   4.348   2.750   2.141
 6173TIP3    H118483   4.384   2.689   2.206
 6173TIP3    H218484   4.403   2.828   2.150
 6174TIP3   OH218485   0.168   6.493   3.853
 6174TIP3    H118486   0.107   6.424   3.880
 6174TIP3    H218487   0.133   6.524   3.769
 6175TIP3   OH218488   4.874   5.205   1.970
 6175TIP3    H118489   4.967   5.191   1.950
 6175TIP3    H218490   4.868   5.298   1.992
 6176TIP3   OH218491   5.513   3.489   1.058
 6176TIP3    H118492   5.480   3.402   1.078
 6176TIP3    H218493   5.435   3.545   1.056
 6177TIP3   OH218494   4.584   5.317   5.325
 6177TIP3    H118495   4.567   5.322   5.231
 6177TIP3    H218496   4.635   5.237   5.336
 6178TIP3   OH218497   1.838   4.906   5.819
 6178TIP3    H118498   1.763   4.962   5.801
 6178TIP3    H218499   1.866   4.931   5.907
 6179TIP3   OH218500   3.505   6.329   0.205
 6179TIP3    H118501   3.456   6.351   0.125
 6179TIP3    H218502   3.594   6.359   0.186
 6180TIP3   OH218503   4.406   3.184   5.008
 6180TIP3    H118504   4.375   3.232   5.084
 6180TIP3    H218505   4.328   3.140   4.974
 6181TIP3   OH218506   2.393   6.081   0.803
 6181TIP3    H118507   2.444   6.066   0.883
 6181TIP3    H218508   2.324   6.143   0.829
 6182TIP3   OH218509   5.948   6.829   1.931
 6182TIP3    H118510   6.015   6.875   1.982
 6182TIP3    H218511   5.955   6.738   1.959
 6183TIP3   OH218512   2.606   0.843   3.756
 6183TIP3    H118513   2.586   0.937   3.758
 6183TIP3    H218514   2.600   0.819   3.663
 6184TIP3   OH218515   7.164   4.822   3.570
 6184TIP3    H118516   7.257   4.813   3.589
 6184TIP3    H218517   7.160   4.857   3.481
 6185TIP3   OH218518   3.724   5.658   1.257
 6185TIP3    H118519   3.729   5.738   1.204
 6185TIP3    H218520   3.757   5.589   1.200
 6186TIP3   OH218521   2.460   1.677   0.945
 6186TIP3    H118522   2.515   1.660   0.869
 6186TIP3    H218523   2.480   1.606   1.006
 6187TIP3   OH218524   3.061   4.043   1.155
 6187TIP3    H118525   3.144   4.044   1.203
 6187TIP3    H218526   3.085   4.068   1.066
 6188TIP3   OH218527   5.004   6.017   4.125
 6188TIP3    H118528   5.074   5.972   4.173
 6188TIP3    H218529   4.951   5.946   4.089
 6189TIP3   OH218530   3.294   0.753   1.542
 6189TIP3    H118531   3.366   0.812   1.521
 6189TIP3    H218532   3.242   0.800   1.607
 6190TIP3   OH218533   0.574   6.207   5.572
 6190TIP3    H118534   0.637   6.184   5.503
 6190TIP3    H218535   0.512   6.265   5.529
 6191TIP3   OH218536   2.960   2.330   0.104
 6191TIP3    H118537   3.050   2.297   0.101
 6191TIP3    H218538   2.933   2.335   0.013
 6192TIP3   OH218539   6.252   5.183   4.173
 6192TIP3    H118540   6.268   5.224   4.258
 6192TIP3    H218541   6.161   5.153   4.178
 6193TIP3   OH218542   5.462   6.242   3.096
 6193TIP3    H118543   5.487   6.224   3.187
 6193TIP3    H218544   5.538   6.286   3.059
 6194TIP3   OH218545   2.878   2.694   5.497
 6194TIP3    H118546   2.948   2.659   5.552
 6194TIP3    H218547   2.801   2.693   5.554
 6195TIP3   OH218548   3.201   4.225   0.902
 6195TIP3    H118549   3.148   4.301   0.878
 6195TIP3    H218550   3.210   4.175   0.821
 6196TIP3   OH218551   1.469   5.542   1.687
 6196TIP3    H118552   1.466   5.454   1.726
 6196TIP3    H218553   1.541   5.537   1.624
 6197TIP3   OH218554   0.967   6.090   1.848
 6197TIP3    H118555   0.994   6.173   1.887
 6197TIP3    H218556   1.040   6.067   1.789
 6198TIP3   OH218557   3.813   2.186   2.042
 6198TIP3    H118558   3.872   2.239   2.096
 6198TIP3    H218559   3.818   2.098   2.080
 6199TIP3   OH218560   3.946   4.575   1.088
 6199TIP3    H118561   3.968   4.513   1.158
 6199TIP3    H218562   3.998   4.546   1.013
 6200TIP3   OH218563   3.506   1.611   1.032
 6200TIP3    H118564   3.539   1.652   1.112
 6200TIP3    H218565   3.415   1.588   1.052
 6201TIP3   OH218566   2.864   2.282   2.652
 6201TIP3    H118567   2.835   2.348   2.716
 6201TIP3    H218568   2.919   2.222   2.703
 6202TIP3   OH218569   1.219   1.551   3.418
 6202TIP3    H118570   1.271   1.629   3.434
 6202TIP3    H218571   1.273   1.496   3.362
 6203TIP3   OH218572   4.513   6.804   0.641
 6203TIP3    H118573   4.424   6.830   0.665
 6203TIP3    H218574   4.503   6.722   0.593
 6204TIP3   OH218575   5.380   4.628   3.988
 6204TIP3    H118576   5.468   4.617   3.952
 6204TIP3    H218577   5.325   4.644   3.911
 6205TIP3   OH218578   5.487   4.058   1.996
 6205TIP3    H118579   5.577   4.027   1.993
 6205TIP3    H218580   5.436   3.986   1.958
 6206TIP3   OH218581   3.296   6.159   0.033
 6206TIP3    H118582   3.270   6.156  -0.059
 6206TIP3    H218583   3.267   6.075   0.069
 6207TIP3   OH218584   0.741   5.582   5.793
 6207TIP3    H118585   0.829   5.552   5.770
 6207TIP3    H218586   0.691   5.573   5.712
 6208TIP3   OH218587   0.778   2.813   3.473
 6208TIP3    H118588   0.797   2.812   3.380
 6208TIP3    H218589   0.683   2.822   3.478
 6209TIP3   OH218590   0.363   5.461   4.050
 6209TIP3    H118591   0.415   5.538   4.072
 6209TIP3    H218592   0.428   5.394   4.029
 6210TIP3   OH218593   1.223   2.159   1.604
 6210TIP3    H118594   1.203   2.123   1.517
 6210TIP3    H218595   1.316   2.183   1.599
 6211TIP3   OH218596   6.104   0.703   5.575
 6211TIP3    H118597   6.079   0.786   5.535
 6211TIP3    H218598   6.088   0.637   5.508
 6212TIP3   OH218599   1.729   1.498   0.484
 6212TIP3    H118600   1.698   1.424   0.432
 6212TIP3    H218601   1.685   1.488   0.568
 6213TIP3   OH218602   5.961   5.452   5.638
 6213TIP3    H118603   5.991   5.520   5.578
 6213TIP3    H218604   5.985   5.370   5.596
 6214TIP3   OH218605   6.445   2.897   3.939
 6214TIP3    H118606   6.371   2.908   3.879
 6214TIP3    H218607   6.478   2.809   3.922
 6215TIP3   OH218608   2.467   1.984   0.502
 6215TIP3    H118609   2.440   1.992   0.410
 6215TIP3    H218610   2.547   1.931   0.499
 6216TIP3   OH218611   1.979   5.566   2.166
 6216TIP3    H118612   1.906   5.536   2.111
 6216TIP3    H218613   1.996   5.655   2.137
 6217TIP3   OH218614   0.111   6.722   0.561
 6217TIP3    H118615   0.024   6.713   0.600
 6217TIP3    H218616   0.169   6.734   0.636
 6218TIP3   OH218617   0.878   6.466   3.019
 6218TIP3    H118618   0.828   6.504   3.091
 6218TIP3    H218619   0.898   6.540   2.962
 6219TIP3   OH218620   0.203   5.556   5.263
 6219TIP3    H118621   0.285   5.599   5.286
 6219TIP3    H218622   0.222   5.513   5.179
 6220TIP3   OH218623   4.925   6.524   4.391
 6220TIP3    H118624   4.915   6.510   4.485
 6220TIP3    H218625   5.016   6.551   4.380
 6221TIP3   OH218626   2.096   2.425   0.809
 6221TIP3    H118627   2.153   2.499   0.787
 6221TIP3    H218628   2.062   2.445   0.896
 6222TIP3   OH218629   2.975   3.658   3.413
 6222TIP3    H118630   2.885   3.643   3.443
 6222TIP3    H218631   2.991   3.587   3.351
 6223TIP3   OH218632   6.025   1.913   4.140
 6223TIP3    H118633   6.010   1.972   4.214
 6223TIP3    H218634   5.949   1.927   4.083
 6224TIP3   OH218635   2.212   2.502   2.619
 6224TIP3    H118636   2.269   2.576   2.638
 6224TIP3    H218637   2.224   2.486   2.525
 6225TIP3   OH218638   5.238   6.248   0.403
 6225TIP3    H118639   5.145   6.261   0.422
 6225TIP3    H218640   5.282   6.264   0.487
 6226TIP3   OH218641   3.099   1.567   1.314
 6226TIP3    H118642   3.005   1.573   1.299
 6226TIP3    H218643   3.120   1.643   1.369
 6227TIP3   OH218644   0.427   0.175   2.543
 6227TIP3    H118645   0.376   0.165   2.462
 6227TIP3    H218646   0.467   0.261   2.536
 6228TIP3   OH218647   1.449   0.575   3.611
 6228TIP3    H118648   1.390   0.597   3.683
 6228TIP3    H218649   1.421   0.489   3.582
 6229TIP3   OH218650   6.506   3.038   4.672
 6229TIP3    H118651   6.440   2.976   4.702
 6229TIP3    H218652   6.530   3.008   4.584
 6230TIP3   OH218653   2.989   5.140   1.118
 6230TIP3    H118654   2.900   5.166   1.144
 6230TIP3    H218655   3.034   5.223   1.101
 6231TIP3   OH218656   4.108   3.742   5.163
 6231TIP3    H118657   4.145   3.715   5.079
 6231TIP3    H218658   4.078   3.660   5.203
 6232TIP3   OH218659   5.779   5.383   5.300
 6232TIP3    H118660   5.794   5.320   5.230
 6232TIP3    H218661   5.712   5.343   5.355
 6233TIP3   OH218662   1.132   5.229   4.296
 6233TIP3    H118663   1.103   5.294   4.232
 6233TIP3    H218664   1.226   5.245   4.306
 6234TIP3   OH218665   2.318   3.654   1.334
 6234TIP3    H118666   2.239   3.605   1.357
 6234TIP3    H218667   2.337   3.706   1.412
 6235TIP3   OH218668   6.059   6.019   4.647
 6235TIP3    H118669   6.050   5.924   4.659
 6235TIP3    H218670   5.994   6.057   4.706
 6236TIP3   OH218671   4.414   4.644   2.101
 6236TIP3    H118672   4.389   4.687   2.019
 6236TIP3    H218673   4.465   4.710   2.147
 6237TIP3   OH218674   6.534   5.243   1.621
 6237TIP3    H118675   6.527   5.321   1.567
 6237TIP3    H218676   6.581   5.180   1.566
 6238TIP3   OH218677   5.594   2.964   4.692
 6238TIP3    H118678   5.565   2.873   4.701
 6238TIP3    H218679   5.639   2.982   4.775
 6239TIP3   OH218680   0.868   4.780   3.529
 6239TIP3    H118681   0.901   4.705   3.481
 6239TIP3    H218682   0.916   4.780   3.611
 6240TIP3   OH218683   2.532   1.258   0.495
 6240TIP3    H118684   2.613   1.307   0.504
 6240TIP3    H218685   2.492   1.260   0.583
 6241TIP3   OH218686   3.019   3.770   2.405
 6241TIP3    H118687   3.058   3.856   2.387
 6241TIP3    H218688   3.021   3.762   2.500
 6242TIP3   OH218689   5.903   3.720   3.258
 6242TIP3    H118690   5.903   3.624   3.260
 6242TIP3    H218691   5.988   3.744   3.296
 6243TIP3   OH218692   7.118   3.295   1.136
 6243TIP3    H118693   7.058   3.221   1.125
 6243TIP3    H218694   7.085   3.362   1.076
 6244TIP3   OH218695   0.691   2.985   5.265
 6244TIP3    H118696   0.725   3.048   5.201
 6244TIP3    H218697   0.762   2.923   5.277
 6245TIP3   OH218698   4.038   5.842   5.360
 6245TIP3    H118699   4.108   5.906   5.369
 6245TIP3    H218700   3.986   5.853   5.440
 6246TIP3   OH218701   2.446   0.469   3.318
 6246TIP3    H118702   2.374   0.414   3.347
 6246TIP3    H218703   2.486   0.501   3.399
 6247TIP3   OH218704   3.150   3.233   0.221
 6247TIP3    H118705   3.221   3.173   0.198
 6247TIP3    H218706   3.147   3.295   0.149
 6248TIP3   OH218707   7.252   6.315   4.544
 6248TIP3    H118708   7.257   6.379   4.615
 6248TIP3    H218709   7.165   6.275   4.555
 6249TIP3   OH218710   3.845   5.119   4.426
 6249TIP3    H118711   3.786   5.059   4.381
 6249TIP3    H218712   3.930   5.104   4.385
 6250TIP3   OH218713   0.705   2.878   2.371
 6250TIP3    H118714   0.763   2.951   2.347
 6250TIP3    H218715   0.677   2.899   2.460
 6251TIP3   OH218716   4.926   6.701   1.203
 6251TIP3    H118717   4.885   6.714   1.118
 6251TIP3    H218718   4.941   6.607   1.209
 6252TIP3   OH218719   7.043   5.540   3.613
 6252TIP3    H118720   6.991   5.530   3.534
 6252TIP3    H218721   7.058   5.634   3.620
 6253TIP3   OH218722   3.111   6.320   1.908
 6253TIP3    H118723   3.087   6.412   1.916
 6253TIP3    H218724   3.204   6.317   1.932
 6254TIP3   OH218725   6.133   3.195   4.880
 6254TIP3    H118726   6.101   3.202   4.970
 6254TIP3    H218727   6.096   3.272   4.836
 6255TIP3   OH218728   3.811   0.288   5.286
 6255TIP3    H118729   3.716   0.284   5.282
 6255TIP3    H218730   3.831   0.381   5.296
 6256TIP3   OH218731   5.760   3.043   0.329
 6256TIP3    H118732   5.669   3.057   0.305
 6256TIP3    H218733   5.804   3.027   0.245
 6257TIP3   OH218734   4.904   3.197   5.773
 6257TIP3    H118735   4.953   3.273   5.806
 6257TIP3    H218736   4.858   3.164   5.850
 6258TIP3   OH218737   4.064   6.320   0.807
 6258TIP3    H118738   4.112   6.264   0.746
 6258TIP3    H218739   4.035   6.394   0.753
 6259TIP3   OH218740   2.078   6.374   1.875
 6259TIP3    H118741   2.076   6.289   1.919
 6259TIP3    H218742   2.061   6.353   1.783
 6260TIP3   OH218743   2.063   5.147   4.040
 6260TIP3    H118744   2.010   5.080   4.082
 6260TIP3    H218745   2.009   5.227   4.045
 6261TIP3   OH218746   2.360   0.204   1.688
 6261TIP3    H118747   2.350   0.246   1.602
 6261TIP3    H218748   2.274   0.212   1.729
 6262TIP3   OH218749   4.243   4.321   4.138
 6262TIP3    H118750   4.182   4.264   4.184
 6262TIP3    H218751   4.329   4.279   4.149
 6263TIP3   OH218752   5.206   0.159   2.269
 6263TIP3    H118753   5.168   0.217   2.203
 6263TIP3    H218754   5.290   0.133   2.233
 6264TIP3   OH218755   0.906   1.050   2.536
 6264TIP3    H118756   0.905   1.018   2.446
 6264TIP3    H218757   0.995   1.035   2.566
 6265TIP3   OH218758   6.292   1.534   4.296
 6265TIP3    H118759   6.201   1.555   4.274
 6265TIP3    H218760   6.285   1.471   4.368
 6266TIP3   OH218761   4.317   1.809   5.185
 6266TIP3    H118762   4.256   1.876   5.154
 6266TIP3    H218763   4.275   1.773   5.263
 6267TIP3   OH218764   2.878   3.150   0.278
 6267TIP3    H118765   2.952   3.210   0.286
 6267TIP3    H218766   2.816   3.196   0.222
 6268TIP3   OH218767   0.892   6.066   0.330
 6268TIP3    H118768   0.916   6.151   0.367
 6268TIP3    H218769   0.857   6.087   0.244
 6269TIP3   OH218770   2.986   4.731   2.121
 6269TIP3    H118771   2.967   4.823   2.104
 6269TIP3    H218772   2.908   4.699   2.166
 6270TIP3   OH218773   1.473   6.649   4.631
 6270TIP3    H118774   1.522   6.683   4.556
 6270TIP3    H218775   1.397   6.706   4.638
 6271TIP3   OH218776   6.162   4.416   5.718
 6271TIP3    H118777   6.118   4.477   5.777
 6271TIP3    H218778   6.104   4.340   5.712
 6272TIP3   OH218779   2.010   1.601   4.966
 6272TIP3    H118780   2.030   1.510   4.943
 6272TIP3    H218781   1.919   1.613   4.938
 6273TIP3   OH218782   2.522   0.992   2.477
 6273TIP3    H118783   2.565   1.040   2.548
 6273TIP3    H218784   2.594   0.948   2.432
 6274TIP3   OH218785   1.666   1.467   2.444
 6274TIP3    H118786   1.690   1.508   2.527
 6274TIP3    H218787   1.685   1.374   2.456
 6275TIP3   OH218788   6.310   3.029   3.726
 6275TIP3    H118789   6.240   3.001   3.667
 6275TIP3    H218790   6.298   3.124   3.734
 6276TIP3   OH218791   0.376   2.972   0.707
 6276TIP3    H118792   0.417   2.924   0.780
 6276TIP3    H218793   0.301   2.919   0.683
 6277TIP3   OH218794   4.343   6.599   5.481
 6277TIP3    H118795   4.248   6.597   5.474
 6277TIP3    H218796   4.362   6.677   5.534
 6278TIP3   OH218797   4.937   0.287   5.328
 6278TIP3    H118798   4.919   0.379   5.347
 6278TIP3    H218799   5.011   0.289   5.267
 6279TIP3   OH218800   1.172   5.571   2.526
 6279TIP3    H118801   1.172   5.519   2.606
 6279TIP3    H218802   1.093   5.544   2.479
 6280TIP3   OH218803   5.886   4.747   2.417
 6280TIP3    H118804   5.927   4.715   2.497
 6280TIP3    H218805   5.914   4.838   2.410
 6281TIP3   OH218806   6.027   0.873   1.912
 6281TIP3    H118807   5.978   0.917   1.842
 6281TIP3    H218808   6.101   0.832   1.867
 6282TIP3   OH218809   6.325   6.644   0.524
 6282TIP3    H118810   6.372   6.700   0.586
 6282TIP3    H218811   6.239   6.633   0.564
 6283TIP3   OH218812   2.163   1.966   2.826
 6283TIP3    H118813   2.245   1.979   2.873
 6283TIP3    H218814   2.107   1.919   2.887
 6284TIP3   OH218815   0.238   0.024   4.362
 6284TIP3    H118816   0.294  -0.020   4.426
 6284TIP3    H218817   0.289   0.023   4.281
 6285TIP3   OH218818   6.100   1.007   4.142
 6285TIP3    H118819   6.053   0.930   4.110
 6285TIP3    H218820   6.052   1.082   4.105
 6286TIP3   OH218821   3.979   4.386   1.307
 6286TIP3    H118822   3.943   4.344   1.385
 6286TIP3    H218823   4.070   4.356   1.303
 6287TIP3   OH218824   2.572   3.106   3.335
 6287TIP3    H118825   2.484   3.069   3.345
 6287TIP3    H218826   2.605   3.066   3.254
 6288TIP3   OH218827   2.183   2.701   5.430
 6288TIP3    H118828   2.157   2.779   5.479
 6288TIP3    H218829   2.272   2.682   5.460
 6289TIP3   OH218830   4.052   3.641   1.420
 6289TIP3    H118831   4.091   3.726   1.397
 6289TIP3    H218832   4.110   3.577   1.378
 6290TIP3   OH218833   3.963   3.023   5.798
 6290TIP3    H118834   4.041   2.989   5.755
 6290TIP3    H218835   3.967   2.986   5.887
 6291TIP3   OH218836   5.416   3.703   4.872
 6291TIP3    H118837   5.419   3.757   4.793
 6291TIP3    H218838   5.386   3.762   4.941
 6292TIP3   OH218839   5.781   3.826   3.033
 6292TIP3    H118840   5.821   3.800   3.116
 6292TIP3    H218841   5.832   3.780   2.967
 6293TIP3   OH218842   3.173   4.335   5.373
 6293TIP3    H118843   3.177   4.431   5.374
 6293TIP3    H218844   3.113   4.312   5.443
 6294TIP3   OH218845   1.160   5.439   5.195
 6294TIP3    H118846   1.186   5.464   5.283
 6294TIP3    H218847   1.235   5.391   5.160
 6295TIP3   OH218848   0.301   3.378   5.319
 6295TIP3    H118849   0.374   3.317   5.314
 6295TIP3    H218850   0.244   3.354   5.246
 6296TIP3   OH218851   4.937   0.592   5.349
 6296TIP3    H118852   4.848   0.616   5.376
 6296TIP3    H218853   4.969   0.670   5.304
 6297TIP3   OH218854   6.694   4.203   1.261
 6297TIP3    H118855   6.603   4.221   1.287
 6297TIP3    H218856   6.691   4.195   1.166
 6298TIP3   OH218857   6.168   3.571   2.624
 6298TIP3    H118858   6.220   3.628   2.567
 6298TIP3    H218859   6.168   3.615   2.709
 6299TIP3   OH218860   6.809   1.576   0.962
 6299TIP3    H118861   6.810   1.545   1.052
 6299TIP3    H218862   6.899   1.568   0.932
 6300TIP3   OH218863   2.119   0.869   3.267
 6300TIP3    H118864   2.097   0.962   3.272
 6300TIP3    H218865   2.165   0.860   3.183
 6301TIP3   OH218866   1.108  -0.036   3.221
 6301TIP3    H118867   1.116   0.044   3.170
 6301TIP3    H218868   1.086  -0.006   3.310
 6302TIP3   OH218869   5.437   6.486   4.606
 6302TIP3    H118870   5.366   6.422   4.603
 6302TIP3    H218871   5.515   6.438   4.580
 6303TIP3   OH218872   6.286   6.654   1.363
 6303TIP3    H118873   6.330   6.696   1.289
 6303TIP3    H218874   6.308   6.708   1.439
 6304TIP3   OH218875   2.421   0.800   4.250
 6304TIP3    H118876   2.437   0.846   4.167
 6304TIP3    H218877   2.447   0.710   4.232
 6305TIP3   OH218878   1.110   0.631   5.361
 6305TIP3    H118879   1.192   0.666   5.327
 6305TIP3    H218880   1.129   0.608   5.452
 6306TIP3   OH218881   3.916   0.797   1.916
 6306TIP3    H118882   3.958   0.722   1.958
 6306TIP3    H218883   3.887   0.852   1.988
 6307TIP3   OH218884   3.256   5.591   2.877
 6307TIP3    H118885   3.271   5.499   2.897
 6307TIP3    H218886   3.336   5.635   2.906
 6308TIP3   OH218887   3.202   0.259   1.746
 6308TIP3    H118888   3.111   0.242   1.769
 6308TIP3    H218889   3.208   0.355   1.741
 6309TIP3   OH218890   0.437   6.089   5.267
 6309TIP3    H118891   0.422   6.069   5.359
 6309TIP3    H218892   0.513   6.036   5.242
 6310TIP3   OH218893   4.816   1.379   2.338
 6310TIP3    H118894   4.886   1.387   2.404
 6310TIP3    H218895   4.769   1.463   2.344
 6311TIP3   OH218896   4.834   5.355   4.663
 6311TIP3    H118897   4.755   5.306   4.638
 6311TIP3    H218898   4.883   5.294   4.718
 6312TIP3   OH218899   1.184   0.419   5.556
 6312TIP3    H118900   1.116   0.352   5.569
 6312TIP3    H218901   1.188   0.466   5.639
 6313TIP3   OH218902   3.958   2.554   5.392
 6313TIP3    H118903   3.866   2.544   5.366
 6313TIP3    H218904   3.989   2.464   5.404
 6314TIP3   OH218905   1.406   2.450   4.575
 6314TIP3    H118906   1.344   2.443   4.502
 6314TIP3    H218907   1.350   2.454   4.653
 6315TIP3   OH218908   0.723   5.971   2.367
 6315TIP3    H118909   0.696   6.034   2.434
 6315TIP3    H218910   0.645   5.959   2.312
 6316TIP3   OH218911   2.525   2.957   3.111
 6316TIP3    H118912   2.529   2.963   3.016
 6316TIP3    H218913   2.433   2.973   3.132
 6317TIP3   OH218914   3.506   0.698   2.561
 6317TIP3    H118915   3.473   0.733   2.643
 6317TIP3    H218916   3.538   0.610   2.583
 6318TIP3   OH218917   6.797   2.842   4.669
 6318TIP3    H118918   6.735   2.842   4.596
 6318TIP3    H218919   6.781   2.926   4.713
 6319TIP3   OH218920   0.891   4.938   3.313
 6319TIP3    H118921   0.877   4.864   3.372
 6319TIP3    H218922   0.925   5.008   3.370
 6320TIP3   OH218923   3.340   6.021   3.073
 6320TIP3    H118924   3.361   5.932   3.103
 6320TIP3    H218925   3.318   6.010   2.980
 6321TIP3   OH218926   4.128   4.344   3.430
 6321TIP3    H118927   4.183   4.322   3.354
 6321TIP3    H218928   4.132   4.266   3.485
 6322TIP3   OH218929   5.331   1.021   4.499
 6322TIP3    H118930   5.249   1.008   4.547
 6322TIP3    H218931   5.312   1.093   4.438
 6323TIP3   OH218932   1.101   2.744   1.929
 6323TIP3    H118933   1.153   2.686   1.983
 6323TIP3    H218934   1.160   2.773   1.860
 6324TIP3   OH218935   1.009   6.364   1.984
 6324TIP3    H118936   1.045   6.450   1.962
 6324TIP3    H218937   1.081   6.317   2.026
 6325TIP3   OH218938   2.360   1.456   1.646
 6325TIP3    H118939   2.313   1.457   1.729
 6325TIP3    H218940   2.319   1.525   1.594
 6326TIP3   OH218941   2.306   2.474   0.384
 6326TIP3    H118942   2.233   2.438   0.435
 6326TIP3    H218943   2.299   2.432   0.299
 6327TIP3   OH218944   6.614   5.049   3.905
 6327TIP3    H118945   6.645   5.082   3.821
 6327TIP3    H218946   6.568   5.123   3.945
 6328TIP3   OH218947   5.433   4.793   0.626
 6328TIP3    H118948   5.371   4.804   0.698
 6328TIP3    H218949   5.518   4.814   0.663
 6329TIP3   OH218950   1.614   5.440   4.732
 6329TIP3    H118951   1.675   5.392   4.788
 6329TIP3    H218952   1.670   5.485   4.669
 6330TIP3   OH218953   7.018   3.161   4.298
 6330TIP3    H118954   6.946   3.174   4.359
 6330TIP3    H218955   6.990   3.205   4.217
 6331TIP3   OH218956   1.249   0.575   1.157
 6331TIP3    H118957   1.159   0.591   1.129
 6331TIP3    H218958   1.277   0.499   1.108
 6332TIP3   OH218959   3.372   6.287   2.509
 6332TIP3    H118960   3.406   6.215   2.562
 6332TIP3    H218961   3.284   6.302   2.544
 6333TIP3   OH218962   4.711   5.923   0.442
 6333TIP3    H118963   4.774   5.993   0.462
 6333TIP3    H218964   4.748   5.845   0.484
 6334TIP3   OH218965   4.569   3.311   3.061
 6334TIP3    H118966   4.659   3.280   3.076
 6334TIP3    H218967   4.516   3.232   3.057
 6335TIP3   OH218968   1.268   3.211   0.840
 6335TIP3    H118969   1.319   3.132   0.858
 6335TIP3    H218970   1.309   3.279   0.895
 6336TIP3   OH218971   6.965   2.631   0.181
 6336TIP3    H118972   6.908   2.643   0.104
 6336TIP3    H218973   7.025   2.562   0.155
 6337TIP3   OH218974   0.247   1.561   5.157
 6337TIP3    H118975   0.332   1.549   5.115
 6337TIP3    H218976   0.222   1.651   5.136
 6338TIP3   OH218977   2.391   0.698   2.909
 6338TIP3    H118978   2.344   0.780   2.920
 6338TIP3    H218979   2.483   0.721   2.927
 6339TIP3   OH218980   4.758   0.724   5.046
 6339TIP3    H118981   4.740   0.655   4.982
 6339TIP3    H218982   4.680   0.780   5.044
 6340TIP3   OH218983   0.000   1.454   4.955
 6340TIP3    H118984  -0.017   1.396   5.030
 6340TIP3    H218985  -0.009   1.542   4.992
 6341TIP3   OH218986   4.774   3.044   0.766
 6341TIP3    H118987   4.752   2.953   0.787
 6341TIP3    H218988   4.865   3.040   0.738
 6342TIP3   OH218989   5.977   3.508   5.177
 6342TIP3    H118990   6.045   3.441   5.176
 6342TIP3    H218991   5.927   3.490   5.257
 6343TIP3   OH218992   6.114   1.687   3.374
 6343TIP3    H118993   6.206   1.696   3.401
 6343TIP3    H218994   6.093   1.596   3.394
 6344TIP3   OH218995   5.422   2.173   3.426
 6344TIP3    H118996   5.344   2.173   3.372
 6344TIP3    H218997   5.489   2.216   3.373
 6345TIP3   OH218998   4.325   3.212   1.213
 6345TIP3    H118999   4.377   3.136   1.187
 6345TIP3    H219000   4.364   3.285   1.166
 6346TIP3   OH219001   4.876   3.102   1.745
 6346TIP3    H119002   4.938   3.037   1.712
 6346TIP3    H219003   4.921   3.186   1.733
 6347TIP3   OH219004   5.563   2.575   3.047
 6347TIP3    H119005   5.598   2.643   2.989
 6347TIP3    H219006   5.470   2.596   3.056
 6348TIP3   OH219007   0.863   4.435   5.452
 6348TIP3    H119008   0.768   4.433   5.459
 6348TIP3    H219009   0.889   4.511   5.504
 6349TIP3   OH219010   1.563   6.240   0.954
 6349TIP3    H119011   1.470   6.220   0.960
 6349TIP3    H219012   1.579   6.303   1.024
 6350TIP3   OH219013   5.810   1.291   1.610
 6350TIP3    H119014   5.859   1.297   1.528
 6350TIP3    H219015   5.878   1.289   1.678
 6351TIP3   OH219016   4.419   0.673   0.701
 6351TIP3    H119017   4.454   0.755   0.737
 6351TIP3    H219018   4.324   0.688   0.696
 6352TIP3   OH219019   6.799   1.146   0.417
 6352TIP3    H119020   6.749   1.082   0.365
 6352TIP3    H219021   6.890   1.133   0.389
 6353TIP3   OH219022   2.325   3.640   4.086
 6353TIP3    H119023   2.410   3.644   4.042
 6353TIP3    H219024   2.334   3.701   4.159
 6354TIP3   OH219025   5.744   2.881   0.850
 6354TIP3    H119026   5.796   2.961   0.861
 6354TIP3    H219027   5.729   2.875   0.756
 6355TIP3   OH219028   4.722   0.769   5.495
 6355TIP3    H119029   4.675   0.817   5.565
 6355TIP3    H219030   4.705   0.820   5.416
 6356TIP3   OH219031   0.043   1.589   4.727
 6356TIP3    H119032   0.029   1.535   4.804
 6356TIP3    H219033   0.005   1.674   4.750
 6357TIP3   OH219034   4.380   0.638   2.767
 6357TIP3    H119035   4.421   0.606   2.687
 6357TIP3    H219036   4.400   0.732   2.768
 6358TIP3   OH219037   2.990   4.924   2.373
 6358TIP3    H119038   3.054   4.885   2.313
 6358TIP3    H219039   3.037   4.994   2.416
 6359TIP3   OH219040   5.917   0.232   2.198
 6359TIP3    H119041   5.963   0.295   2.142
 6359TIP3    H219042   5.932   0.264   2.287
 6360TIP3   OH219043   5.320   3.618   0.496
 6360TIP3    H119044   5.258   3.690   0.489
 6360TIP3    H219045   5.367   3.619   0.412
 6361TIP3   OH219046   4.440   4.914   4.050
 6361TIP3    H119047   4.398   4.979   3.994
 6361TIP3    H219048   4.373   4.890   4.114
 6362TIP3   OH219049   0.287   1.340   5.810
 6362TIP3    H119050   0.337   1.419   5.831
 6362TIP3    H219051   0.228   1.329   5.885
 6363TIP3   OH219052   4.882   0.290   4.332
 6363TIP3    H119053   4.864   0.376   4.294
 6363TIP3    H219054   4.969   0.299   4.371
 6364TIP3   OH219055   1.487   3.523   0.533
 6364TIP3    H119056   1.465   3.576   0.456
 6364TIP3    H219057   1.442   3.439   0.517
 6365TIP3   OH219058   6.967   3.533   2.333
 6365TIP3    H119059   6.967   3.528   2.238
 6365TIP3    H219060   6.874   3.539   2.357
 6366TIP3   OH219061   0.100   6.262   2.029
 6366TIP3    H119062   0.118   6.328   1.963
 6366TIP3    H219063   0.098   6.310   2.112
 6367TIP3   OH219064   1.260   1.378   0.228
 6367TIP3    H119065   1.305   1.405   0.147
 6367TIP3    H219066   1.204   1.452   0.249
 6368TIP3   OH219067   6.857   0.214   5.504
 6368TIP3    H119068   6.776   0.166   5.488
 6368TIP3    H219069   6.911   0.198   5.426
 6369TIP3   OH219070   0.837   3.561   4.679
 6369TIP3    H119071   0.816   3.651   4.657
 6369TIP3    H219072   0.759   3.529   4.726
 6370TIP3   OH219073   2.019   0.903   4.215
 6370TIP3    H119074   2.108   0.905   4.179
 6370TIP3    H219075   2.027   0.848   4.294
 6371TIP3   OH219076   3.333   4.736   2.901
 6371TIP3    H119077   3.238   4.749   2.892
 6371TIP3    H219078   3.364   4.725   2.811
 6372TIP3   OH219079   1.789   2.475   4.749
 6372TIP3    H119080   1.868   2.519   4.782
 6372TIP3    H219081   1.775   2.402   4.809
 6373TIP3   OH219082   3.071   6.759   0.415
 6373TIP3    H119083   3.048   6.692   0.479
 6373TIP3    H219084   3.045   6.841   0.456
 6374TIP3   OH219085   1.409   0.892   2.044
 6374TIP3    H119086   1.389   0.830   2.114
 6374TIP3    H219087   1.494   0.865   2.011
 6375TIP3   OH219088   4.004   4.260   0.042
 6375TIP3    H119089   4.031   4.352   0.041
 6375TIP3    H219090   3.913   4.263   0.072
 6376TIP3   OH219091   3.871   1.064   1.354
 6376TIP3    H119092   3.789   1.015   1.352
 6376TIP3    H219093   3.849   1.145   1.400
 6377TIP3   OH219094   4.759   2.403   0.191
 6377TIP3    H119095   4.739   2.495   0.175
 6377TIP3    H219096   4.807   2.374   0.113
 6378TIP3   OH219097   6.673   3.819   2.960
 6378TIP3    H119098   6.639   3.794   3.046
 6378TIP3    H219099   6.746   3.759   2.945
 6379TIP3   OH219100   4.886   2.215   1.045
 6379TIP3    H119101   4.956   2.195   0.983
 6379TIP3    H219102   4.815   2.157   1.020
 6380TIP3   OH219103   7.063   1.168   3.933
 6380TIP3    H119104   7.121   1.206   3.999
 6380TIP3    H219105   6.976   1.173   3.972
 6381TIP3   OH219106   5.415   4.545   4.242
 6381TIP3    H119107   5.394   4.573   4.153
 6381TIP3    H219108   5.378   4.615   4.297
 6382TIP3   OH219109   0.704   6.318   2.272
 6382TIP3    H119110   0.683   6.272   2.354
 6382TIP3    H219111   0.730   6.249   2.212
 6383TIP3   OH219112   6.248   3.744   1.740
 6383TIP3    H119113   6.162   3.713   1.766
 6383TIP3    H219114   6.275   3.684   1.670
 6384TIP3   OH219115   3.317   5.437   4.417
 6384TIP3    H119116   3.327   5.435   4.512
 6384TIP3    H219117   3.383   5.375   4.385
 6385TIP3   OH219118   5.007   2.424   4.064
 6385TIP3    H119119   4.986   2.366   3.991
 6385TIP3    H219120   5.092   2.461   4.042
 6386TIP3   OH219121   0.360   2.833   1.843
 6386TIP3    H119122   0.364   2.929   1.848
 6386TIP3    H219123   0.451   2.806   1.832
 6387TIP3   OH219124   4.174   5.323   1.555
 6387TIP3    H119125   4.210   5.238   1.580
 6387TIP3    H219126   4.114   5.303   1.483
 6388TIP3   OH219127   5.289   6.080   5.168
 6388TIP3    H119128   5.280   6.107   5.076
 6388TIP3    H219129   5.358   6.136   5.203
 6389TIP3   OH219130   4.670   3.138   4.616
 6389TIP3    H119131   4.614   3.215   4.619
 6389TIP3    H219132   4.726   3.145   4.694
 6390TIP3   OH219133   0.137   2.475   5.137
 6390TIP3    H119134   0.094   2.453   5.220
 6390TIP3    H219135   0.202   2.406   5.124
 6391TIP3   OH219136   2.041   1.569   3.088
 6391TIP3    H119137   1.979   1.506   3.051
 6391TIP3    H219138   2.124   1.522   3.092
 6392TIP3   OH219139   6.978   2.886   0.592
 6392TIP3    H119140   7.047   2.896   0.527
 6392TIP3    H219141   6.927   2.967   0.586
 6393TIP3   OH219142   7.169   3.872   2.354
 6393TIP3    H119143   7.176   3.785   2.393
 6393TIP3    H219144   7.235   3.874   2.285
 6394TIP3   OH219145   5.360   0.310   5.897
 6394TIP3    H119146   5.350   0.219   5.867
 6394TIP3    H219147   5.347   0.363   5.819
 6395TIP3   OH219148   0.846   4.170   3.456
 6395TIP3    H119149   0.889   4.089   3.484
 6395TIP3    H219150   0.884   4.188   3.370
 6396TIP3   OH219151   6.478   0.285   1.094
 6396TIP3    H119152   6.473   0.380   1.107
 6396TIP3    H219153   6.450   0.249   1.178
 6397TIP3   OH219154   3.650   6.172   3.857
 6397TIP3    H119155   3.652   6.238   3.788
 6397TIP3    H219156   3.567   6.188   3.902
 6398TIP3   OH219157   1.177   2.260   4.001
 6398TIP3    H119158   1.236   2.192   4.032
 6398TIP3    H219159   1.108   2.265   4.068
 6399TIP3   OH219160   6.891   1.185   1.343
 6399TIP3    H119161   6.959   1.238   1.299
 6399TIP3    H219162   6.884   1.107   1.289
 6400TIP3   OH219163   5.329   3.707   1.130
 6400TIP3    H119164   5.400   3.745   1.183
 6400TIP3    H219165   5.329   3.758   1.049
 6401TIP3   OH219166   0.489   3.596   3.321
 6401TIP3    H119167   0.531   3.560   3.399
 6401TIP3    H219168   0.432   3.665   3.353
 6402TIP3   OH219169   6.971   4.911   5.148
 6402TIP3    H119170   6.889   4.873   5.180
 6402TIP3    H219171   6.957   4.925   5.055
 6403TIP3   OH219172   7.062   3.704   4.173
 6403TIP3    H119173   7.125   3.667   4.112
 6403TIP3    H219174   6.979   3.704   4.125
 6404TIP3   OH219175   6.722   2.433   0.731
 6404TIP3    H119176   6.639   2.397   0.700
 6404TIP3    H219177   6.699   2.480   0.812
 6405TIP3   OH219178   0.955   0.500   1.408
 6405TIP3    H119179   1.014   0.574   1.423
 6405TIP3    H219180   0.992   0.428   1.460
 6406TIP3   OH219181   4.155   1.222   0.098
 6406TIP3    H119182   4.144   1.309   0.061
 6406TIP3    H219183   4.217   1.179   0.039
 6407TIP3   OH219184   4.843   6.012   2.052
 6407TIP3    H119185   4.835   5.954   2.128
 6407TIP3    H219186   4.901   5.965   1.992
 6408TIP3   OH219187   1.926   1.585   2.780
 6408TIP3    H119188   1.917   1.491   2.792
 6408TIP3    H219189   1.844   1.613   2.740
 6409TIP3   OH219190   3.570   1.964   4.148
 6409TIP3    H119191   3.548   1.974   4.240
 6409TIP3    H219192   3.643   2.025   4.134
 6410TIP3   OH219193   3.271   2.547   4.732
 6410TIP3    H119194   3.338   2.521   4.795
 6410TIP3    H219195   3.189   2.544   4.780
 6411TIP3   OH219196   1.573   6.431   1.928
 6411TIP3    H119197   1.526   6.433   2.011
 6411TIP3    H219198   1.646   6.371   1.942
 6412TIP3   OH219199   2.069   5.468   2.773
 6412TIP3    H119200   2.079   5.428   2.687
 6412TIP3    H219201   2.083   5.561   2.758
 6413TIP3   OH219202   1.934   0.321   3.336
 6413TIP3    H119203   1.909   0.260   3.405
 6413TIP3    H219204   1.856   0.375   3.322
 6414TIP3   OH219205   5.718   1.870   0.688
 6414TIP3    H119206   5.774   1.867   0.610
 6414TIP3    H219207   5.774   1.842   0.760
 6415TIP3   OH219208   0.420   5.746   2.719
 6415TIP3    H119209   0.423   5.830   2.765
 6415TIP3    H219210   0.504   5.705   2.737
 6416TIP3   OH219211   4.979   5.649   3.036
 6416TIP3    H119212   4.917   5.721   3.042
 6416TIP3    H219213   4.948   5.597   2.961
 6417TIP3   OH219214   5.086  -0.001   4.656
 6417TIP3    H119215   4.995   0.028   4.666
 6417TIP3    H219216   5.126   0.014   4.741
 6418TIP3   OH219217   1.471   6.191   2.308
 6418TIP3    H119218   1.472   6.173   2.402
 6418TIP3    H219219   1.453   6.106   2.268
 6419TIP3   OH219220   4.534   5.425   2.312
 6419TIP3    H119221   4.491   5.496   2.266
 6419TIP3    H219222   4.463   5.372   2.347
 6420TIP3   OH219223   0.534   4.398   0.691
 6420TIP3    H119224   0.534   4.328   0.755
 6420TIP3    H219225   0.624   4.402   0.659
 6421TIP3   OH219226   0.621   0.363   5.360
 6421TIP3    H119227   0.627   0.299   5.431
 6421TIP3    H219228   0.711   0.394   5.347
 6422TIP3   OH219229   5.061   1.346   5.447
 6422TIP3    H119230   5.121   1.382   5.512
 6422TIP3    H219231   4.976   1.344   5.491
 6423TIP3   OH219232   2.816   1.378   4.362
 6423TIP3    H119233   2.828   1.376   4.267
 6423TIP3    H219234   2.748   1.444   4.376
 6424TIP3   OH219235   6.684   5.443   2.274
 6424TIP3    H119236   6.712   5.527   2.311
 6424TIP3    H219237   6.758   5.414   2.222
 6425TIP3   OH219238   0.852   4.815   0.970
 6425TIP3    H119239   0.815   4.727   0.970
 6425TIP3    H219240   0.781   4.871   1.001
 6426TIP3   OH219241   6.688   6.526   4.009
 6426TIP3    H119242   6.689   6.440   4.050
 6426TIP3    H219243   6.645   6.583   4.074
 6427TIP3   OH219244   5.263   5.948   3.342
 6427TIP3    H119245   5.211   5.924   3.418
 6427TIP3    H219246   5.354   5.940   3.371
 6428TIP3   OH219247   1.496   0.419   4.498
 6428TIP3    H119248   1.574   0.473   4.512
 6428TIP3    H219249   1.505   0.387   4.408
 6429TIP3   OH219250   0.994   5.113   3.504
 6429TIP3    H119251   1.086   5.132   3.485
 6429TIP3    H219252   0.993   5.093   3.598
 6430TIP3   OH219253   5.391   2.713   2.664
 6430TIP3    H119254   5.345   2.631   2.646
 6430TIP3    H219255   5.334   2.781   2.630
 6431TIP3   OH219256   5.442   5.621   5.475
 6431TIP3    H119257   5.388   5.604   5.552
 6431TIP3    H219258   5.498   5.544   5.467
 6432TIP3   OH219259   0.823   2.892   0.421
 6432TIP3    H119260   0.875   2.972   0.433
 6432TIP3    H219261   0.887   2.821   0.429
 6433TIP3   OH219262   1.362   2.468   1.002
 6433TIP3    H119263   1.452   2.503   1.004
 6433TIP3    H219264   1.310   2.539   0.963
 6434TIP3   OH219265   2.460   5.664   4.489
 6434TIP3    H119266   2.493   5.725   4.556
 6434TIP3    H219267   2.398   5.608   4.537
 6435TIP3   OH219268   3.733   5.670   0.152
 6435TIP3    H119269   3.804   5.611   0.176
 6435TIP3    H219270   3.693   5.693   0.236
 6436TIP3   OH219271   1.137   0.419   4.158
 6436TIP3    H119272   1.074   0.411   4.229
 6436TIP3    H219273   1.216   0.377   4.192
 6437TIP3   OH219274   4.625   2.997   5.041
 6437TIP3    H119275   4.583   2.975   5.124
 6437TIP3    H219276   4.553   2.999   4.978
 6438TIP3   OH219277   3.466   0.054   3.270
 6438TIP3    H119278   3.405   0.120   3.303
 6438TIP3    H219279   3.482  -0.004   3.344
 6439TIP3   OH219280   6.234   0.732   4.592
 6439TIP3    H119281   6.169   0.747   4.523
 6439TIP3    H219282   6.266   0.819   4.615
 6440TIP3   OH219283   2.012   0.913   2.135
 6440TIP3    H119284   2.084   0.896   2.195
 6440TIP3    H219285   2.051   0.911   2.048
 6441TIP3   OH219286   3.818   4.831   1.899
 6441TIP3    H119287   3.731   4.824   1.938
 6441TIP3    H219288   3.804   4.878   1.817
 6442TIP3   OH219289   4.954   5.532   0.280
 6442TIP3    H119290   4.906   5.521   0.197
 6442TIP3    H219291   5.036   5.484   0.267
 6443TIP3   OH219292   3.691   0.170   2.060
 6443TIP3    H119293   3.638   0.192   2.137
 6443TIP3    H219294   3.753   0.104   2.092
 6444TIP3   OH219295   3.350   1.948   4.549
 6444TIP3    H119296   3.318   1.900   4.626
 6444TIP3    H219297   3.380   1.880   4.489
 6445TIP3   OH219298   5.405   3.036   2.054
 6445TIP3    H119299   5.336   3.100   2.039
 6445TIP3    H219300   5.396   3.012   2.146
 6446TIP3   OH219301   5.639   5.954   1.981
 6446TIP3    H119302   5.718   5.904   1.996
 6446TIP3    H219303   5.579   5.893   1.937
 6447TIP3   OH219304   6.719   4.059   3.231
 6447TIP3    H119305   6.726   4.088   3.140
 6447TIP3    H219306   6.680   4.134   3.277
 6448TIP3   OH219307   0.118   2.972   5.690
 6448TIP3    H119308   0.034   2.937   5.661
 6448TIP3    H219309   0.096   3.034   5.759
 6449TIP3   OH219310   1.197   3.459   4.936
 6449TIP3    H119311   1.164   3.450   4.846
 6449TIP3    H219312   1.249   3.380   4.951
 6450TIP3   OH219313   4.882   4.427   3.143
 6450TIP3    H119314   4.920   4.514   3.159
 6450TIP3    H219315   4.921   4.371   3.211
 6451TIP3   OH219316   4.999   2.714   4.341
 6451TIP3    H119317   4.983   2.620   4.353
 6451TIP3    H219318   4.952   2.755   4.414
 6452TIP3   OH219319   0.308   2.260   0.403
 6452TIP3    H119320   0.341   2.346   0.429
 6452TIP3    H219321   0.356   2.199   0.458
 6453TIP3   OH219322   5.060   4.113   5.223
 6453TIP3    H119323   4.975   4.094   5.185
 6453TIP3    H219324   5.117   4.132   5.148
 6454TIP3   OH219325   0.803   5.953   1.103
 6454TIP3    H119326   0.740   5.899   1.151
 6454TIP3    H219327   0.788   6.042   1.134
 6455TIP3   OH219328   2.884   2.531   1.219
 6455TIP3    H119329   2.865   2.547   1.127
 6455TIP3    H219330   2.909   2.438   1.223
 6456TIP3   OH219331   1.865   6.546   1.319
 6456TIP3    H119332   1.909   6.583   1.395
 6456TIP3    H219333   1.779   6.520   1.352
 6457TIP3   OH219334   0.985   1.934   5.801
 6457TIP3    H119335   0.910   1.885   5.834
 6457TIP3    H219336   1.061   1.890   5.838
 6458TIP3   OH219337   5.323   3.687   0.831
 6458TIP3    H119338   5.358   3.767   0.791
 6458TIP3    H219339   5.326   3.622   0.761
 6459TIP3   OH219340   3.698   2.145   1.405
 6459TIP3    H119341   3.749   2.225   1.392
 6459TIP3    H219342   3.610   2.176   1.427
 6460TIP3   OH219343   6.688   6.659   0.047
 6460TIP3    H119344   6.683   6.728   0.114
 6460TIP3    H219345   6.781   6.653   0.025
 6461TIP3   OH219346   6.341   0.183   3.559
 6461TIP3    H119347   6.295   0.176   3.476
 6461TIP3    H219348   6.434   0.188   3.535
 6462TIP3   OH219349   2.453   3.770   1.551
 6462TIP3    H119350   2.507   3.836   1.594
 6462TIP3    H219351   2.515   3.717   1.501
 6463TIP3   OH219352   2.428   3.415   1.028
 6463TIP3    H119353   2.472   3.385   1.107
 6463TIP3    H219354   2.348   3.363   1.024
 6464TIP3   OH219355   4.173   3.779   1.675
 6464TIP3    H119356   4.100   3.831   1.709
 6464TIP3    H219357   4.145   3.688   1.690
 6465TIP3   OH219358   1.629   6.427   1.485
 6465TIP3    H119359   1.544   6.435   1.440
 6465TIP3    H219360   1.652   6.335   1.476
 6466TIP3   OH219361   3.641   4.087   4.731
 6466TIP3    H119362   3.569   4.102   4.670
 6466TIP3    H219363   3.615   4.134   4.811
 6467TIP3   OH219364   1.291   5.566   3.689
 6467TIP3    H119365   1.224   5.615   3.737
 6467TIP3    H219366   1.360   5.550   3.753
 6468TIP3   OH219367   6.697   2.293   3.323
 6468TIP3    H119368   6.605   2.272   3.338
 6468TIP3    H219369   6.741   2.265   3.403
 6469TIP3   OH219370   4.984   0.259   1.793
 6469TIP3    H119371   5.046   0.189   1.772
 6469TIP3    H219372   4.917   0.216   1.846
 6470TIP3   OH219373   3.886   5.343   0.841
 6470TIP3    H119374   3.920   5.337   0.930
 6470TIP3    H219375   3.857   5.254   0.820
 6471TIP3   OH219376   1.400   6.782   0.537
 6471TIP3    H119377   1.457   6.766   0.613
 6471TIP3    H219378   1.312   6.787   0.575
 6472TIP3   OH219379   4.566   5.881   3.404
 6472TIP3    H119380   4.534   5.920   3.323
 6472TIP3    H219381   4.579   5.955   3.463
 6473TIP3   OH219382   0.728   3.600   2.378
 6473TIP3    H119383   0.812   3.645   2.391
 6473TIP3    H219384   0.670   3.666   2.342
 6474TIP3   OH219385   4.976   3.521   0.641
 6474TIP3    H119386   4.931   3.560   0.715
 6474TIP3    H219387   5.009   3.438   0.674
 6475TIP3   OH219388   6.639   2.704   1.687
 6475TIP3    H119389   6.641   2.630   1.748
 6475TIP3    H219390   6.678   2.776   1.736
 6476TIP3   OH219391   4.471   6.402   1.161
 6476TIP3    H119392   4.461   6.312   1.189
 6476TIP3    H219393   4.383   6.428   1.131
 6477TIP3   OH219394   1.224   3.136   4.549
 6477TIP3    H119395   1.288   3.078   4.508
 6477TIP3    H219396   1.154   3.079   4.579
 6478TIP3   OH219397   3.768   6.548   0.219
 6478TIP3    H119398   3.730   6.616   0.163
 6478TIP3    H219399   3.831   6.504   0.162
 6479TIP3   OH219400   7.003   4.797   3.067
 6479TIP3    H119401   6.994   4.856   2.993
 6479TIP3    H219402   6.950   4.721   3.045
 6480TIP3   OH219403   1.641   1.119   5.032
 6480TIP3    H119404   1.689   1.036   5.038
 6480TIP3    H219405   1.601   1.116   4.945
 6481TIP3   OH219406   1.633   1.192   2.292
 6481TIP3    H119407   1.562   1.254   2.274
 6481TIP3    H219408   1.656   1.157   2.206
 6482TIP3   OH219409   2.065   4.025   4.503
 6482TIP3    H119410   2.102   4.091   4.443
 6482TIP3    H219411   2.078   3.942   4.457
 6483TIP3   OH219412   2.111   1.691   1.830
 6483TIP3    H119413   2.027   1.691   1.877
 6483TIP3    H219414   2.129   1.598   1.814
 6484TIP3   OH219415   5.767   0.969   2.338
 6484TIP3    H119416   5.692   0.938   2.389
 6484TIP3    H219417   5.843   0.934   2.384
 6485TIP3   OH219418   4.342   5.210   2.339
 6485TIP3    H119419   4.301   5.141   2.287
 6485TIP3    H219420   4.410   5.165   2.390
 6486TIP3   OH219421   5.827   1.913   1.505
 6486TIP3    H119422   5.888   1.917   1.432
 6486TIP3    H219423   5.751   1.964   1.476
 6487TIP3   OH219424   4.857   1.893   2.406
 6487TIP3    H119425   4.906   1.915   2.327
 6487TIP3    H219426   4.886   1.958   2.470
 6488TIP3   OH219427   1.517   3.363   5.605
 6488TIP3    H119428   1.538   3.276   5.639
 6488TIP3    H219429   1.598   3.413   5.617
 6489TIP3   OH219430   0.479   1.382   3.029
 6489TIP3    H119431   0.396   1.428   3.043
 6489TIP3    H219432   0.546   1.448   3.049
 6490TIP3   OH219433   2.237   4.887   1.197
 6490TIP3    H119434   2.195   4.899   1.282
 6490TIP3    H219435   2.331   4.895   1.216
 6491TIP3   OH219436   3.246   0.538   4.469
 6491TIP3    H119437   3.272   0.630   4.477
 6491TIP3    H219438   3.164   0.532   4.518
 6492TIP3   OH219439   6.260   1.071   1.060
 6492TIP3    H119440   6.296   1.148   1.104
 6492TIP3    H219441   6.329   1.044   0.999
 6493TIP3   OH219442   4.823   3.141   5.487
 6493TIP3    H119443   4.824   3.167   5.579
 6493TIP3    H219444   4.849   3.220   5.439
 6494TIP3   OH219445   6.626   3.121   2.591
 6494TIP3    H119446   6.699   3.060   2.599
 6494TIP3    H219447   6.659   3.191   2.535
 6495TIP3   OH219448   5.763   5.965   4.346
 6495TIP3    H119449   5.759   5.913   4.426
 6495TIP3    H219450   5.834   5.926   4.295
 6496TIP3   OH219451   5.164   4.166   4.957
 6496TIP3    H119452   5.176   4.256   4.925
 6496TIP3    H219453   5.202   4.112   4.888
 6497TIP3   OH219454   3.090   3.100   3.948
 6497TIP3    H119455   3.140   3.117   3.868
 6497TIP3    H219456   3.099   3.180   3.999
 6498TIP3   OH219457   4.492   2.638   2.364
 6498TIP3    H119458   4.458   2.647   2.454
 6498TIP3    H219459   4.579   2.600   2.375
 6499TIP3   OH219460   4.153   5.903   1.981
 6499TIP3    H119461   4.157   5.927   2.073
 6499TIP3    H219462   4.242   5.919   1.948
 6500TIP3   OH219463   5.247   3.677   5.250
 6500TIP3    H119464   5.279   3.767   5.243
 6500TIP3    H219465   5.322   3.623   5.228
 6501TIP3   OH219466   2.241   2.221   2.961
 6501TIP3    H119467   2.234   2.222   2.866
 6501TIP3    H219468   2.151   2.203   2.991
 6502TIP3   OH219469   3.739   5.067   1.213
 6502TIP3    H119470   3.823   5.020   1.212
 6502TIP3    H219471   3.676   5.002   1.244
 6503TIP3   OH219472   1.193   4.125   4.497
 6503TIP3    H119473   1.191   4.147   4.404
 6503TIP3    H219474   1.282   4.146   4.525
 6504TIP3   OH219475   5.081   2.015   5.495
 6504TIP3    H119476   5.071   2.085   5.429
 6504TIP3    H219477   5.083   1.935   5.443
 6505TIP3   OH219478   3.930   3.671   3.373
 6505TIP3    H119479   3.954   3.732   3.443
 6505TIP3    H219480   4.007   3.616   3.362
 6506TIP3   OH219481   4.459   1.920   0.945
 6506TIP3    H119482   4.418   1.852   0.891
 6506TIP3    H219483   4.385   1.966   0.984
 6507TIP3   OH219484   6.140   0.279   1.383
 6507TIP3    H119485   6.113   0.276   1.475
 6507TIP3    H219486   6.171   0.369   1.371
 6508TIP3   OH219487   6.219   4.016   4.285
 6508TIP3    H119488   6.239   4.105   4.253
 6508TIP3    H219489   6.274   3.959   4.232
 6509TIP3   OH219490   3.328   5.919   4.131
 6509TIP3    H119491   3.240   5.890   4.156
 6509TIP3    H219492   3.387   5.868   4.187
 6510TIP3   OH219493   6.644   6.345   0.582
 6510TIP3    H119494   6.550   6.351   0.565
 6510TIP3    H219495   6.660   6.403   0.656
 6511TIP3   OH219496   2.336   4.444   2.142
 6511TIP3    H119497   2.283   4.506   2.094
 6511TIP3    H219498   2.275   4.374   2.166
 6512TIP3   OH219499   6.055   1.538   5.356
 6512TIP3    H119500   6.054   1.578   5.443
 6512TIP3    H219501   6.147   1.525   5.336
 6513TIP3   OH219502   2.196   1.667   5.297
 6513TIP3    H119503   2.243   1.604   5.243
 6513TIP3    H219504   2.219   1.752   5.260
 6514TIP3   OH219505   3.952   6.150   0.355
 6514TIP3    H119506   4.043   6.145   0.326
 6514TIP3    H219507   3.908   6.078   0.310
 6515TIP3   OH219508   2.062   3.656   2.836
 6515TIP3    H119509   2.035   3.570   2.802
 6515TIP3    H219510   2.131   3.684   2.776
 6516TIP3   OH219511   0.581   1.665   1.545
 6516TIP3    H119512   0.567   1.593   1.606
 6516TIP3    H219513   0.523   1.735   1.577
 6517TIP3   OH219514   2.031   4.967   5.227
 6517TIP3    H119515   2.066   4.954   5.316
 6517TIP3    H219516   2.082   4.907   5.172
 6518TIP3   OH219517   0.222   2.277   2.591
 6518TIP3    H119518   0.160   2.289   2.519
 6518TIP3    H219519   0.300   2.325   2.564
 6519TIP3   OH219520   5.574   1.425   1.545
 6519TIP3    H119521   5.640   1.365   1.581
 6519TIP3    H219522   5.500   1.369   1.522
 6520TIP3   OH219523   2.729   5.852   2.677
 6520TIP3    H119524   2.767   5.928   2.721
 6520TIP3    H219525   2.661   5.889   2.620
 6521TIP3   OH219526   4.168   5.875   0.256
 6521TIP3    H119527   4.162   5.802   0.194
 6521TIP3    H219528   4.135   5.839   0.339
 6522TIP3   OH219529   3.840   2.960   3.002
 6522TIP3    H119530   3.919   2.917   2.968
 6522TIP3    H219531   3.872   3.015   3.074
 6523TIP3   OH219532   0.983   2.987   0.767
 6523TIP3    H119533   1.019   3.066   0.808
 6523TIP3    H219534   0.893   2.982   0.799
 6524TIP3   OH219535   3.524   4.116   3.460
 6524TIP3    H119536   3.538   4.063   3.382
 6524TIP3    H219537   3.472   4.061   3.518
 6525TIP3   OH219538   1.382   1.710   3.821
 6525TIP3    H119539   1.302   1.759   3.841
 6525TIP3    H219540   1.433   1.769   3.766
 6526TIP3   OH219541   4.599   0.277   0.949
 6526TIP3    H119542   4.576   0.301   0.860
 6526TIP3    H219543   4.581   0.356   1.001
 6527TIP3   OH219544   4.557   3.972   3.401
 6527TIP3    H119545   4.611   3.980   3.480
 6527TIP3    H219546   4.599   4.028   3.336
 6528TIP3   OH219547   3.767   5.029   0.059
 6528TIP3    H119548   3.861   5.051   0.059
 6528TIP3    H219549   3.765   4.936   0.081
 6529TIP3   OH219550   1.513   1.836   3.595
 6529TIP3    H119551   1.465   1.906   3.552
 6529TIP3    H219552   1.604   1.851   3.570
 6530TIP3   OH219553   4.852   3.394   5.151
 6530TIP3    H119554   4.759   3.414   5.162
 6530TIP3    H219555   4.886   3.386   5.241
 6531TIP3   OH219556   3.349  -0.009   4.674
 6531TIP3    H119557   3.302   0.074   4.688
 6531TIP3    H219558   3.293  -0.057   4.612
 6532TIP3   OH219559   1.041   5.329   0.917
 6532TIP3    H119560   1.022   5.259   0.854
 6532TIP3    H219561   1.135   5.342   0.911
 6533TIP3   OH219562   3.599   2.316   5.806
 6533TIP3    H119563   3.633   2.233   5.772
 6533TIP3    H219564   3.528   2.340   5.745
 6534TIP3   OH219565   1.301   5.929   0.591
 6534TIP3    H119566   1.256   5.863   0.539
 6534TIP3    H219567   1.267   6.013   0.558
 6535TIP3   OH219568   4.004   3.967   5.283
 6535TIP3    H119569   3.912   3.942   5.290
 6535TIP3    H219570   4.046   3.896   5.236
 6536TIP3   OH219571   4.373   1.963   1.460
 6536TIP3    H119572   4.367   2.002   1.547
 6536TIP3    H219573   4.392   1.871   1.477
 6537TIP3   OH219574   5.394   3.312   5.416
 6537TIP3    H119575   5.419   3.246   5.351
 6537TIP3    H219576   5.313   3.279   5.454
 6538TIP3   OH219577   0.596   2.139   5.428
 6538TIP3    H119578   0.617   2.111   5.339
 6538TIP3    H219579   0.509   2.179   5.421
 6539TIP3   OH219580   1.510   4.961   2.862
 6539TIP3    H119581   1.478   5.051   2.858
 6539TIP3    H219582   1.597   4.964   2.822
 6540TIP3   OH219583   5.252   2.876   2.884
 6540TIP3    H119584   5.234   2.865   2.791
 6540TIP3    H219585   5.344   2.902   2.888
 6541TIP3   OH219586   5.841   1.383   2.035
 6541TIP3    H119587   5.779   1.312   2.050
 6541TIP3    H219588   5.912   1.343   1.985
 6542TIP3   OH219589   5.787   4.332   0.351
 6542TIP3    H119590   5.799   4.241   0.377
 6542TIP3    H219591   5.862   4.378   0.390
 6543TIP3   OH219592   0.910   3.136   2.043
 6543TIP3    H119593   0.893   3.139   1.948
 6543TIP3    H219594   0.900   3.043   2.065
 6544TIP3   OH219595   1.000   3.013   2.348
 6544TIP3    H119596   1.051   3.089   2.321
 6544TIP3    H219597   0.979   2.968   2.266
 6545TIP3   OH219598   7.024   2.908   0.300
 6545TIP3    H119599   6.997   2.823   0.268
 6545TIP3    H219600   6.969   2.971   0.252
 6546TIP3   OH219601   0.224   4.027   4.756
 6546TIP3    H119602   0.310   4.067   4.743
 6546TIP3    H219603   0.164   4.085   4.710
 6547TIP3   OH219604   5.990   6.588   4.920
 6547TIP3    H119605   5.966   6.609   5.010
 6547TIP3    H219606   6.067   6.642   4.902
 6548TIP3   OH219607   5.342   0.910   0.182
 6548TIP3    H119608   5.354   0.994   0.138
 6548TIP3    H219609   5.352   0.844   0.112
 6549TIP3   OH219610   1.935   2.660   5.908
 6549TIP3    H119611   1.989   2.622   5.838
 6549TIP3    H219612   1.846   2.635   5.885
 6550TIP3   OH219613   3.294   4.060   0.249
 6550TIP3    H119614   3.350   3.995   0.207
 6550TIP3    H219615   3.224   4.009   0.290
 6551TIP3   OH219616   6.126   2.243   0.453
 6551TIP3    H119617   6.124   2.147   0.450
 6551TIP3    H219618   6.054   2.267   0.511
 6552TIP3   OH219619   2.039   0.784   2.716
 6552TIP3    H119620   2.094   0.706   2.725
 6552TIP3    H219621   2.038   0.802   2.623
 6553TIP3   OH219622   2.384   4.480   0.640
 6553TIP3    H119623   2.294   4.510   0.656
 6553TIP3    H219624   2.389   4.395   0.683
 6554TIP3   OH219625   6.830   4.453   4.139
 6554TIP3    H119626   6.747   4.426   4.179
 6554TIP3    H219627   6.814   4.542   4.108
 6555TIP3   OH219628   0.886   6.351   3.592
 6555TIP3    H119629   0.852   6.345   3.682
 6555TIP3    H219630   0.950   6.281   3.586
 6556TIP3   OH219631   1.618   5.109   1.592
 6556TIP3    H119632   1.608   5.015   1.599
 6556TIP3    H219633   1.707   5.127   1.624
 6557TIP3   OH219634   2.030   3.052   3.321
 6557TIP3    H119635   1.990   3.053   3.234
 6557TIP3    H219636   1.987   3.123   3.368
 6558TIP3   OH219637   7.171   0.983   2.753
 6558TIP3    H119638   7.187   1.077   2.766
 6558TIP3    H219639   7.256   0.947   2.727
 6559TIP3   OH219640   0.950   1.868   1.250
 6559TIP3    H119641   1.008   1.919   1.307
 6559TIP3    H219642   0.873   1.851   1.304
 6560TIP3   OH219643   0.708   1.162   0.572
 6560TIP3    H119644   0.638   1.148   0.636
 6560TIP3    H219645   0.776   1.208   0.621
 6561TIP3   OH219646   2.932   6.222   0.883
 6561TIP3    H119647   2.989   6.158   0.840
 6561TIP3    H219648   2.970   6.307   0.860
 6562TIP3   OH219649   0.516   4.313   4.969
 6562TIP3    H119650   0.569   4.377   4.921
 6562TIP3    H219651   0.552   4.313   5.057
 6563TIP3   OH219652   4.518   5.379   0.800
 6563TIP3    H119653   4.591   5.344   0.852
 6563TIP3    H219654   4.501   5.311   0.735
 6564TIP3   OH219655   2.925   0.729   2.702
 6564TIP3    H119656   2.977   0.789   2.648
 6564TIP3    H219657   2.971   0.646   2.696
 6565TIP3   OH219658   2.234   0.589   2.703
 6565TIP3    H119659   2.310   0.616   2.756
 6565TIP3    H219660   2.265   0.596   2.613
 6566TIP3   OH219661   4.655   6.212   2.139
 6566TIP3    H119662   4.724   6.153   2.109
 6566TIP3    H219663   4.674   6.225   2.232
 6567TIP3   OH219664   2.120   4.476   4.093
 6567TIP3    H119665   2.195   4.526   4.127
 6567TIP3    H219666   2.154   4.434   4.014
 6568TIP3   OH219667   0.944   1.265   4.436
 6568TIP3    H119668   0.886   1.245   4.362
 6568TIP3    H219669   0.884   1.297   4.504
 6569TIP3   OH219670   2.242   1.746   3.337
 6569TIP3    H119671   2.299   1.741   3.260
 6569TIP3    H219672   2.289   1.696   3.405
 6570TIP3   OH219673   4.544   5.175   5.023
 6570TIP3    H119674   4.452   5.199   5.013
 6570TIP3    H219675   4.547   5.082   5.001
 6571TIP3   OH219676   0.723   4.693   0.676
 6571TIP3    H119677   0.702   4.640   0.600
 6571TIP3    H219678   0.724   4.631   0.749
 6572TIP3   OH219679   6.065   2.698   4.472
 6572TIP3    H119680   6.005   2.772   4.480
 6572TIP3    H219681   6.141   2.733   4.426
 6573TIP3   OH219682   2.464   6.093   2.996
 6573TIP3    H119683   2.398   6.115   3.061
 6573TIP3    H219684   2.535   6.054   3.047
 6574TIP3   OH219685   0.984   3.125   0.465
 6574TIP3    H119686   1.072   3.091   0.446
 6574TIP3    H219687   0.991   3.164   0.552
 6575TIP3   OH219688   5.683   5.227   1.576
 6575TIP3    H119689   5.676   5.321   1.592
 6575TIP3    H219690   5.596   5.193   1.595
 6576TIP3   OH219691   2.920   2.593   4.573
 6576TIP3    H119692   2.829   2.562   4.571
 6576TIP3    H219693   2.916   2.682   4.538
 6577TIP3   OH219694   2.987   2.250   3.603
 6577TIP3    H119695   2.899   2.271   3.633
 6577TIP3    H219696   3.039   2.329   3.620
 6578TIP3   OH219697   2.324   5.169   2.920
 6578TIP3    H119698   2.245   5.205   2.962
 6578TIP3    H219699   2.385   5.242   2.917
 6579TIP3   OH219700   5.215   2.150   2.528
 6579TIP3    H119701   5.293   2.131   2.580
 6579TIP3    H219702   5.242   2.220   2.468
 6580TIP3   OH219703   5.456   3.516   5.157
 6580TIP3    H119704   5.529   3.555   5.110
 6580TIP3    H219705   5.464   3.422   5.138
 6581TIP3   OH219706   5.320   0.294   3.182
 6581TIP3    H119707   5.353   0.268   3.268
 6581TIP3    H219708   5.225   0.294   3.192
 6582TIP3   OH219709   7.110   2.275   4.532
 6582TIP3    H119710   7.198   2.311   4.547
 6582TIP3    H219711   7.095   2.288   4.439
 6583TIP3   OH219712   6.130   5.203   0.674
 6583TIP3    H119713   6.127   5.158   0.590
 6583TIP3    H219714   6.168   5.138   0.734
 6584TIP3   OH219715   0.049   2.472   3.598
 6584TIP3    H119716   0.054   2.551   3.651
 6584TIP3    H219717   0.078   2.402   3.657
 6585TIP3   OH219718   5.066   0.286   3.273
 6585TIP3    H119719   5.080   0.315   3.363
 6585TIP3    H219720   4.973   0.263   3.271
 6586TIP3   OH219721   0.412   1.506   2.036
 6586TIP3    H119722   0.392   1.425   2.082
 6586TIP3    H219723   0.349   1.509   1.964
 6587TIP3   OH219724   0.268   6.656   4.862
 6587TIP3    H119725   0.233   6.723   4.920
 6587TIP3    H219726   0.326   6.604   4.917
 6588TIP3   OH219727   2.105   3.262   5.008
 6588TIP3    H119728   2.049   3.210   4.950
 6588TIP3    H219729   2.157   3.316   4.948
 6589TIP3   OH219730   2.147   4.172   0.489
 6589TIP3    H119731   2.225   4.226   0.477
 6589TIP3    H219732   2.074   4.227   0.460
 6590TIP3   OH219733   6.410   3.063   3.269
 6590TIP3    H119734   6.353   3.064   3.192
 6590TIP3    H219735   6.416   3.154   3.295
 6591TIP3   OH219736   0.653   5.387   1.076
 6591TIP3    H119737   0.575   5.333   1.071
 6591TIP3    H219738   0.652   5.438   0.995
 6592TIP3   OH219739   5.230   5.498   2.642
 6592TIP3    H119740   5.254   5.576   2.693
 6592TIP3    H219741   5.143   5.518   2.607
 6593TIP3   OH219742   0.101   3.656   2.139
 6593TIP3    H119743   0.124   3.748   2.137
 6593TIP3    H219744   0.166   3.615   2.196
 6594TIP3   OH219745   3.213   1.162   4.990
 6594TIP3    H119746   3.304   1.140   4.975
 6594TIP3    H219747   3.216   1.236   5.051
 6595TIP3   OH219748   4.856   6.366   1.551
 6595TIP3    H119749   4.911   6.411   1.487
 6595TIP3    H219750   4.787   6.325   1.500
 6596TIP3   OH219751   4.209   0.933   4.927
 6596TIP3    H119752   4.245   1.009   4.880
 6596TIP3    H219753   4.130   0.967   4.969
 6597TIP3   OH219754   5.022   1.874   0.303
 6597TIP3    H119755   5.090   1.866   0.236
 6597TIP3    H219756   5.034   1.797   0.359
 6598TIP3   OH219757   3.490   3.318   0.283
 6598TIP3    H119758   3.444   3.240   0.251
 6598TIP3    H219759   3.517   3.364   0.204
 6599TIP3   OH219760   2.551   0.042   2.266
 6599TIP3    H119761   2.508   0.053   2.181
 6599TIP3    H219762   2.590   0.127   2.285
 6600TIP3   OH219763   5.490   5.093   5.234
 6600TIP3    H119764   5.452   5.008   5.254
 6600TIP3    H219765   5.436   5.156   5.282
 6601TIP3   OH219766   2.969   5.537   0.098
 6601TIP3    H119767   2.895   5.580   0.142
 6601TIP3    H219768   2.930   5.499   0.019
 6602TIP3   OH219769   4.718   3.622   1.393
 6602TIP3    H119770   4.789   3.559   1.384
 6602TIP3    H219771   4.761   3.704   1.419
 6603TIP3   OH219772   0.912   5.502   3.735
 6603TIP3    H119773   0.902   5.527   3.643
 6603TIP3    H219774   0.822   5.491   3.767
 6604TIP3   OH219775   6.367   5.911   2.964
 6604TIP3    H119776   6.388   5.924   3.056
 6604TIP3    H219777   6.289   5.855   2.965
 6605TIP3   OH219778   7.111   4.506   2.269
 6605TIP3    H119779   7.030   4.461   2.247
 6605TIP3    H219780   7.086   4.598   2.277
 6606TIP3   OH219781   1.782   3.848   4.556
 6606TIP3    H119782   1.823   3.933   4.568
 6606TIP3    H219783   1.760   3.819   4.644
 6607TIP3   OH219784   6.362   2.213   0.217
 6607TIP3    H119785   6.391   2.136   0.266
 6607TIP3    H219786   6.267   2.209   0.219
 6608TIP3   OH219787   2.444   6.672   3.906
 6608TIP3    H119788   2.422   6.584   3.936
 6608TIP3    H219789   2.462   6.721   3.986
 6609TIP3   OH219790   2.777   1.689   4.634
 6609TIP3    H119791   2.746   1.779   4.642
 6609TIP3    H219792   2.871   1.698   4.619
 6610TIP3   OH219793   2.873   4.161   1.353
 6610TIP3    H119794   2.915   4.245   1.371
 6610TIP3    H219795   2.819   4.144   1.430
 6611TIP3   OH219796   0.132   4.529   5.390
 6611TIP3    H119797   0.112   4.497   5.302
 6611TIP3    H219798   0.139   4.449   5.443
 6612TIP3   OH219799   6.443   0.500   4.312
 6612TIP3    H119800   6.485   0.547   4.241
 6612TIP3    H219801   6.462   0.551   4.391
 6613TIP3   OH219802   3.214   1.811   4.757
 6613TIP3    H119803   3.282   1.828   4.822
 6613TIP3    H219804   3.137   1.856   4.791
 6614TIP3   OH219805   5.271   2.390   3.925
 6614TIP3    H119806   5.227   2.368   3.843
 6614TIP3    H219807   5.353   2.431   3.898
 6615TIP3   OH219808   2.482   5.942   2.563
 6615TIP3    H119809   2.420   6.000   2.519
 6615TIP3    H219810   2.460   5.950   2.656
 6616TIP3   OH219811   4.850   2.192   0.560
 6616TIP3    H119812   4.784   2.198   0.491
 6616TIP3    H219813   4.846   2.278   0.603
 6617TIP3   OH219814   1.367   5.166   0.986
 6617TIP3    H119815   1.458   5.155   0.960
 6617TIP3    H219816   1.350   5.260   0.974
 6618TIP3   OH219817   0.897   2.924   4.958
 6618TIP3    H119818   0.828   2.967   4.906
 6618TIP3    H219819   0.898   2.834   4.926
 6619TIP3   OH219820   4.432   2.417   4.232
 6619TIP3    H119821   4.431   2.472   4.311
 6619TIP3    H219822   4.342   2.385   4.223
 6620TIP3   OH219823   2.960   3.900   1.436
 6620TIP3    H119824   3.011   3.932   1.510
 6620TIP3    H219825   2.956   3.973   1.375
 6621TIP3   OH219826   5.711   6.128   3.545
 6621TIP3    H119827   5.751   6.042   3.553
 6621TIP3    H219828   5.784   6.187   3.523
 6622TIP3   OH219829   4.473   3.535   3.706
 6622TIP3    H119830   4.432   3.510   3.623
 6622TIP3    H219831   4.565   3.547   3.684
 6623TIP3   OH219832   2.594   3.902   0.201
 6623TIP3    H119833   2.606   3.807   0.205
 6623TIP3    H219834   2.548   3.923   0.282
 6624TIP3   OH219835   2.303   2.162   5.657
 6624TIP3    H119836   2.220   2.158   5.704
 6624TIP3    H219837   2.280   2.137   5.567
 6625TIP3   OH219838   2.602   3.753   4.786
 6625TIP3    H119839   2.654   3.797   4.719
 6625TIP3    H219840   2.616   3.804   4.866
 6626TIP3   OH219841   6.383   0.777   0.614
 6626TIP3    H119842   6.379   0.872   0.620
 6626TIP3    H219843   6.295   0.751   0.585
 6627TIP3   OH219844   6.770   5.163   0.467
 6627TIP3    H119845   6.791   5.070   0.469
 6627TIP3    H219846   6.773   5.187   0.375
 6628TIP3   OH219847   4.349   3.049   1.697
 6628TIP3    H119848   4.302   2.984   1.645
 6628TIP3    H219849   4.440   3.019   1.696
 6629TIP3   OH219850   4.165   4.778   4.805
 6629TIP3    H119851   4.170   4.813   4.716
 6629TIP3    H219852   4.184   4.852   4.862
 6630TIP3   OH219853   2.272   6.213   2.225
 6630TIP3    H119854   2.327   6.277   2.270
 6630TIP3    H219855   2.201   6.193   2.286
 6631TIP3   OH219856   5.975   6.556   2.005
 6631TIP3    H119857   6.006   6.482   1.953
 6631TIP3    H219858   5.964   6.521   2.093
 6632TIP3   OH219859   1.800   4.150   3.499
 6632TIP3    H119860   1.825   4.199   3.421
 6632TIP3    H219861   1.829   4.206   3.572
 6633TIP3   OH219862   4.159   4.824   0.899
 6633TIP3    H119863   4.188   4.905   0.856
 6633TIP3    H219864   4.069   4.842   0.924
 6634TIP3   OH219865   6.241   4.482   3.195
 6634TIP3    H119866   6.241   4.481   3.291
 6634TIP3    H219867   6.150   4.465   3.171
 6635TIP3   OH219868   6.241   0.341   0.724
 6635TIP3    H119869   6.270   0.425   0.761
 6635TIP3    H219870   6.220   0.287   0.800
 6636TIP3   OH219871   1.320   0.933   4.933
 6636TIP3    H119872   1.378   0.969   4.866
 6636TIP3    H219873   1.279   1.009   4.974
 6637TIP3   OH219874   7.100   1.541   2.836
 6637TIP3    H119875   7.161   1.468   2.851
 6637TIP3    H219876   7.097   1.549   2.741
 6638TIP3   OH219877   7.220   1.370   0.437
 6638TIP3    H119878   7.176   1.328   0.363
 6638TIP3    H219879   7.208   1.309   0.509
 6639TIP3   OH219880   0.972   0.255   4.001
 6639TIP3    H119881   1.055   0.290   4.032
 6639TIP3    H219882   0.946   0.191   4.067
 6640TIP3   OH219883   4.900   0.591   3.226
 6640TIP3    H119884   4.860   0.663   3.275
 6640TIP3    H219885   4.882   0.611   3.134
 6641TIP3   OH219886   5.417   1.105   0.915
 6641TIP3    H119887   5.510   1.123   0.921
 6641TIP3    H219888   5.399   1.044   0.986
 6642TIP3   OH219889   4.347   0.532   3.708
 6642TIP3    H119890   4.358   0.468   3.638
 6642TIP3    H219891   4.380   0.489   3.786
 6643TIP3   OH219892   6.494   5.342   0.743
 6643TIP3    H119893   6.444   5.270   0.781
 6643TIP3    H219894   6.451   5.421   0.778
 6644TIP3   OH219895   6.264   4.256   2.675
 6644TIP3    H119896   6.282   4.165   2.649
 6644TIP3    H219897   6.286   4.307   2.597
 6645TIP3   OH219898   0.599   5.593   2.291
 6645TIP3    H119899   0.587   5.498   2.289
 6645TIP3    H219900   0.530   5.627   2.235
 6646TIP3   OH219901   6.343   2.851   0.854
 6646TIP3    H119902   6.404   2.919   0.882
 6646TIP3    H219903   6.396   2.794   0.798
 6647TIP3   OH219904   0.267   4.769   5.359
 6647TIP3    H119905   0.224   4.840   5.407
 6647TIP3    H219906   0.203   4.698   5.357
 6648TIP3   OH219907   5.118   2.847   4.700
 6648TIP3    H119908   5.052   2.880   4.760
 6648TIP3    H219909   5.116   2.907   4.626
 6649TIP3   OH219910   2.461   0.798   3.976
 6649TIP3    H119911   2.483   0.705   3.975
 6649TIP3    H219912   2.517   0.836   3.908
 6650TIP3   OH219913   2.148   5.408   5.206
 6650TIP3    H119914   2.215   5.372   5.264
 6650TIP3    H219915   2.192   5.416   5.121
 6651TIP3   OH219916   5.953   3.468   1.325
 6651TIP3    H119917   5.907   3.469   1.241
 6651TIP3    H219918   5.889   3.431   1.387
 6652TIP3   OH219919   3.927   4.219   2.268
 6652TIP3    H119920   3.850   4.191   2.219
 6652TIP3    H219921   3.891   4.257   2.349
 6653TIP3   OH219922   7.108   1.783   1.394
 6653TIP3    H119923   7.117   1.701   1.345
 6653TIP3    H219924   7.079   1.847   1.329
 6654TIP3   OH219925   2.789   0.209   3.446
 6654TIP3    H119926   2.705   0.191   3.489
 6654TIP3    H219927   2.855   0.188   3.512
 6655TIP3   OH219928   4.210   6.599   2.726
 6655TIP3    H119929   4.303   6.592   2.751
 6655TIP3    H219930   4.162   6.586   2.808
 6656TIP3   OH219931   1.744   1.390   5.193
 6656TIP3    H119932   1.720   1.308   5.235
 6656TIP3    H219933   1.721   1.378   5.101
 6657TIP3   OH219934   0.403   3.403   3.135
 6657TIP3    H119935   0.340   3.335   3.158
 6657TIP3    H219936   0.409   3.458   3.213
 6658TIP3   OH219937   4.642   1.058   0.754
 6658TIP3    H119938   4.723   1.109   0.760
 6658TIP3    H219939   4.581   1.115   0.708
 6659TIP3   OH219940   5.552   3.371   2.282
 6659TIP3    H119941   5.618   3.405   2.342
 6659TIP3    H219942   5.482   3.339   2.339
 6660TIP3   OH219943   1.562   0.749   3.130
 6660TIP3    H119944   1.640   0.800   3.150
 6660TIP3    H219945   1.521   0.734   3.215
 6661TIP3   OH219946   5.304   0.979   5.046
 6661TIP3    H119947   5.231   0.988   4.985
 6661TIP3    H219948   5.343   1.067   5.049
 6662TIP3   OH219949   1.789   1.833   3.501
 6662TIP3    H119950   1.864   1.800   3.451
 6662TIP3    H219951   1.824   1.905   3.553
 6663TIP3   OH219952   5.316   6.010   1.977
 6663TIP3    H119953   5.356   5.963   2.050
 6663TIP3    H219954   5.350   6.099   1.982
 6664TIP3   OH219955   0.931   1.719   0.730
 6664TIP3    H119956   0.860   1.763   0.684
 6664TIP3    H219957   1.011   1.751   0.687
 6665TIP3   OH219958   4.249   0.073   4.658
 6665TIP3    H119959   4.232   0.040   4.746
 6665TIP3    H219960   4.309   0.146   4.671
 6666TIP3   OH219961   0.155   5.159   1.936
 6666TIP3    H119962   0.080   5.163   1.876
 6666TIP3    H219963   0.225   5.118   1.884
 6667TIP3   OH219964   0.765   2.517   5.275
 6667TIP3    H119965   0.783   2.467   5.355
 6667TIP3    H219966   0.802   2.464   5.205
 6668TIP3   OH219967   0.038   0.634   2.756
 6668TIP3    H119968  -0.003   0.624   2.670
 6668TIP3    H219969   0.118   0.583   2.750
 6669TIP3   OH219970   1.312   5.725   2.033
 6669TIP3    H119971   1.232   5.765   1.997
 6669TIP3    H219972   1.382   5.756   1.976
 6670TIP3   OH219973   1.492   3.015   2.114
 6670TIP3    H119974   1.573   3.066   2.118
 6670TIP3    H219975   1.430   3.072   2.068
 6671TIP3   OH219976   1.463   2.239   1.278
 6671TIP3    H119977   1.382   2.281   1.250
 6671TIP3    H219978   1.521   2.312   1.301
 6672TIP3   OH219979   2.501   6.528   5.855
 6672TIP3    H119980   2.582   6.499   5.813
 6672TIP3    H219981   2.451   6.569   5.785
 6673TIP3   OH219982   4.289   1.306   0.841
 6673TIP3    H119983   4.237   1.355   0.777
 6673TIP3    H219984   4.282   1.215   0.813
 6674TIP3   OH219985   5.947   4.777   4.287
 6674TIP3    H119986   5.997   4.720   4.228
 6674TIP3    H219987   5.860   4.737   4.290
 6675TIP3   OH219988   3.013   2.528   0.646
 6675TIP3    H119989   2.944   2.594   0.661
 6675TIP3    H219990   3.002   2.503   0.554
 6676TIP3   OH219991   2.953   4.086   3.672
 6676TIP3    H119992   2.982   4.076   3.581
 6676TIP3    H219993   3.006   4.022   3.721
 6677TIP3   OH219994   6.744   5.493   4.740
 6677TIP3    H119995   6.740   5.499   4.835
 6677TIP3    H219996   6.807   5.560   4.714
 6678TIP3   OH219997   4.032   6.670   3.514
 6678TIP3    H119998   3.939   6.651   3.523
 6678TIP3    H219999   4.049   6.738   3.580
 6679TIP3   OH220000   1.659   0.873   3.841
 6679TIP3    H120001   1.752   0.894   3.851
 6679TIP3    H220002   1.658   0.800   3.780
 6680TIP3   OH220003   3.498   0.446   4.392
 6680TIP3    H120004   3.403   0.449   4.402
 6680TIP3    H220005   3.512   0.462   4.298
 6681TIP3   OH220006   5.944   3.062   4.291
 6681TIP3    H120007   5.984   3.116   4.360
 6681TIP3    H220008   5.864   3.027   4.331
 6682TIP3   OH220009   3.071   1.496   2.019
 6682TIP3    H120010   3.077   1.535   1.931
 6682TIP3    H220011   3.038   1.567   2.074
 6683TIP3   OH220012   0.240   5.117   3.858
 6683TIP3    H120013   0.259   5.070   3.776
 6683TIP3    H220014   0.299   5.078   3.922
 6684TIP3   OH220015   1.724   4.362   4.786
 6684TIP3    H120016   1.752   4.356   4.694
 6684TIP3    H220017   1.797   4.405   4.830
 6685TIP3   OH220018   0.336   3.629   4.044
 6685TIP3    H120019   0.368   3.699   3.987
 6685TIP3    H220020   0.336   3.551   3.989
 6686TIP3   OH220021   2.215   4.618   0.333
 6686TIP3    H120022   2.133   4.572   0.352
 6686TIP3    H220023   2.246   4.579   0.251
 6687TIP3   OH220024   1.039   4.205   3.802
 6687TIP3    H120025   1.126   4.198   3.763
 6687TIP3    H220026   0.998   4.119   3.786
 6688TIP3   OH220027   4.301   3.241   2.537
 6688TIP3    H120028   4.357   3.204   2.469
 6688TIP3    H220029   4.277   3.328   2.504
 6689TIP3   OH220030   5.592   5.491   4.078
 6689TIP3    H120031   5.535   5.430   4.124
 6689TIP3    H220032   5.594   5.569   4.134
 6690TIP3   OH220033   3.558   2.680   4.890
 6690TIP3    H120034   3.510   2.763   4.888
 6690TIP3    H220035   3.612   2.682   4.811
 6691TIP3   OH220036   5.427   5.115   1.523
 6691TIP3    H120037   5.364   5.186   1.533
 6691TIP3    H220038   5.449   5.115   1.429
 6692TIP3   OH220039   2.658   0.411   1.901
 6692TIP3    H120040   2.731   0.380   1.955
 6692TIP3    H220041   2.665   0.507   1.905
 6693TIP3   OH220042   0.321   5.294   1.439
 6693TIP3    H120043   0.268   5.373   1.430
 6693TIP3    H220044   0.265   5.224   1.405
 6694TIP3   OH220045   7.044   6.274   2.006
 6694TIP3    H120046   7.137   6.298   2.003
 6694TIP3    H220047   7.012   6.309   2.088
 6695TIP3   OH220048   5.498   2.982   2.832
 6695TIP3    H120049   5.560   2.929   2.781
 6695TIP3    H220050   5.488   3.062   2.780
 6696TIP3   OH220051   6.684   1.467   1.938
 6696TIP3    H120052   6.714   1.386   1.980
 6696TIP3    H220053   6.623   1.505   2.001
 6697TIP3   OH220054   5.017   1.438   2.535
 6697TIP3    H120055   5.104   1.475   2.522
 6697TIP3    H220056   5.033   1.353   2.577
 6698TIP3   OH220057   3.734   1.946   3.491
 6698TIP3    H120058   3.741   1.859   3.532
 6698TIP3    H220059   3.666   1.936   3.424
 6699TIP3   OH220060   0.842   0.762   3.317
 6699TIP3    H120061   0.869   0.812   3.239
 6699TIP3    H220062   0.754   0.731   3.297
 6700TIP3   OH220063   7.037   3.823   5.723
 6700TIP3    H120064   6.967   3.795   5.664
 6700TIP3    H220065   7.117   3.813   5.672
 6701TIP3   OH220066   2.887   2.252   1.187
 6701TIP3    H120067   2.811   2.194   1.197
 6701TIP3    H220068   2.947   2.225   1.257
 6702TIP3   OH220069   4.393   0.460   1.824
 6702TIP3    H120070   4.450   0.424   1.891
 6702TIP3    H220071   4.453   0.495   1.758
 6703TIP3   OH220072   1.526   0.172   3.982
 6703TIP3    H120073   1.538   0.081   4.007
 6703TIP3    H220074   1.609   0.198   3.942
 6704TIP3   OH220075   2.508   0.186   1.328
 6704TIP3    H120076   2.547   0.261   1.284
 6704TIP3    H220077   2.546   0.110   1.285
 6705TIP3   OH220078   1.853   2.490   3.132
 6705TIP3    H120079   1.830   2.508   3.040
 6705TIP3    H220080   1.848   2.575   3.175
 6706TIP3   OH220081   5.134   1.930   3.622
 6706TIP3    H120082   5.103   1.879   3.697
 6706TIP3    H220083   5.111   1.877   3.546
 6707TIP3   OH220084   2.535   1.926   3.964
 6707TIP3    H120085   2.532   1.977   3.882
 6707TIP3    H220086   2.608   1.865   3.951
 6708TIP3   OH220087   0.317   6.722   1.874
 6708TIP3    H120088   0.330   6.657   1.804
 6708TIP3    H220089   0.296   6.803   1.828
 6709TIP3   OH220090   6.252   5.283   0.930
 6709TIP3    H120091   6.195   5.282   0.853
 6709TIP3    H220092   6.266   5.190   0.950
 6710TIP3   OH220093   1.161   4.804   0.410
 6710TIP3    H120094   1.216   4.859   0.466
 6710TIP3    H220095   1.189   4.715   0.429
 6711TIP3   OH220096   2.375   3.750   0.446
 6711TIP3    H120097   2.429   3.687   0.399
 6711TIP3    H220098   2.316   3.787   0.380
 6712TIP3   OH220099   7.146   2.965   3.137
 6712TIP3    H120100   7.099   3.008   3.066
 6712TIP3    H220101   7.223   2.925   3.095
 6713TIP3   OH220102   1.603   4.909   0.599
 6713TIP3    H120103   1.541   4.980   0.581
 6713TIP3    H220104   1.662   4.945   0.665
 6714TIP3   OH220105   4.128   6.272   1.728
 6714TIP3    H120106   4.202   6.263   1.788
 6714TIP3    H220107   4.052   6.247   1.780
 6715TIP3   OH220108   1.419   2.195   2.729
 6715TIP3    H120109   1.401   2.220   2.820
 6715TIP3    H220110   1.430   2.277   2.683
 6716TIP3   OH220111   4.865   2.978   3.903
 6716TIP3    H120112   4.828   2.889   3.911
 6716TIP3    H220113   4.789   3.033   3.882
 6717TIP3   OH220114   5.085   4.332   5.385
 6717TIP3    H120115   5.080   4.249   5.339
 6717TIP3    H220116   5.109   4.396   5.318
 6718TIP3   OH220117   3.318   5.709   3.794
 6718TIP3    H120118   3.278   5.788   3.832
 6718TIP3    H220119   3.244   5.656   3.765
 6719TIP3   OH220120   3.841   3.353   0.673
 6719TIP3    H120121   3.921   3.345   0.724
 6719TIP3    H220122   3.771   3.331   0.734
 6720TIP3   OH220123   5.911   0.584   4.120
 6720TIP3    H120124   5.834   0.637   4.136
 6720TIP3    H220125   5.894   0.542   4.036
 6721TIP3   OH220126   2.652   2.018   2.746
 6721TIP3    H120127   2.648   2.055   2.835
 6721TIP3    H220128   2.560   2.003   2.723
 6722TIP3   OH220129   0.753   1.683   0.073
 6722TIP3    H120130   0.708   1.713  -0.006
 6722TIP3    H220131   0.743   1.588   0.072
 6723TIP3   OH220132   6.026   1.773   2.321
 6723TIP3    H120133   6.045   1.809   2.235
 6723TIP3    H220134   5.931   1.762   2.322
 6724TIP3   OH220135   4.082   6.513   1.615
 6724TIP3    H120136   4.167   6.557   1.609
 6724TIP3    H220137   4.102   6.426   1.650
 6725TIP3   OH220138   0.447   0.406   1.173
 6725TIP3    H120139   0.507   0.424   1.101
 6725TIP3    H220140   0.365   0.379   1.131
 6726TIP3   OH220141   2.357   5.799   1.986
 6726TIP3    H120142   2.379   5.867   2.049
 6726TIP3    H220143   2.322   5.846   1.911
 6727TIP3   OH220144   4.259   5.806   4.848
 6727TIP3    H120145   4.352   5.826   4.859
 6727TIP3    H220146   4.240   5.834   4.758
 6728TIP3   OH220147   2.302   6.508   3.449
 6728TIP3    H120148   2.370   6.528   3.384
 6728TIP3    H220149   2.325   6.563   3.524
 6729TIP3   OH220150   0.693   1.255   2.894
 6729TIP3    H120151   0.628   1.283   2.958
 6729TIP3    H220152   0.670   1.302   2.814
 6730TIP3   OH220153   1.998   1.828   2.466
 6730TIP3    H120154   1.950   1.746   2.450
 6730TIP3    H220155   1.934   1.885   2.509
 6731TIP3   OH220156   3.737   1.554   1.232
 6731TIP3    H120157   3.752   1.494   1.159
 6731TIP3    H220158   3.808   1.618   1.225
 6732TIP3   OH220159   7.012   0.517   3.108
 6732TIP3    H120160   7.054   0.581   3.051
 6732TIP3    H220161   6.939   0.564   3.147
 6733TIP3   OH220162   0.014   2.895   0.111
 6733TIP3    H120163   0.054   2.979   0.091
 6733TIP3    H220164  -0.058   2.916   0.171
 6734TIP3   OH220165   7.008   6.744   2.761
 6734TIP3    H120166   7.092   6.716   2.796
 6734TIP3    H220167   7.013   6.840   2.760
 6735TIP3   OH220168   2.580   1.216   2.686
 6735TIP3    H120169   2.513   1.241   2.622
 6735TIP3    H220170   2.643   1.289   2.685
 6736TIP3   OH220171   3.579   0.065   4.108
 6736TIP3    H120172   3.667   0.042   4.137
 6736TIP3    H220173   3.527  -0.014   4.122
 6737TIP3   OH220174   1.057   6.641   4.187
 6737TIP3    H120175   1.077   6.595   4.268
 6737TIP3    H220176   0.985   6.591   4.148
 6738TIP3   OH220177   2.594   2.357   5.122
 6738TIP3    H120178   2.518   2.374   5.067
 6738TIP3    H220179   2.579   2.268   5.156
 6739TIP3   OH220180   5.475   3.002   0.566
 6739TIP3    H120181   5.568   3.018   0.577
 6739TIP3    H220182   5.469   2.913   0.531
 6740TIP3   OH220183   5.222   2.232   3.257
 6740TIP3    H120184   5.158   2.294   3.291
 6740TIP3    H220185   5.237   2.260   3.167
 6741TIP3   OH220186   1.398   5.044   1.229
 6741TIP3    H120187   1.441   5.122   1.264
 6741TIP3    H220188   1.383   5.064   1.136
 6742TIP3   OH220189   2.498   1.005   2.842
 6742TIP3    H120190   2.548   1.080   2.812
 6742TIP3    H220191   2.540   0.929   2.800
 6743TIP3   OH220192   3.441   3.305   3.467
 6743TIP3    H120193   3.441   3.232   3.528
 6743TIP3    H220194   3.509   3.283   3.404
 6744TIP3   OH220195   0.086   6.298   1.626
 6744TIP3    H120196   0.144   6.232   1.588
 6744TIP3    H220197  -0.001   6.257   1.624
 6745TIP3   OH220198   4.698   5.364   1.542
 6745TIP3    H120199   4.665   5.345   1.630
 6745TIP3    H220200   4.662   5.450   1.521
 6746TIP3   OH220201   4.974   6.281   0.471
 6746TIP3    H120202   4.939   6.307   0.386
 6746TIP3    H220203   4.921   6.329   0.534
 6747TIP3   OH220204   3.856   5.945   0.191
 6747TIP3    H120205   3.849   5.868   0.136
 6747TIP3    H220206   3.768   5.982   0.193
 6748TIP3   OH220207   1.229   0.339   3.724
 6748TIP3    H120208   1.262   0.390   3.799
 6748TIP3    H220209   1.159   0.285   3.761
 6749TIP3   OH220210   1.215   2.061   2.508
 6749TIP3    H120211   1.264   2.133   2.549
 6749TIP3    H220212   1.131   2.061   2.554
 6750TIP3   OH220213   1.563   2.873   4.803
 6750TIP3    H120214   1.576   2.829   4.719
 6750TIP3    H220215   1.470   2.860   4.822
 6751TIP3   OH220216   4.130   2.837   2.413
 6751TIP3    H120217   4.180   2.768   2.370
 6751TIP3    H220218   4.101   2.894   2.341
 6752TIP3   OH220219   0.740   0.768   3.022
 6752TIP3    H120220   0.800   0.838   3.047
 6752TIP3    H220221   0.694   0.801   2.945
 6753TIP3   OH220222   1.784   4.859   3.073
 6753TIP3    H120223   1.792   4.936   3.018
 6753TIP3    H220224   1.824   4.885   3.156
 6754TIP3   OH220225   4.635   5.189   2.646
 6754TIP3    H120226   4.585   5.173   2.726
 6754TIP3    H220227   4.608   5.118   2.587
 6755TIP3   OH220228   4.882   6.228   4.298
 6755TIP3    H120229   4.926   6.215   4.214
 6755TIP3    H220230   4.907   6.316   4.325
 6756TIP3   OH220231   3.066   3.742   4.176
 6756TIP3    H120232   3.082   3.836   4.169
 6756TIP3    H220233   3.043   3.714   4.088
 6757TIP3   OH220234   3.272   4.858   2.571
 6757TIP3    H120235   3.362   4.827   2.567
 6757TIP3    H220236   3.272   4.939   2.521
 6758TIP3   OH220237   2.711   5.393   0.261
 6758TIP3    H120238   2.650   5.387   0.188
 6758TIP3    H220239   2.724   5.487   0.274
 6759TIP3   OH220240   0.486   6.106   3.576
 6759TIP3    H120241   0.566   6.085   3.624
 6759TIP3    H220242   0.416   6.067   3.629
 6760TIP3   OH220243   2.383   4.698   2.670
 6760TIP3    H120244   2.407   4.751   2.746
 6760TIP3    H220245   2.289   4.682   2.680
 6761TIP3   OH220246   4.990   4.379   1.005
 6761TIP3    H120247   5.036   4.426   0.936
 6761TIP3    H220248   5.036   4.404   1.086
 6762TIP3   OH220249   3.627   2.518   1.846
 6762TIP3    H120250   3.683   2.490   1.773
 6762TIP3    H220251   3.683   2.511   1.924
 6763TIP3   OH220252   4.335   0.296   2.862
 6763TIP3    H120253   4.279   0.267   2.790
 6763TIP3    H220254   4.296   0.378   2.892
 6764TIP3   OH220255   6.183   4.157   2.299
 6764TIP3    H120256   6.132   4.152   2.218
 6764TIP3    H220257   6.137   4.100   2.360
 6765TIP3   OH220258   5.702   1.927   5.173
 6765TIP3    H120259   5.701   1.967   5.087
 6765TIP3    H220260   5.615   1.890   5.185
 6766TIP3   OH220261   2.072   6.016   5.547
 6766TIP3    H120262   2.069   6.075   5.471
 6766TIP3    H220263   1.989   5.968   5.543
 6767TIP3   OH220264   4.650   3.725   3.300
 6767TIP3    H120265   4.651   3.670   3.221
 6767TIP3    H220266   4.605   3.805   3.274
 6768TIP3   OH220267   2.739   4.783   4.765
 6768TIP3    H120268   2.769   4.698   4.734
 6768TIP3    H220269   2.751   4.841   4.689
 6769TIP3   OH220270   2.436   6.252   3.671
 6769TIP3    H120271   2.446   6.190   3.743
 6769TIP3    H220272   2.524   6.286   3.657
 6770TIP3   OH220273   2.078   0.720   4.404
 6770TIP3    H120274   2.109   0.765   4.483
 6770TIP3    H220275   2.127   0.638   4.403
 6771TIP3   OH220276   3.016   0.447   0.999
 6771TIP3    H120277   2.954   0.453   1.072
 6771TIP3    H220278   2.962   0.451   0.921
 6772TIP3   OH220279   2.949   3.395   0.530
 6772TIP3    H120280   3.024   3.448   0.557
 6772TIP3    H220281   2.987   3.310   0.508
 6773TIP3   OH220282   3.756   0.765   2.930
 6773TIP3    H120283   3.750   0.856   2.903
 6773TIP3    H220284   3.676   0.749   2.980
 6774TIP3   OH220285   0.146   0.598   5.101
 6774TIP3    H120286   0.168   0.528   5.040
 6774TIP3    H220287   0.059   0.626   5.074
 6775TIP3   OH220288   0.615   0.480   0.993
 6775TIP3    H120289   0.710   0.475   0.998
 6775TIP3    H220290   0.597   0.498   0.900
 6776TIP3   OH220291   5.948   2.140   4.929
 6776TIP3    H120292   5.957   2.209   4.994
 6776TIP3    H220293   5.858   2.109   4.938
 6777TIP3   OH220294   0.597   2.902   4.506
 6777TIP3    H120295   0.560   2.817   4.530
 6777TIP3    H220296   0.647   2.885   4.427
 6778TIP3   OH220297   6.996   1.722   2.009
 6778TIP3    H120298   7.001   1.639   1.961
 6778TIP3    H220299   6.993   1.696   2.101
 6779TIP3   OH220300   3.404   4.793   3.760
 6779TIP3    H120301   3.362   4.750   3.834
 6779TIP3    H220302   3.395   4.730   3.688
 6780TIP3   OH220303   1.847   1.329   4.125
 6780TIP3    H120304   1.797   1.377   4.191
 6780TIP3    H220305   1.807   1.242   4.123
 6781TIP3   OH220306   0.259   2.719   4.815
 6781TIP3    H120307   0.272   2.724   4.910
 6781TIP3    H220308   0.190   2.653   4.804
 6782TIP3   OH220309   5.092   3.184   1.424
 6782TIP3    H120310   5.174   3.184   1.475
 6782TIP3    H220311   5.107   3.120   1.355
 6783TIP3   OH220312   0.075   2.978   1.795
 6783TIP3    H120313   0.138   3.018   1.735
 6783TIP3    H220314   0.015   2.931   1.737
 6784TIP3   OH220315   0.434   2.655   4.595
 6784TIP3    H120316   0.386   2.691   4.670
 6784TIP3    H220317   0.432   2.560   4.609
 6785TIP3   OH220318   4.230   3.496   1.289
 6785TIP3    H120319   4.300   3.553   1.321
 6785TIP3    H220320   4.276   3.424   1.245
 6786TIP3   OH220321   2.491   4.060   0.391
 6786TIP3    H120322   2.458   4.008   0.464
 6786TIP3    H220323   2.465   4.150   0.410
 6787TIP3   OH220324   0.367   2.933   5.509
 6787TIP3    H120325   0.411   3.000   5.561
 6787TIP3    H220326   0.274   2.943   5.530
 6788TIP3   OH220327   1.871   2.923   3.739
 6788TIP3    H120328   1.867   3.015   3.765
 6788TIP3    H220329   1.924   2.924   3.659
 6789TIP3   OH220330   5.682   5.066   1.817
 6789TIP3    H120331   5.724   5.048   1.901
 6789TIP3    H220332   5.735   5.134   1.777
 6790TIP3   OH220333   6.377   6.373   0.527
 6790TIP3    H120334   6.371   6.461   0.489
 6790TIP3    H220335   6.310   6.323   0.480
 6791TIP3   OH220336   0.343   5.915   2.501
 6791TIP3    H120337   0.391   5.845   2.545
 6791TIP3    H220338   0.384   5.923   2.415
 6792TIP3   OH220339   7.116   4.118   5.635
 6792TIP3    H120340   7.072   4.170   5.703
 6792TIP3    H220341   7.045   4.084   5.581
 6793TIP3   OH220342   3.198   6.430   0.070
 6793TIP3    H120343   3.209   6.335   0.068
 6793TIP3    H220344   3.184   6.454  -0.022
 6794TIP3   OH220345   1.798   4.922   0.863
 6794TIP3    H120346   1.749   4.879   0.932
 6794TIP3    H220347   1.834   4.851   0.810
 6795TIP3   OH220348   1.227   6.247   2.113
 6795TIP3    H120349   1.295   6.194   2.072
 6795TIP3    H220350   1.217   6.210   2.201
 6796TIP3   OH220351   2.293   5.841   5.616
 6796TIP3    H120352   2.223   5.907   5.612
 6796TIP3    H220353   2.331   5.840   5.529
 6797TIP3   OH220354   2.809   0.332   0.018
 6797TIP3    H120355   2.743   0.320   0.086
 6797TIP3    H220356   2.760   0.357  -0.060
 6798TIP3   OH220357   0.093   4.174   2.370
 6798TIP3    H120358   0.031   4.219   2.427
 6798TIP3    H220359   0.044   4.156   2.290
 6799TIP3   OH220360   1.408   2.401   5.283
 6799TIP3    H120361   1.354   2.376   5.209
 6799TIP3    H220362   1.399   2.496   5.288
 6800TIP3   OH220363   6.965   4.177   3.694
 6800TIP3    H120364   6.930   4.261   3.668
 6800TIP3    H220365   6.915   4.112   3.645
 6801TIP3   OH220366   5.795   0.200   1.662
 6801TIP3    H120367   5.745   0.136   1.612
 6801TIP3    H220368   5.755   0.200   1.749
 6802TIP3   OH220369   0.554   6.621   4.291
 6802TIP3    H120370   0.572   6.700   4.241
 6802TIP3    H220371   0.575   6.645   4.382
 6803TIP3   OH220372   0.570   4.457   2.661
 6803TIP3    H120373   0.482   4.425   2.682
 6803TIP3    H220374   0.589   4.522   2.728
 6804TIP3   OH220375   5.416   6.710   5.690
 6804TIP3    H120376   5.362   6.639   5.725
 6804TIP3    H220377   5.374   6.790   5.722
 6805TIP3   OH220378   4.581   5.264   2.093
 6805TIP3    H120379   4.676   5.274   2.088
 6805TIP3    H220380   4.556   5.312   2.172
 6806TIP3   OH220381   1.067   3.395   2.112
 6806TIP3    H120382   0.991   3.336   2.109
 6806TIP3    H220383   1.034   3.473   2.155
 6807TIP3   OH220384   4.567   2.432   1.615
 6807TIP3    H120385   4.568   2.521   1.651
 6807TIP3    H220386   4.659   2.405   1.614
 6808TIP3   OH220387   5.854   0.796   3.919
 6808TIP3    H120388   5.938   0.784   3.874
 6808TIP3    H220389   5.807   0.715   3.905
 6809TIP3   OH220390   1.264   2.424   5.032
 6809TIP3    H120391   1.347   2.382   5.015
 6809TIP3    H220392   1.219   2.424   4.948
 6810TIP3   OH220393   0.545   4.469   0.044
 6810TIP3    H120394   0.498   4.401  -0.004
 6810TIP3    H220395   0.637   4.444   0.036
 6811TIP3   OH220396   5.106   6.330   2.808
 6811TIP3    H120397   5.012   6.348   2.816
 6811TIP3    H220398   5.115   6.295   2.720
 6812TIP3   OH220399   7.036   2.742   3.942
 6812TIP3    H120400   7.057   2.802   4.013
 6812TIP3    H220401   6.951   2.770   3.910
 6813TIP3   OH220402   1.564   5.474   2.740
 6813TIP3    H120403   1.512   5.551   2.762
 6813TIP3    H220404   1.611   5.499   2.660
 6814TIP3   OH220405   6.720   2.462   1.181
 6814TIP3    H120406   6.674   2.387   1.144
 6814TIP3    H220407   6.720   2.446   1.275
 6815TIP3   OH220408   4.786   6.501   2.564
 6815TIP3    H120409   4.702   6.520   2.522
 6815TIP3    H220410   4.818   6.424   2.518
 6816TIP3   OH220411   4.377   0.825   3.124
 6816TIP3    H120412   4.373   0.730   3.135
 6816TIP3    H220413   4.299   0.858   3.169
 6817TIP3   OH220414   0.977   3.917   3.445
 6817TIP3    H120415   0.962   3.833   3.401
 6817TIP3    H220416   1.072   3.929   3.442
 6818TIP3   OH220417   3.573   0.984   1.697
 6818TIP3    H120418   3.645   0.925   1.720
 6818TIP3    H220419   3.508   0.970   1.767
 6819TIP3   OH220420   4.898   3.703   1.631
 6819TIP3    H120421   4.897   3.798   1.623
 6819TIP3    H220422   4.989   3.682   1.653
 6820TIP3   OH220423   5.621   3.533   1.462
 6820TIP3    H120424   5.574   3.545   1.544
 6820TIP3    H220425   5.668   3.450   1.472
 6821TIP3   OH220426   6.258   5.494   2.896
 6821TIP3    H120427   6.227   5.525   2.982
 6821TIP3    H220428   6.189   5.435   2.867
 6822TIP3   OH220429   1.597   6.099   0.114
 6822TIP3    H120430   1.573   6.058   0.196
 6822TIP3    H220431   1.528   6.074   0.053
 6823TIP3   OH220432   2.727   5.894   3.445
 6823TIP3    H120433   2.693   5.845   3.521
 6823TIP3    H220434   2.660   5.961   3.429
 6824TIP3   OH220435   5.584   1.247   5.597
 6824TIP3    H120436   5.596   1.295   5.515
 6824TIP3    H220437   5.554   1.160   5.570
 6825TIP3   OH220438   3.564   0.847   0.944
 6825TIP3    H120439   3.500   0.883   0.882
 6825TIP3    H220440   3.519   0.773   0.984
 6826TIP3   OH220441   6.146   4.500   1.088
 6826TIP3    H120442   6.201   4.519   1.164
 6826TIP3    H220443   6.204   4.453   1.028
 6827TIP3   OH220444   6.960   5.223   5.630
 6827TIP3    H120445   7.007   5.256   5.554
 6827TIP3    H220446   7.028   5.212   5.697
 6828TIP3   OH220447   3.166   3.528   0.518
 6828TIP3    H120448   3.161   3.558   0.428
 6828TIP3    H220449   3.180   3.608   0.569
 6829TIP3   OH220450   4.009   2.117   5.468
 6829TIP3    H120451   3.918   2.108   5.439
 6829TIP3    H220452   4.004   2.173   5.546
 6830TIP3   OH220453   4.191   5.642   4.214
 6830TIP3    H120454   4.172   5.731   4.182
 6830TIP3    H220455   4.120   5.589   4.178
 6831TIP3   OH220456   7.264   6.704   1.698
 6831TIP3    H120457   7.263   6.788   1.650
 6831TIP3    H220458   7.192   6.654   1.659
 6832TIP3   OH220459   6.807   2.026   1.486
 6832TIP3    H120460   6.749   1.962   1.527
 6832TIP3    H220461   6.805   2.004   1.393
 6833TIP3   OH220462   0.556   3.209   0.441
 6833TIP3    H120463   0.588   3.289   0.400
 6833TIP3    H220464   0.461   3.212   0.432
 6834TIP3   OH220465   5.914   1.802   0.881
 6834TIP3    H120466   5.960   1.867   0.827
 6834TIP3    H220467   5.979   1.776   0.947
 6835TIP3   OH220468   6.575   5.196   2.391
 6835TIP3    H120469   6.582   5.206   2.486
 6835TIP3    H220470   6.599   5.281   2.356
 6836TIP3   OH220471   3.045   4.431   5.064
 6836TIP3    H120472   3.006   4.409   4.980
 6836TIP3    H220473   3.046   4.527   5.066
 6837TIP3   OH220474   3.455   1.175   1.173
 6837TIP3    H120475   3.371   1.219   1.157
 6837TIP3    H220476   3.432   1.100   1.229
 6838TIP3   OH220477   3.070   0.304   2.952
 6838TIP3    H120478   3.143   0.351   2.992
 6838TIP3    H220479   3.014   0.280   3.026
 6839TIP3   OH220480   6.173   3.612   1.198
 6839TIP3    H120481   6.175   3.689   1.255
 6839TIP3    H220482   6.096   3.563   1.227
 6840TIP3   OH220483   1.381   3.618   4.130
 6840TIP3    H120484   1.379   3.581   4.219
 6840TIP3    H220485   1.289   3.634   4.109
 6841TIP3   OH220486   3.913   4.066   2.928
 6841TIP3    H120487   3.981   4.055   2.994
 6841TIP3    H220488   3.960   4.091   2.849
 6842TIP3   OH220489   1.447   4.732   0.742
 6842TIP3    H120490   1.359   4.770   0.752
 6842TIP3    H220491   1.491   4.789   0.679
 6843TIP3   OH220492   7.204   1.088   5.817
 6843TIP3    H120493   7.297   1.090   5.836
 6843TIP3    H220494   7.189   1.161   5.758
 6844TIP3   OH220495   4.703   5.800   0.180
 6844TIP3    H120496   4.704   5.868   0.247
 6844TIP3    H220497   4.611   5.773   0.175
 6845TIP3   OH220498   4.603   3.898   4.298
 6845TIP3    H120499   4.666   3.892   4.227
 6845TIP3    H220500   4.653   3.882   4.378
 6846TIP3   OH220501   4.206   5.718   2.485
 6846TIP3    H120502   4.210   5.636   2.437
 6846TIP3    H220503   4.128   5.710   2.541
 6847TIP3   OH220504   0.976   4.253   1.662
 6847TIP3    H120505   1.009   4.201   1.735
 6847TIP3    H220506   0.976   4.343   1.695
 6848TIP3   OH220507   6.375   4.763   1.743
 6848TIP3    H120508   6.429   4.707   1.688
 6848TIP3    H220509   6.370   4.846   1.695
 6849TIP3   OH220510   6.592   1.226   3.285
 6849TIP3    H120511   6.643   1.246   3.207
 6849TIP3    H220512   6.557   1.310   3.313
 6850TIP3   OH220513   6.389   5.926   3.245
 6850TIP3    H120514   6.457   5.992   3.254
 6850TIP3    H220515   6.425   5.849   3.290
 6851TIP3   OH220516   0.945   0.594   4.822
 6851TIP3    H120517   1.041   0.604   4.818
 6851TIP3    H220518   0.918   0.588   4.730
 6852TIP3   OH220519   5.083   1.361   4.641
 6852TIP3    H120520   5.071   1.293   4.574
 6852TIP3    H220521   5.002   1.412   4.639
 6853TIP3   OH220522   5.527   2.617   5.078
 6853TIP3    H120523   5.566   2.665   5.152
 6853TIP3    H220524   5.561   2.528   5.087
 6854TIP3   OH220525   6.328   4.068   3.297
 6854TIP3    H120526   6.354   4.130   3.229
 6854TIP3    H220527   6.241   4.098   3.324
 6855TIP3   OH220528   4.455   5.708   0.124
 6855TIP3    H120529   4.461   5.657   0.043
 6855TIP3    H220530   4.386   5.772   0.107
 6856TIP3   OH220531   4.535   3.845   1.011
 6856TIP3    H120532   4.441   3.829   1.003
 6856TIP3    H220533   4.569   3.766   1.052
 6857TIP3   OH220534   2.822   1.269   5.102
 6857TIP3    H120535   2.870   1.204   5.051
 6857TIP3    H220536   2.829   1.237   5.193
 6858TIP3   OH220537   1.457   1.910   2.731
 6858TIP3    H120538   1.395   1.868   2.672
 6858TIP3    H220539   1.470   1.998   2.695
 6859TIP3   OH220540   2.279   6.742   5.400
 6859TIP3    H120541   2.325   6.791   5.332
 6859TIP3    H220542   2.203   6.796   5.422
 6860TIP3   OH220543   3.275   6.576   0.294
 6860TIP3    H120544   3.244   6.665   0.280
 6860TIP3    H220545   3.265   6.533   0.209
 6861TIP3   OH220546   4.890   6.270   2.386
 6861TIP3    H120547   4.913   6.177   2.390
 6861TIP3    H220548   4.800   6.274   2.416
 6862TIP3   OH220549   1.464   5.247   1.402
 6862TIP3    H120550   1.510   5.200   1.472
 6862TIP3    H220551   1.384   5.279   1.443
 6863TIP3   OH220552   2.902   6.184   2.171
 6863TIP3    H120553   2.881   6.136   2.092
 6863TIP3    H220554   2.995   6.168   2.186
 6864TIP3   OH220555   3.124   6.652   2.167
 6864TIP3    H120556   3.159   6.737   2.192
 6864TIP3    H220557   3.067   6.671   2.092
 6865TIP3   OH220558   7.068   1.338   0.202
 6865TIP3    H120559   7.081   1.329   0.107
 6865TIP3    H220560   6.997   1.401   0.210
 6866TIP3   OH220561   4.143   5.937   4.117
 6866TIP3    H120562   4.062   5.939   4.065
 6866TIP3    H220563   4.211   5.961   4.054
 6867TIP3   OH220564   0.525   0.091   2.129
 6867TIP3    H120565   0.506   0.070   2.221
 6867TIP3    H220566   0.617   0.116   2.129
 6868TIP3   OH220567   6.056   1.194   2.325
 6868TIP3    H120568   6.095   1.146   2.252
 6868TIP3    H220569   6.099   1.279   2.323
 6869TIP3   OH220570   2.560   0.841   0.222
 6869TIP3    H120571   2.481   0.865   0.271
 6869TIP3    H220572   2.545   0.750   0.197
 6870TIP3   OH220573   6.781   1.480   5.816
 6870TIP3    H120574   6.860   1.494   5.868
 6870TIP3    H220575   6.769   1.385   5.815
 6871TIP3   OH220576   3.594   6.443   4.445
 6871TIP3    H120577   3.675   6.436   4.494
 6871TIP3    H220578   3.605   6.520   4.390
 6872TIP3   OH220579   3.859   3.942   0.473
 6872TIP3    H120580   3.832   3.872   0.414
 6872TIP3    H220581   3.888   3.896   0.553
 6873TIP3   OH220582   6.146   5.447   0.213
 6873TIP3    H120583   6.182   5.523   0.259
 6873TIP3    H220584   6.195   5.373   0.249
 6874TIP3   OH220585   2.736   2.290   2.200
 6874TIP3    H120586   2.709   2.331   2.118
 6874TIP3    H220587   2.697   2.202   2.197
 6875TIP3   OH220588   6.496   1.252   3.978
 6875TIP3    H120589   6.436   1.183   3.951
 6875TIP3    H220590   6.441   1.313   4.027
 6876TIP3   OH220591   2.567   2.742   1.161
 6876TIP3    H120592   2.618   2.667   1.131
 6876TIP3    H220593   2.477   2.709   1.169
 6877TIP3   OH220594   2.578   3.519  -0.028
 6877TIP3    H120595   2.636   3.577  -0.076
 6877TIP3    H220596   2.579   3.552   0.061
 6878TIP3   OH220597   6.277   5.917   1.443
 6878TIP3    H120598   6.256   5.906   1.350
 6878TIP3    H220599   6.202   5.965   1.479
 6879TIP3   OH220600   3.946   6.633   3.814
 6879TIP3    H120601   3.880   6.687   3.770
 6879TIP3    H220602   3.897   6.586   3.882
 6880TIP3   OH220603   2.243   3.946   5.212
 6880TIP3    H120604   2.192   4.021   5.184
 6880TIP3    H220605   2.326   3.954   5.165
 6881TIP3   OH220606   0.170   2.702   1.401
 6881TIP3    H120607   0.091   2.685   1.453
 6881TIP3    H220608   0.152   2.786   1.358
 6882TIP3   OH220609   1.923   0.767   0.006
 6882TIP3    H120610   1.940   0.708   0.080
 6882TIP3    H220611   1.833   0.796   0.018
 6883TIP3   OH220612   3.427   1.494   4.849
 6883TIP3    H120613   3.383   1.409   4.844
 6883TIP3    H220614   3.429   1.515   4.943
 6884TIP3   OH220615   6.535   2.073   3.972
 6884TIP3    H120616   6.538   2.004   3.907
 6884TIP3    H220617   6.449   2.064   4.013
 6885TIP3   OH220618   5.973   0.046   2.880
 6885TIP3    H120619   6.038   0.051   2.949
 6885TIP3    H220620   5.992   0.120   2.823
 6886TIP3   OH220621   3.782   0.229   3.800
 6886TIP3    H120622   3.707   0.177   3.772
 6886TIP3    H220623   3.827   0.174   3.864
 6887TIP3   OH220624   4.442   3.247   2.780
 6887TIP3    H120625   4.377   3.260   2.710
 6887TIP3    H220626   4.394   3.200   2.848
 6888TIP3   OH220627   3.689   0.195   4.684
 6888TIP3    H120628   3.736   0.255   4.742
 6888TIP3    H220629   3.753   0.173   4.616
 6889TIP3   OH220630   7.081   0.612   4.623
 6889TIP3    H120631   7.043   0.591   4.538
 6889TIP3    H220632   7.009   0.601   4.685
 6890TIP3   OH220633   5.461   1.809   1.239
 6890TIP3    H120634   5.555   1.809   1.224
 6890TIP3    H220635   5.452   1.803   1.334
 6891TIP3   OH220636   0.683   0.632   3.749
 6891TIP3    H120637   0.766   0.624   3.796
 6891TIP3    H220638   0.616   0.631   3.816
 6892TIP3   OH220639   3.185   6.319   0.790
 6892TIP3    H120640   3.262   6.376   0.784
 6892TIP3    H220641   3.197   6.256   0.719
 6893TIP3   OH220642   6.884   0.839   4.249
 6893TIP3    H120643   6.854   0.880   4.329
 6893TIP3    H220644   6.807   0.793   4.215
 6894TIP3   OH220645   6.075   4.408   1.991
 6894TIP3    H120646   6.075   4.484   1.933
 6894TIP3    H220647   6.071   4.446   2.079
 6895TIP3   OH220648   6.986   0.752   1.067
 6895TIP3    H120649   7.081   0.738   1.059
 6895TIP3    H220650   6.948   0.670   1.033
 6896TIP3   OH220651   5.039   0.208   2.713
 6896TIP3    H120652   5.107   0.142   2.699
 6896TIP3    H220653   4.988   0.174   2.786
 6897TIP3   OH220654   6.221   6.437   3.511
 6897TIP3    H120655   6.283   6.468   3.445
 6897TIP3    H220656   6.274   6.386   3.573
 6898TIP3   OH220657   3.633   4.451   5.743
 6898TIP3    H120658   3.617   4.389   5.671
 6898TIP3    H220659   3.662   4.531   5.699
 6899TIP3   OH220660   1.811   6.197   0.851
 6899TIP3    H120661   1.722   6.213   0.883
 6899TIP3    H220662   1.867   6.210   0.928
 6900TIP3   OH220663   3.886   4.770   4.260
 6900TIP3    H120664   3.906   4.808   4.175
 6900TIP3    H220665   3.910   4.677   4.251
 6901TIP3   OH220666   7.172   1.162   3.109
 6901TIP3    H120667   7.116   1.237   3.133
 6901TIP3    H220668   7.166   1.104   3.185
 6902TIP3   OH220669   0.090   6.403   3.513
 6902TIP3    H120670   0.052   6.400   3.426
 6902TIP3    H220671   0.168   6.348   3.507
 6903TIP3   OH220672  -0.005   4.373   0.988
 6903TIP3    H120673  -0.044   4.435   1.049
 6903TIP3    H220674   0.054   4.426   0.934
 6904TIP3   OH220675   6.351   0.463   1.854
 6904TIP3    H120676   6.332   0.456   1.761
 6904TIP3    H220677   6.388   0.378   1.877
 6905TIP3   OH220678   6.672   2.242   1.662
 6905TIP3    H120679   6.719   2.166   1.697
 6905TIP3    H220680   6.593   2.205   1.622
 6906TIP3   OH220681   1.428   4.175   3.895
 6906TIP3    H120682   1.466   4.202   3.812
 6906TIP3    H220683   1.361   4.110   3.870
 6907TIP3   OH220684   1.436   6.298   0.310
 6907TIP3    H120685   1.449   6.386   0.343
 6907TIP3    H220686   1.511   6.248   0.341
 6908TIP3   OH220687   4.360   3.961   4.517
 6908TIP3    H120688   4.413   3.892   4.478
 6908TIP3    H220689   4.277   3.919   4.538
 6909TIP3   OH220690   2.180   4.472   1.899
 6909TIP3    H120691   2.274   4.474   1.880
 6909TIP3    H220692   2.164   4.553   1.947
 6910TIP3   OH220693   5.872   3.722   4.583
 6910TIP3    H120694   5.967   3.715   4.591
 6910TIP3    H220695   5.858   3.803   4.534
 6911TIP3   OH220696   1.102   0.417   0.550
 6911TIP3    H120697   1.026   0.475   0.545
 6911TIP3    H220698   1.168   0.459   0.494
 6912TIP3   OH220699   4.032   5.684   1.417
 6912TIP3    H120700   4.105   5.625   1.399
 6912TIP3    H220701   4.038   5.702   1.511
 6913TIP3   OH220702   5.704   3.076   3.976
 6913TIP3    H120703   5.612   3.103   3.977
 6913TIP3    H220704   5.701   2.981   3.968
 6914TIP3   OH220705   2.009   2.464   1.080
 6914TIP3    H120706   1.977   2.519   1.151
 6914TIP3    H220707   1.996   2.374   1.111
 6915TIP3   OH220708   4.503   6.524   2.417
 6915TIP3    H120709   4.452   6.605   2.413
 6915TIP3    H220710   4.517   6.500   2.325
 6916TIP3   OH220711   3.838   0.436   1.638
 6916TIP3    H120712   3.817   0.391   1.556
 6916TIP3    H220713   3.913   0.387   1.673
 6917TIP3   OH220714   1.151   4.373   5.432
 6917TIP3    H120715   1.170   4.302   5.370
 6917TIP3    H220716   1.055   4.376   5.435
 6918TIP3   OH220717   3.465   3.897   5.004
 6918TIP3    H120718   3.377   3.867   5.026
 6918TIP3    H220719   3.491   3.954   5.076
 6919TIP3   OH220720   3.506   2.909   0.893
 6919TIP3    H120721   3.596   2.916   0.861
 6919TIP3    H220722   3.469   2.996   0.880
 6920TIP3   OH220723   3.089   5.842   2.149
 6920TIP3    H120724   3.095   5.796   2.065
 6920TIP3    H220725   3.158   5.802   2.203
 6921TIP3   OH220726   6.844   0.525   4.462
 6921TIP3    H120727   6.877   0.503   4.375
 6921TIP3    H220728   6.854   0.620   4.468
 6922TIP3   OH220729   3.264   3.759   4.784
 6922TIP3    H120730   3.204   3.775   4.711
 6922TIP3    H220731   3.287   3.846   4.816
 6923TIP3   OH220732   5.468   1.014   2.830
 6923TIP3    H120733   5.464   0.992   2.923
 6923TIP3    H220734   5.402   1.082   2.818
 6924TIP3   OH220735   1.150   0.694   1.480
 6924TIP3    H120736   1.219   0.663   1.537
 6924TIP3    H220737   1.194   0.715   1.398
 6925TIP3   OH220738   6.122   1.544   1.949
 6925TIP3    H120739   6.120   1.455   1.913
 6925TIP3    H220740   6.071   1.595   1.887
 6926TIP3   OH220741   2.902   0.970   0.301
 6926TIP3    H120742   2.871   1.007   0.383
 6926TIP3    H220743   2.848   1.011   0.234
 6927TIP3   OH220744   4.950   5.238   4.897
 6927TIP3    H120745   4.988   5.326   4.896
 6927TIP3    H220746   4.902   5.234   4.980
 6928TIP3   OH220747   5.174   0.822   5.885
 6928TIP3    H120748   5.244   0.775   5.840
 6928TIP3    H220749   5.117   0.753   5.921
 6929TIP3   OH220750   2.634   2.045   3.709
 6929TIP3    H120751   2.561   2.027   3.648
 6929TIP3    H220752   2.642   2.140   3.708
 6930TIP3   OH220753   2.489   2.971   2.543
 6930TIP3    H120754   2.526   3.027   2.475
 6930TIP3    H220755   2.528   2.885   2.528
 6931TIP3   OH220756   6.841   0.996   2.855
 6931TIP3    H120757   6.864   1.081   2.816
 6931TIP3    H220758   6.897   0.933   2.809
 6932TIP3   OH220759   6.546   3.137   4.027
 6932TIP3    H120760   6.639   3.133   4.051
 6932TIP3    H220761   6.532   3.061   3.971
 6933TIP3   OH220762   0.992   5.034   4.056
 6933TIP3    H120763   0.921   4.978   4.088
 6933TIP3    H220764   1.024   5.078   4.134
 6934TIP3   OH220765   5.624   6.791   1.190
 6934TIP3    H120766   5.668   6.807   1.107
 6934TIP3    H220767   5.695   6.777   1.252
 6935TIP3   OH220768   6.328   5.304   5.681
 6935TIP3    H120769   6.336   5.382   5.627
 6935TIP3    H220770   6.260   5.326   5.745
 6936TIP3   OH220771   6.351   0.079   0.070
 6936TIP3    H120772   6.289   0.124   0.127
 6936TIP3    H220773   6.434   0.125   0.085
 6937TIP3   OH220774   3.067   4.424   2.472
 6937TIP3    H120775   3.038   4.511   2.501
 6937TIP3    H220776   3.101   4.383   2.551
 6938TIP3   OH220777   1.584   4.217   0.782
 6938TIP3    H120778   1.489   4.219   0.791
 6938TIP3    H220779   1.617   4.209   0.872
 6939TIP3   OH220780   1.395   5.292   3.868
 6939TIP3    H120781   1.398   5.230   3.940
 6939TIP3    H220782   1.302   5.297   3.844
 6940TIP3   OH220783   5.748   3.489   2.802
 6940TIP3    H120784   5.681   3.491   2.733
 6940TIP3    H220785   5.816   3.549   2.771
 6941TIP3   OH220786   3.803   0.826   5.215
 6941TIP3    H120787   3.816   0.907   5.263
 6941TIP3    H220788   3.787   0.853   5.125
 6942TIP3   OH220789   5.448   6.505   3.951
 6942TIP3    H120790   5.391   6.560   4.003
 6942TIP3    H220791   5.534   6.512   3.994
 6943TIP3   OH220792   5.510   2.307   3.716
 6943TIP3    H120793   5.544   2.240   3.657
 6943TIP3    H220794   5.419   2.280   3.732
 6944TIP3   OH220795   3.728   5.199   5.815
 6944TIP3    H120796   3.799   5.183   5.753
 6944TIP3    H220797   3.764   5.174   5.900
 6945TIP3   OH220798   0.528   0.828   5.881
 6945TIP3    H120799   0.476   0.748   5.873
 6945TIP3    H220800   0.487   0.889   5.820
 6946TIP3   OH220801   1.991   1.544   5.475
 6946TIP3    H120802   1.997   1.585   5.389
 6946TIP3    H220803   2.062   1.480   5.476
 6947TIP3   OH220804   0.405   2.721   5.326
 6947TIP3    H120805   0.339   2.742   5.392
 6947TIP3    H220806   0.473   2.788   5.338
 6948TIP3   OH220807   3.452   6.443   0.725
 6948TIP3    H120808   3.495   6.501   0.787
 6948TIP3    H220809   3.508   6.366   0.721
 6949TIP3   OH220810   5.274   2.337   2.335
 6949TIP3    H120811   5.289   2.418   2.286
 6949TIP3    H220812   5.337   2.275   2.299
 6950TIP3   OH220813   6.659   1.944   3.383
 6950TIP3    H120814   6.725   1.958   3.450
 6950TIP3    H220815   6.699   1.882   3.323
 6951TIP3   OH220816   6.711   3.617   5.402
 6951TIP3    H120817   6.719   3.658   5.315
 6951TIP3    H220818   6.777   3.662   5.455
 6952TIP3   OH220819   1.012   5.260   5.618
 6952TIP3    H120820   0.919   5.278   5.608
 6952TIP3    H220821   1.043   5.327   5.679
 6953TIP3   OH220822   0.628   1.449   5.390
 6953TIP3    H120823   0.691   1.502   5.439
 6953TIP3    H220824   0.545   1.495   5.401
 6954TIP3   OH220825   1.918   5.883   0.936
 6954TIP3    H120826   1.877   5.831   1.006
 6954TIP3    H220827   1.849   5.896   0.872
 6955TIP3   OH220828   0.291   3.296   3.895
 6955TIP3    H120829   0.376   3.275   3.935
 6955TIP3    H220830   0.227   3.265   3.960
 6956TIP3   OH220831   5.822   6.019   2.580
 6956TIP3    H120832   5.784   6.012   2.668
 6956TIP3    H220833   5.792   6.104   2.548
 6957TIP3   OH220834   3.233   6.107   0.599
 6957TIP3    H120835   3.254   6.183   0.544
 6957TIP3    H220836   3.318   6.073   0.626
 6958TIP3   OH220837   1.069   6.604   1.872
 6958TIP3    H120838   1.147   6.656   1.892
 6958TIP3    H220839   1.036   6.641   1.790
 6959TIP3   OH220840   2.505   1.736   3.446
 6959TIP3    H120841   2.522   1.829   3.431
 6959TIP3    H220842   2.500   1.728   3.542
 6960TIP3   OH220843   1.461   3.560   4.664
 6960TIP3    H120844   1.456   3.562   4.760
 6960TIP3    H220845   1.554   3.549   4.645
 6961TIP3   OH220846   5.068   1.009   4.619
 6961TIP3    H120847   5.025   1.051   4.545
 6961TIP3    H220848   5.000   0.954   4.658
 6962TIP3   OH220849   3.225   4.363   3.104
 6962TIP3    H120850   3.150   4.402   3.060
 6962TIP3    H220851   3.238   4.279   3.061
 6963TIP3   OH220852   5.509   0.662   4.615
 6963TIP3    H120853   5.459   0.582   4.628
 6963TIP3    H220854   5.478   0.722   4.682
 6964TIP3   OH220855   4.985   0.835   2.761
 6964TIP3    H120856   4.950   0.778   2.830
 6964TIP3    H220857   5.080   0.827   2.768
 6965TIP3   OH220858   6.703   1.615   0.589
 6965TIP3    H120859   6.648   1.579   0.520
 6965TIP3    H220860   6.732   1.539   0.640
 6966TIP3   OH220861   6.301   4.777   0.968
 6966TIP3    H120862   6.311   4.704   1.028
 6966TIP3    H220863   6.369   4.763   0.901
 6967TIP3   OH220864   3.360   4.738   4.152
 6967TIP3    H120865   3.278   4.697   4.122
 6967TIP3    H220866   3.332   4.798   4.221
 6968TIP3   OH220867   1.539   5.615   0.973
 6968TIP3    H120868   1.486   5.650   1.045
 6968TIP3    H220869   1.523   5.674   0.900
 6969TIP3   OH220870   6.743   5.801   0.042
 6969TIP3    H120871   6.705   5.816  -0.044
 6969TIP3    H220872   6.673   5.761   0.094
 6970TIP3   OH220873   1.402   5.189   3.154
 6970TIP3    H120874   1.491   5.212   3.127
 6970TIP3    H220875   1.413   5.111   3.208
 6971TIP3   OH220876   5.686   6.822   0.684
 6971TIP3    H120877   5.596   6.835   0.655
 6971TIP3    H220878   5.735   6.800   0.605
 6972TIP3   OH220879   0.346   5.999   4.127
 6972TIP3    H120880   0.268   6.049   4.149
 6972TIP3    H220881   0.419   6.051   4.162
 6973TIP3   OH220882   6.505   1.107   2.093
 6973TIP3    H120883   6.447   1.178   2.065
 6973TIP3    H220884   6.448   1.047   2.141
 6974TIP3   OH220885   1.915   2.295   5.516
 6974TIP3    H120886   1.826   2.261   5.525
 6974TIP3    H220887   1.903   2.388   5.498
 6975TIP3   OH220888   6.067   4.069   0.216
 6975TIP3    H120889   5.974   4.043   0.217
 6975TIP3    H220890   6.089   4.074   0.123
 6976TIP3   OH220891   1.857   2.641   0.910
 6976TIP3    H120892   1.920   2.597   0.967
 6976TIP3    H220893   1.888   2.623   0.821
 6977TIP3   OH220894   2.534   1.453   1.099
 6977TIP3    H120895   2.457   1.397   1.102
 6977TIP3    H220896   2.566   1.454   1.190
 6978TIP3   OH220897   0.564   4.167   0.887
 6978TIP3    H120898   0.564   4.108   0.962
 6978TIP3    H220899   0.494   4.134   0.830
 6979TIP3   OH220900   6.245   5.039   5.650
 6979TIP3    H120901   6.287   5.015   5.567
 6979TIP3    H220902   6.261   5.133   5.658
 6980TIP3   OH220903   3.773   6.771   2.207
 6980TIP3    H120904   3.812   6.732   2.285
 6980TIP3    H220905   3.791   6.865   2.216
 6981TIP3   OH220906   0.846   4.171   5.359
 6981TIP3    H120907   0.875   4.260   5.380
 6981TIP3    H220908   0.836   4.171   5.264
 6982TIP3   OH220909   4.999   5.756   2.032
 6982TIP3    H120910   4.913   5.714   2.041
 6982TIP3    H220911   5.029   5.768   2.122
 6983TIP3   OH220912   0.573   4.242   5.314
 6983TIP3    H120913   0.480   4.247   5.338
 6983TIP3    H220914   0.614   4.197   5.388
 6984TIP3   OH220915   1.505   5.847   4.090
 6984TIP3    H120916   1.515   5.843   4.185
 6984TIP3    H220917   1.593   5.835   4.056
 6985TIP3   OH220918   0.677   4.766   2.046
 6985TIP3    H120919   0.606   4.795   2.102
 6985TIP3    H220920   0.699   4.678   2.078
 6986TIP3   OH220921   1.362   3.280   0.540
 6986TIP3    H120922   1.336   3.251   0.627
 6986TIP3    H220923   1.415   3.208   0.506
 6987TIP3   OH220924   4.394   0.906   3.781
 6987TIP3    H120925   4.478   0.870   3.808
 6987TIP3    H220926   4.348   0.924   3.863
 6988TIP3   OH220927   3.022   1.280   4.505
 6988TIP3    H120928   2.936   1.296   4.466
 6988TIP3    H220929   3.022   1.335   4.583
 6989TIP3   OH220930   3.270   2.739   4.512
 6989TIP3    H120931   3.247   2.821   4.555
 6989TIP3    H220932   3.291   2.679   4.583
 6990TIP3   OH220933   0.997   0.994   0.842
 6990TIP3    H120934   0.970   1.007   0.933
 6990TIP3    H220935   0.990   1.081   0.802
 6991TIP3   OH220936   0.578   1.790   5.642
 6991TIP3    H120937   0.640   1.862   5.647
 6991TIP3    H220938   0.571   1.770   5.548
 6992TIP3   OH220939   3.892   6.595   4.267
 6992TIP3    H120940   3.866   6.513   4.224
 6992TIP3    H220941   3.810   6.644   4.276
 6993TIP3   OH220942   6.620   0.233   0.643
 6993TIP3    H120943   6.618   0.140   0.623
 6993TIP3    H220944   6.646   0.237   0.735
 6994TIP3   OH220945   4.049   1.211   3.156
 6994TIP3    H120946   3.999   1.164   3.222
 6994TIP3    H220947   4.077   1.144   3.094
 6995TIP3   OH220948   6.796   4.799   2.602
 6995TIP3    H120949   6.763   4.821   2.515
 6995TIP3    H220950   6.789   4.703   2.606
 6996TIP3   OH220951   1.237   5.903   4.807
 6996TIP3    H120952   1.254   5.839   4.876
 6996TIP3    H220953   1.240   5.988   4.851
 6997TIP3   OH220954   5.193   5.365   4.560
 6997TIP3    H120955   5.119   5.306   4.547
 6997TIP3    H220956   5.242   5.326   4.632
 6998TIP3   OH220957   1.873   2.156   1.745
 6998TIP3    H120958   1.802   2.110   1.701
 6998TIP3    H220959   1.940   2.166   1.677
 6999TIP3   OH220960   1.890   5.723   1.432
 6999TIP3    H120961   1.948   5.651   1.457
 6999TIP3    H220962   1.873   5.708   1.339
 7000TIP3   OH220963   1.072   4.784   3.750
 7000TIP3    H120964   1.095   4.709   3.805
 7000TIP3    H220965   1.136   4.851   3.773
 7001TIP3   OH220966   1.635   4.352   1.819
 7001TIP3    H120967   1.643   4.283   1.753
 7001TIP3    H220968   1.696   4.326   1.888
 7002TIP3   OH220969   1.472   3.630   5.255
 7002TIP3    H120970   1.454   3.558   5.316
 7002TIP3    H220971   1.540   3.681   5.298
 7003TIP3   OH220972   6.515   4.446   4.953
 7003TIP3    H120973   6.498   4.418   4.863
 7003TIP3    H220974   6.529   4.540   4.946
 7004TIP3   OH220975   0.998   4.874   2.095
 7004TIP3    H120976   0.930   4.913   2.151
 7004TIP3    H220977   1.064   4.842   2.156
 7005TIP3   OH220978   6.886   3.063   0.076
 7005TIP3    H120979   6.861   3.045  -0.015
 7005TIP3    H220980   6.928   3.148   0.073
 7006TIP3   OH220981   1.521   5.440   3.322
 7006TIP3    H120982   1.529   5.350   3.288
 7006TIP3    H220983   1.522   5.495   3.243
 7007TIP3   OH220984   6.093   1.978   3.445
 7007TIP3    H120985   6.108   1.888   3.472
 7007TIP3    H220986   6.154   2.029   3.499
 7008TIP3   OH220987   6.381   0.670   5.363
 7008TIP3    H120988   6.318   0.603   5.392
 7008TIP3    H220989   6.464   0.645   5.403
 7009TIP3   OH220990   6.758   3.517   1.209
 7009TIP3    H120991   6.715   3.559   1.284
 7009TIP3    H220992   6.739   3.424   1.218
 7010TIP3   OH220993   0.893   6.619   0.481
 7010TIP3    H120994   0.928   6.603   0.569
 7010TIP3    H220995   0.942   6.696   0.450
 7011TIP3   OH220996   5.027   4.189   3.034
 7011TIP3    H120997   5.048   4.178   2.942
 7011TIP3    H220998   4.947   4.242   3.034
 7012TIP3   OH220999   4.760   1.750   3.619
 7012TIP3    H121000   4.677   1.741   3.572
 7012TIP3    H221001   4.760   1.841   3.650
 7013TIP3   OH221002   4.743   4.077   3.599
 7013TIP3    H121003   4.828   4.050   3.564
 7013TIP3    H221004   4.727   4.020   3.673
 7014TIP3   OH221005   4.692   5.213   0.940
 7014TIP3    H121006   4.719   5.159   1.014
 7014TIP3    H221007   4.658   5.150   0.876
 7015TIP3   OH221008   2.551   0.121   3.546
 7015TIP3    H121009   2.472   0.122   3.491
 7015TIP3    H221010   2.576   0.028   3.550
 7016TIP3   OH221011   5.238   0.909   3.802
 7016TIP3    H121012   5.194   0.994   3.810
 7016TIP3    H221013   5.253   0.882   3.893
 7017TIP3   OH221014   3.356   1.503   1.441
 7017TIP3    H121015   3.293   1.473   1.375
 7017TIP3    H221016   3.388   1.422   1.482
 7018TIP3   OH221017   1.974   0.186   2.444
 7018TIP3    H121018   1.994   0.130   2.519
 7018TIP3    H221019   1.989   0.131   2.368
 7019TIP3   OH221020   6.705   3.587   2.365
 7019TIP3    H121021   6.665   3.514   2.412
 7019TIP3    H221022   6.675   3.665   2.411
 7020TIP3   OH221023   5.426   5.024   2.414
 7020TIP3    H121024   5.335   5.011   2.440
 7020TIP3    H221025   5.461   4.935   2.402
 7021TIP3   OH221026   3.993   0.053   2.466
 7021TIP3    H121027   4.071   0.097   2.433
 7021TIP3    H221028   3.920   0.096   2.421
 7022TIP3   OH221029   5.131   5.234   4.220
 7022TIP3    H121030   5.101   5.324   4.235
 7022TIP3    H221031   5.137   5.227   4.124
 7023TIP3   OH221032   5.619   5.312   0.402
 7023TIP3    H121033   5.609   5.344   0.492
 7023TIP3    H221034   5.713   5.317   0.385
 7024TIP3   OH221035   3.182   6.508   2.520
 7024TIP3    H121036   3.175   6.489   2.427
 7024TIP3    H221037   3.269   6.549   2.529
 7025TIP3   OH221038   0.063   0.305   2.315
 7025TIP3    H121039  -0.027   0.294   2.287
 7025TIP3    H221040   0.059   0.367   2.388
 7026TIP3   OH221041   4.230   2.322   5.695
 7026TIP3    H121042   4.259   2.231   5.704
 7026TIP3    H221043   4.135   2.318   5.707
 7027TIP3   OH221044   0.543   5.319   2.330
 7027TIP3    H121045   0.563   5.245   2.388
 7027TIP3    H221046   0.501   5.279   2.254
 7028TIP3   OH221047   1.777   6.712   5.952
 7028TIP3    H121048   1.775   6.789   5.895
 7028TIP3    H221049   1.774   6.638   5.892
 7029TIP3   OH221050   0.203   5.865   1.715
 7029TIP3    H121051   0.274   5.928   1.728
 7029TIP3    H221052   0.237   5.805   1.649
 7030TIP3   OH221053   1.721   0.920   2.158
 7030TIP3    H121054   1.697   0.843   2.107
 7030TIP3    H221055   1.815   0.910   2.173
 7031TIP3   OH221056   2.085   0.290   4.179
 7031TIP3    H121057   2.114   0.270   4.268
 7031TIP3    H221058   1.992   0.314   4.188
 7032TIP3   OH221059   5.262   4.015   0.479
 7032TIP3    H121060   5.225   3.929   0.501
 7032TIP3    H221061   5.188   4.065   0.446
 7033TIP3   OH221062   0.429   6.004   1.696
 7033TIP3    H121063   0.431   6.042   1.608
 7033TIP3    H221064   0.473   5.920   1.687
 7034TIP3   OH221065   2.789   6.411   2.205
 7034TIP3    H121066   2.845   6.334   2.198
 7034TIP3    H221067   2.750   6.420   2.118
 7035TIP3   OH221068   2.172   1.309   5.487
 7035TIP3    H121069   2.170   1.335   5.579
 7035TIP3    H221070   2.256   1.263   5.478
 7036TIP3   OH221071   3.629   6.683   4.314
 7036TIP3    H121072   3.550   6.710   4.267
 7036TIP3    H221073   3.657   6.762   4.361
 7037TIP3   OH221074   6.662   5.392   3.464
 7037TIP3    H121075   6.654   5.299   3.484
 7037TIP3    H221076   6.671   5.395   3.369
 7038TIP3   OH221077   5.250   0.353   0.929
 7038TIP3    H121078   5.255   0.293   1.004
 7038TIP3    H221079   5.315   0.318   0.867
 7039TIP3   OH221080   4.124   4.627   2.902
 7039TIP3    H121081   4.066   4.551   2.904
 7039TIP3    H221082   4.177   4.616   2.824
 7040TIP3   OH221083   1.715   4.153   5.208
 7040TIP3    H121084   1.702   4.085   5.274
 7040TIP3    H221085   1.640   4.144   5.149
 7041TIP3   OH221086   6.074   6.324   3.159
 7041TIP3    H121087   6.100   6.234   3.179
 7041TIP3    H221088   6.153   6.376   3.176
 7042TIP3   OH221089   5.583   5.976   5.600
 7042TIP3    H121090   5.516   5.983   5.532
 7042TIP3    H221091   5.637   5.902   5.574
 7043TIP3   OH221092   0.646   1.152   3.535
 7043TIP3    H121093   0.607   1.226   3.489
 7043TIP3    H221094   0.712   1.192   3.593
 7044TIP3   OH221095   5.597   5.593   2.466
 7044TIP3    H121096   5.632   5.549   2.543
 7044TIP3    H221097   5.532   5.532   2.431
 7045TIP3   OH221098   0.844   0.296   3.381
 7045TIP3    H121099   0.937   0.296   3.404
 7045TIP3    H221100   0.842   0.325   3.290
 7046TIP3   OH221101   5.744   3.426   4.157
 7046TIP3    H121102   5.781   3.513   4.145
 7046TIP3    H221103   5.813   3.366   4.130
 7047TIP3   OH221104   3.536   1.547   2.381
 7047TIP3    H121105   3.544   1.452   2.369
 7047TIP3    H221106   3.606   1.584   2.326
 7048TIP3   OH221107   5.275   3.618   2.309
 7048TIP3    H121108   5.297   3.605   2.217
 7048TIP3    H221109   5.354   3.659   2.346
 7049TIP3   OH221110   3.366   6.330   0.436
 7049TIP3    H121111   3.410   6.384   0.502
 7049TIP3    H221112   3.423   6.333   0.360
 7050TIP3   OH221113   1.067   6.782   1.674
 7050TIP3    H121114   0.990   6.829   1.644
 7050TIP3    H221115   1.131   6.850   1.695
 7051TIP3   OH221116   4.066   3.506   5.295
 7051TIP3    H121117   4.070   3.419   5.254
 7051TIP3    H221118   4.047   3.488   5.387
 7052TIP3   OH221119   1.244   4.149   2.039
 7052TIP3    H121120   1.273   4.237   2.014
 7052TIP3    H221121   1.259   4.096   1.961
 7053TIP3   OH221122   4.421   6.226   2.634
 7053TIP3    H121123   4.331   6.245   2.659
 7053TIP3    H221124   4.437   6.138   2.668
 7054TIP3   OH221125   6.903   6.668   3.732
 7054TIP3    H121126   6.968   6.612   3.689
 7054TIP3    H221127   6.954   6.722   3.792
 7055TIP3   OH221128   6.381   0.216   4.423
 7055TIP3    H121129   6.327   0.151   4.467
 7055TIP3    H221130   6.421   0.267   4.493
 7056TIP3   OH221131   1.857   0.875   5.326
 7056TIP3    H121132   1.865   0.941   5.257
 7056TIP3    H221133   1.775   0.897   5.371
 7057TIP3   OH221134   0.831   6.770   2.967
 7057TIP3    H121135   0.876   6.833   3.023
 7057TIP3    H221136   0.848   6.800   2.878
 7058TIP3   OH221137   1.557   5.592   5.669
 7058TIP3    H121138   1.647   5.604   5.699
 7058TIP3    H221139   1.559   5.510   5.620
 7059TIP3   OH221140   0.454   3.388   5.781
 7059TIP3    H121141   0.424   3.411   5.693
 7059TIP3    H221142   0.498   3.467   5.813
 7060TIP3   OH221143   5.971   0.839   2.522
 7060TIP3    H121144   6.016   0.921   2.502
 7060TIP3    H221145   5.942   0.848   2.613
 7061TIP3   OH221146   1.467   5.636   2.254
 7061TIP3    H121147   1.499   5.725   2.241
 7061TIP3    H221148   1.387   5.632   2.201
 7062TIP3   OH221149   6.798   5.014   4.393
 7062TIP3    H121150   6.781   4.995   4.301
 7062TIP3    H221151   6.886   5.051   4.394
 7063TIP3   OH221152   1.556   2.549   2.347
 7063TIP3    H121153   1.648   2.552   2.370
 7063TIP3    H221154   1.555   2.549   2.251
 7064TIP3   OH221155   1.373   6.720   5.893
 7064TIP3    H121156   1.422   6.802   5.898
 7064TIP3    H221157   1.308   6.735   5.824
 7065TIP3   OH221158   5.998   1.205   4.708
 7065TIP3    H121159   5.923   1.246   4.751
 7065TIP3    H221160   5.961   1.128   4.665
 7066TIP3   OH221161   6.170   5.181   5.368
 7066TIP3    H121162   6.228   5.245   5.327
 7066TIP3    H221163   6.222   5.101   5.371
 7067TIP3   OH221164   4.594   0.800   3.941
 7067TIP3    H121165   4.604   0.777   4.033
 7067TIP3    H221166   4.673   0.766   3.899
 7068TIP3   OH221167   2.348   6.303   2.877
 7068TIP3    H121168   2.380   6.215   2.900
 7068TIP3    H221169   2.424   6.360   2.891
 7069TIP3   OH221170   1.629   4.935   4.101
 7069TIP3    H121171   1.621   4.855   4.152
 7069TIP3    H221172   1.686   4.912   4.027
 7070TIP3   OH221173   3.423   5.716   0.359
 7070TIP3    H121174   3.359   5.769   0.407
 7070TIP3    H221175   3.370   5.659   0.303
 7071TIP3   OH221176   6.446   4.546   3.487
 7071TIP3    H121177   6.385   4.473   3.497
 7071TIP3    H221178   6.437   4.597   3.568
 7072TIP3   OH221179   4.355   6.445   4.951
 7072TIP3    H121180   4.354   6.519   5.012
 7072TIP3    H221181   4.434   6.459   4.899
 7073TIP3   OH221182   3.555   4.707   1.489
 7073TIP3    H121183   3.635   4.741   1.450
 7073TIP3    H221184   3.489   4.715   1.420
 7074TIP3   OH221185   5.898   5.194   0.850
 7074TIP3    H121186   5.968   5.136   0.819
 7074TIP3    H221187   5.921   5.280   0.814
 7075TIP3   OH221188   0.356   4.646   0.108
 7075TIP3    H121189   0.283   4.614   0.056
 7075TIP3    H221190   0.428   4.586   0.087
 7076TIP3   OH221191   3.186   4.671   4.495
 7076TIP3    H121192   3.204   4.765   4.504
 7076TIP3    H221193   3.259   4.629   4.541
 7077TIP3   OH221194   1.805   4.891   3.895
 7077TIP3    H121195   1.745   4.881   3.821
 7077TIP3    H221196   1.833   4.802   3.915
 7078TIP3   OH221197   4.638   4.725   4.030
 7078TIP3    H121198   4.620   4.654   4.092
 7078TIP3    H221199   4.553   4.767   4.016
 7079TIP3   OH221200   5.351   6.365   5.025
 7079TIP3    H121201   5.391   6.363   5.112
 7079TIP3    H221202   5.396   6.297   4.976
 7080TIP3   OH221203   7.049   4.666   0.162
 7080TIP3    H121204   7.141   4.681   0.140
 7080TIP3    H221205   7.014   4.618   0.087
 7081TIP3   OH221206   4.316   1.230   3.261
 7081TIP3    H121207   4.234   1.255   3.219
 7081TIP3    H221208   4.294   1.222   3.353
 7082TIP3   OH221209   3.197   0.981   4.314
 7082TIP3    H121210   3.221   0.927   4.390
 7082TIP3    H221211   3.176   0.918   4.245
 7083TIP3   OH221212   4.530   6.108   5.381
 7083TIP3    H121213   4.450   6.088   5.430
 7083TIP3    H221214   4.509   6.189   5.334
 7084TIP3   OH221215   0.571   3.792   1.492
 7084TIP3    H121216   0.580   3.874   1.443
 7084TIP3    H221217   0.638   3.735   1.455
 7085TIP3   OH221218   6.681   4.955   4.849
 7085TIP3    H121219   6.761   4.901   4.848
 7085TIP3    H221220   6.709   5.039   4.812
 7086TIP3   OH221221   1.196   6.384   0.697
 7086TIP3    H121222   1.234   6.386   0.609
 7086TIP3    H221223   1.241   6.312   0.740
 7087TIP3   OH221224   1.757   5.447   1.179
 7087TIP3    H121225   1.664   5.442   1.200
 7087TIP3    H221226   1.801   5.404   1.253
 7088TIP3   OH221227   5.381   4.761   4.877
 7088TIP3    H121228   5.381   4.666   4.869
 7088TIP3    H221229   5.314   4.791   4.816
 7089TIP3   OH221230   0.316   1.174   1.777
 7089TIP3    H121231   0.231   1.163   1.819
 7089TIP3    H221232   0.317   1.108   1.707
 7090TIP3   OH221233   6.937   1.009   5.154
 7090TIP3    H121234   7.000   1.067   5.113
 7090TIP3    H221235   6.957   1.014   5.248
 7091TIP3   OH221236   6.814   2.680   2.751
 7091TIP3    H121237   6.873   2.649   2.682
 7091TIP3    H221238   6.869   2.684   2.830
 7092TIP3   OH221239   2.126   4.307   4.980
 7092TIP3    H121240   2.065   4.255   5.033
 7092TIP3    H221241   2.179   4.354   5.044
 7093TIP3   OH221242   0.911   0.999   0.450
 7093TIP3    H121243   0.939   1.024   0.363
 7093TIP3    H221244   0.857   1.072   0.480
 7094TIP3   OH221245   1.206   6.055   0.182
 7094TIP3    H121246   1.282   6.034   0.128
 7094TIP3    H221247   1.160   6.124   0.134
 7095TIP3   OH221248   5.995   0.429   5.327
 7095TIP3    H121249   5.907   0.419   5.363
 7095TIP3    H221250   5.986   0.400   5.236
 7096TIP3   OH221251   1.554   6.050   5.026
 7096TIP3    H121252   1.647   6.072   5.034
 7096TIP3    H221253   1.553   5.969   4.974
 7097TIP3   OH221254   4.745   5.826   2.221
 7097TIP3    H121255   4.753   5.859   2.311
 7097TIP3    H221256   4.656   5.849   2.194
 7098TIP3   OH221257   6.831   0.213   4.687
 7098TIP3    H121258   6.834   0.118   4.687
 7098TIP3    H221259   6.821   0.237   4.594
 7099TIP3   OH221260   5.661   6.753   5.859
 7099TIP3    H121261   5.623   6.733   5.774
 7099TIP3    H221262   5.649   6.847   5.869
 7100TIP3   OH221263   5.759   0.485   0.994
 7100TIP3    H121264   5.826   0.432   0.950
 7100TIP3    H221265   5.732   0.548   0.927
 7101TIP3   OH221266   5.191   3.735   3.579
 7101TIP3    H121267   5.220   3.645   3.563
 7101TIP3    H221268   5.226   3.758   3.665
 7102TIP3   OH221269   4.892   0.513   2.083
 7102TIP3    H121270   4.886   0.568   2.004
 7102TIP3    H221271   4.922   0.573   2.151
 7103TIP3   OH221272   2.876   5.662   3.586
 7103TIP3    H121273   2.867   5.668   3.681
 7103TIP3    H221274   2.845   5.747   3.554
 7104TIP3   OH221275   3.150   3.695   0.866
 7104TIP3    H121276   3.155   3.745   0.784
 7104TIP3    H221277   3.068   3.645   0.859
 7105TIP3   OH221278   0.869   6.520   2.368
 7105TIP3    H121279   0.945   6.466   2.387
 7105TIP3    H221280   0.800   6.457   2.345
 7106TIP3   OH221281   0.073   2.065   0.609
 7106TIP3    H121282   0.048   2.152   0.580
 7106TIP3    H221283   0.133   2.081   0.682
 7107TIP3   OH221284   4.082   3.204   0.352
 7107TIP3    H121285   4.087   3.135   0.418
 7107TIP3    H221286   3.999   3.248   0.370
 7108TIP3   OH221287   1.760   6.563   3.033
 7108TIP3    H121288   1.727   6.533   3.117
 7108TIP3    H221289   1.825   6.630   3.055
 7109TIP3   OH221290   1.395   0.713   2.254
 7109TIP3    H121291   1.387   0.634   2.200
 7109TIP3    H221292   1.480   0.704   2.297
 7110TIP3   OH221293   6.284   5.244   2.155
 7110TIP3    H121294   6.265   5.278   2.243
 7110TIP3    H221295   6.310   5.321   2.105
 7111TIP3   OH221296   1.196   6.544   5.585
 7111TIP3    H121297   1.189   6.545   5.490
 7111TIP3    H221298   1.286   6.514   5.602
 7112TIP3   OH221299   4.035   1.879   4.141
 7112TIP3    H121300   4.087   1.884   4.221
 7112TIP3    H221301   4.009   1.970   4.124
 7113TIP3   OH221302   1.305   4.743   1.582
 7113TIP3    H121303   1.337   4.674   1.523
 7113TIP3    H221304   1.357   4.820   1.559
 7114TIP3   OH221305   3.384   6.413   1.603
 7114TIP3    H121306   3.313   6.458   1.650
 7114TIP3    H221307   3.463   6.438   1.650
 7115TIP3   OH221308   1.685   2.788   2.934
 7115TIP3    H121309   1.753   2.729   2.900
 7115TIP3    H221310   1.734   2.857   2.979
 7116TIP3   OH221311   7.004   5.167   3.576
 7116TIP3    H121312   7.082   5.128   3.617
 7116TIP3    H221313   7.033   5.193   3.489
 7117TIP3   OH221314   3.091   3.825   3.069
 7117TIP3    H121315   3.055   3.856   2.986
 7117TIP3    H221316   3.019   3.835   3.132
 7118TIP3   OH221317   3.603   2.174   5.146
 7118TIP3    H121318   3.625   2.265   5.128
 7118TIP3    H221319   3.567   2.141   5.064
 7119TIP3   OH221320   6.863   5.140   2.255
 7119TIP3    H121321   6.858   5.214   2.195
 7119TIP3    H221322   6.806   5.163   2.328
 7120TIP3   OH221323   1.520   2.812   5.726
 7120TIP3    H121324   1.434   2.773   5.718
 7120TIP3    H221325   1.563   2.795   5.642
 7121TIP3   OH221326   0.151   5.046   3.557
 7121TIP3    H121327   0.092   4.987   3.509
 7121TIP3    H221328   0.224   5.061   3.497
 7122TIP3   OH221329   2.832   1.886   1.216
 7122TIP3    H121330   2.837   1.933   1.300
 7122TIP3    H221331   2.740   1.893   1.190
 7123TIP3   OH221332   1.054   3.875   5.780
 7123TIP3    H121333   1.039   3.969   5.776
 7123TIP3    H221334   1.145   3.863   5.751
 7124TIP3   OH221335   2.512   2.736   4.618
 7124TIP3    H121336   2.481   2.740   4.527
 7124TIP3    H221337   2.480   2.817   4.658
 7125TIP3   OH221338   1.130   2.237   5.878
 7125TIP3    H121339   1.221   2.262   5.894
 7125TIP3    H221340   1.102   2.196   5.960
 7126TIP3   OH221341   4.401   0.495   4.574
 7126TIP3    H121342   4.358   0.574   4.608
 7126TIP3    H221343   4.475   0.529   4.523
 7127TIP3   OH221344   5.553   6.579   5.336
 7127TIP3    H121345   5.602   6.613   5.411
 7127TIP3    H221346   5.531   6.657   5.285
 7128TIP3   OH221347   3.098   1.785   3.431
 7128TIP3    H121348   3.147   1.866   3.420
 7128TIP3    H221349   3.137   1.725   3.367
 7129TIP3   OH221350   7.180   5.544   2.837
 7129TIP3    H121351   7.193   5.619   2.895
 7129TIP3    H221352   7.268   5.524   2.805
 7130TIP3   OH221353   1.673   1.007   3.309
 7130TIP3    H121354   1.744   1.013   3.245
 7130TIP3    H221355   1.717   0.992   3.393
 7131TIP3   OH221356   4.105   3.868   4.590
 7131TIP3    H121357   4.077   3.793   4.643
 7131TIP3    H221358   4.028   3.925   4.586
 7132TIP3   OH221359   3.360   5.116   2.661
 7132TIP3    H121360   3.300   5.102   2.734
 7132TIP3    H221361   3.304   5.148   2.590
 7133TIP3   OH221362   1.055   2.608   3.671
 7133TIP3    H121363   0.965   2.575   3.669
 7133TIP3    H221364   1.047   2.700   3.644
 7134TIP3   OH221365   5.245   3.917   3.379
 7134TIP3    H121366   5.233   3.858   3.453
 7134TIP3    H221367   5.221   3.866   3.302
 7135TIP3   OH221368   3.385   2.669   0.274
 7135TIP3    H121369   3.385   2.745   0.333
 7135TIP3    H221370   3.294   2.664   0.243
 7136TIP3   OH221371   3.987   6.467   3.173
 7136TIP3    H121372   3.896   6.493   3.187
 7136TIP3    H221373   3.983   6.372   3.160
 7137TIP3   OH221374   0.132   5.871   5.402
 7137TIP3    H121375   0.165   5.957   5.431
 7137TIP3    H221376   0.185   5.808   5.450
 7138TIP3   OH221377   5.136   6.802   3.024
 7138TIP3    H121378   5.211   6.806   3.084
 7138TIP3    H221379   5.079   6.736   3.062
 7139TIP3   OH221380   6.799   5.994   3.620
 7139TIP3    H121381   6.758   5.921   3.667
 7139TIP3    H221382   6.795   5.969   3.528
 7140TIP3   OH221383   6.369   2.337   4.943
 7140TIP3    H121384   6.384   2.305   5.032
 7140TIP3    H221385   6.376   2.259   4.888
 7141TIP3   OH221386   4.881   1.567   4.620
 7141TIP3    H121387   4.811   1.586   4.683
 7141TIP3    H221388   4.863   1.626   4.546
 7142TIP3   OH221389   3.094   5.239   1.685
 7142TIP3    H121390   3.093   5.151   1.720
 7142TIP3    H221391   3.094   5.227   1.590
 7143TIP3   OH221392   4.843   6.030   5.372
 7143TIP3    H121393   4.787   6.081   5.314
 7143TIP3    H221394   4.894   6.095   5.419
 7144TIP3   OH221395   5.842   6.115   0.437
 7144TIP3    H121396   5.875   6.026   0.421
 7144TIP3    H221397   5.752   6.114   0.405
 7145TIP3   OH221398   5.816   2.142   0.819
 7145TIP3    H121399   5.725   2.114   0.822
 7145TIP3    H221400   5.821   2.216   0.880
 7146TIP3   OH221401   4.979   4.592   0.813
 7146TIP3    H121402   4.897   4.559   0.778
 7146TIP3    H221403   4.954   4.643   0.890
 7147TIP3   OH221404   1.024   2.260   3.234
 7147TIP3    H121405   0.984   2.295   3.314
 7147TIP3    H221406   1.107   2.223   3.262
 7148TIP3   OH221407   7.181   0.410   0.211
 7148TIP3    H121408   7.239   0.384   0.141
 7148TIP3    H221409   7.219   0.371   0.290
 7149TIP3   OH221410   5.276   3.462   4.811
 7149TIP3    H121411   5.242   3.464   4.722
 7149TIP3    H221412   5.316   3.548   4.823
 7150TIP3   OH221413   0.629   4.597   3.981
 7150TIP3    H121414   0.549   4.580   4.030
 7150TIP3    H221415   0.642   4.520   3.927
 7151TIP3   OH221416   6.371   6.274   5.354
 7151TIP3    H121417   6.301   6.245   5.296
 7151TIP3    H221418   6.350   6.234   5.439
 7152TIP3   OH221419   0.477   4.024   4.413
 7152TIP3    H121420   0.558   4.005   4.366
 7152TIP3    H221421   0.447   3.938   4.444
 7153TIP3   OH221422   4.857   0.029   0.743
 7153TIP3    H121423   4.934   0.040   0.799
 7153TIP3    H221424   4.893   0.032   0.654
 7154TIP3   OH221425   7.062   0.032   2.024
 7154TIP3    H121426   7.153   0.062   2.030
 7154TIP3    H221427   7.069  -0.063   2.015
 7155TIP3   OH221428   1.459   2.029   0.515
 7155TIP3    H121429   1.505   1.947   0.495
 7155TIP3    H221430   1.466   2.080   0.434
 7156TIP3   OH221431   2.713   5.088   1.034
 7156TIP3    H121432   2.709   5.159   1.097
 7156TIP3    H221433   2.750   5.014   1.082
 7157TIP3   OH221434   0.210   5.030   0.416
 7157TIP3    H121435   0.134   5.088   0.418
 7157TIP3    H221436   0.285   5.088   0.426
 7158TIP3   OH221437   5.139   6.288   2.021
 7158TIP3    H121438   5.087   6.340   2.083
 7158TIP3    H221439   5.229   6.317   2.035
 7159TIP3   OH221440   5.045   4.215   3.673
 7159TIP3    H121441   5.115   4.198   3.736
 7159TIP3    H221442   5.014   4.128   3.648
 7160TIP3   OH221443   0.611   6.660   4.846
 7160TIP3    H121444   0.565   6.722   4.903
 7160TIP3    H221445   0.649   6.596   4.906
 7161TIP3   OH221446   4.304   5.063   1.544
 7161TIP3    H121447   4.379   5.019   1.584
 7161TIP3    H221448   4.324   5.065   1.450
 7162TIP3   OH221449   2.205   0.327   3.341
 7162TIP3    H121450   2.240   0.344   3.428
 7162TIP3    H221451   2.114   0.302   3.356
 7163TIP3   OH221452   0.443   5.687   5.282
 7163TIP3    H121453   0.443   5.708   5.189
 7163TIP3    H221454   0.457   5.771   5.325
 7164TIP3   OH221455   2.384   0.134   3.296
 7164TIP3    H121456   2.335   0.052   3.304
 7164TIP3    H221457   2.316   0.201   3.283
 7165TIP3   OH221458   2.513   2.419   2.674
 7165TIP3    H121459   2.596   2.421   2.722
 7165TIP3    H221460   2.538   2.422   2.582
 7166TIP3   OH221461   4.531   5.671   0.405
 7166TIP3    H121462   4.464   5.681   0.473
 7166TIP3    H221463   4.491   5.708   0.326
 7167TIP3   OH221464   4.823   0.010   4.639
 7167TIP3    H121465   4.765   0.022   4.564
 7167TIP3    H221466   4.765   0.006   4.715
 7168TIP3   OH221467   2.588   1.646   4.147
 7168TIP3    H121468   2.501   1.669   4.114
 7168TIP3    H221469   2.596   1.553   4.128
 7169TIP3   OH221470   4.992   6.502   3.869
 7169TIP3    H121471   4.948   6.441   3.927
 7169TIP3    H221472   5.023   6.448   3.796
 7170TIP3   OH221473   0.647   6.771   2.541
 7170TIP3    H121474   0.681   6.856   2.566
 7170TIP3    H221475   0.676   6.760   2.450
 7171TIP3   OH221476   0.966   2.227   2.061
 7171TIP3    H121477   1.016   2.226   1.980
 7171TIP3    H221478   0.883   2.270   2.038
 7172TIP3   OH221479   2.059   6.008   3.525
 7172TIP3    H121480   2.145   6.042   3.499
 7172TIP3    H221481   1.997   6.069   3.485
 7173TIP3   OH221482   3.141   0.903   2.615
 7173TIP3    H121483   3.226   0.943   2.631
 7173TIP3    H221484   3.079   0.955   2.665
 7174TIP3   OH221485   6.808   4.102   2.648
 7174TIP3    H121486   6.852   4.021   2.621
 7174TIP3    H221487   6.862   4.172   2.611
 7175TIP3   OH221488   0.519   0.998   2.406
 7175TIP3    H121489   0.561   1.032   2.326
 7175TIP3    H221490   0.515   0.904   2.392
 7176TIP3   OH221491   2.432   2.043   3.536
 7176TIP3    H121492   2.478   2.052   3.453
 7176TIP3    H221493   2.371   2.116   3.538
 7177TIP3   OH221494   1.209   3.971   0.848
 7177TIP3    H121495   1.250   4.056   0.829
 7177TIP3    H221496   1.117   3.992   0.865
 7178TIP3   OH221497   6.126   0.457   2.414
 7178TIP3    H121498   6.047   0.444   2.466
 7178TIP3    H221499   6.188   0.497   2.474
 7179TIP3   OH221500   6.252   2.669   2.508
 7179TIP3    H121501   6.347   2.666   2.493
 7179TIP3    H221502   6.214   2.672   2.420
 7180TIP3   OH221503   0.291   1.175   1.211
 7180TIP3    H121504   0.316   1.103   1.153
 7180TIP3    H221505   0.264   1.131   1.292
 7181TIP3   OH221506   7.196   6.541   5.488
 7181TIP3    H121507   7.142   6.590   5.551
 7181TIP3    H221508   7.141   6.465   5.464
 7182TIP3   OH221509   0.111   5.081   4.644
 7182TIP3    H121510   0.145   4.993   4.663
 7182TIP3    H221511   0.139   5.098   4.554
 7183TIP3   OH221512   4.849   2.834   2.627
 7183TIP3    H121513   4.826   2.773   2.557
 7183TIP3    H221514   4.805   2.915   2.604
 7184TIP3   OH221515   0.550   2.210   5.706
 7184TIP3    H121516   0.575   2.253   5.625
 7184TIP3    H221517   0.567   2.117   5.690
 7185TIP3   OH221518   2.287   6.191   3.202
 7185TIP3    H121519   2.197   6.202   3.171
 7185TIP3    H221520   2.281   6.205   3.297
 7186TIP3   OH221521   4.025   5.098   3.490
 7186TIP3    H121522   4.050   5.031   3.428
 7186TIP3    H221523   4.102   5.154   3.499
 7187TIP3   OH221524   0.875   6.261   4.228
 7187TIP3    H121525   0.966   6.288   4.242
 7187TIP3    H221526   0.865   6.183   4.283
 7188TIP3   OH221527   0.112   1.434   0.079
 7188TIP3    H121528   0.086   1.426  -0.013
 7188TIP3    H221529   0.076   1.519   0.106
 7189TIP3   OH221530   1.156   4.106   5.333
 7189TIP3    H121531   1.087   4.046   5.306
 7189TIP3    H221532   1.190   4.068   5.414
 7190TIP3   OH221533   0.665   5.500   3.831
 7190TIP3    H121534   0.601   5.560   3.870
 7190TIP3    H221535   0.613   5.425   3.802
 7191TIP3   OH221536   1.165   4.067   4.169
 7191TIP3    H121537   1.166   4.046   4.076
 7191TIP3    H221538   1.232   4.011   4.208
 7192TIP3   OH221539   3.634   2.606   1.288
 7192TIP3    H121540   3.625   2.698   1.261
 7192TIP3    H221541   3.651   2.559   1.206
 7193TIP3   OH221542   1.183   5.737   0.190
 7193TIP3    H121543   1.271   5.706   0.211
 7193TIP3    H221544   1.190   5.833   0.191
 7194TIP3   OH221545   2.836   2.274   4.041
 7194TIP3    H121546   2.871   2.228   3.965
 7194TIP3    H221547   2.839   2.367   4.017
 7195TIP3   OH221548   0.425   2.401   3.641
 7195TIP3    H121549   0.517   2.376   3.642
 7195TIP3    H221550   0.399   2.403   3.734
 7196TIP3   OH221551   5.812   0.981   3.224
 7196TIP3    H121552   5.788   1.048   3.161
 7196TIP3    H221553   5.740   0.980   3.287
 7197TIP3   OH221554   6.505   3.147   1.513
 7197TIP3    H121555   6.536   3.057   1.501
 7197TIP3    H221556   6.585   3.199   1.517
 7198TIP3   OH221557   6.357   0.325   3.996
 7198TIP3    H121558   6.441   0.286   3.975
 7198TIP3    H221559   6.293   0.280   3.941
 7199TIP3   OH221560   5.894   2.981   2.716
 7199TIP3    H121561   5.828   2.917   2.692
 7199TIP3    H221562   5.951   2.986   2.640
 7200TIP3   OH221563   0.924   4.958   5.002
 7200TIP3    H121564   0.880   4.878   4.976
 7200TIP3    H221565   0.954   4.940   5.092
 7201TIP3   OH221566   0.808   3.428   3.335
 7201TIP3    H121567   0.790   3.334   3.340
 7201TIP3    H221568   0.761   3.457   3.257
 7202TIP3   OH221569   5.594   4.941   0.055
 7202TIP3    H121570   5.664   4.942  -0.011
 7202TIP3    H221571   5.514   4.960   0.004
 7203TIP3   OH221572   1.031   3.321   0.128
 7203TIP3    H121573   1.083   3.362   0.197
 7203TIP3    H221574   0.977   3.257   0.173
 7204TIP3   OH221575   6.601   3.651   0.231
 7204TIP3    H121576   6.590   3.681   0.321
 7204TIP3    H221577   6.645   3.566   0.239
 7205TIP3   OH221578   2.373   1.866   5.563
 7205TIP3    H121579   2.406   1.778   5.581
 7205TIP3    H221580   2.397   1.917   5.641
 7206TIP3   OH221581   2.040   2.322   0.563
 7206TIP3    H121582   2.054   2.364   0.648
 7206TIP3    H221583   2.036   2.229   0.583
 7207TIP3   OH221584   3.903   0.263   4.263
 7207TIP3    H121585   3.843   0.319   4.213
 7207TIP3    H221586   3.989   0.280   4.224
 7208TIP3   OH221587   1.917   1.086   1.799
 7208TIP3    H121588   1.882   1.162   1.847
 7208TIP3    H221589   1.892   1.103   1.708
 7209TIP3   OH221590   3.719   6.385   3.630
 7209TIP3    H121591   3.813   6.369   3.636
 7209TIP3    H221592   3.711   6.479   3.617
 7210TIP3   OH221593   1.396   1.135   1.988
 7210TIP3    H121594   1.336   1.183   2.046
 7210TIP3    H221595   1.395   1.045   2.022
 7211TIP3   OH221596   6.702   1.441   3.068
 7211TIP3    H121597   6.770   1.490   3.021
 7211TIP3    H221598   6.620   1.479   3.036
 7212TIP3   OH221599   0.419   6.748   3.320
 7212TIP3    H121600   0.514   6.761   3.325
 7212TIP3    H221601   0.383   6.836   3.331
 7213TIP3   OH221602   0.359   3.640   2.723
 7213TIP3    H121603   0.444   3.683   2.722
 7213TIP3    H221604   0.374   3.558   2.771
 7214TIP3   OH221605   5.726   3.635   5.085
 7214TIP3    H121606   5.806   3.619   5.035
 7214TIP3    H221607   5.752   3.622   5.176
 7215TIP3   OH221608   1.084   2.032   0.232
 7215TIP3    H121609   1.006   2.019   0.179
 7215TIP3    H221610   1.120   2.115   0.202
 7216TIP3   OH221611   7.002   6.039   5.239
 7216TIP3    H121612   6.961   6.030   5.325
 7216TIP3    H221613   7.024   6.132   5.233
 7217TIP3   OH221614   1.591   6.685   4.379
 7217TIP3    H121615   1.682   6.659   4.362
 7217TIP3    H221616   1.541   6.603   4.374
 7218TIP3   OH221617   2.267   4.675   5.818
 7218TIP3    H121618   2.318   4.617   5.761
 7218TIP3    H221619   2.287   4.763   5.787
 7219TIP3   OH221620   3.639   0.202   1.646
 7219TIP3    H121621   3.729   0.195   1.676
 7219TIP3    H221622   3.645   0.251   1.564
 7220TIP3   OH221623   3.626   1.842   4.723
 7220TIP3    H121624   3.684   1.774   4.757
 7220TIP3    H221625   3.558   1.794   4.676
 7221TIP3   OH221626   1.437   6.464   4.357
 7221TIP3    H121627   1.426   6.394   4.292
 7221TIP3    H221628   1.356   6.463   4.407
 7222TIP3   OH221629   0.952   4.612   4.360
 7222TIP3    H121630   0.964   4.602   4.266
 7222TIP3    H221631   1.039   4.633   4.393
 7223TIP3   OH221632   2.692   2.579   4.221
 7223TIP3    H121633   2.750   2.639   4.174
 7223TIP3    H221634   2.618   2.634   4.247
 7224TIP3   OH221635   0.443   0.336   0.129
 7224TIP3    H121636   0.455   0.246   0.158
 7224TIP3    H221637   0.532   0.372   0.124
 7225TIP3   OH221638   3.711   0.021   4.993
 7225TIP3    H121639   3.706   0.112   4.964
 7225TIP3    H221640   3.647  -0.025   4.938
 7226TIP3   OH221641   0.402   3.294   3.508
 7226TIP3    H121642   0.451   3.270   3.586
 7226TIP3    H221643   0.454   3.364   3.467
 7227TIP3   OH221644   4.268   2.591   4.995
 7227TIP3    H121645   4.286   2.670   5.047
 7227TIP3    H221646   4.173   2.584   4.996
 7228TIP3   OH221647   5.636   0.660   4.152
 7228TIP3    H121648   5.667   0.747   4.174
 7228TIP3    H221649   5.591   0.671   4.068
 7229TIP3   OH221650   3.194   5.392   5.159
 7229TIP3    H121651   3.266   5.397   5.096
 7229TIP3    H221652   3.228   5.436   5.237
 7230TIP3   OH221653   4.297   6.665   4.111
 7230TIP3    H121654   4.327   6.714   4.034
 7230TIP3    H221655   4.209   6.698   4.128
 7231TIP3   OH221656   5.115   6.757   1.415
 7231TIP3    H121657   5.044   6.694   1.403
 7231TIP3    H221658   5.195   6.708   1.397
 7232TIP3   OH221659   7.257   4.406   3.186
 7232TIP3    H121660   7.186   4.383   3.125
 7232TIP3    H221661   7.244   4.347   3.260
 7233TIP3   OH221662   5.426   4.628   2.491
 7233TIP3    H121663   5.479   4.564   2.537
 7233TIP3    H221664   5.381   4.677   2.560
 7234TIP3   OH221665   0.191   0.920   4.007
 7234TIP3    H121666   0.238   0.995   4.045
 7234TIP3    H221667   0.205   0.849   4.070
 7235TIP3   OH221668   5.875   3.608   3.641
 7235TIP3    H121669   5.921   3.568   3.714
 7235TIP3    H221670   5.788   3.627   3.675
 7236TIP3   OH221671   0.914   2.310   0.938
 7236TIP3    H121672   0.973   2.239   0.915
 7236TIP3    H221673   0.845   2.269   0.991
 7237TIP3   OH221674   3.123   0.673   3.033
 7237TIP3    H121675   3.208   0.656   2.992
 7237TIP3    H221676   3.141   0.672   3.127
 7238TIP3   OH221677   0.595   0.084   1.622
 7238TIP3    H121678   0.669   0.138   1.593
 7238TIP3    H221679   0.541   0.144   1.673
 7239TIP3   OH221680   2.620   4.427   0.060
 7239TIP3    H121681   2.577   4.354   0.105
 7239TIP3    H221682   2.676   4.385  -0.006
 7240TIP3   OH221683   4.181   0.381   5.336
 7240TIP3    H121684   4.208   0.339   5.418
 7240TIP3    H221685   4.177   0.309   5.273
 7241TIP3   OH221686   5.972   4.487   3.960
 7241TIP3    H121687   5.956   4.560   3.901
 7241TIP3    H221688   5.934   4.411   3.916
 7242TIP3   OH221689   4.659   5.843   1.331
 7242TIP3    H121690   4.699   5.834   1.245
 7242TIP3    H221691   4.698   5.923   1.367
 7243TIP3   OH221692   4.950   3.019   4.190
 7243TIP3    H121693   4.868   2.971   4.203
 7243TIP3    H221694   4.927   3.091   4.132
 7244TIP3   OH221695   3.727   3.948   5.287
 7244TIP3    H121696   3.691   4.022   5.336
 7244TIP3    H221697   3.650   3.896   5.263
 7245TIP3   OH221698   1.380   0.702   5.044
 7245TIP3    H121699   1.305   0.653   5.010
 7245TIP3    H221700   1.367   0.791   5.011
 7246TIP3   OH221701   7.188   1.321   3.501
 7246TIP3    H121702   7.121   1.297   3.565
 7246TIP3    H221703   7.195   1.245   3.443
 7247TIP3   OH221704   2.447   5.750   2.361
 7247TIP3    H121705   2.434   5.819   2.296
 7247TIP3    H221706   2.463   5.798   2.443
 7248TIP3   OH221707   2.126   6.562   3.214
 7248TIP3    H121708   2.087   6.478   3.190
 7248TIP3    H221709   2.183   6.542   3.289
 7249TIP3   OH221710   4.843   0.574   1.103
 7249TIP3    H121711   4.797   0.516   1.164
 7249TIP3    H221712   4.776   0.598   1.038
 7250TIP3   OH221713   5.817   6.678   1.385
 7250TIP3    H121714   5.804   6.584   1.374
 7250TIP3    H221715   5.866   6.685   1.467
 7251TIP3   OH221716   1.459   4.608   3.700
 7251TIP3    H121717   1.459   4.607   3.605
 7251TIP3    H221718   1.385   4.552   3.725
 7252TIP3   OH221719   5.949   2.585   3.737
 7252TIP3    H121720   5.923   2.551   3.651
 7252TIP3    H221721   5.921   2.677   3.736
 7253TIP3   OH221722   6.147   3.156   5.523
 7253TIP3    H121723   6.210   3.223   5.496
 7253TIP3    H221724   6.201   3.080   5.544
 7254TIP3   OH221725   2.134   6.540   0.858
 7254TIP3    H121726   2.165   6.630   0.867
 7254TIP3    H221727   2.039   6.546   0.872
 7255TIP3   OH221728   2.415   4.588   1.507
 7255TIP3    H121729   2.345   4.536   1.547
 7255TIP3    H221730   2.396   4.678   1.534
 7256TIP3   OH221731   2.338   3.248   2.239
 7256TIP3    H121732   2.254   3.294   2.233
 7256TIP3    H221733   2.379   3.284   2.318
 7257TIP3   OH221734   5.074   3.271   0.217
 7257TIP3    H121735   5.068   3.176   0.215
 7257TIP3    H221736   5.079   3.297   0.125
 7258TIP3   OH221737   3.195   4.509   0.294
 7258TIP3    H121738   3.156   4.528   0.379
 7258TIP3    H221739   3.163   4.421   0.271
 7259TIP3   OH221740   1.642   3.073   5.742
 7259TIP3    H121741   1.694   3.053   5.665
 7259TIP3    H221742   1.587   2.996   5.754
 7260TIP3   OH221743   1.080   5.457   1.185
 7260TIP3    H121744   1.056   5.453   1.093
 7260TIP3    H221745   1.000   5.486   1.230
 7261TIP3   OH221746   4.023   1.141   0.977
 7261TIP3    H121747   3.946   1.092   0.947
 7261TIP3    H221748   3.989   1.196   1.048
 7262TIP3   OH221749   3.676   3.255   5.835
 7262TIP3    H121750   3.707   3.200   5.763
 7262TIP3    H221751   3.729   3.229   5.910
 7263TIP3   OH221752   5.678   0.577   5.849
 7263TIP3    H121753   5.675   0.515   5.777
 7263TIP3    H221754   5.609   0.548   5.909
 7264TIP3   OH221755   6.887   3.377   0.619
 7264TIP3    H121756   6.824   3.447   0.630
 7264TIP3    H221757   6.972   3.418   0.634
 7265TIP3   OH221758   2.831   3.674   4.568
 7265TIP3    H121759   2.758   3.625   4.606
 7265TIP3    H221760   2.900   3.609   4.556
 7266TIP3   OH221761   2.939   1.404   4.095
 7266TIP3    H121762   3.009   1.355   4.138
 7266TIP3    H221763   2.958   1.496   4.115
 7267TIP3   OH221764   4.279   6.346   3.729
 7267TIP3    H121765   4.298   6.433   3.695
 7267TIP3    H221766   4.364   6.303   3.734
 7268TIP3   OH221767   1.393   1.066   5.373
 7268TIP3    H121768   1.308   1.103   5.397
 7268TIP3    H221769   1.427   1.126   5.306
 7269TIP3   OH221770   1.318   3.813   0.452
 7269TIP3    H121771   1.379   3.755   0.406
 7269TIP3    H221772   1.364   3.835   0.533
 7270TIP3   OH221773   4.740   1.328   4.557
 7270TIP3    H121774   4.778   1.411   4.586
 7270TIP3    H221775   4.751   1.329   4.462
 7271TIP3   OH221776   0.796   6.331   4.873
 7271TIP3    H121777   0.740   6.286   4.936
 7271TIP3    H221778   0.762   6.303   4.787
 7272TIP3   OH221779   5.026   4.637   1.542
 7272TIP3    H121780   5.000   4.688   1.620
 7272TIP3    H221781   5.014   4.546   1.568
 7273TIP3   OH221782   2.828   0.406   0.773
 7273TIP3    H121783   2.751   0.370   0.817
 7273TIP3    H221784   2.858   0.336   0.715
 7274TIP3   OH221785   5.748   0.221   2.807
 7274TIP3    H121786   5.748   0.291   2.873
 7274TIP3    H221787   5.783   0.145   2.853
 7275TIP3   OH221788   2.880   1.028   4.348
 7275TIP3    H121789   2.867   1.026   4.253
 7275TIP3    H221790   2.970   1.061   4.359
 7276TIP3   OH221791   4.237   1.483   2.355
 7276TIP3    H121792   4.325   1.519   2.346
 7276TIP3    H221793   4.239   1.402   2.304
 7277TIP3   OH221794   0.553   4.626   1.435
 7277TIP3    H121795   0.623   4.610   1.372
 7277TIP3    H221796   0.485   4.562   1.413
 7278TIP3   OH221797   4.565   4.854   0.077
 7278TIP3    H121798   4.652   4.870   0.114
 7278TIP3    H221799   4.581   4.845  -0.017
 7279TIP3   OH221800   2.760   1.480   3.776
 7279TIP3    H121801   2.764   1.470   3.681
 7279TIP3    H221802   2.850   1.469   3.805
 7280TIP3   OH221803   6.646   6.247   4.291
 7280TIP3    H121804   6.655   6.342   4.296
 7280TIP3    H221805   6.651   6.228   4.197
 7281TIP3   OH221806   0.243   5.840   1.976
 7281TIP3    H121807   0.221   5.846   1.883
 7281TIP3    H221808   0.267   5.930   2.000
 7282TIP3   OH221809   3.173   2.991   4.613
 7282TIP3    H121810   3.163   3.067   4.670
 7282TIP3    H221811   3.104   3.001   4.547
 7283TIP3   OH221812   6.920   2.822   2.349
 7283TIP3    H121813   6.921   2.726   2.347
 7283TIP3    H221814   6.995   2.848   2.295
 7284TIP3   OH221815   6.129   3.247   5.779
 7284TIP3    H121816   6.118   3.229   5.685
 7284TIP3    H221817   6.210   3.202   5.802
 7285TIP3   OH221818   6.804   3.964   1.391
 7285TIP3    H121819   6.762   4.045   1.361
 7285TIP3    H221820   6.892   3.991   1.416
 7286TIP3   OH221821   3.231   1.044   5.499
 7286TIP3    H121822   3.210   1.090   5.417
 7286TIP3    H221823   3.146   1.011   5.530
 7287TIP3   OH221824   6.971   6.201   3.579
 7287TIP3    H121825   7.048   6.156   3.545
 7287TIP3    H221826   6.909   6.130   3.599
 7288TIP3   OH221827   1.842   2.160   2.027
 7288TIP3    H121828   1.927   2.188   2.062
 7288TIP3    H221829   1.862   2.127   1.939
 7289TIP3   OH221830   3.210   6.231   4.795
 7289TIP3    H121831   3.191   6.143   4.761
 7289TIP3    H221832   3.244   6.279   4.720
 7290TIP3   OH221833   4.861   3.845   3.030
 7290TIP3    H121834   4.825   3.904   2.964
 7290TIP3    H221835   4.802   3.770   3.031
 7291TIP3   OH221836   6.496   4.297   0.216
 7291TIP3    H121837   6.561   4.334   0.156
 7291TIP3    H221838   6.412   4.329   0.183
 7292TIP3   OH221839   4.616   0.032   1.451
 7292TIP3    H121840   4.708   0.060   1.455
 7292TIP3    H221841   4.587   0.031   1.542
 7293TIP3   OH221842   5.261   3.992   2.187
 7293TIP3    H121843   5.329   3.943   2.141
 7293TIP3    H221844   5.305   4.070   2.221
 7294TIP3   OH221845   3.504   0.064   3.810
 7294TIP3    H121846   3.494   0.138   3.870
 7294TIP3    H221847   3.418   0.055   3.769
 7295TIP3   OH221848   4.381   6.795   5.722
 7295TIP3    H121849   4.311   6.794   5.788
 7295TIP3    H221850   4.336   6.816   5.640
 7296TIP3   OH221851   2.682   1.785   5.792
 7296TIP3    H121852   2.661   1.767   5.883
 7296TIP3    H221853   2.637   1.867   5.772
 7297TIP3   OH221854   6.801   0.578   5.295
 7297TIP3    H121855   6.804   0.660   5.246
 7297TIP3    H221856   6.892   0.562   5.320
 7298TIP3   OH221857   0.257   1.294   4.454
 7298TIP3    H121858   0.327   1.358   4.465
 7298TIP3    H221859   0.256   1.245   4.536
 7299TIP3   OH221860   3.838   3.237   0.120
 7299TIP3    H121861   3.866   3.154   0.083
 7299TIP3    H221862   3.805   3.216   0.207
 7300TIP3   OH221863   5.956   4.265   4.942
 7300TIP3    H121864   5.976   4.176   4.912
 7300TIP3    H221865   5.913   4.306   4.867
 7301TIP3   OH221866   3.741   1.176   1.862
 7301TIP3    H121867   3.713   1.249   1.918
 7301TIP3    H221868   3.677   1.174   1.791
 7302TIP3   OH221869   1.119   0.767   0.773
 7302TIP3    H121870   1.088   0.852   0.805
 7302TIP3    H221871   1.201   0.752   0.821
 7303TIP3   OH221872   6.494   4.963   2.232
 7303TIP3    H121873   6.490   5.054   2.261
 7303TIP3    H221874   6.413   4.949   2.183
 7304TIP3   OH221875   5.528   3.369   1.999
 7304TIP3    H121876   5.564   3.296   1.949
 7304TIP3    H221877   5.498   3.330   2.081
 7305TIP3   OH221878   4.607   6.140   1.120
 7305TIP3    H121879   4.513   6.135   1.133
 7305TIP3    H221880   4.621   6.115   1.029
 7306TIP3   OH221881   4.943   2.142   2.507
 7306TIP3    H121882   5.037   2.133   2.526
 7306TIP3    H221883   4.939   2.211   2.440
 7307TIP3   OH221884   5.371   2.580   2.175
 7307TIP3    H121885   5.299   2.618   2.126
 7307TIP3    H221886   5.445   2.580   2.114
 7308TIP3   OH221887   5.020   5.847   3.802
 7308TIP3    H121888   5.029   5.943   3.795
 7308TIP3    H221889   4.962   5.834   3.877
 7309TIP3   OH221890   5.829   0.864   4.734
 7309TIP3    H121891   5.746   0.906   4.758
 7309TIP3    H221892   5.857   0.909   4.654
 7310TIP3   OH221893   5.494   1.577   5.755
 7310TIP3    H121894   5.447   1.493   5.755
 7310TIP3    H221895   5.556   1.569   5.827
 7311TIP3   OH221896   0.954   5.816   1.547
 7311TIP3    H121897   0.887   5.873   1.586
 7311TIP3    H221898   0.963   5.744   1.609
 7312TIP3   OH221899   1.721   1.582   3.244
 7312TIP3    H121900   1.717   1.535   3.160
 7312TIP3    H221901   1.716   1.675   3.220
 7313TIP3   OH221902   2.365   1.144   3.886
 7313TIP3    H121903   2.328   1.142   3.975
 7313TIP3    H221904   2.399   1.232   3.876
 7314TIP3   OH221905   4.578   4.579   0.082
 7314TIP3    H121906   4.556   4.668   0.109
 7314TIP3    H221907   4.594   4.532   0.164
 7315TIP3   OH221908   0.651   6.249   4.654
 7315TIP3    H121909   0.637   6.310   4.582
 7315TIP3    H221910   0.570   6.200   4.661
 7316TIP3   OH221911   6.712   6.574   1.904
 7316TIP3    H121912   6.694   6.563   1.811
 7316TIP3    H221913   6.724   6.485   1.937
 7317TIP3   OH221914   1.972   1.526   0.758
 7317TIP3    H121915   1.990   1.598   0.818
 7317TIP3    H221916   1.911   1.470   0.806
 7318TIP3   OH221917   2.492   4.353   0.405
 7318TIP3    H121918   2.574   4.403   0.410
 7318TIP3    H221919   2.441   4.383   0.481
 7319TIP3   OH221920   6.204   4.775   3.557
 7319TIP3    H121921   6.225   4.866   3.580
 7319TIP3    H221922   6.287   4.728   3.568
 7320TIP3   OH221923   5.004   0.653   4.928
 7320TIP3    H121924   4.966   0.690   5.008
 7320TIP3    H221925   4.973   0.710   4.859
 7321TIP3   OH221926   4.080   1.530   1.108
 7321TIP3    H121927   4.039   1.567   1.186
 7321TIP3    H221928   4.049   1.440   1.104
 7322TIP3   OH221929   4.402   2.510   3.966
 7322TIP3    H121930   4.448   2.520   4.050
 7322TIP3    H221931   4.338   2.581   3.966
 7323TIP3   OH221932   6.700   6.194   0.852
 7323TIP3    H121933   6.783   6.201   0.805
 7323TIP3    H221934   6.710   6.119   0.910
 7324TIP3   OH221935   5.895   3.421   1.786
 7324TIP3    H121936   5.843   3.408   1.865
 7324TIP3    H221937   5.852   3.368   1.719
 7325TIP3   OH221938   3.996   1.858   4.627
 7325TIP3    H121939   4.033   1.774   4.652
 7325TIP3    H221940   3.956   1.843   4.541
 7326TIP3   OH221941   2.697   0.793   3.492
 7326TIP3    H121942   2.746   0.721   3.453
 7326TIP3    H221943   2.685   0.855   3.420
 7327TIP3   OH221944   3.594   5.312   1.166
 7327TIP3    H121945   3.557   5.326   1.254
 7327TIP3    H221946   3.675   5.263   1.182
 7328TIP3   OH221947   6.222   0.722   0.137
 7328TIP3    H121948   6.149   0.778   0.161
 7328TIP3    H221949   6.257   0.691   0.221
 7329TIP3   OH221950   1.862   1.652   1.936
 7329TIP3    H121951   1.850   1.583   2.001
 7329TIP3    H221952   1.834   1.732   1.980
 7330TIP3   OH221953   2.981   6.661   5.107
 7330TIP3    H121954   2.953   6.684   5.195
 7330TIP3    H221955   3.032   6.736   5.078
 7331TIP3   OH221956   0.167   0.386   4.927
 7331TIP3    H121957   0.231   0.335   4.877
 7331TIP3    H221958   0.085   0.375   4.880
 7332TIP3   OH221959   5.834   2.773   1.812
 7332TIP3    H121960   5.828   2.812   1.899
 7332TIP3    H221961   5.832   2.848   1.752
 7333TIP3   OH221962   0.195   5.101   4.366
 7333TIP3    H121963   0.174   5.053   4.286
 7333TIP3    H221964   0.188   5.193   4.342
 7334TIP3   OH221965   2.209   3.120   5.808
 7334TIP3    H121966   2.277   3.093   5.870
 7334TIP3    H221967   2.134   3.063   5.829
 7335TIP3   OH221968   6.427   0.594   5.063
 7335TIP3    H121969   6.470   0.606   5.148
 7335TIP3    H221970   6.487   0.537   5.014
 7336TIP3   OH221971   3.985   5.714   1.890
 7336TIP3    H121972   3.941   5.765   1.822
 7336TIP3    H221973   4.047   5.776   1.929
 7337TIP3   OH221974   4.033   6.813   4.135
 7337TIP3    H121975   3.969   6.744   4.153
 7337TIP3    H221976   3.990   6.894   4.164
 7338TIP3   OH221977   0.498   5.768   3.489
 7338TIP3    H121978   0.482   5.760   3.583
 7338TIP3    H221979   0.434   5.708   3.449
 7339TIP3   OH221980   6.536   2.746   2.793
 7339TIP3    H121981   6.626   2.721   2.811
 7339TIP3    H221982   6.500   2.673   2.744
 7340TIP3   OH221983   3.047   5.275   0.186
 7340TIP3    H121984   3.020   5.365   0.169
 7340TIP3    H221985   3.061   5.272   0.281
 7341TIP3   OH221986   6.315   5.018   1.594
 7341TIP3    H121987   6.238   5.039   1.540
 7341TIP3    H221988   6.352   5.104   1.616
 7342TIP3   OH221989   3.044   5.578   1.382
 7342TIP3    H121990   3.078   5.665   1.406
 7342TIP3    H221991   3.099   5.551   1.309
 7343TIP3   OH221992   3.221   1.449   5.105
 7343TIP3    H121993   3.220   1.520   5.169
 7343TIP3    H221994   3.159   1.477   5.037
 7344TIP3   OH221995   0.743   2.756   1.033
 7344TIP3    H121996   0.772   2.704   0.959
 7344TIP3    H221997   0.810   2.823   1.044
 7345TIP3   OH221998   1.613   0.135   2.363
 7345TIP3    H121999   1.634   0.214   2.413
 7345TIP3    H222000   1.518   0.125   2.372
 7346TIP3   OH222001   6.088   4.124   1.983
 7346TIP3    H122002   6.100   4.100   1.891
 7346TIP3    H222003   6.094   4.219   1.985
 7347TIP3   OH222004   3.903   3.303   1.395
 7347TIP3    H122005   3.898   3.220   1.348
 7347TIP3    H222006   3.857   3.287   1.477
 7348TIP3   OH222007   0.326   2.458   5.622
 7348TIP3    H122008   0.419   2.483   5.623
 7348TIP3    H222009   0.291   2.496   5.703
 7349TIP3   OH222010   1.948   3.427   3.893
 7349TIP3    H122011   2.035   3.420   3.932
 7349TIP3    H222012   1.964   3.440   3.799
 7350TIP3   OH222013   3.698   0.477   2.314
 7350TIP3    H122014   3.742   0.557   2.346
 7350TIP3    H222015   3.606   0.492   2.334
 7351TIP3   OH222016   5.497   3.079   0.236
 7351TIP3    H122017   5.457   3.164   0.257
 7351TIP3    H222018   5.489   3.072   0.141
 7352TIP3   OH222019   2.102   2.193   1.035
 7352TIP3    H122020   2.125   2.242   0.956
 7352TIP3    H222021   2.161   2.119   1.036
 7353TIP3   OH222022   6.174   6.208   5.166
 7353TIP3    H122023   6.121   6.150   5.221
 7353TIP3    H222024   6.113   6.275   5.136
 7354TIP3   OH222025   4.334   4.919   1.956
 7354TIP3    H122026   4.415   4.969   1.945
 7354TIP3    H222027   4.319   4.878   1.871
 7355TIP3   OH222028   4.010   4.470   0.838
 7355TIP3    H122029   4.072   4.475   0.765
 7355TIP3    H222030   3.977   4.380   0.836
 7356TIP3   OH222031   7.145   2.827   2.198
 7356TIP3    H122032   7.164   2.801   2.107
 7356TIP3    H222033   7.217   2.790   2.248
 7357TIP3   OH222034   5.273   4.628   5.599
 7357TIP3    H122035   5.245   4.581   5.678
 7357TIP3    H222036   5.314   4.561   5.544
 7358TIP3   OH222037   0.107   0.188   4.550
 7358TIP3    H122038   0.115   0.133   4.472
 7358TIP3    H222039   0.131   0.276   4.520
 7359TIP3   OH222040   3.742   5.140   3.541
 7359TIP3    H122041   3.828   5.119   3.505
 7359TIP3    H222042   3.732   5.081   3.615
 7360TIP3   OH222043   3.648   6.693   1.156
 7360TIP3    H122044   3.654   6.653   1.242
 7360TIP3    H222045   3.646   6.787   1.173
 7361TIP3   OH222046   5.404   4.505   0.854
 7361TIP3    H122047   5.475   4.495   0.791
 7361TIP3    H222048   5.349   4.575   0.818
 7362TIP3   OH222049   4.710   1.665   0.879
 7362TIP3    H122050   4.698   1.624   0.794
 7362TIP3    H222051   4.769   1.738   0.863
 7363TIP3   OH222052   1.538   5.448   0.487
 7363TIP3    H122053   1.575   5.385   0.549
 7363TIP3    H222054   1.613   5.497   0.454
 7364TIP3   OH222055   6.895   3.966   0.182
 7364TIP3    H122056   6.884   4.032   0.250
 7364TIP3    H222057   6.810   3.924   0.174
 7365TIP3   OH222058   6.375   2.163   5.176
 7365TIP3    H122059   6.391   2.219   5.251
 7365TIP3    H222060   6.365   2.075   5.213
 7366TIP3   OH222061   4.779   4.336   5.313
 7366TIP3    H122062   4.823   4.253   5.297
 7366TIP3    H222063   4.782   4.346   5.408
 7367TIP3   OH222064   3.030   2.185   0.699
 7367TIP3    H122065   2.955   2.133   0.726
 7367TIP3    H222066   2.995   2.247   0.635
 7368TIP3   OH222067   0.770   2.197   1.774
 7368TIP3    H122068   0.778   2.105   1.796
 7368TIP3    H222069   0.746   2.239   1.857
 7369TIP3   OH222070   1.882   6.845   4.927
 7369TIP3    H122071   1.813   6.779   4.921
 7369TIP3    H222072   1.964   6.794   4.928
 7370TIP3   OH222073   3.436   6.389   3.881
 7370TIP3    H122074   3.348   6.353   3.865
 7370TIP3    H222075   3.468   6.413   3.794
 7371TIP3   OH222076   1.812   2.807   4.001
 7371TIP3    H122077   1.832   2.857   3.922
 7371TIP3    H222078   1.728   2.765   3.982
 7372TIP3   OH222079   6.994   4.829   1.477
 7372TIP3    H122080   7.061   4.768   1.446
 7372TIP3    H222081   7.037   4.915   1.475
 7373TIP3   OH222082   3.248   5.726   1.530
 7373TIP3    H122083   3.326   5.741   1.477
 7373TIP3    H222084   3.264   5.643   1.574
 7374TIP3   OH222085   1.905   0.495   2.278
 7374TIP3    H122086   1.974   0.554   2.310
 7374TIP3    H222087   1.871   0.453   2.358
 7375TIP3   OH222088   6.492   3.774   2.764
 7375TIP3    H122089   6.422   3.734   2.815
 7375TIP3    H222090   6.561   3.794   2.828
 7376TIP3   OH222091   1.839   6.352   0.616
 7376TIP3    H122092   1.839   6.446   0.632
 7376TIP3    H222093   1.870   6.313   0.698
 7377TIP3   OH222094   1.012   1.529   0.966
 7377TIP3    H122095   1.062   1.456   0.930
 7377TIP3    H222096   0.974   1.572   0.889
 7378TIP3   OH222097   0.899   6.766   5.632
 7378TIP3    H122098   0.909   6.676   5.665
 7378TIP3    H222099   0.989   6.799   5.626
 7379TIP3   OH222100   4.296   0.248   0.062
 7379TIP3    H122101   4.391   0.245   0.055
 7379TIP3    H222102   4.277   0.218   0.151
 7380TIP3   OH222103   5.495   0.019   4.264
 7380TIP3    H122104   5.438   0.087   4.299
 7380TIP3    H222105   5.504   0.039   4.171
 7381TIP3   OH222106   6.689   1.814   2.712
 7381TIP3    H122107   6.748   1.878   2.752
 7381TIP3    H222108   6.744   1.736   2.698
 7382TIP3   OH222109   5.051   2.740   0.263
 7382TIP3    H122110   5.007   2.655   0.255
 7382TIP3    H222111   5.144   2.718   0.267
 7383TIP3   OH222112   2.636   4.447   3.401
 7383TIP3    H122113   2.591   4.514   3.350
 7383TIP3    H222114   2.668   4.384   3.337
 7384TIP3   OH222115   1.043   0.676   3.468
 7384TIP3    H122116   1.003   0.618   3.533
 7384TIP3    H222117   0.970   0.721   3.426
 7385TIP3   OH222118   6.744   2.418   5.009
 7385TIP3    H122119   6.709   2.437   5.096
 7385TIP3    H222120   6.669   2.387   4.960
 7386TIP3   OH222121   0.097   2.809   4.408
 7386TIP3    H122122   0.142   2.831   4.326
 7386TIP3    H222123   0.084   2.893   4.452
 7387TIP3   OH222124   6.422   4.277   1.221
 7387TIP3    H122125   6.389   4.188   1.235
 7387TIP3    H222126   6.359   4.334   1.266
 7388TIP3   OH222127   1.385   0.229   5.658
 7388TIP3    H122128   1.337   0.296   5.609
 7388TIP3    H222129   1.464   0.213   5.606
 7389TIP3   OH222130   5.651   6.782   4.863
 7389TIP3    H122131   5.572   6.754   4.817
 7389TIP3    H222132   5.675   6.707   4.917
 7390TIP3   OH222133   6.966   0.795   2.724
 7390TIP3    H122134   6.993   0.733   2.791
 7390TIP3    H222135   7.035   0.862   2.725
 7391TIP3   OH222136   1.554   0.774   4.061
 7391TIP3    H122137   1.510   0.850   4.097
 7391TIP3    H222138   1.575   0.799   3.971
 7392TIP3   OH222139   4.930   5.352   0.851
 7392TIP3    H122140   4.902   5.415   0.784
 7392TIP3    H222141   4.849   5.309   0.878
 7393TIP3   OH222142   5.833   5.267   3.564
 7393TIP3    H122143   5.800   5.280   3.476
 7393TIP3    H222144   5.899   5.334   3.575
 7394TIP3   OH222145   4.003   3.551   1.674
 7394TIP3    H122146   4.042   3.464   1.661
 7394TIP3    H222147   3.987   3.583   1.585
 7395TIP3   OH222148   4.265   0.792   1.689
 7395TIP3    H122149   4.290   0.777   1.780
 7395TIP3    H222150   4.243   0.885   1.685
 7396TIP3   OH222151   5.684   5.098   0.708
 7396TIP3    H122152   5.758   5.134   0.756
 7396TIP3    H222153   5.721   5.069   0.625
 7397TIP3   OH222154   1.500   4.039   5.448
 7397TIP3    H122155   1.477   4.032   5.356
 7397TIP3    H222156   1.442   4.108   5.482
 7398TIP3   OH222157   0.901   0.478   3.614
 7398TIP3    H122158   0.812   0.488   3.645
 7398TIP3    H222159   0.903   0.391   3.574
 7399TIP3   OH222160   5.017   3.512   4.925
 7399TIP3    H122161   4.988   3.485   5.012
 7399TIP3    H222162   5.105   3.476   4.917
 7400TIP3   OH222163   3.482   1.053   5.623
 7400TIP3    H122164   3.398   1.050   5.578
 7400TIP3    H222165   3.540   1.101   5.564
 7401TIP3   OH222166   0.807   5.869   4.264
 7401TIP3    H122167   0.900   5.851   4.278
 7401TIP3    H222168   0.790   5.947   4.317
 7402TIP3   OH222169   2.030   2.757   1.590
 7402TIP3    H122170   2.115   2.798   1.602
 7402TIP3    H222171   2.043   2.695   1.518
 7403TIP3   OH222172   6.508   0.641   4.056
 7403TIP3    H122173   6.589   0.632   4.005
 7403TIP3    H222174   6.438   0.628   3.992
 7404TIP3   OH222175   5.082   0.315   2.083
 7404TIP3    H122176   5.091   0.406   2.112
 7404TIP3    H222177   5.061   0.321   1.990
 7405TIP3   OH222178   2.974   1.023   5.020
 7405TIP3    H122179   3.052   1.061   4.980
 7405TIP3    H222180   2.965   0.937   4.978
 7406TIP3   OH222181   1.746   6.236   2.051
 7406TIP3    H122182   1.724   6.233   2.144
 7406TIP3    H222183   1.834   6.199   2.046
 7407TIP3   OH222184   6.091   5.740   2.280
 7407TIP3    H122185   6.051   5.725   2.366
 7407TIP3    H222186   6.184   5.756   2.299
 7408TIP3   OH222187   6.289   0.967   4.693
 7408TIP3    H122188   6.293   1.062   4.689
 7408TIP3    H222189   6.345   0.943   4.766
 7409TIP3   OH222190   5.117   2.911   2.641
 7409TIP3    H122191   5.038   2.860   2.624
 7409TIP3    H222192   5.112   2.985   2.579
 7410TIP3   OH222193   6.643   3.965   4.623
 7410TIP3    H122194   6.560   3.920   4.605
 7410TIP3    H222195   6.708   3.918   4.571
 7411TIP3   OH222196   0.471   3.120   5.672
 7411TIP3    H122197   0.566   3.111   5.677
 7411TIP3    H222198   0.444   3.135   5.762
 7412TIP3   OH222199   2.035   5.777   3.061
 7412TIP3    H122200   2.072   5.712   3.120
 7412TIP3    H222201   1.959   5.813   3.108
 7413TIP3   OH222202   2.580   5.755   3.621
 7413TIP3    H122203   2.485   5.758   3.615
 7413TIP3    H222204   2.599   5.668   3.657
 7414TIP3   OH222205   2.946   2.019   3.474
 7414TIP3    H122206   2.981   2.085   3.534
 7414TIP3    H222207   3.011   1.949   3.474
 7415TIP3   OH222208   4.559   2.729   1.032
 7415TIP3    H122209   4.599   2.688   0.955
 7415TIP3    H222210   4.496   2.792   0.996
 7416TIP3   OH222211   2.770   1.424   2.675
 7416TIP3    H122212   2.792   1.485   2.746
 7416TIP3    H222213   2.855   1.392   2.644
 7417TIP3   OH222214   2.435   0.412   2.923
 7417TIP3    H122215   2.427   0.507   2.924
 7417TIP3    H222216   2.510   0.395   2.867
 7418TIP3   OH222217   7.175   5.482   1.471
 7418TIP3    H122218   7.267   5.497   1.448
 7418TIP3    H222219   7.164   5.387   1.467
 7419TIP3   OH222220   4.809   2.715   3.339
 7419TIP3    H122221   4.727   2.669   3.321
 7419TIP3    H222222   4.783   2.807   3.348
 7420TIP3   OH222223   4.957   6.220   5.714
 7420TIP3    H122224   5.034   6.179   5.752
 7420TIP3    H222225   4.950   6.304   5.759
 7421TIP3   OH222226   4.591   0.708   3.633
 7421TIP3    H122227   4.643   0.628   3.642
 7421TIP3    H222228   4.503   0.684   3.664
 7422TIP3   OH222229   6.750   4.550   4.414
 7422TIP3    H122230   6.827   4.503   4.383
 7422TIP3    H222231   6.784   4.631   4.452
 7423TIP3   OH222232   0.425   5.028   4.518
 7423TIP3    H122233   0.427   4.940   4.481
 7423TIP3    H222234   0.357   5.073   4.467
 7424TIP3   OH222235   6.241   5.546   4.268
 7424TIP3    H122236   6.305   5.616   4.254
 7424TIP3    H222237   6.287   5.480   4.319
 7425TIP3   OH222238   1.992   6.184   5.339
 7425TIP3    H122239   1.900   6.194   5.318
 7425TIP3    H222240   2.011   6.254   5.402
 7426TIP3   OH222241   1.307   4.181   5.018
 7426TIP3    H122242   1.340   4.207   4.932
 7426TIP3    H222243   1.212   4.188   5.010
 7427TIP3   OH222244   2.754   5.947   4.765
 7427TIP3    H122245   2.809   6.025   4.779
 7427TIP3    H222246   2.813   5.883   4.726
 7428TIP3   OH222247   2.744   3.509   2.122
 7428TIP3    H122248   2.768   3.592   2.164
 7428TIP3    H222249   2.653   3.494   2.149
 7429TIP3   OH222250   3.629   6.450   1.741
 7429TIP3    H122251   3.602   6.487   1.825
 7429TIP3    H222252   3.704   6.394   1.762
 7430TIP3   OH222253   6.113   4.547   4.180
 7430TIP3    H122254   6.193   4.551   4.128
 7430TIP3    H222255   6.043   4.533   4.116
 7431TIP3   OH222256   3.940   4.912   4.000
 7431TIP3    H122257   3.946   5.006   4.017
 7431TIP3    H222258   3.997   4.898   3.925
 7432TIP3   OH222259   2.034   5.252   2.338
 7432TIP3    H122260   1.946   5.284   2.316
 7432TIP3    H222261   2.069   5.318   2.397
 7433TIP3   OH222262   4.001   0.921   1.157
 7433TIP3    H122263   3.963   0.971   1.229
 7433TIP3    H222264   4.027   0.986   1.092
 7434TIP3   OH222265   3.458   3.823   0.185
 7434TIP3    H122266   3.486   3.743   0.141
 7434TIP3    H222267   3.437   3.795   0.275
 7435TIP3   OH222268   6.894   5.411   0.526
 7435TIP3    H122269   6.851   5.447   0.603
 7435TIP3    H222270   6.872   5.317   0.528
 7436TIP3   OH222271   5.494   3.939   1.001
 7436TIP3    H122272   5.510   3.974   0.914
 7436TIP3    H222273   5.430   3.999   1.040
 7437TIP3   OH222274   2.877   3.489   5.802
 7437TIP3    H122275   2.815   3.456   5.868
 7437TIP3    H222276   2.903   3.575   5.835
 7438TIP3   OH222277   2.509   1.241   3.618
 7438TIP3    H122278   2.584   1.181   3.616
 7438TIP3    H222279   2.512   1.280   3.705
 7439TIP3   OH222280   2.207   4.682   4.860
 7439TIP3    H122281   2.294   4.651   4.834
 7439TIP3    H222282   2.224   4.757   4.916
 7440TIP3   OH222283   6.075   6.740   0.672
 7440TIP3    H122284   6.027   6.811   0.630
 7440TIP3    H222285   6.007   6.679   0.702
 7441TIP3   OH222286   3.174   5.981   4.692
 7441TIP3    H122287   3.204   5.896   4.725
 7441TIP3    H222288   3.125   5.960   4.612
 7442TIP3   OH222289   4.384   6.381   1.833
 7442TIP3    H122290   4.404   6.385   1.926
 7442TIP3    H222291   4.369   6.472   1.807
 7443TIP3   OH222292   2.185   3.807   4.381
 7443TIP3    H122293   2.140   3.799   4.297
 7443TIP3    H222294   2.222   3.719   4.396
 7444TIP3   OH222295   2.069   5.019   2.064
 7444TIP3    H122296   2.028   4.997   2.148
 7444TIP3    H222297   2.022   5.096   2.033
 7445TIP3   OH222298   3.994   4.389   3.093
 7445TIP3    H122299   4.052   4.314   3.105
 7445TIP3    H222300   3.944   4.394   3.175
 7446TIP3   OH222301   5.888   2.344   0.617
 7446TIP3    H122302   5.850   2.269   0.663
 7446TIP3    H222303   5.917   2.402   0.687
 7447TIP3   OH222304   6.416   5.576   0.872
 7447TIP3    H122305   6.412   5.670   0.890
 7447TIP3    H222306   6.392   5.535   0.954
 7448TIP3   OH222307   4.878   6.726   3.755
 7448TIP3    H122308   4.960   6.775   3.756
 7448TIP3    H222309   4.894   6.653   3.814
 7449TIP3   OH222310   0.550   3.409   4.451
 7449TIP3    H122311   0.493   3.343   4.492
 7449TIP3    H222312   0.490   3.471   4.411
 7450TIP3   OH222313   6.486   4.591   2.502
 7450TIP3    H122314   6.503   4.623   2.414
 7450TIP3    H222315   6.417   4.525   2.491
 7451TIP3   OH222316   4.049   5.034   0.163
 7451TIP3    H122317   4.073   4.943   0.146
 7451TIP3    H222318   4.095   5.084   0.096
 7452TIP3   OH222319   4.032   3.476   5.555
 7452TIP3    H122320   4.037   3.401   5.613
 7452TIP3    H222321   4.105   3.532   5.581
 7453TIP3   OH222322   3.372   1.558   5.732
 7453TIP3    H122323   3.417   1.595   5.656
 7453TIP3    H222324   3.418   1.476   5.749
 7454TIP3   OH222325   2.902   1.227   1.728
 7454TIP3    H122326   2.879   1.315   1.758
 7454TIP3    H222327   2.865   1.168   1.794
 7455TIP3   OH222328   0.464   1.446   1.672
 7455TIP3    H122329   0.539   1.397   1.704
 7455TIP3    H222330   0.431   1.394   1.598
 7456TIP3   OH222331   2.916   6.372   5.143
 7456TIP3    H122332   2.983   6.320   5.098
 7456TIP3    H222333   2.944   6.463   5.130
 7457TIP3   OH222334   6.992   4.165   4.626
 7457TIP3    H122335   7.078   4.206   4.634
 7457TIP3    H222336   7.011   4.071   4.628
 7458TIP3   OH222337   5.496   3.120   3.051
 7458TIP3    H122338   5.501   3.081   2.964
 7458TIP3    H222339   5.408   3.156   3.057
 7459TIP3   OH222340   1.777   1.973   1.168
 7459TIP3    H122341   1.722   2.012   1.100
 7459TIP3    H222342   1.715   1.949   1.237
 7460TIP3   OH222343   2.608   1.560   4.413
 7460TIP3    H122344   2.650   1.614   4.480
 7460TIP3    H222345   2.601   1.618   4.337
 7461TIP3   OH222346   2.802   1.540   5.727
 7461TIP3    H122347   2.790   1.490   5.808
 7461TIP3    H222348   2.755   1.622   5.743
 7462TIP3   OH222349   4.133   6.665   0.039
 7462TIP3    H122350   4.095   6.616  -0.034
 7462TIP3    H222351   4.086   6.748   0.040
 7463TIP3   OH222352   2.227   1.808   4.948
 7463TIP3    H122353   2.166   1.740   4.978
 7463TIP3    H222354   2.256   1.777   4.862
 7464TIP3   OH222355   5.641   2.080   0.301
 7464TIP3    H122356   5.556   2.060   0.262
 7464TIP3    H222357   5.630   2.169   0.336
 7465TIP3   OH222358   0.829   1.645   0.339
 7465TIP3    H122359   0.836   1.691   0.255
 7465TIP3    H222360   0.747   1.596   0.333
 7466TIP3   OH222361   1.765   0.395   3.945
 7466TIP3    H122362   1.844   0.446   3.929
 7466TIP3    H222363   1.761   0.333   3.872
 7467TIP3   OH222364   2.050   2.655   2.035
 7467TIP3    H122365   2.091   2.568   2.042
 7467TIP3    H222366   1.983   2.645   1.968
 7468TIP3   OH222367   1.115   1.445   1.352
 7468TIP3    H122368   1.085   1.429   1.441
 7468TIP3    H222369   1.056   1.512   1.318
 7469TIP3   OH222370   1.124   5.862   2.701
 7469TIP3    H122371   1.089   5.830   2.785
 7469TIP3    H222372   1.052   5.848   2.639
 7470TIP3   OH222373   6.834   0.673   3.247
 7470TIP3    H122374   6.829   0.747   3.187
 7470TIP3    H222375   6.808   0.709   3.332
 7471TIP3   OH222376   0.944   3.637   1.153
 7471TIP3    H122377   1.019   3.665   1.204
 7471TIP3    H222378   0.955   3.681   1.068
 7472TIP3   OH222379   3.879   0.036   0.114
 7472TIP3    H122380   3.796   0.075   0.088
 7472TIP3    H222381   3.934   0.043   0.035
 7473TIP3   OH222382   0.712   3.677   0.465
 7473TIP3    H122383   0.732   3.644   0.553
 7473TIP3    H222384   0.670   3.762   0.481
 7474TIP3   OH222385   1.159   2.250   1.847
 7474TIP3    H122386   1.237   2.304   1.860
 7474TIP3    H222387   1.166   2.219   1.756
 7475TIP3   OH222388   1.378   6.283   4.783
 7475TIP3    H122389   1.426   6.204   4.756
 7475TIP3    H222390   1.286   6.257   4.782
 7476TIP3   OH222391   0.721   1.207   0.299
 7476TIP3    H122392   0.629   1.182   0.303
 7476TIP3    H222393   0.743   1.232   0.389
 7477TIP3   OH222394   5.671   1.940   3.506
 7477TIP3    H122395   5.680   2.034   3.520
 7477TIP3    H222396   5.663   1.930   3.411
 7478TIP3   OH222397   2.777   1.190   1.972
 7478TIP3    H122398   2.819   1.225   2.051
 7478TIP3    H222399   2.746   1.103   1.998
 7479TIP3   OH222400   5.039   3.041   2.285
 7479TIP3    H122401   5.061   2.953   2.316
 7479TIP3    H222402   4.975   3.074   2.348
 7480TIP3   OH222403   4.281   2.854   4.712
 7480TIP3    H122404   4.202   2.810   4.745
 7480TIP3    H222405   4.353   2.795   4.737
 7481TIP3   OH222406   4.277   4.622   3.956
 7481TIP3    H122407   4.195   4.614   3.907
 7481TIP3    H222408   4.339   4.660   3.894
 7482TIP3   OH222409   6.840   2.049   0.980
 7482TIP3    H122410   6.877   2.095   0.905
 7482TIP3    H222411   6.814   1.963   0.947
 7483TIP3   OH222412   4.149   2.868   3.332
 7483TIP3    H122413   4.217   2.900   3.273
 7483TIP3    H222414   4.101   2.803   3.281
 7484TIP3   OH222415   6.555   0.271   1.464
 7484TIP3    H122416   6.615   0.243   1.533
 7484TIP3    H222417   6.604   0.338   1.416
 7485TIP3   OH222418   2.321   1.374   4.101
 7485TIP3    H122419   2.367   1.429   4.037
 7485TIP3    H222420   2.233   1.364   4.064
 7486TIP3   OH222421   1.835   0.064   1.059
 7486TIP3    H122422   1.868   0.126   1.124
 7486TIP3    H222423   1.898   0.068   0.987
 7487TIP3   OH222424   3.851   0.477   0.013
 7487TIP3    H122425   3.785   0.485  -0.056
 7487TIP3    H222426   3.839   0.555   0.066
 7488TIP3   OH222427   2.022   6.311   3.158
 7488TIP3    H122428   1.981   6.305   3.244
 7488TIP3    H222429   1.965   6.260   3.101
 7489TIP3   OH222430   6.461   3.858   4.304
 7489TIP3    H122431   6.541   3.811   4.331
 7489TIP3    H222432   6.480   3.950   4.325
 7490TIP3   OH222433   1.180   1.362   4.352
 7490TIP3    H122434   1.207   1.398   4.436
 7490TIP3    H222435   1.089   1.336   4.364
 7491TIP3   OH222436   3.895   5.210   4.900
 7491TIP3    H122437   3.836   5.236   4.970
 7491TIP3    H222438   3.969   5.270   4.909
 7492TIP3   OH222439   6.790   1.196   1.603
 7492TIP3    H122440   6.821   1.176   1.515
 7492TIP3    H222441   6.714   1.253   1.589
 7493TIP3   OH222442   4.194   1.888   2.691
 7493TIP3    H122443   4.159   1.959   2.638
 7493TIP3    H222444   4.130   1.877   2.762
 7494TIP3   OH222445   5.819   6.153   3.146
 7494TIP3    H122446   5.902   6.198   3.131
 7494TIP3    H222447   5.752   6.219   3.128
 7495TIP3   OH222448   2.322   0.436   1.159
 7495TIP3    H122449   2.265   0.471   1.227
 7495TIP3    H222450   2.410   0.442   1.196
 7496TIP3   OH222451   2.962   6.189   0.282
 7496TIP3    H122452   2.971   6.274   0.240
 7496TIP3    H222453   2.901   6.204   0.354
 7497TIP3   OH222454   2.437   4.963   3.917
 7497TIP3    H122455   2.413   5.028   3.983
 7497TIP3    H222456   2.487   4.897   3.966
 7498TIP3   OH222457   2.074   2.512   5.732
 7498TIP3    H122458   2.002   2.456   5.704
 7498TIP3    H222459   2.147   2.452   5.746
 7499TIP3   OH222460   4.326   2.167   2.819
 7499TIP3    H122461   4.266   2.120   2.877
 7499TIP3    H222462   4.410   2.166   2.865
 7500TIP3   OH222463   4.962   1.968   4.634
 7500TIP3    H122464   4.915   1.886   4.646
 7500TIP3    H222465   4.897   2.029   4.601
 7501TIP3   OH222466   5.992   0.595   4.484
 7501TIP3    H122467   5.898   0.591   4.465
 7501TIP3    H222468   5.997   0.590   4.580
 7502TIP3   OH222469   6.680   2.699   0.262
 7502TIP3    H122470   6.641   2.751   0.333
 7502TIP3    H222471   6.714   2.764   0.200
 7503TIP3   OH222472   1.804   4.806   1.963
 7503TIP3    H122473   1.778   4.894   1.993
 7503TIP3    H222474   1.751   4.747   2.017
 7504TIP3   OH222475   4.613   6.249   0.275
 7504TIP3    H122476   4.540   6.191   0.297
 7504TIP3    H222477   4.660   6.202   0.206
 7505TIP3   OH222478   6.708   0.255   4.457
 7505TIP3    H122479   6.732   0.316   4.387
 7505TIP3    H222480   6.615   0.273   4.472
 7506TIP3   OH222481   5.868   0.577   2.078
 7506TIP3    H122482   5.872   0.619   2.164
 7506TIP3    H222483   5.788   0.524   2.081
 7507TIP3   OH222484   6.757   6.016   5.102
 7507TIP3    H122485   6.849   6.004   5.126
 7507TIP3    H222486   6.728   6.089   5.156
 7508TIP3   OH222487   4.328   5.552   2.164
 7508TIP3    H122488   4.239   5.548   2.130
 7508TIP3    H222489   4.384   5.565   2.087
 7509TIP3   OH222490   2.030   5.321   4.581
 7509TIP3    H122491   2.093   5.252   4.563
 7509TIP3    H222492   1.973   5.284   4.648
 7510TIP3   OH222493   6.641   6.293   5.520
 7510TIP3    H122494   6.568   6.307   5.580
 7510TIP3    H222495   6.690   6.220   5.558
 7511TIP3   OH222496   7.016   1.757   1.653
 7511TIP3    H122497   7.038   1.665   1.671
 7511TIP3    H222498   7.030   1.767   1.559
 7512TIP3   OH222499   7.055   2.597   0.798
 7512TIP3    H122500   7.040   2.548   0.879
 7512TIP3    H222501   7.097   2.678   0.826
 7513TIP3   OH222502   1.424   3.254   4.738
 7513TIP3    H122503   1.355   3.305   4.695
 7513TIP3    H222504   1.477   3.219   4.666
 7514TIP3   OH222505   6.354   6.751   4.140
 7514TIP3    H122506   6.293   6.678   4.133
 7514TIP3    H222507   6.358   6.769   4.234
 7515TIP3   OH222508   1.192   1.816   3.973
 7515TIP3    H122509   1.116   1.869   3.996
 7515TIP3    H222510   1.171   1.729   4.007
 7516TIP3   OH222511   5.265   3.453   3.674
 7516TIP3    H122512   5.338   3.427   3.730
 7516TIP3    H222513   5.304   3.462   3.587
 7517TIP3   OH222514   2.921   1.610   0.701
 7517TIP3    H122515   2.902   1.686   0.757
 7517TIP3    H222516   3.017   1.608   0.696
 7518TIP3   OH222517   6.078   1.493   0.515
 7518TIP3    H122518   6.046   1.517   0.602
 7518TIP3    H222519   6.005   1.511   0.457
 7519TIP3   OH222520   0.879   6.195   0.049
 7519TIP3    H122521   0.833   6.125   0.002
 7519TIP3    H222522   0.939   6.232  -0.016
 7520TIP3   OH222523   3.818   5.013   3.151
 7520TIP3    H122524   3.753   5.003   3.220
 7520TIP3    H222525   3.814   4.930   3.102
 7521TIP3   OH222526   3.697   6.723   0.436
 7521TIP3    H122527   3.718   6.657   0.370
 7521TIP3    H222528   3.601   6.724   0.439
 7522TIP3   OH222529   2.196   4.384   5.669
 7522TIP3    H122530   2.167   4.369   5.759
 7522TIP3    H222531   2.281   4.427   5.679
 7523TIP3   OH222532   1.892   3.205   1.299
 7523TIP3    H122533   1.886   3.194   1.394
 7523TIP3    H222534   1.953   3.138   1.270
 7524TIP3   OH222535   6.750   4.620   4.780
 7524TIP3    H122536   6.825   4.678   4.767
 7524TIP3    H222537   6.779   4.535   4.747
 7525TIP3   OH222538   3.737   5.504   2.465
 7525TIP3    H122539   3.668   5.499   2.399
 7525TIP3    H222540   3.807   5.554   2.424
 7526TIP3   OH222541   2.756   4.226   0.300
 7526TIP3    H122542   2.672   4.185   0.279
 7526TIP3    H222543   2.759   4.303   0.244
 7527TIP3   OH222544   4.671   3.779   1.959
 7527TIP3    H122545   4.727   3.810   1.888
 7527TIP3    H222546   4.583   3.810   1.935
 7528TIP3   OH222547   4.137   5.054   5.787
 7528TIP3    H122548   4.229   5.076   5.773
 7528TIP3    H222549   4.110   5.108   5.861
 7529TIP3   OH222550   5.645   5.289   1.217
 7529TIP3    H122551   5.621   5.196   1.220
 7529TIP3    H222552   5.733   5.290   1.180
 7530TIP3   OH222553   1.349   6.498   1.750
 7530TIP3    H122554   1.422   6.461   1.798
 7530TIP3    H222555   1.352   6.592   1.769
 7531TIP3   OH222556   1.204   1.895   4.709
 7531TIP3    H122557   1.147   1.826   4.675
 7531TIP3    H222558   1.149   1.941   4.773
 7532TIP3   OH222559   4.324   6.107   2.944
 7532TIP3    H122560   4.251   6.095   2.883
 7532TIP3    H222561   4.324   6.200   2.963
 7533TIP3   OH222562   3.971   1.194   2.778
 7533TIP3    H122563   4.013   1.247   2.710
 7533TIP3    H222564   4.044   1.156   2.826
 7534TIP3   OH222565   4.789   1.465   5.302
 7534TIP3    H122566   4.828   1.468   5.214
 7534TIP3    H222567   4.816   1.548   5.343
 7535TIP3   OH222568   1.730   3.508   5.659
 7535TIP3    H122569   1.791   3.516   5.586
 7535TIP3    H222570   1.785   3.496   5.736
 7536TIP3   OH222571   1.780   4.261   0.223
 7536TIP3    H122572   1.716   4.213   0.171
 7536TIP3    H222573   1.730   4.328   0.269
 7537TIP3   OH222574   1.878   0.512   5.796
 7537TIP3    H122575   1.884   0.512   5.891
 7537TIP3    H222576   1.956   0.557   5.766
 7538TIP3   OH222577   7.003   0.030   0.065
 7538TIP3    H122578   6.920   0.066   0.097
 7538TIP3    H222579   6.990   0.017  -0.028
 7539TIP3   OH222580   0.941   4.487   1.786
 7539TIP3    H122581   0.957   4.553   1.853
 7539TIP3    H222582   0.876   4.527   1.727
 7540TIP3   OH222583   6.195   3.356   5.169
 7540TIP3    H122584   6.223   3.436   5.125
 7540TIP3    H222585   6.268   3.335   5.228
 7541TIP3   OH222586   5.362   5.477   1.471
 7541TIP3    H122587   5.373   5.469   1.565
 7541TIP3    H222588   5.446   5.511   1.439
 7542TIP3   OH222589   3.018   5.456   1.828
 7542TIP3    H122590   3.041   5.389   1.763
 7542TIP3    H222591   2.995   5.533   1.776
 7543TIP3   OH222592   1.736   3.803   0.734
 7543TIP3    H122593   1.708   3.801   0.643
 7543TIP3    H222594   1.831   3.807   0.731
 7544TIP3   OH222595   6.686   0.745   2.017
 7544TIP3    H122596   6.681   0.794   2.099
 7544TIP3    H222597   6.611   0.686   2.020
 7545TIP3   OH222598   4.152   3.513   4.468
 7545TIP3    H122599   4.084   3.515   4.401
 7545TIP3    H222600   4.146   3.425   4.505
 7546TIP3   OH222601   3.620   3.508   4.197
 7546TIP3    H122602   3.680   3.472   4.262
 7546TIP3    H222603   3.677   3.547   4.131
 7547TIP3   OH222604   0.034   4.358   2.872
 7547TIP3    H122605   0.128   4.370   2.861
 7547TIP3    H222606   0.025   4.270   2.907
 7548TIP3   OH222607   0.410   0.480   5.508
 7548TIP3    H122608   0.479   0.515   5.565
 7548TIP3    H222609   0.457   0.445   5.432
 7549TIP3   OH222610   6.161   1.702   2.671
 7549TIP3    H122611   6.214   1.771   2.711
 7549TIP3    H222612   6.071   1.722   2.698
 7550TIP3   OH222613   3.484   3.746   1.230
 7550TIP3    H122614   3.573   3.727   1.200
 7550TIP3    H222615   3.435   3.760   1.149
 7551TIP3   OH222616   1.570   3.713   2.715
 7551TIP3    H122617   1.654   3.758   2.720
 7551TIP3    H222618   1.531   3.723   2.802
 7552TIP3   OH222619   5.249   4.732   1.419
 7552TIP3    H122620   5.169   4.707   1.466
 7552TIP3    H222621   5.320   4.703   1.477
 7553TIP3   OH222622   5.117   4.379   0.207
 7553TIP3    H122623   5.122   4.306   0.268
 7553TIP3    H222624   5.079   4.450   0.257
 7554TIP3   OH222625   6.672   3.800   0.516
 7554TIP3    H122626   6.728   3.877   0.522
 7554TIP3    H222627   6.587   3.829   0.549
 7555TIP3   OH222628   5.259   4.476   3.610
 7555TIP3    H122629   5.311   4.398   3.591
 7555TIP3    H222630   5.312   4.548   3.577
 7556TIP3   OH222631   3.482   4.526   2.573
 7556TIP3    H122632   3.555   4.490   2.624
 7556TIP3    H222633   3.404   4.485   2.611
 7557TIP3   OH222634   0.229   4.207   5.805
 7557TIP3    H122635   0.227   4.234   5.713
 7557TIP3    H222636   0.250   4.286   5.854
 7558TIP3   OH222637   6.372   2.991   4.190
 7558TIP3    H122638   6.405   2.944   4.113
 7558TIP3    H222639   6.432   3.065   4.199
 7559TIP3   OH222640   4.587   3.361   4.890
 7559TIP3    H122641   4.670   3.314   4.889
 7559TIP3    H222642   4.529   3.307   4.944
 7560TIP3   OH222643   2.589   1.067   0.915
 7560TIP3    H122644   2.683   1.048   0.922
 7560TIP3    H222645   2.552   0.989   0.873
 7561TIP3   OH222646   4.907   6.754   0.362
 7561TIP3    H122647   4.885   6.754   0.269
 7561TIP3    H222648   4.978   6.690   0.370
 7562TIP3   OH222649   4.270   2.840   1.493
 7562TIP3    H122650   4.254   2.927   1.457
 7562TIP3    H222651   4.353   2.813   1.454
 7563TIP3   OH222652   1.690   6.551   4.140
 7563TIP3    H122653   1.730   6.619   4.086
 7563TIP3    H222654   1.648   6.492   4.077
 7564TIP3   OH222655   3.658   5.802   1.892
 7564TIP3    H122656   3.722   5.862   1.930
 7564TIP3    H222657   3.576   5.852   1.890
 7565TIP3   OH222658   3.731   3.174   0.377
 7565TIP3    H122659   3.690   3.090   0.397
 7565TIP3    H222660   3.663   3.239   0.396
 7566TIP3   OH222661   0.917   2.641   0.220
 7566TIP3    H122662   0.871   2.572   0.267
 7566TIP3    H222663   0.989   2.596   0.176
 7567TIP3   OH222664   2.619   1.727   5.353
 7567TIP3    H122665   2.608   1.651   5.411
 7567TIP3    H222666   2.644   1.689   5.269
 7568TIP3   OH222667   3.371   6.731   4.166
 7568TIP3    H122668   3.375   6.791   4.092
 7568TIP3    H222669   3.322   6.656   4.133
 7569TIP3   OH222670   1.551   1.958   4.350
 7569TIP3    H122671   1.602   1.903   4.290
 7569TIP3    H222672   1.616   2.006   4.400
 7570TIP3   OH222673   2.606   2.019   2.163
 7570TIP3    H122674   2.601   1.937   2.115
 7570TIP3    H222675   2.516   2.052   2.164
 7571TIP3   OH222676   5.093   5.442   5.235
 7571TIP3    H122677   5.092   5.346   5.234
 7571TIP3    H222678   5.079   5.465   5.327
 7572TIP3   OH222679   6.106   5.153   1.447
 7572TIP3    H122680   6.088   5.182   1.357
 7572TIP3    H222681   6.147   5.229   1.489
 7573TIP3   OH222682   4.881   5.312   1.245
 7573TIP3    H122683   4.904   5.341   1.333
 7573TIP3    H222684   4.961   5.271   1.211
 7574TIP3   OH222685   2.811   0.563   3.391
 7574TIP3    H122686   2.795   0.481   3.344
 7574TIP3    H222687   2.870   0.540   3.461
 7575TIP3   OH222688   1.068   5.609   5.428
 7575TIP3    H122689   0.984   5.576   5.460
 7575TIP3    H222690   1.114   5.637   5.507
 7576TIP3   OH222691   2.866   4.412   4.065
 7576TIP3    H122692   2.827   4.363   3.993
 7576TIP3    H222693   2.900   4.492   4.025
 7577TIP3   OH222694   1.888   2.584   1.832
 7577TIP3    H122695   1.977   2.561   1.806
 7577TIP3    H222696   1.866   2.660   1.777
 7578TIP3   OH222697   0.358   4.987   1.179
 7578TIP3    H122698   0.283   4.976   1.237
 7578TIP3    H222699   0.359   5.081   1.159
 7579TIP3   OH222700   3.269   0.517   1.366
 7579TIP3    H122701   3.299   0.582   1.429
 7579TIP3    H222702   3.242   0.568   1.289
 7580TIP3   OH222703   6.548   2.870   1.469
 7580TIP3    H122704   6.491   2.812   1.419
 7580TIP3    H222705   6.571   2.820   1.547
 7581TIP3   OH222706   0.958   4.581   5.218
 7581TIP3    H122707   0.953   4.549   5.128
 7581TIP3    H222708   0.878   4.549   5.260
 7582TIP3   OH222709   6.599   6.481   0.248
 7582TIP3    H122710   6.630   6.532   0.173
 7582TIP3    H222711   6.523   6.433   0.215
 7583TIP3   OH222712   4.629   4.896   3.799
 7583TIP3    H122713   4.608   4.913   3.891
 7583TIP3    H222714   4.685   4.818   3.800
 7584TIP3   OH222715   3.748   3.992   3.944
 7584TIP3    H122716   3.769   3.999   4.037
 7584TIP3    H222717   3.701   3.909   3.936
 7585TIP3   OH222718   5.005   3.289   0.797
 7585TIP3    H122719   5.042   3.317   0.881
 7585TIP3    H222720   4.976   3.199   0.813
 7586TIP3   OH222721   1.157   0.463   5.833
 7586TIP3    H122722   1.097   0.494   5.900
 7586TIP3    H222723   1.171   0.371   5.854
 7587TIP3   OH222724   4.125   3.071   1.918
 7587TIP3    H122725   4.070   3.068   1.839
 7587TIP3    H222726   4.214   3.059   1.886
 7588TIP3   OH222727   1.709   3.372   3.653
 7588TIP3    H122728   1.616   3.358   3.640
 7588TIP3    H222729   1.719   3.467   3.658
 7589TIP3   OH222730   0.080   3.658   4.053
 7589TIP3    H122731   0.169   3.624   4.067
 7589TIP3    H222732   0.093   3.740   4.006
 7590TIP3   OH222733   5.737   4.298   1.287
 7590TIP3    H122734   5.688   4.225   1.325
 7590TIP3    H222735   5.716   4.373   1.342
 7591TIP3   OH222736   5.719   4.510   2.554
 7591TIP3    H122737   5.667   4.467   2.622
 7591TIP3    H222738   5.809   4.500   2.583
 7592TIP3   OH222739   1.032   5.509   4.686
 7592TIP3    H122740   0.953   5.554   4.716
 7592TIP3    H222741   1.094   5.520   4.758
 7593TIP3   OH222742   4.472   2.974   5.297
 7593TIP3    H122743   4.486   2.926   5.379
 7593TIP3    H222744   4.449   3.063   5.326
 7594TIP3   OH222745   6.329   6.154   2.823
 7594TIP3    H122746   6.368   6.075   2.861
 7594TIP3    H222747   6.238   6.153   2.854
 7595TIP3   OH222748   0.023   4.343   1.921
 7595TIP3    H122749  -0.045   4.404   1.891
 7595TIP3    H222750   0.087   4.399   1.966
 7596TIP3   OH222751   5.406   5.886   5.009
 7596TIP3    H122752   5.336   5.942   5.041
 7596TIP3    H222753   5.396   5.804   5.058
 7597TIP3   OH222754   4.958   4.741   3.235
 7597TIP3    H122755   4.867   4.747   3.206
 7597TIP3    H222756   5.009   4.745   3.154
 7598TIP3   OH222757   0.535   6.442   1.694
 7598TIP3    H122758   0.451   6.486   1.678
 7598TIP3    H222759   0.587   6.506   1.742
 7599TIP3   OH222760   7.137   1.659   3.536
 7599TIP3    H122761   7.126   1.565   3.548
 7599TIP3    H222762   7.220   1.668   3.488
 7600TIP3   OH222763   1.448   1.583   1.910
 7600TIP3    H122764   1.487   1.609   1.993
 7600TIP3    H222765   1.354   1.592   1.923
 7601TIP3   OH222766   5.670   4.797   4.886
 7601TIP3    H122767   5.698   4.821   4.975
 7601TIP3    H222768   5.575   4.802   4.889
 7602TIP3   OH222769   6.826   4.391   1.462
 7602TIP3    H122770   6.839   4.320   1.399
 7602TIP3    H222771   6.743   4.370   1.505
 7603TIP3   OH222772   7.218   0.537   2.457
 7603TIP3    H122773   7.136   0.551   2.411
 7603TIP3    H222774   7.201   0.463   2.516
 7604TIP3   OH222775   1.981   1.388   0.511
 7604TIP3    H122776   1.901   1.439   0.497
 7604TIP3    H222777   2.034   1.442   0.570
 7605TIP3   OH222778   1.262   2.680   5.693
 7605TIP3    H122779   1.255   2.677   5.597
 7605TIP3    H222780   1.219   2.599   5.722
 7606TIP3   OH222781   3.594   5.279   2.539
 7606TIP3    H122782   3.527   5.294   2.605
 7606TIP3    H222783   3.617   5.366   2.507
 7607TIP3   OH222784   3.512   5.804   4.372
 7607TIP3    H122785   3.606   5.797   4.353
 7607TIP3    H222786   3.506   5.877   4.434
 7608TIP3   OH222787   7.236   1.942   1.612
 7608TIP3    H122788   7.208   1.939   1.521
 7608TIP3    H222789   7.180   1.877   1.656
 7609TIP3   OH222790   0.605   3.268   2.900
 7609TIP3    H122791   0.640   3.208   2.835
 7609TIP3    H222792   0.570   3.341   2.850
 7610TIP3   OH222793   2.812   1.530   5.181
 7610TIP3    H122794   2.778   1.444   5.155
 7610TIP3    H222795   2.906   1.526   5.162
 7611TIP3   OH222796   5.452   0.033   2.415
 7611TIP3    H122797   5.392  -0.036   2.387
 7611TIP3    H222798   5.501  -0.006   2.488
 7612TIP3   OH222799   0.580   2.419   0.405
 7612TIP3    H122800   0.537   2.451   0.484
 7612TIP3    H222801   0.578   2.494   0.345
 7613TIP3   OH222802   5.963   2.681   1.144
 7613TIP3    H122803   5.900   2.656   1.077
 7613TIP3    H222804   5.908   2.708   1.219
 7614TIP3   OH222805   2.830   6.056   1.095
 7614TIP3    H122806   2.747   6.100   1.074
 7614TIP3    H222807   2.895   6.099   1.039
 7615TIP3   OH222808   6.972   6.717   2.494
 7615TIP3    H122809   6.973   6.734   2.588
 7615TIP3    H222810   7.063   6.693   2.473
 7616TIP3   OH222811   5.808   0.117   2.485
 7616TIP3    H122812   5.855   0.127   2.568
 7616TIP3    H222813   5.715   0.119   2.510
 7617TIP3   OH222814   4.433   2.910   0.847
 7617TIP3    H122815   4.444   2.960   0.766
 7617TIP3    H222816   4.396   2.826   0.818
 7618TIP3   OH222817   1.833   5.931   3.215
 7618TIP3    H122818   1.859   5.874   3.288
 7618TIP3    H222819   1.785   5.873   3.156
 7619TIP3   OH222820   1.218   6.667   0.130
 7619TIP3    H122821   1.308   6.652   0.160
 7619TIP3    H222822   1.226   6.681   0.036
 7620TIP3   OH222823   0.391   2.882   0.123
 7620TIP3    H122824   0.412   2.925   0.040
 7620TIP3    H222825   0.425   2.941   0.190
 7621TIP3   OH222826   3.065   5.723   3.918
 7621TIP3    H122827   2.982   5.687   3.885
 7621TIP3    H222828   3.098   5.655   3.977
 7622TIP3   OH222829   7.174   0.364   4.033
 7622TIP3    H122830   7.263   0.330   4.024
 7622TIP3    H222831   7.119   0.296   3.995
 7623TIP3   OH222832   2.317   6.407   5.451
 7623TIP3    H122833   2.390   6.362   5.410
 7623TIP3    H222834   2.355   6.487   5.487
 7624TIP3   OH222835   5.047   1.065   0.021
 7624TIP3    H122836   5.003   1.087   0.103
 7624TIP3    H222837   5.140   1.083   0.038
 7625TIP3   OH222838   1.208   2.267   0.131
 7625TIP3    H122839   1.282   2.288   0.074
 7625TIP3    H222840   1.131   2.290   0.080
 7626TIP3   OH222841   0.927   0.837   2.009
 7626TIP3    H122842   0.982   0.787   1.948
 7626TIP3    H222843   0.842   0.842   1.966
 7627TIP3   OH222844   6.978   0.097   3.022
 7627TIP3    H122845   7.059   0.075   3.066
 7627TIP3    H222846   7.001   0.171   2.966
 7628TIP3   OH222847   5.631   0.360   4.844
 7628TIP3    H122848   5.701   0.425   4.840
 7628TIP3    H222849   5.633   0.329   4.935
 7629TIP3   OH222850   6.093   6.456   1.183
 7629TIP3    H122851   6.081   6.550   1.178
 7629TIP3    H222852   6.136   6.433   1.100
 7630TIP3   OH222853   4.227   5.571   1.736
 7630TIP3    H122854   4.180   5.498   1.696
 7630TIP3    H222855   4.172   5.598   1.809
 7631TIP3   OH222856   6.212   0.577   2.178
 7631TIP3    H122857   6.201   0.566   2.272
 7631TIP3    H222858   6.166   0.503   2.139
 7632TIP3   OH222859   6.125   3.968   0.542
 7632TIP3    H122860   6.136   3.937   0.632
 7632TIP3    H222861   6.043   4.019   0.544
 7633TIP3   OH222862   3.916   2.787   4.175
 7633TIP3    H122863   3.842   2.734   4.204
 7633TIP3    H222864   3.877   2.863   4.134
 7634TIP3   OH222865   1.011   0.452   4.462
 7634TIP3    H122866   1.104   0.463   4.483
 7634TIP3    H222867   0.966   0.518   4.515
 7635TIP3   OH222868   1.610   2.676   4.610
 7635TIP3    H122869   1.550   2.621   4.561
 7635TIP3    H222870   1.685   2.619   4.628
 7636TIP3   OH222871   2.773   1.469   3.295
 7636TIP3    H122872   2.698   1.432   3.343
 7636TIP3    H222873   2.777   1.417   3.215
 7637TIP3   OH222874   4.875   4.728   3.799
 7637TIP3    H122875   4.803   4.664   3.800
 7637TIP3    H222876   4.954   4.675   3.803
 7638TIP3   OH222877   4.812   6.327   2.772
 7638TIP3    H122878   4.803   6.417   2.739
 7638TIP3    H222879   4.723   6.301   2.796
 7639TIP3   OH222880   3.247   2.031   3.497
 7639TIP3    H122881   3.223   2.122   3.483
 7639TIP3    H222882   3.327   2.035   3.550
 7640TIP3   OH222883   6.617   6.202   4.027
 7640TIP3    H122884   6.641   6.120   3.983
 7640TIP3    H222885   6.599   6.263   3.956
 7641TIP3   OH222886   3.122   5.107   4.064
 7641TIP3    H122887   3.074   5.172   4.013
 7641TIP3    H222888   3.209   5.145   4.076
 7642TIP3   OH222889   0.077   3.085   0.544
 7642TIP3    H122890   0.106   3.073   0.634
 7642TIP3    H222891   0.091   2.999   0.503
 7643TIP3   OH222892   5.728   5.328   5.715
 7643TIP3    H122893   5.814   5.370   5.707
 7643TIP3    H222894   5.675   5.371   5.647
 7644TIP3   OH222895   6.425   0.336   5.792
 7644TIP3    H122896   6.440   0.248   5.825
 7644TIP3    H222897   6.357   0.372   5.849
 7645TIP3   OH222898   1.932   3.378   1.660
 7645TIP3    H122899   1.959   3.290   1.634
 7645TIP3    H222900   2.006   3.434   1.635
 7646TIP3   OH222901   5.102   5.470   4.961
 7646TIP3    H122902   5.105   5.428   5.047
 7646TIP3    H222903   5.066   5.557   4.978
 7647TIP3   OH222904   4.591   4.862   2.217
 7647TIP3    H122905   4.570   4.900   2.302
 7647TIP3    H222906   4.654   4.924   2.178
 7648TIP3   OH222907   0.145   5.699   2.285
 7648TIP3    H122908   0.088   5.710   2.208
 7648TIP3    H222909   0.198   5.779   2.287
 7649TIP3   OH222910   6.559   0.139   3.884
 7649TIP3    H122911   6.591   0.085   3.812
 7649TIP3    H222912   6.510   0.078   3.939
 7650TIP3   OH222913   0.167   0.740   1.336
 7650TIP3    H122914   0.230   0.811   1.348
 7650TIP3    H222915   0.092   0.765   1.390
 7651TIP3   OH222916   2.461   0.684   1.851
 7651TIP3    H122917   2.391   0.675   1.916
 7651TIP3    H222918   2.423   0.651   1.770
 7652TIP3   OH222919   6.818   1.236   4.053
 7652TIP3    H122920   6.800   1.315   4.103
 7652TIP3    H222921   6.771   1.248   3.970
 7653TIP3   OH222922   0.666   2.389   0.072
 7653TIP3    H122923   0.645   2.474   0.111
 7653TIP3    H222924   0.622   2.325   0.128
 7654TIP3   OH222925   3.194   0.922   1.781
 7654TIP3    H122926   3.201   1.017   1.784
 7654TIP3    H222927   3.263   0.890   1.839
 7655TIP3   OH222928   2.551   5.472   5.438
 7655TIP3    H122929   2.510   5.555   5.463
 7655TIP3    H222930   2.632   5.498   5.394
 7656TIP3   OH222931   1.423   3.923   4.864
 7656TIP3    H122932   1.484   3.994   4.843
 7656TIP3    H222933   1.473   3.865   4.921
 7657TIP3   OH222934   5.910   4.295   3.557
 7657TIP3    H122935   5.895   4.205   3.587
 7657TIP3    H222936   5.823   4.332   3.545
 7658TIP3   OH222937   4.656   4.157   3.973
 7658TIP3    H122938   4.592   4.139   3.905
 7658TIP3    H222939   4.606   4.158   4.055
 7659TIP3   OH222940   5.655   1.190   0.967
 7659TIP3    H122941   5.733   1.191   0.911
 7659TIP3    H222942   5.664   1.267   1.023
 7660TIP3   OH222943   2.692   2.297   0.261
 7660TIP3    H122944   2.619   2.265   0.208
 7660TIP3    H222945   2.769   2.286   0.204
 7661TIP3   OH222946   0.579   5.352   3.026
 7661TIP3    H122947   0.544   5.314   2.945
 7661TIP3    H222948   0.674   5.347   3.015
 7662TIP3   OH222949   3.245   1.486   2.896
 7662TIP3    H122950   3.292   1.527   2.824
 7662TIP3    H222951   3.254   1.547   2.970
 7663TIP3   OH222952   6.273   1.129   3.187
 7663TIP3    H122953   6.181   1.128   3.213
 7663TIP3    H222954   6.278   1.197   3.120
 7664TIP3   OH222955   2.462   4.575   1.853
 7664TIP3    H122956   2.489   4.654   1.900
 7664TIP3    H222957   2.545   4.534   1.826
 7665TIP3   OH222958   3.701   2.573   4.656
 7665TIP3    H122959   3.690   2.487   4.696
 7665TIP3    H222960   3.795   2.580   4.640
 7666TIP3   OH222961   4.768   2.672   0.430
 7666TIP3    H122962   4.769   2.606   0.361
 7666TIP3    H222963   4.708   2.740   0.398
 7667TIP3   OH222964   4.635   2.975   1.634
 7667TIP3    H122965   4.622   3.023   1.552
 7667TIP3    H222966   4.712   3.017   1.673
 7668TIP3   OH222967   2.298   1.744   1.463
 7668TIP3    H122968   2.251   1.704   1.389
 7668TIP3    H222969   2.372   1.790   1.422
 7669TIP3   OH222970   0.058   2.166   5.209
 7669TIP3    H122971  -0.025   2.195   5.247
 7669TIP3    H222972   0.089   2.098   5.269
 7670TIP3   OH222973   0.955   0.088   2.170
 7670TIP3    H122974   1.043   0.118   2.146
 7670TIP3    H222975   0.897   0.151   2.128
 7671TIP3   OH222976   4.454   0.118   5.859
 7671TIP3    H122977   4.501   0.198   5.835
 7671TIP3    H222978   4.362   0.137   5.836
 7672TIP3   OH222979   1.186   2.602   2.694
 7672TIP3    H122980   1.248   2.641   2.631
 7672TIP3    H222981   1.100   2.620   2.657
 7673TIP3   OH222982   0.070   2.379   5.815
 7673TIP3    H122983   0.079   2.472   5.799
 7673TIP3    H222984  -0.005   2.371   5.874
 7674TIP3   OH222985   4.389   1.604   1.298
 7674TIP3    H122986   4.432   1.688   1.281
 7674TIP3    H222987   4.333   1.590   1.222
 7675TIP3   OH222988   4.818   6.427   5.013
 7675TIP3    H122989   4.799   6.501   5.071
 7675TIP3    H222990   4.850   6.359   5.071
 7676TIP3   OH222991   0.155   4.506   2.561
 7676TIP3    H122992   0.071   4.461   2.558
 7676TIP3    H222993   0.207   4.455   2.623
 7677TIP3   OH222994   0.360   1.396   4.170
 7677TIP3    H122995   0.362   1.490   4.151
 7677TIP3    H222996   0.313   1.390   4.254
 7678TIP3   OH222997   4.274   3.499   2.509
 7678TIP3    H122998   4.217   3.576   2.500
 7678TIP3    H222999   4.322   3.515   2.590
 7679TIP3   OH223000   1.721   4.682   2.827
 7679TIP3    H123001   1.749   4.725   2.746
 7679TIP3    H223002   1.724   4.751   2.893
 7680TIP3   OH223003   1.974   1.795   0.248
 7680TIP3    H123004   2.017   1.881   0.250
 7680TIP3    H223005   1.919   1.794   0.327
 7681TIP3   OH223006   5.230   2.450   4.437
 7681TIP3    H123007   5.270   2.535   4.418
 7681TIP3    H223008   5.187   2.463   4.522
 7682TIP3   OH223009   3.131   2.012   0.016
 7682TIP3    H123010   3.172   2.081   0.069
 7682TIP3    H223011   3.204   1.961  -0.018
 7683TIP3   OH223012   6.898   4.613   1.623
 7683TIP3    H123013   6.925   4.689   1.571
 7683TIP3    H223014   6.874   4.547   1.559
 7684TIP3   OH223015   6.473   3.906   3.496
 7684TIP3    H123016   6.393   3.958   3.495
 7684TIP3    H223017   6.518   3.930   3.414
 7685TIP3   OH223018   3.256   5.719   4.756
 7685TIP3    H123019   3.204   5.659   4.810
 7685TIP3    H223020   3.273   5.669   4.676
 7686TIP3   OH223021   1.993   6.063   1.293
 7686TIP3    H123022   2.030   6.035   1.209
 7686TIP3    H223023   1.929   6.130   1.269
 7687TIP3   OH223024   4.071   4.918   3.284
 7687TIP3    H123025   4.007   4.946   3.219
 7687TIP3    H223026   4.151   4.902   3.234
 7688TIP3   OH223027   0.210   1.223   4.710
 7688TIP3    H123028   0.223   1.159   4.781
 7688TIP3    H223029   0.123   1.202   4.675
 7689TIP3   OH223030   7.082   4.784   2.293
 7689TIP3    H123031   7.104   4.782   2.386
 7689TIP3    H223032   7.141   4.851   2.256
 7690TIP3   OH223033   6.186   6.426   0.734
 7690TIP3    H123034   6.132   6.404   0.658
 7690TIP3    H223035   6.276   6.412   0.704
 7691TIP3   OH223036   6.042   0.848   3.223
 7691TIP3    H123037   6.106   0.869   3.292
 7691TIP3    H223038   5.965   0.901   3.244
 7692TIP3   OH223039   6.247   2.386   4.637
 7692TIP3    H123040   6.337   2.417   4.625
 7692TIP3    H223041   6.208   2.448   4.698
 7693TIP3   OH223042   4.106   4.120   4.257
 7693TIP3    H123043   4.010   4.122   4.258
 7693TIP3    H223044   4.130   4.102   4.348
 7694TIP3   OH223045   5.032   0.889   1.922
 7694TIP3    H123046   4.967   0.955   1.899
 7694TIP3    H223047   5.085   0.879   1.843
 7695TIP3   OH223048   0.985   6.073   4.397
 7695TIP3    H123049   1.041   6.000   4.424
 7695TIP3    H223050   0.964   6.120   4.478
 7696TIP3   OH223051   2.364   5.495   2.482
 7696TIP3    H123052   2.395   5.572   2.433
 7696TIP3    H223053   2.441   5.465   2.530
 7697TIP3   OH223054   1.824   3.733   1.837
 7697TIP3    H123055   1.851   3.702   1.924
 7697TIP3    H223056   1.821   3.828   1.845
 7698TIP3   OH223057   4.117   3.755   0.379
 7698TIP3    H123058   4.076   3.841   0.374
 7698TIP3    H223059   4.122   3.725   0.288
 7699TIP3   OH223060   4.341   0.825   5.294
 7699TIP3    H123061   4.378   0.737   5.291
 7699TIP3    H223062   4.268   0.818   5.356
 7700TIP3   OH223063   5.061   2.368   1.780
 7700TIP3    H123064   5.063   2.341   1.872
 7700TIP3    H223065   5.068   2.463   1.783
 7701TIP3   OH223066   0.034   3.372   0.727
 7701TIP3    H123067   0.099   3.439   0.703
 7701TIP3    H223068   0.082   3.310   0.781
 7702TIP3   OH223069   6.333   2.403   0.947
 7702TIP3    H123070   6.292   2.469   1.003
 7702TIP3    H223071   6.427   2.417   0.958
 7703TIP3   OH223072   6.022   5.694   5.472
 7703TIP3    H123073   6.056   5.659   5.390
 7703TIP3    H223074   6.098   5.731   5.517
 7704TIP3   OH223075   1.618   3.788   5.455
 7704TIP3    H123076   1.642   3.780   5.547
 7704TIP3    H223077   1.563   3.866   5.452
 7705TIP3   OH223078   5.121   2.784   2.356
 7705TIP3    H123079   5.111   2.727   2.432
 7705TIP3    H223080   5.111   2.725   2.281
 7706TIP3   OH223081   0.847   2.388   0.317
 7706TIP3    H123082   0.756   2.365   0.332
 7706TIP3    H223083   0.878   2.324   0.253
 7707TIP3   OH223084   6.774   1.391   2.211
 7707TIP3    H123085   6.715   1.392   2.287
 7707TIP3    H223086   6.782   1.298   2.188
 7708TIP3   OH223087   0.924   4.448   4.981
 7708TIP3    H123088   0.893   4.490   4.901
 7708TIP3    H223089   1.002   4.399   4.953
 7709TIP3   OH223090   4.038   4.799   5.683
 7709TIP3    H123091   4.050   4.850   5.603
 7709TIP3    H223092   4.105   4.833   5.743
 7710TIP3   OH223093   1.663   0.139   1.333
 7710TIP3    H123094   1.637   0.088   1.256
 7710TIP3    H223095   1.739   0.093   1.369
 7711TIP3   OH223096   1.529   6.314   5.038
 7711TIP3    H123097   1.455   6.299   5.097
 7711TIP3    H223098   1.566   6.227   5.022
 7712TIP3   OH223099   0.013   5.833   0.050
 7712TIP3    H123100  -0.001   5.813   0.143
 7712TIP3    H223101  -0.001   5.927   0.043
 7713TIP3   OH223102   0.110   0.356   3.689
 7713TIP3    H123103   0.121   0.370   3.595
 7713TIP3    H223104   0.156   0.430   3.730
 7714TIP3   OH223105   0.938   5.534   2.755
 7714TIP3    H123106   1.015   5.482   2.776
 7714TIP3    H223107   0.887   5.479   2.696
 7715TIP3   OH223108   1.262   4.913   0.885
 7715TIP3    H123109   1.284   4.856   0.959
 7715TIP3    H223110   1.297   4.999   0.910
 7716TIP3   OH223111   2.819   6.287   0.490
 7716TIP3    H123112   2.909   6.315   0.509
 7716TIP3    H223113   2.766   6.327   0.560
 7717TIP3   OH223114   4.569   1.186   3.817
 7717TIP3    H123115   4.533   1.274   3.805
 7717TIP3    H223116   4.540   1.159   3.904
 7718TIP3   OH223117   3.941   2.979   4.732
 7718TIP3    H123118   3.848   2.959   4.737
 7718TIP3    H223119   3.956   3.001   4.640
 7719TIP3   OH223120   7.172   1.973   4.221
 7719TIP3    H123121   7.224   1.963   4.141
 7719TIP3    H223122   7.094   2.020   4.192
 7720TIP3   OH223123   2.996   5.352   3.448
 7720TIP3    H123124   3.010   5.437   3.407
 7720TIP3    H223125   2.918   5.363   3.502
 7721TIP3   OH223126   0.857   4.274   3.171
 7721TIP3    H123127   0.944   4.266   3.211
 7721TIP3    H223128   0.858   4.360   3.129
 7722TIP3   OH223129   2.968   5.287   4.270
 7722TIP3    H123130   2.943   5.223   4.204
 7722TIP3    H223131   2.941   5.248   4.353
 7723TIP3   OH223132   0.248   3.659   5.305
 7723TIP3    H123133   0.179   3.655   5.240
 7723TIP3    H223134   0.267   3.568   5.326
 7724TIP3   OH223135   1.875   0.270   0.773
 7724TIP3    H123136   1.913   0.358   0.776
 7724TIP3    H223137   1.949   0.212   0.792
 7725TIP3   OH223138   1.526   3.474   3.231
 7725TIP3    H123139   1.448   3.469   3.286
 7725TIP3    H223140   1.599   3.459   3.291
 7726TIP3   OH223141   2.658   2.761   0.362
 7726TIP3    H123142   2.562   2.761   0.356
 7726TIP3    H223143   2.677   2.700   0.433
 7727TIP3   OH223144   2.610   2.077   4.925
 7727TIP3    H123145   2.617   2.055   5.018
 7727TIP3    H223146   2.700   2.072   4.893
 7728TIP3   OH223147   1.148   3.664   3.999
 7728TIP3    H123148   1.129   3.581   3.954
 7728TIP3    H223149   1.062   3.698   4.023
 7729TIP3   OH223150   4.833   3.499   2.766
 7729TIP3    H123151   4.824   3.491   2.671
 7729TIP3    H223152   4.847   3.593   2.781
 7730TIP3   OH223153   5.059   0.429   0.602
 7730TIP3    H123154   5.088   0.488   0.673
 7730TIP3    H223155   5.099   0.345   0.624
 7731TIP3   OH223156   0.272   1.424   1.134
 7731TIP3    H123157   0.266   1.332   1.161
 7731TIP3    H223158   0.204   1.434   1.068
 7732TIP3   OH223159   5.485   4.200   0.174
 7732TIP3    H123160   5.530   4.251   0.107
 7732TIP3    H223161   5.407   4.167   0.131
 7733TIP3   OH223162   3.369   4.523   3.640
 7733TIP3    H123163   3.454   4.487   3.616
 7733TIP3    H223164   3.357   4.499   3.732
 7734TIP3   OH223165   5.394   6.144   2.515
 7734TIP3    H123166   5.419   6.237   2.515
 7734TIP3    H223167   5.440   6.108   2.439
 7735TIP3   OH223168   4.302   6.572   0.801
 7735TIP3    H123169   4.240   6.607   0.737
 7735TIP3    H223170   4.247   6.529   0.867
 7736TIP3   OH223171   5.771   5.652   5.227
 7736TIP3    H123172   5.773   5.561   5.256
 7736TIP3    H223173   5.861   5.673   5.204
 7737TIP3   OH223174   6.938   3.297   0.337
 7737TIP3    H123175   6.997   3.287   0.412
 7737TIP3    H223176   6.993   3.278   0.261
 7738TIP3   OH223177   2.104   1.305   5.163
 7738TIP3    H123178   2.091   1.318   5.257
 7738TIP3    H223179   2.153   1.382   5.134
 7739TIP3   OH223180   5.214   2.170   4.049
 7739TIP3    H123181   5.127   2.133   4.031
 7739TIP3    H223182   5.207   2.261   4.022
 7740TIP3   OH223183   7.026   6.433   0.217
 7740TIP3    H123184   7.102   6.376   0.222
 7740TIP3    H223185   7.001   6.448   0.308
 7741TIP3   OH223186   7.180   1.589   5.879
 7741TIP3    H123187   7.108   1.533   5.908
 7741TIP3    H223188   7.155   1.677   5.907
 7742TIP3   OH223189   3.188   4.170   2.535
 7742TIP3    H123190   3.144   4.119   2.466
 7742TIP3    H223191   3.224   4.104   2.594
 7743TIP3   OH223192   6.030   5.749   4.646
 7743TIP3    H123193   5.975   5.671   4.637
 7743TIP3    H223194   6.120   5.715   4.643
 7744TIP3   OH223195   4.261   1.372   3.650
 7744TIP3    H123196   4.236   1.441   3.588
 7744TIP3    H223197   4.190   1.370   3.714
 7745TIP3   OH223198   3.911   3.931   4.872
 7745TIP3    H123199   3.827   3.894   4.845
 7745TIP3    H223200   3.893   3.973   4.956
 7746TIP3   OH223201   2.438   5.186   3.456
 7746TIP3    H123202   2.410   5.167   3.546
 7746TIP3    H223203   2.529   5.157   3.453
 7747TIP3   OH223204   7.128   6.608   4.246
 7747TIP3    H123205   7.209   6.649   4.277
 7747TIP3    H223206   7.059   6.670   4.270
 7748TIP3   OH223207   0.919   2.668   4.887
 7748TIP3    H123208   0.842   2.645   4.837
 7748TIP3    H223209   0.992   2.625   4.841
 7749TIP3   OH223210   2.161   4.572   1.224
 7749TIP3    H123211   2.107   4.585   1.302
 7749TIP3    H223212   2.194   4.660   1.204
 7750TIP3   OH223213   1.157   1.310   0.837
 7750TIP3    H123214   1.209   1.288   0.759
 7750TIP3    H223215   1.208   1.277   0.910
 7751TIP3   OH223216   3.432   4.189   1.758
 7751TIP3    H123217   3.491   4.260   1.783
 7751TIP3    H223218   3.381   4.172   1.837
 7752TIP3   OH223219   4.009   5.663   4.886
 7752TIP3    H123220   4.084   5.722   4.876
 7752TIP3    H223221   3.971   5.657   4.798
 7753TIP3   OH223222   6.079   3.864   3.010
 7753TIP3    H123223   6.020   3.937   3.031
 7753TIP3    H223224   6.145   3.866   3.079
 7754TIP3   OH223225   2.904   5.143   3.298
 7754TIP3    H123226   2.943   5.211   3.352
 7754TIP3    H223227   2.976   5.113   3.242
 7755TIP3   OH223228   5.914   0.312   0.844
 7755TIP3    H123229   5.969   0.234   0.835
 7755TIP3    H223230   5.826   0.281   0.822
 7756TIP3   OH223231   6.968   1.958   0.132
 7756TIP3    H123232   6.945   2.034   0.078
 7756TIP3    H223233   7.063   1.953   0.127
 7757TIP3   OH223234   6.111   2.280   2.379
 7757TIP3    H123235   6.041   2.345   2.393
 7757TIP3    H223236   6.166   2.287   2.457
 7758TIP3   OH223237   6.861   6.172   5.673
 7758TIP3    H123238   6.889   6.254   5.714
 7758TIP3    H223239   6.805   6.130   5.738
 7759TIP3   OH223240   3.141   1.244   0.944
 7759TIP3    H123241   3.068   1.272   0.889
 7759TIP3    H223242   3.219   1.281   0.902
 7760TIP3   OH223243   4.482   1.687   1.612
 7760TIP3    H123244   4.525   1.602   1.622
 7760TIP3    H223245   4.512   1.738   1.687
 7761TIP3   OH223246   4.695   3.474   1.982
 7761TIP3    H123247   4.689   3.569   1.973
 7761TIP3    H223248   4.736   3.445   1.900
 7762TIP3   OH223249   2.364   0.696   5.167
 7762TIP3    H123250   2.450   0.738   5.160
 7762TIP3    H223251   2.371   0.617   5.113
 7763TIP3   OH223252   1.523   6.731   3.217
 7763TIP3    H123253   1.515   6.772   3.131
 7763TIP3    H223254   1.580   6.655   3.202
 7764TIP3   OH223255   3.477   4.079   1.026
 7764TIP3    H123256   3.512   4.120   1.105
 7764TIP3    H223257   3.396   4.127   1.008
 7765TIP3   OH223258   1.281   1.325   1.808
 7765TIP3    H123259   1.296   1.249   1.864
 7765TIP3    H223260   1.254   1.394   1.869
 7766TIP3   OH223261   1.575   2.185   0.346
 7766TIP3    H123262   1.613   2.176   0.259
 7766TIP3    H223263   1.610   2.267   0.380
 7767TIP3   OH223264   4.085   1.617   0.844
 7767TIP3    H123265   4.077   1.584   0.934
 7767TIP3    H223266   4.032   1.556   0.792
 7768TIP3   OH223267   4.055   0.210   0.538
 7768TIP3    H123268   4.079   0.118   0.524
 7768TIP3    H223269   3.974   0.221   0.489
 7769TIP3   OH223270   6.909   1.929   3.578
 7769TIP3    H123271   6.969   1.933   3.503
 7769TIP3    H223272   6.874   1.840   3.576
 7770TIP3   OH223273   1.684   4.840   1.104
 7770TIP3    H123274   1.671   4.794   1.187
 7770TIP3    H223275   1.704   4.930   1.130
 7771TIP3   OH223276   0.454   3.995   1.159
 7771TIP3    H123277   0.416   3.942   1.229
 7771TIP3    H223278   0.383   4.052   1.131
 7772TIP3   OH223279   2.182   6.256   1.374
 7772TIP3    H123280   2.144   6.174   1.404
 7772TIP3    H223281   2.119   6.290   1.310
 7773TIP3   OH223282   2.689   5.497   4.083
 7773TIP3    H123283   2.695   5.572   4.141
 7773TIP3    H223284   2.629   5.437   4.127
 7774TIP3   OH223285   0.624   0.271   4.262
 7774TIP3    H123286   0.648   0.194   4.210
 7774TIP3    H223287   0.608   0.236   4.349
 7775TIP3   OH223288   6.912   0.489   4.784
 7775TIP3    H123289   6.831   0.504   4.736
 7775TIP3    H223290   6.914   0.394   4.798
 7776TIP3   OH223291   1.195   0.181   1.087
 7776TIP3    H123292   1.111   0.229   1.089
 7776TIP3    H223293   1.179   0.108   1.028
 7777TIP3   OH223294   1.704   2.205   3.385
 7777TIP3    H123295   1.724   2.290   3.425
 7777TIP3    H223296   1.614   2.186   3.413
 7778TIP3   OH223297   3.110   4.881   0.731
 7778TIP3    H123298   3.039   4.941   0.755
 7778TIP3    H223299   3.136   4.841   0.814
 7779TIP3   OH223300   2.919   3.585   2.672
 7779TIP3    H123301   2.931   3.679   2.682
 7779TIP3    H223302   2.918   3.551   2.762
 7780TIP3   OH223303   1.778   3.487   2.947
 7780TIP3    H123304   1.843   3.441   2.999
 7780TIP3    H223305   1.790   3.454   2.858
 7781TIP3   OH223306   6.597   6.521   4.635
 7781TIP3    H123307   6.644   6.600   4.608
 7781TIP3    H223308   6.649   6.486   4.708
 7782TIP3   OH223309   1.598   5.558   4.304
 7782TIP3    H123310   1.544   5.542   4.227
 7782TIP3    H223311   1.600   5.654   4.312
 7783TIP3   OH223312   5.686   0.216   1.902
 7783TIP3    H123313   5.708   0.303   1.934
 7783TIP3    H223314   5.593   0.205   1.925
 7784TIP3   OH223315   4.963   1.483   0.247
 7784TIP3    H123316   4.959   1.538   0.326
 7784TIP3    H223317   4.996   1.399   0.279
 7785TIP3   OH223318   2.550   5.523   5.127
 7785TIP3    H123319   2.472   5.480   5.092
 7785TIP3    H223320   2.553   5.496   5.219
 7786TIP3   OH223321   1.377   4.346   2.789
 7786TIP3    H123322   1.462   4.363   2.829
 7786TIP3    H223323   1.397   4.314   2.701
 7787TIP3   OH223324   4.221   5.817   2.916
 7787TIP3    H123325   4.190   5.777   2.998
 7787TIP3    H223326   4.277   5.889   2.945
 7788TIP3   OH223327   2.172   4.254   2.297
 7788TIP3    H123328   2.123   4.173   2.308
 7788TIP3    H223329   2.234   4.256   2.370
 7789TIP3   OH223330   4.836   3.218   3.095
 7789TIP3    H123331   4.870   3.129   3.084
 7789TIP3    H223332   4.888   3.271   3.035
 7790TIP3   OH223333   4.327   5.204   1.935
 7790TIP3    H123334   4.368   5.130   1.891
 7790TIP3    H223335   4.381   5.220   2.012
 7791TIP3   OH223336   5.781   2.152   5.305
 7791TIP3    H123337   5.724   2.082   5.274
 7791TIP3    H223338   5.850   2.158   5.239
 7792TIP3   OH223339   1.979   6.150   3.756
 7792TIP3    H123340   2.036   6.095   3.702
 7792TIP3    H223341   2.018   6.237   3.752
 7793TIP3   OH223342   1.882   5.022   0.525
 7793TIP3    H123343   1.910   5.096   0.471
 7793TIP3    H223344   1.907   4.944   0.475
 7794TIP3   OH223345   6.587   4.352   4.708
 7794TIP3    H123346   6.533   4.385   4.637
 7794TIP3    H223347   6.666   4.319   4.665
 7795TIP3   OH223348   6.458   4.070   1.478
 7795TIP3    H123349   6.383   4.067   1.538
 7795TIP3    H223350   6.419   4.069   1.391
 7796TIP3   OH223351   4.190   3.261   4.740
 7796TIP3    H123352   4.276   3.301   4.728
 7796TIP3    H223353   4.163   3.237   4.651
 7797TIP3   OH223354   1.524   5.847   5.271
 7797TIP3    H123355   1.445   5.792   5.278
 7797TIP3    H223356   1.491   5.931   5.240
 7798TIP3   OH223357   0.969   4.639   5.617
 7798TIP3    H123358   0.999   4.560   5.663
 7798TIP3    H223359   1.050   4.687   5.596
 7799TIP3   OH223360   5.203   1.486   5.635
 7799TIP3    H123361   5.225   1.568   5.592
 7799TIP3    H223362   5.287   1.446   5.656
 7800TIP3   OH223363   6.657   5.361   4.248
 7800TIP3    H123364   6.657   5.431   4.314
 7800TIP3    H223365   6.660   5.407   4.164
 7801TIP3   OH223366  -0.019   2.317   0.538
 7801TIP3    H123367  -0.098   2.367   0.516
 7801TIP3    H223368   0.030   2.375   0.596
 7802TIP3   OH223369   1.634   0.158   5.568
 7802TIP3    H123370   1.615   0.148   5.475
 7802TIP3    H223371   1.666   0.073   5.596
 7803TIP3   OH223372   3.594   4.469   4.785
 7803TIP3    H123373   3.680   4.490   4.821
 7803TIP3    H223374   3.573   4.383   4.822
 7804TIP3   OH223375   2.655   6.421   1.980
 7804TIP3    H123376   2.597   6.498   1.974
 7804TIP3    H223377   2.684   6.406   1.891
 7805TIP3   OH223378   6.334   6.399   1.951
 7805TIP3    H123379   6.253   6.360   1.917
 7805TIP3    H223380   6.400   6.331   1.938
 7806TIP3   OH223381   0.960   4.987   2.986
 7806TIP3    H123382   1.035   4.992   3.045
 7806TIP3    H223383   0.982   5.044   2.913
 7807TIP3   OH223384   3.391   3.662   4.226
 7807TIP3    H123385   3.354   3.593   4.282
 7807TIP3    H223386   3.476   3.627   4.198
 7808TIP3   OH223387   6.912   6.662   1.111
 7808TIP3    H123388   6.983   6.710   1.154
 7808TIP3    H223389   6.833   6.709   1.136
 7809TIP3   OH223390   3.822   5.797   5.821
 7809TIP3    H123391   3.736   5.774   5.786
 7809TIP3    H223392   3.879   5.726   5.791
 7810TIP3   OH223393   2.900   0.882   2.105
 7810TIP3    H123394   2.899   0.975   2.126
 7810TIP3    H223395   2.830   0.845   2.160
 7811TIP3   OH223396   4.600   2.587   5.770
 7811TIP3    H123397   4.643   2.504   5.792
 7811TIP3    H223398   4.659   2.628   5.706
 7812TIP3   OH223399   5.094   0.095   1.045
 7812TIP3    H123400   5.134   0.083   1.131
 7812TIP3    H223401   5.022   0.156   1.060
 7813TIP3   OH223402   5.839   2.825   3.766
 7813TIP3    H123403   5.832   2.849   3.858
 7813TIP3    H223404   5.861   2.906   3.721
 7814TIP3   OH223405   6.822   3.196   4.066
 7814TIP3    H123406   6.832   3.290   4.080
 7814TIP3    H223407   6.897   3.172   4.011
 7815TIP3   OH223408   1.782   1.506   2.150
 7815TIP3    H123409   1.833   1.425   2.142
 7815TIP3    H223410   1.783   1.524   2.244
 7816TIP3   OH223411   1.027   3.859   1.719
 7816TIP3    H123412   0.994   3.866   1.629
 7816TIP3    H223413   1.027   3.765   1.737
 7817TIP3   OH223414   3.742   6.386   2.933
 7817TIP3    H123415   3.696   6.464   2.965
 7817TIP3    H223416   3.733   6.389   2.838
 7818TIP3   OH223417   3.195   1.622   5.406
 7818TIP3    H123418   3.191   1.663   5.493
 7818TIP3    H223419   3.150   1.538   5.417
 7819TIP3   OH223420   1.297   3.615   2.227
 7819TIP3    H123421   1.325   3.527   2.250
 7819TIP3    H223422   1.349   3.638   2.150
 7820TIP3   OH223423   6.969   5.850   2.405
 7820TIP3    H123424   6.963   5.912   2.478
 7820TIP3    H223425   7.042   5.882   2.352
 7821TIP3   OH223426   0.592   4.252   3.511
 7821TIP3    H123427   0.544   4.181   3.553
 7821TIP3    H223428   0.678   4.215   3.491
 7822TIP3   OH223429   6.325   1.913   2.736
 7822TIP3    H123430   6.410   1.870   2.743
 7822TIP3    H223431   6.326   1.954   2.650
 7823TIP3   OH223432   3.140   2.901   5.375
 7823TIP3    H123433   3.056   2.946   5.362
 7823TIP3    H223434   3.205   2.962   5.341
 7824TIP3   OH223435   1.722   0.125   4.832
 7824TIP3    H123436   1.683   0.045   4.868
 7824TIP3    H223437   1.647   0.182   4.814
 7825TIP3   OH223438   1.352   6.835   5.609
 7825TIP3    H123439   1.437   6.877   5.623
 7825TIP3    H223440   1.361   6.790   5.525
 7826TIP3   OH223441   1.116   5.455   5.760
 7826TIP3    H123442   1.151   5.527   5.708
 7826TIP3    H223443   1.130   5.481   5.851
 7827TIP3   OH223444   0.463   6.461   3.274
 7827TIP3    H123445   0.399   6.415   3.327
 7827TIP3    H223446   0.548   6.426   3.303
 7828TIP3   OH223447   1.371   1.942   5.836
 7828TIP3    H123448   1.304   1.927   5.902
 7828TIP3    H223449   1.427   1.865   5.839
 7829TIP3   OH223450   4.027   3.368   3.857
 7829TIP3    H123451   4.062   3.294   3.808
 7829TIP3    H223452   4.077   3.444   3.825
 7830TIP3   OH223453   2.552   3.787   4.010
 7830TIP3    H123454   2.544   3.882   4.012
 7830TIP3    H223455   2.641   3.770   3.979
 7831TIP3   OH223456   6.490   1.440   2.685
 7831TIP3    H123457   6.448   1.525   2.699
 7831TIP3    H223458   6.424   1.376   2.710
 7832TIP3   OH223459   6.490   2.080   4.651
 7832TIP3    H123460   6.519   2.074   4.560
 7832TIP3    H223461   6.395   2.091   4.646
 7833TIP3   OH223462   6.831   3.429   3.533
 7833TIP3    H123463   6.780   3.371   3.477
 7833TIP3    H223464   6.844   3.379   3.613
 7834TIP3   OH223465   0.387   4.863   5.651
 7834TIP3    H123466   0.450   4.799   5.617
 7834TIP3    H223467   0.339   4.892   5.573
 7835TIP3   OH223468   2.536   2.116   3.255
 7835TIP3    H123469   2.612   2.062   3.277
 7835TIP3    H223470   2.507   2.082   3.170
 7836TIP3   OH223471   1.732   0.307   3.684
 7836TIP3    H123472   1.771   0.268   3.605
 7836TIP3    H223473   1.639   0.316   3.664
 7837TIP3   OH223474   2.673   1.100   0.163
 7837TIP3    H123475   2.608   1.032   0.182
 7837TIP3    H223476   2.623   1.173   0.128
 7838TIP3   OH223477   6.750   0.601   3.943
 7838TIP3    H123478   6.832   0.643   3.971
 7838TIP3    H223479   6.753   0.514   3.983
 7839TIP3   OH223480   1.730   4.252   1.320
 7839TIP3    H123481   1.718   4.159   1.300
 7839TIP3    H223482   1.679   4.298   1.253
 7840TIP3   OH223483   0.854   1.625   5.452
 7840TIP3    H123484   0.904   1.548   5.426
 7840TIP3    H223485   0.911   1.699   5.432
 7841TIP3   OH223486   2.221   4.614   0.870
 7841TIP3    H123487   2.174   4.575   0.945
 7841TIP3    H223488   2.212   4.708   0.883
 7842TIP3   OH223489   0.484   2.207   1.974
 7842TIP3    H123490   0.481   2.118   2.008
 7842TIP3    H223491   0.392   2.231   1.962
 7843TIP3   OH223492   3.784   1.609   3.391
 7843TIP3    H123493   3.788   1.598   3.296
 7843TIP3    H223494   3.799   1.703   3.405
 7844TIP3   OH223495   2.633   0.307   0.223
 7844TIP3    H123496   2.682   0.257   0.288
 7844TIP3    H223497   2.542   0.283   0.239
 7845TIP3   OH223498   5.300   6.293   0.673
 7845TIP3    H123499   5.250   6.374   0.664
 7845TIP3    H223500   5.391   6.322   0.682
 7846TIP3   OH223501   3.845   6.454   1.505
 7846TIP3    H123502   3.802   6.455   1.590
 7846TIP3    H223503   3.934   6.482   1.522
 7847TIP3   OH223504   0.577   0.948   4.710
 7847TIP3    H123505   0.649   0.923   4.768
 7847TIP3    H223506   0.509   0.883   4.726
 7848TIP3   OH223507   6.844   1.216   5.575
 7848TIP3    H123508   6.849   1.285   5.509
 7848TIP3    H223509   6.764   1.235   5.624
 7849TIP3   OH223510   6.770   3.646   1.879
 7849TIP3    H123511   6.803   3.735   1.887
 7849TIP3    H223512   6.686   3.648   1.924
 7850TIP3   OH223513   0.222   1.786   0.763
 7850TIP3    H123514   0.169   1.727   0.708
 7850TIP3    H223515   0.180   1.871   0.755
 7851TIP3   OH223516   6.533   0.071   2.486
 7851TIP3    H123517   6.600   0.092   2.551
 7851TIP3    H223518   6.551  -0.020   2.462
 7852TIP3   OH223519   0.867   1.370   3.236
 7852TIP3    H123520   0.860   1.465   3.225
 7852TIP3    H223521   0.794   1.347   3.293
 7853TIP3   OH223522   6.599   3.486   1.653
 7853TIP3    H123523   6.574   3.456   1.740
 7853TIP3    H223524   6.689   3.455   1.641
 7854TIP3   OH223525   2.342   1.127   2.293
 7854TIP3    H123526   2.316   1.048   2.246
 7854TIP3    H223527   2.416   1.099   2.347
 7855TIP3   OH223528   6.972   0.002   2.483
 7855TIP3    H123529   6.930   0.084   2.455
 7855TIP3    H223530   6.922  -0.024   2.561
 7856TIP3   OH223531   0.184   3.825   3.870
 7856TIP3    H123532   0.128   3.841   3.794
 7856TIP3    H223533   0.272   3.813   3.834
 7857TIP3   OH223534   2.660   5.714   5.488
 7857TIP3    H123535   2.646   5.731   5.581
 7857TIP3    H223536   2.754   5.701   5.479
 7858TIP3   OH223537   3.303   4.586   5.712
 7858TIP3    H123538   3.224   4.624   5.673
 7858TIP3    H223539   3.366   4.658   5.714
 7859TIP3   OH223540   3.052   0.851   5.567
 7859TIP3    H123541   3.111   0.808   5.628
 7859TIP3    H223542   3.093   0.839   5.481
 7860TIP3   OH223543   3.636   3.590   2.072
 7860TIP3    H123544   3.726   3.598   2.040
 7860TIP3    H223545   3.584   3.570   1.994
 7861TIP3   OH223546   3.248   4.206   2.009
 7861TIP3    H123547   3.290   4.219   2.094
 7861TIP3    H223548   3.175   4.268   2.009
 7862TIP3   OH223549   6.810   0.133   0.401
 7862TIP3    H123550   6.804   0.051   0.449
 7862TIP3    H223551   6.904   0.145   0.386
 7863TIP3   OH223552   0.943   2.724   2.592
 7863TIP3    H123553   0.875   2.702   2.656
 7863TIP3    H223554   0.904   2.702   2.508
 7864TIP3   OH223555   3.133   4.448   1.267
 7864TIP3    H123556   3.093   4.535   1.264
 7864TIP3    H223557   3.214   4.460   1.317
 7865TIP3   OH223558   0.492   3.371   2.446
 7865TIP3    H123559   0.569   3.337   2.400
 7865TIP3    H223560   0.526   3.441   2.502
 7866TIP3   OH223561   4.378   4.645   0.896
 7866TIP3    H123562   4.288   4.676   0.900
 7866TIP3    H223563   4.431   4.725   0.900
 7867TIP3   OH223564   7.200   2.199   1.373
 7867TIP3    H123565   7.259   2.259   1.420
 7867TIP3    H223566   7.112   2.229   1.396
 7868TIP3   OH223567   6.526   6.358   5.773
 7868TIP3    H123568   6.476   6.439   5.768
 7868TIP3    H223569   6.545   6.347   5.867
 7869TIP3   OH223570   1.528   6.534   0.407
 7869TIP3    H123571   1.534   6.508   0.498
 7869TIP3    H223572   1.534   6.630   0.409
 7870TIP3   OH223573   3.515   6.211   1.933
 7870TIP3    H123574   3.485   6.263   2.008
 7870TIP3    H223575   3.610   6.206   1.944
 7871TIP3   OH223576   4.938   0.783   0.956
 7871TIP3    H123577   4.900   0.852   0.901
 7871TIP3    H223578   4.953   0.710   0.896
 7872TIP3   OH223579   0.040   5.208   3.088
 7872TIP3    H123580   0.101   5.135   3.089
 7872TIP3    H223581  -0.020   5.189   3.016
 7873TIP3   OH223582   5.252  -0.007   2.707
 7873TIP3    H123583   5.264  -0.058   2.788
 7873TIP3    H223584   5.332   0.043   2.698
 7874TIP3   OH223585   2.795   1.099   4.099
 7874TIP3    H123586   2.711   1.124   4.138
 7874TIP3    H223587   2.794   1.141   4.013
 7875TIP3   OH223588   5.100   2.661   1.827
 7875TIP3    H123589   5.174   2.690   1.774
 7875TIP3    H223590   5.024   2.670   1.770
 7876TIP3   OH223591   1.803   1.947   2.739
 7876TIP3    H123592   1.798   1.996   2.657
 7876TIP3    H223593   1.798   2.014   2.807
 7877TIP3   OH223594   2.523   2.685   2.501
 7877TIP3    H123595   2.553   2.595   2.493
 7877TIP3    H223596   2.447   2.691   2.443
 7878TIP3   OH223597   1.905   2.578   5.469
 7878TIP3    H123598   1.977   2.618   5.517
 7878TIP3    H223599   1.858   2.652   5.429
 7879TIP3   OH223600   6.652   5.660   0.432
 7879TIP3    H123601   6.717   5.632   0.367
 7879TIP3    H223602   6.653   5.591   0.498
 7880TIP3   OH223603   6.818   1.637   3.837
 7880TIP3    H123604   6.913   1.641   3.842
 7880TIP3    H223605   6.800   1.589   3.757
 7881TIP3   OH223606   7.089   2.584   0.532
 7881TIP3    H123607   7.009   2.576   0.480
 7881TIP3    H223608   7.060   2.574   0.623
 7882TIP3   OH223609   5.809   3.990   5.217
 7882TIP3    H123610   5.726   3.951   5.190
 7882TIP3    H223611   5.876   3.939   5.171
 7883TIP3   OH223612   3.401   6.034   4.917
 7883TIP3    H123613   3.369   6.020   4.828
 7883TIP3    H223614   3.487   6.075   4.905
 7884TIP3   OH223615   5.379   2.703   4.239
 7884TIP3    H123616   5.405   2.791   4.268
 7884TIP3    H223617   5.284   2.708   4.232
 7885TIP3   OH223618   3.511   3.232   2.053
 7885TIP3    H123619   3.559   3.271   2.127
 7885TIP3    H223620   3.447   3.174   2.094
 7886TIP3   OH223621   5.080   5.309   2.472
 7886TIP3    H123622   5.138   5.288   2.399
 7886TIP3    H223623   4.997   5.266   2.450
 7887TIP3   OH223624   3.922   4.219   1.541
 7887TIP3    H123625   3.887   4.132   1.519
 7887TIP3    H223626   3.967   4.206   1.625
 7888TIP3   OH223627   3.112   6.199   3.041
 7888TIP3    H123628   3.085   6.163   2.956
 7888TIP3    H223629   3.193   6.152   3.061
 7889TIP3   OH223630   4.582   6.439   5.856
 7889TIP3    H123631   4.493   6.425   5.886
 7889TIP3    H223632   4.637   6.394   5.920
 7890TIP3   OH223633   2.388   4.051   4.695
 7890TIP3    H123634   2.345   3.983   4.746
 7890TIP3    H223635   2.434   4.005   4.625
 7891TIP3   OH223636   5.742   3.923   4.761
 7891TIP3    H123637   5.802   3.990   4.729
 7891TIP3    H223638   5.775   3.841   4.722
 7892TIP3   OH223639   5.757   1.681   4.083
 7892TIP3    H123640   5.679   1.733   4.064
 7892TIP3    H223641   5.818   1.702   4.012
 7893TIP3   OH223642   7.016   3.199   3.024
 7893TIP3    H123643   7.021   3.270   2.959
 7893TIP3    H223644   7.019   3.244   3.108
 7894TIP3   OH223645   4.428   4.076   1.337
 7894TIP3    H123646   4.392   4.007   1.393
 7894TIP3    H223647   4.493   4.120   1.392
 7895TIP3   OH223648   6.653   4.705   3.373
 7895TIP3    H123649   6.736   4.678   3.412
 7895TIP3    H223650   6.591   4.637   3.400
 7896TIP3   OH223651   3.850   6.387   0.469
 7896TIP3    H123652   3.895   6.307   0.440
 7896TIP3    H223653   3.834   6.436   0.389
 7897TIP3   OH223654   3.142   3.554   3.602
 7897TIP3    H123655   3.072   3.580   3.543
 7897TIP3    H223656   3.097   3.521   3.680
 7898TIP3   OH223657   5.412   4.053   2.764
 7898TIP3    H123658   5.432   4.092   2.849
 7898TIP3    H223659   5.482   3.990   2.748
 7899TIP3   OH223660   1.429   4.461   4.498
 7899TIP3    H123661   1.470   4.501   4.575
 7899TIP3    H223662   1.437   4.366   4.514
 7900TIP3   OH223663   6.428   6.168   5.033
 7900TIP3    H123664   6.356   6.197   5.088
 7900TIP3    H223665   6.389   6.102   4.975
 7901TIP3   OH223666   0.289   4.235   1.068
 7901TIP3    H123667   0.294   4.199   0.979
 7901TIP3    H223668   0.280   4.330   1.054
 7902TIP3   OH223669   3.518   2.412   4.138
 7902TIP3    H123670   3.446   2.363   4.179
 7902TIP3    H223671   3.482   2.439   4.053
 7903TIP3   OH223672   7.167   6.223   3.291
 7903TIP3    H123673   7.238   6.167   3.259
 7903TIP3    H223674   7.090   6.196   3.241
 7904TIP3   OH223675   3.551   2.386   1.071
 7904TIP3    H123676   3.492   2.311   1.059
 7904TIP3    H223677   3.500   2.462   1.044
 7905TIP3   OH223678   2.170   0.541   1.380
 7905TIP3    H123679   2.101   0.482   1.349
 7905TIP3    H223680   2.130   0.628   1.377
 7906TIP3   OH223681   6.344   3.403   4.257
 7906TIP3    H123682   6.305   3.346   4.323
 7906TIP3    H223683   6.353   3.488   4.301
 7907TIP3   OH223684   3.887   0.402   3.628
 7907TIP3    H123685   3.850   0.349   3.699
 7907TIP3    H223686   3.885   0.345   3.551
 7908TIP3   OH223687   2.009   4.127   0.158
 7908TIP3    H123688   1.954   4.158   0.229
 7908TIP3    H223689   1.962   4.052   0.121
 7909TIP3   OH223690   6.923   6.751   0.423
 7909TIP3    H123691   6.830   6.747   0.400
 7909TIP3    H223692   6.941   6.666   0.465
 7910TIP3   OH223693   6.464   2.378   3.942
 7910TIP3    H123694   6.412   2.343   3.869
 7910TIP3    H223695   6.448   2.318   4.014
 7911TIP3   OH223696   0.295   0.091   0.115
 7911TIP3    H123697   0.287   0.102   0.210
 7911TIP3    H223698   0.213   0.049   0.089
 7912TIP3   OH223699   4.880   3.093   2.534
 7912TIP3    H123700   4.902   3.148   2.609
 7912TIP3    H223701   4.790   3.118   2.512
 7913TIP3   OH223702   1.593   1.313   3.808
 7913TIP3    H123703   1.601   1.281   3.898
 7913TIP3    H223704   1.601   1.408   3.816
 7914TIP3   OH223705   0.899   0.056   2.921
 7914TIP3    H123706   0.911   0.134   2.867
 7914TIP3    H223707   0.975   0.002   2.902
 7915TIP3   OH223708   6.812   5.110   0.190
 7915TIP3    H123709   6.733   5.062   0.214
 7915TIP3    H223710   6.874   5.041   0.164
 7916TIP3   OH223711   0.218   1.739   1.146
 7916TIP3    H123712   0.279   1.736   1.220
 7916TIP3    H223713   0.273   1.729   1.069
 7917TIP3   OH223714   6.986   0.151   1.536
 7917TIP3    H123715   7.039   0.093   1.482
 7917TIP3    H223716   7.000   0.238   1.499
 7918TIP3   OH223717   3.686   0.452   0.402
 7918TIP3    H123718   3.766   0.418   0.363
 7918TIP3    H223719   3.682   0.412   0.489
 7919TIP3   OH223720   0.518   6.289   1.453
 7919TIP3    H123721   0.530   6.316   1.544
 7919TIP3    H223722   0.476   6.363   1.411
 7920TIP3   OH223723   5.667   6.582   5.071
 7920TIP3    H123724   5.638   6.584   5.162
 7920TIP3    H223725   5.647   6.493   5.041
 7921TIP3   OH223726   5.467   2.350   1.325
 7921TIP3    H123727   5.374   2.373   1.322
 7921TIP3    H223728   5.482   2.320   1.414
 7922TIP3   OH223729   4.518   5.330   5.759
 7922TIP3    H123730   4.455   5.362   5.693
 7922TIP3    H223731   4.602   5.368   5.733
 7923TIP3   OH223732   5.767   1.021   1.787
 7923TIP3    H123733   5.807   1.108   1.785
 7923TIP3    H223734   5.788   0.987   1.874
 7924TIP3   OH223735   1.435   6.079   2.558
 7924TIP3    H123736   1.411   5.988   2.545
 7924TIP3    H223737   1.486   6.079   2.639
 7925TIP3   OH223738   6.452   1.849   3.816
 7925TIP3    H123739   6.510   1.781   3.851
 7925TIP3    H223740   6.378   1.851   3.875
 7926TIP3   OH223741   0.394   3.649   1.652
 7926TIP3    H123742   0.443   3.707   1.594
 7926TIP3    H223743   0.302   3.662   1.628
 7927TIP3   OH223744   5.779   4.514   5.194
 7927TIP3    H123745   5.827   4.521   5.277
 7927TIP3    H223746   5.748   4.424   5.192
 7928TIP3   OH223747   5.925   0.477   5.049
 7928TIP3    H123748   5.855   0.542   5.062
 7928TIP3    H223749   6.004   0.529   5.035
 7929TIP3   OH223750   4.288   0.023   1.336
 7929TIP3    H123751   4.318   0.078   1.264
 7929TIP3    H223752   4.269  -0.061   1.295
 7930TIP3   OH223753   3.235   4.725   1.895
 7930TIP3    H123754   3.279   4.664   1.954
 7930TIP3    H223755   3.302   4.751   1.832
 7931TIP3   OH223756   5.542   3.965   3.807
 7931TIP3    H123757   5.474   3.909   3.770
 7931TIP3    H223758   5.585   3.910   3.872
 7932TIP3   OH223759   6.916   1.486   1.572
 7932TIP3    H123760   6.830   1.497   1.614
 7932TIP3    H223761   6.938   1.394   1.587
 7933TIP3   OH223762   6.781   0.170   2.209
 7933TIP3    H123763   6.776   0.130   2.122
 7933TIP3    H223764   6.749   0.259   2.196
 7934TIP3   OH223765   2.784   5.391   3.603
 7934TIP3    H123766   2.754   5.365   3.690
 7934TIP3    H223767   2.802   5.485   3.611
 7935TIP3   OH223768   5.205   5.800   4.828
 7935TIP3    H123769   5.141   5.736   4.860
 7935TIP3    H223770   5.167   5.833   4.747
 7936TIP3   OH223771   6.800   6.698   5.858
 7936TIP3    H123772   6.715   6.686   5.900
 7936TIP3    H223773   6.819   6.791   5.867
 7937TIP3   OH223774   3.121   1.595   1.778
 7937TIP3    H123775   3.186   1.664   1.790
 7937TIP3    H223776   3.172   1.516   1.760
 7938TIP3   OH223777   4.018   4.835   2.564
 7938TIP3    H123778   3.982   4.850   2.651
 7938TIP3    H223779   3.982   4.905   2.510
 7939TIP3   OH223780   6.769   3.286   1.485
 7939TIP3    H123781   6.837   3.350   1.465
 7939TIP3    H223782   6.774   3.275   1.580
 7940TIP3   OH223783   1.014   3.869   5.297
 7940TIP3    H123784   0.926   3.859   5.263
 7940TIP3    H223785   1.066   3.803   5.250
 7941TIP3   OH223786   2.829   0.348   4.896
 7941TIP3    H123787   2.827   0.443   4.913
 7941TIP3    H223788   2.833   0.341   4.801
 7942TIP3   OH223789   3.756   3.801   0.730
 7942TIP3    H123790   3.728   3.711   0.747
 7942TIP3    H223791   3.674   3.850   0.728
 7943TIP3   OH223792   3.474   5.946   0.215
 7943TIP3    H123793   3.479   5.853   0.237
 7943TIP3    H223794   3.394   5.954   0.163
 7944TIP3   OH223795   0.693   4.737   5.444
 7944TIP3    H123796   0.663   4.649   5.469
 7944TIP3    H223797   0.738   4.769   5.523
 7945TIP3   OH223798   0.425   0.743   4.789
 7945TIP3    H123799   0.446   0.650   4.784
 7945TIP3    H223800   0.329   0.745   4.798
 7946TIP3   OH223801   4.677   3.841   5.593
 7946TIP3    H123802   4.690   3.852   5.687
 7946TIP3    H223803   4.648   3.928   5.563
 7947TIP3   OH223804   6.178   0.156   3.316
 7947TIP3    H123805   6.126   0.078   3.337
 7947TIP3    H223806   6.246   0.124   3.257
 7948TIP3   OH223807   1.001   0.688   3.776
 7948TIP3    H123808   0.975   0.597   3.758
 7948TIP3    H223809   1.041   0.683   3.863
 7949TIP3   OH223810   7.072   2.147   4.776
 7949TIP3    H123811   7.137   2.182   4.837
 7949TIP3    H223812   7.075   2.207   4.701
 7950TIP3   OH223813   6.913   4.309   2.470
 7950TIP3    H123814   6.900   4.404   2.476
 7950TIP3    H223815   6.932   4.294   2.377
 7951TIP3   OH223816   2.212   0.522   3.093
 7951TIP3    H123817   2.257   0.575   3.027
 7951TIP3    H223818   2.282   0.473   3.136
 7952TIP3   OH223819   1.349   5.752   1.138
 7952TIP3    H123820   1.263   5.754   1.179
 7952TIP3    H223821   1.409   5.785   1.205
 7953TIP3   OH223822   6.053   4.662   2.630
 7953TIP3    H123823   6.067   4.570   2.652
 7953TIP3    H223824   6.138   4.703   2.648
 7954TIP3   OH223825   0.622   4.891   1.775
 7954TIP3    H123826   0.581   4.809   1.804
 7954TIP3    H223827   0.672   4.867   1.698
 7955TIP3   OH223828   6.705   1.110   0.675
 7955TIP3    H123829   6.692   1.016   0.689
 7955TIP3    H223830   6.770   1.115   0.605
 7956TIP3   OH223831   6.039   1.186   5.212
 7956TIP3    H123832   5.989   1.105   5.213
 7956TIP3    H223833   6.088   1.183   5.130
 7957TIP3   OH223834   1.492   6.131   1.627
 7957TIP3    H123835   1.537   6.134   1.542
 7957TIP3    H223836   1.562   6.121   1.691
 7958TIP3   OH223837   5.112   2.074   1.680
 7958TIP3    H123838   5.175   2.052   1.748
 7958TIP3    H223839   5.071   2.155   1.711
 7959TIP3   OH223840   4.492   4.400   2.162
 7959TIP3    H123841   4.465   4.372   2.074
 7959TIP3    H223842   4.437   4.477   2.180
 7960TIP3   OH223843   5.105   6.762   2.730
 7960TIP3    H123844   5.112   6.845   2.682
 7960TIP3    H223845   5.141   6.782   2.816
 7961TIP3   OH223846   6.266   0.479   4.696
 7961TIP3    H123847   6.331   0.430   4.645
 7961TIP3    H223848   6.255   0.561   4.648
 7962TIP3   OH223849   6.683   0.513   5.923
 7962TIP3    H123850   6.686   0.526   5.828
 7962TIP3    H223851   6.679   0.418   5.934
 7963TIP3   OH223852   4.387   3.412   0.767
 7963TIP3    H123853   4.318   3.479   0.767
 7963TIP3    H223854   4.468   3.462   0.754
 7964TIP3   OH223855   5.163   0.458   4.380
 7964TIP3    H123856   5.236   0.397   4.381
 7964TIP3    H223857   5.158   0.490   4.290
 7965TIP3   OH223858   7.003   0.645   2.328
 7965TIP3    H123859   6.928   0.587   2.314
 7965TIP3    H223860   7.023   0.681   2.241
 7966TIP3   OH223861   6.934   5.796   4.648
 7966TIP3    H123862   6.963   5.718   4.695
 7966TIP3    H223863   7.008   5.820   4.592
 7967TIP3   OH223864   0.336   3.780   4.520
 7967TIP3    H123865   0.302   3.747   4.603
 7967TIP3    H223866   0.407   3.720   4.497
 7968TIP3   OH223867   1.028   0.636   3.005
 7968TIP3    H123868   1.025   0.671   2.916
 7968TIP3    H223869   0.983   0.702   3.058
 7969TIP3   OH223870   2.907   2.977   4.107
 7969TIP3    H123871   2.966   3.015   4.042
 7969TIP3    H223872   2.939   3.011   4.191
 7970TIP3   OH223873   5.580   2.267   0.914
 7970TIP3    H123874   5.543   2.255   0.826
 7970TIP3    H223875   5.522   2.216   0.971
 7971TIP3   OH223876   4.497   1.095   4.372
 7971TIP3    H123877   4.471   1.125   4.459
 7971TIP3    H223878   4.443   1.018   4.356
 7972TIP3   OH223879   5.800   5.269   5.052
 7972TIP3    H123880   5.739   5.252   4.979
 7972TIP3    H223881   5.874   5.212   5.035
 7973TIP3   OH223882   3.006   3.450   4.542
 7973TIP3    H123883   3.040   3.360   4.544
 7973TIP3    H223884   3.011   3.475   4.450
 7974TIP3   OH223885   5.702   1.335   3.794
 7974TIP3    H123886   5.665   1.282   3.865
 7974TIP3    H223887   5.646   1.412   3.791
 7975TIP3   OH223888   5.154   3.764   4.429
 7975TIP3    H123889   5.188   3.834   4.485
 7975TIP3    H223890   5.228   3.741   4.372
 7976TIP3   OH223891   0.562   0.717   3.267
 7976TIP3    H123892   0.522   0.801   3.289
 7976TIP3    H223893   0.513   0.686   3.191
 7977TIP3   OH223894   5.837   2.432   4.282
 7977TIP3    H123895   5.745   2.446   4.261
 7977TIP3    H223896   5.851   2.481   4.364
 7978TIP3   OH223897   4.311   6.726   2.353
 7978TIP3    H123898   4.358   6.807   2.336
 7978TIP3    H223899   4.279   6.697   2.268
 7979TIP3   OH223900   2.356   5.651   3.018
 7979TIP3    H123901   2.400   5.632   3.101
 7979TIP3    H223902   2.265   5.667   3.042
 7980TIP3   OH223903   6.665   0.808   0.588
 7980TIP3    H123904   6.572   0.783   0.583
 7980TIP3    H223905   6.712   0.731   0.557
 7981TIP3   OH223906   0.118   6.607   5.137
 7981TIP3    H123907   0.157   6.645   5.215
 7981TIP3    H223908   0.183   6.546   5.104
 7982TIP3   OH223909   0.576   1.500   0.343
 7982TIP3    H123910   0.609   1.458   0.264
 7982TIP3    H223911   0.483   1.513   0.326
 7983TIP3   OH223912   5.222   1.415   3.527
 7983TIP3    H123913   5.137   1.379   3.501
 7983TIP3    H223914   5.243   1.478   3.458
 7984TIP3   OH223915   1.263   1.828   3.133
 7984TIP3    H123916   1.297   1.800   3.218
 7984TIP3    H223917   1.333   1.804   3.071
 7985TIP3   OH223918   4.762   6.123   0.053
 7985TIP3    H123919   4.849   6.085   0.065
 7985TIP3    H223920   4.719   6.065  -0.010
 7986TIP3   OH223921   1.935   5.385   1.804
 7986TIP3    H123922   1.873   5.375   1.731
 7986TIP3    H223923   1.952   5.480   1.807
 7987TIP3   OH223924   4.051   2.748   4.826
 7987TIP3    H123925   4.006   2.829   4.800
 7987TIP3    H223926   4.022   2.734   4.916
 7988TIP3   OH223927   5.636   2.533   3.599
 7988TIP3    H123928   5.705   2.545   3.534
 7988TIP3    H223929   5.618   2.439   3.598
 7989TIP3   OH223930   2.224   2.626   3.143
 7989TIP3    H123931   2.130   2.634   3.130
 7989TIP3    H223932   2.255   2.578   3.066
 7990TIP3   OH223933   3.893   4.373   1.954
 7990TIP3    H123934   3.860   4.461   1.937
 7990TIP3    H223935   3.814   4.319   1.959
 7991TIP3   OH223936   3.679   2.397   5.008
 7991TIP3    H123937   3.695   2.399   4.913
 7991TIP3    H223938   3.609   2.460   5.022
 7992TIP3   OH223939   4.524   6.229   3.755
 7992TIP3    H123940   4.610   6.190   3.739
 7992TIP3    H223941   4.513   6.226   3.850
 7993TIP3   OH223942   0.523   2.163   4.417
 7993TIP3    H123943   0.529   2.105   4.493
 7993TIP3    H223944   0.451   2.128   4.366
 7994TIP3   OH223945   3.396   1.885   3.799
 7994TIP3    H123946   3.439   1.944   3.737
 7994TIP3    H223947   3.467   1.840   3.844
 7995TIP3   OH223948   3.578   0.430   2.651
 7995TIP3    H123949   3.647   0.375   2.615
 7995TIP3    H223950   3.590   0.425   2.746
 7996TIP3   OH223951   3.769   4.769   4.601
 7996TIP3    H123952   3.810   4.843   4.644
 7996TIP3    H223953   3.840   4.727   4.552
 7997TIP3   OH223954   5.841   0.456   5.649
 7997TIP3    H123955   5.854   0.547   5.623
 7997TIP3    H223956   5.929   0.422   5.663
 7998TIP3   OH223957   4.949   5.567   4.556
 7998TIP3    H123958   4.922   5.488   4.603
 7998TIP3    H223959   5.045   5.563   4.557
 7999TIP3   OH223960   6.375   4.281   4.235
 7999TIP3    H123961   6.446   4.217   4.246
 7999TIP3    H223962   6.382   4.307   4.143
 8000TIP3   OH223963   4.556   5.284   3.997
 8000TIP3    H123964   4.487   5.237   3.951
 8000TIP3    H223965   4.525   5.375   4.001
 8001TIP3   OH223966   3.237   5.872   0.470
 8001TIP3    H123967   3.234   5.938   0.539
 8001TIP3    H223968   3.189   5.911   0.398
 8002TIP3   OH223969   0.281   4.196   3.639
 8002TIP3    H123970   0.279   4.200   3.544
 8002TIP3    H223971   0.189   4.189   3.665
 8003TIP3   OH223972   7.095   0.135   0.346
 8003TIP3    H123973   7.076   0.144   0.252
 8003TIP3    H223974   7.146   0.054   0.352
 8004TIP3   OH223975   1.653   6.437   1.115
 8004TIP3    H123976   1.681   6.525   1.088
 8004TIP3    H223977   1.582   6.452   1.177
 8005TIP3   OH223978   3.504   6.464   5.347
 8005TIP3    H123979   3.567   6.399   5.378
 8005TIP3    H223980   3.460   6.422   5.273
 8006TIP3   OH223981   1.979   2.203   2.798
 8006TIP3    H123982   1.893   2.165   2.817
 8006TIP3    H223983   2.038   2.129   2.793
 8007TIP3   OH223984   7.196   0.522   5.813
 8007TIP3    H123985   7.205   0.441   5.864
 8007TIP3    H223986   7.285   0.547   5.791
 8008TIP3   OH223987   5.605   3.350   4.402
 8008TIP3    H123988   5.659   3.370   4.326
 8008TIP3    H223989   5.625   3.418   4.466
 8009TIP3   OH223990   5.039   2.614   5.636
 8009TIP3    H123991   5.060   2.696   5.680
 8009TIP3    H223992   5.123   2.566   5.634
 8010TIP3   OH223993   3.199   0.280   0.321
 8010TIP3    H123994   3.147   0.361   0.323
 8010TIP3    H223995   3.188   0.247   0.232
 8011TIP3   OH223996   7.045   0.932   1.468
 8011TIP3    H123997   7.065   1.019   1.503
 8011TIP3    H223998   7.017   0.947   1.378
 8012TIP3   OH223999   7.113   5.196   5.862
 8012TIP3    H124000   7.138   5.116   5.908
 8012TIP3    H224001   7.194   5.246   5.857
 8013TIP3   OH224002   0.275   1.348   3.286
 8013TIP3    H124003   0.240   1.432   3.257
 8013TIP3    H224004   0.240   1.285   3.223
 8014TIP3   OH224005   2.584   4.585   5.407
 8014TIP3    H124006   2.633   4.518   5.359
 8014TIP3    H224007   2.638   4.664   5.400
 8015TIP3   OH224008   2.481   6.024   5.839
 8015TIP3    H124009   2.525   6.051   5.920
 8015TIP3    H224010   2.394   5.996   5.868
 8016TIP3   OH224011   3.326   1.187   0.290
 8016TIP3    H124012   3.288   1.240   0.359
 8016TIP3    H224013   3.267   1.199   0.215
 8017TIP3   OH224014   5.135   4.069   0.937
 8017TIP3    H124015   5.153   4.157   0.903
 8017TIP3    H224016   5.095   4.084   1.022
 8018TIP3   OH224017   3.725   2.552   5.868
 8018TIP3    H124018   3.816   2.526   5.882
 8018TIP3    H224019   3.680   2.470   5.846
 8019TIP3   OH224020   5.951   1.157   0.900
 8019TIP3    H124021   5.963   1.098   0.974
 8019TIP3    H224022   5.998   1.116   0.828
 8020TIP3   OH224023   6.759   5.481   3.695
 8020TIP3    H124024   6.847   5.511   3.671
 8020TIP3    H224025   6.718   5.457   3.612
 8021TIP3   OH224026   1.705   4.499   1.443
 8021TIP3    H124027   1.768   4.529   1.509
 8021TIP3    H224028   1.718   4.404   1.439
 8022TIP3   OH224029   7.040   2.891   0.876
 8022TIP3    H124030   7.028   2.864   0.785
 8022TIP3    H224031   7.050   2.986   0.872
 8023TIP3   OH224032   4.779   2.660   1.437
 8023TIP3    H124033   4.797   2.644   1.530
 8023TIP3    H224034   4.787   2.573   1.396
 8024TIP3   OH224035   0.702   0.069   2.605
 8024TIP3    H124036   0.767   0.098   2.541
 8024TIP3    H224037   0.623   0.118   2.583
 8025TIP3   OH224038   5.782   6.222   1.656
 8025TIP3    H124039   5.806   6.135   1.690
 8025TIP3    H224040   5.798   6.281   1.729
 8026TIP3   OH224041   7.020   6.519   1.750
 8026TIP3    H124042   7.069   6.490   1.674
 8026TIP3    H224043   7.064   6.477   1.824
 8027TIP3   OH224044   2.359   5.716   3.373
 8027TIP3    H124045   2.431   5.669   3.332
 8027TIP3    H224046   2.363   5.693   3.465
 8028TIP3   OH224047   0.743   1.762   3.855
 8028TIP3    H124048   0.689   1.707   3.798
 8028TIP3    H224049   0.760   1.708   3.932
 8029TIP3   OH224050   4.034   1.816   3.415
 8029TIP3    H124051   4.001   1.902   3.442
 8029TIP3    H224052   4.030   1.818   3.319
 8030TIP3   OH224053   1.815   5.988   0.683
 8030TIP3    H124054   1.814   6.059   0.747
 8030TIP3    H224055   1.883   6.013   0.620
 8031TIP3   OH224056   6.326   1.558   5.303
 8031TIP3    H124057   6.355   1.578   5.214
 8031TIP3    H224058   6.396   1.503   5.339
 8032TIP3   OH224059   7.002   3.069   1.835
 8032TIP3    H124060   6.954   2.990   1.858
 8032TIP3    H224061   6.942   3.117   1.777
 8033TIP3   OH224062   0.755   3.258   4.624
 8033TIP3    H124063   0.704   3.282   4.547
 8033TIP3    H224064   0.702   3.288   4.698
 8034TIP3   OH224065   0.757   2.185   3.842
 8034TIP3    H124066   0.828   2.248   3.830
 8034TIP3    H224067   0.684   2.237   3.875
 8035TIP3   OH224068   1.183   2.199   5.208
 8035TIP3    H124069   1.238   2.131   5.246
 8035TIP3    H224070   1.208   2.202   5.116
 8036TIP3   OH224071   5.601   0.329   0.335
 8036TIP3    H124072   5.660   0.405   0.342
 8036TIP3    H224073   5.659   0.253   0.337
 8037TIP3   OH224074   2.107   3.542   3.281
 8037TIP3    H124075   2.198   3.544   3.250
 8037TIP3    H224076   2.086   3.633   3.300
 8038TIP3   OH224077   4.424   2.021   4.538
 8038TIP3    H124078   4.412   2.114   4.557
 8038TIP3    H224079   4.468   1.986   4.615
 8039TIP3   OH224080   3.790   4.215   4.236
 8039TIP3    H124081   3.824   4.272   4.167
 8039TIP3    H224082   3.743   4.275   4.295
 8040TIP3   OH224083   4.150   6.658   1.328
 8040TIP3    H124084   4.202   6.659   1.409
 8040TIP3    H224085   4.078   6.718   1.346
 8041TIP3   OH224086   5.142   0.799   5.217
 8041TIP3    H124087   5.114   0.826   5.129
 8041TIP3    H224088   5.238   0.796   5.211
 8042TIP3   OH224089   4.481   2.835   1.323
 8042TIP3    H124090   4.556   2.797   1.368
 8042TIP3    H224091   4.484   2.798   1.235
 8043TIP3   OH224092   7.195   5.756   2.073
 8043TIP3    H124093   7.125   5.819   2.088
 8043TIP3    H224094   7.259   5.803   2.020
 8044TIP3   OH224095   5.497   0.623   5.393
 8044TIP3    H124096   5.413   0.577   5.386
 8044TIP3    H224097   5.500   0.679   5.315
 8045TIP3   OH224098   3.251   4.400   2.707
 8045TIP3    H124099   3.231   4.312   2.675
 8045TIP3    H224100   3.236   4.395   2.801
 8046TIP3   OH224101   0.078   1.890   4.476
 8046TIP3    H124102   0.025   1.924   4.404
 8046TIP3    H224103   0.084   1.795   4.460
 8047TIP3   OH224104   0.515   6.344   5.852
 8047TIP3    H124105   0.539   6.279   5.786
 8047TIP3    H224106   0.544   6.427   5.815
 8048TIP3   OH224107   5.749   2.230   4.543
 8048TIP3    H124108   5.796   2.306   4.579
 8048TIP3    H224109   5.657   2.249   4.558
 8049TIP3   OH224110   3.339   4.277   2.297
 8049TIP3    H124111   3.315   4.279   2.389
 8049TIP3    H224112   3.410   4.341   2.289
 8050TIP3   OH224113   4.568   1.774   1.841
 8050TIP3    H124114   4.539   1.727   1.919
 8050TIP3    H224115   4.568   1.867   1.867
 8051TIP3   OH224116   0.707   3.846   1.748
 8051TIP3    H124117   0.788   3.874   1.706
 8051TIP3    H224118   0.640   3.861   1.682
 8052TIP3   OH224119   4.475   1.004   2.472
 8052TIP3    H124120   4.488   0.922   2.425
 8052TIP3    H224121   4.544   1.062   2.439
 8053TIP3   OH224122   4.285   0.546   3.439
 8053TIP3    H124123   4.362   0.601   3.448
 8053TIP3    H224124   4.260   0.555   3.347
 8054TIP3   OH224125   3.326   5.288   2.958
 8054TIP3    H124126   3.252   5.237   2.988
 8054TIP3    H224127   3.393   5.277   3.026
 8055TIP3   OH224128   0.116   4.564   2.146
 8055TIP3    H124129   0.039   4.560   2.202
 8055TIP3    H224130   0.188   4.534   2.202
 8056TIP3   OH224131   2.025   6.057   5.845
 8056TIP3    H124132   2.046   6.069   5.753
 8056TIP3    H224133   1.929   6.053   5.847
 8057TIP3   OH224134   0.662   0.991   1.624
 8057TIP3    H124135   0.750   0.954   1.611
 8057TIP3    H224136   0.617   0.974   1.541
 8058TIP3   OH224137   1.826   4.454   5.305
 8058TIP3    H124138   1.872   4.380   5.344
 8058TIP3    H224139   1.734   4.439   5.327
 8059TIP3   OH224140   1.607   1.560   1.585
 8059TIP3    H124141   1.630   1.502   1.657
 8059TIP3    H224142   1.668   1.633   1.592
 8060TIP3   OH224143   4.276   5.091   3.917
 8060TIP3    H124144   4.204   5.043   3.877
 8060TIP3    H224145   4.240   5.179   3.932
 8061TIP3   OH224146   2.288   1.039   4.174
 8061TIP3    H124147   2.237   1.098   4.229
 8061TIP3    H224148   2.313   0.968   4.232
 8062TIP3   OH224149   6.735   5.533   5.014
 8062TIP3    H124150   6.829   5.552   5.009
 8062TIP3    H224151   6.697   5.612   5.052
 8063TIP3   OH224152   1.975   1.122   0.716
 8063TIP3    H124153   1.999   1.076   0.636
 8063TIP3    H224154   2.057   1.131   0.765
 8064TIP3   OH224155   3.193   3.113   1.324
 8064TIP3    H124156   3.136   3.048   1.283
 8064TIP3    H224157   3.134   3.173   1.369
 8065TIP3   OH224158   5.205   5.869   0.483
 8065TIP3    H124159   5.140   5.907   0.543
 8065TIP3    H224160   5.259   5.813   0.539
 8066TIP3   OH224161   3.106   4.882   1.218
 8066TIP3    H124162   3.196   4.885   1.250
 8066TIP3    H224163   3.096   4.963   1.168
 8067TIP3   OH224164   4.069   4.392   5.037
 8067TIP3    H124165   4.128   4.347   5.098
 8067TIP3    H224166   4.127   4.446   4.983
 8068TIP3   OH224167   7.012   2.255   3.795
 8068TIP3    H124168   7.088   2.308   3.773
 8068TIP3    H224169   6.959   2.254   3.715
 8069TIP3   OH224170   4.362   1.725   0.752
 8069TIP3    H124171   4.266   1.725   0.755
 8069TIP3    H224172   4.383   1.739   0.660
 8070TIP3   OH224173   6.184   1.095   5.020
 8070TIP3    H124174   6.220   1.044   5.092
 8070TIP3    H224175   6.132   1.032   4.969
 8071TIP3   OH224176   7.202   0.887   5.053
 8071TIP3    H124177   7.130   0.862   4.996
 8071TIP3    H224178   7.188   0.981   5.070
 8072TIP3   OH224179   4.750   0.196   5.509
 8072TIP3    H124180   4.788   0.202   5.597
 8072TIP3    H224181   4.826   0.191   5.451
 8073TIP3   OH224182   6.602   4.119   4.277
 8073TIP3    H124183   6.652   4.139   4.198
 8073TIP3    H224184   6.655   4.153   4.349
 8074TIP3   OH224185   2.324   0.196   2.140
 8074TIP3    H124186   2.253   0.169   2.198
 8074TIP3    H224187   2.322   0.133   2.068
 8075TIP3   OH224188   6.751   2.532   4.184
 8075TIP3    H124189   6.750   2.440   4.212
 8075TIP3    H224190   6.772   2.528   4.090
 8076TIP3   OH224191   0.403   5.272   1.104
 8076TIP3    H124192   0.385   5.341   1.167
 8076TIP3    H224193   0.359   5.302   1.024
 8077TIP3   OH224194   2.620   6.396   0.647
 8077TIP3    H124195   2.559   6.401   0.721
 8077TIP3    H224196   2.583   6.455   0.581
 8078TIP3   OH224197   1.617   2.410   5.502
 8078TIP3    H124198   1.660   2.395   5.418
 8078TIP3    H224199   1.586   2.500   5.498
 8079TIP3   OH224200   0.524   3.954   2.884
 8079TIP3    H124201   0.584   3.995   2.946
 8079TIP3    H224202   0.437   3.973   2.920
 8080TIP3   OH224203   5.514   5.605   5.113
 8080TIP3    H124204   5.458   5.642   5.182
 8080TIP3    H224205   5.603   5.614   5.148
 8081TIP3   OH224206   4.082   3.281   0.831
 8081TIP3    H124207   4.078   3.257   0.924
 8081TIP3    H224208   4.090   3.198   0.785
 8082TIP3   OH224209   4.693   3.598   4.905
 8082TIP3    H124210   4.787   3.582   4.890
 8082TIP3    H224211   4.652   3.513   4.895
 8083TIP3   OH224212   6.889   5.693   2.900
 8083TIP3    H124213   6.925   5.738   2.824
 8083TIP3    H224214   6.938   5.611   2.905
 8084TIP3   OH224215   4.144   4.562   3.249
 8084TIP3    H124216   4.082   4.509   3.199
 8084TIP3    H224217   4.128   4.540   3.340
 8085TIP3   OH224218   5.140   3.009   1.226
 8085TIP3    H124219   5.087   2.948   1.278
 8085TIP3    H224220   5.113   2.993   1.136
 8086TIP3   OH224221   5.919   1.511   3.583
 8086TIP3    H124222   5.890   1.602   3.590
 8086TIP3    H224223   5.924   1.481   3.674
 8087TIP3   OH224224   1.735   5.537   2.006
 8087TIP3    H124225   1.642   5.524   1.991
 8087TIP3    H224226   1.755   5.620   1.963
 8088TIP3   OH224227   1.297   0.768   4.524
 8088TIP3    H124228   1.382   0.809   4.541
 8088TIP3    H224229   1.240   0.805   4.591
 8089TIP3   OH224230   2.870   1.942   0.150
 8089TIP3    H124231   2.958   1.910   0.166
 8089TIP3    H224232   2.862   2.020   0.205
 8090TIP3   OH224233   7.012   5.255   1.582
 8090TIP3    H124234   6.954   5.328   1.602
 8090TIP3    H224235   7.065   5.243   1.661
 8091TIP3   OH224236   4.388   2.675   3.602
 8091TIP3    H124237   4.435   2.756   3.583
 8091TIP3    H224238   4.297   2.701   3.613
 8092TIP3   OH224239   6.044   4.696   4.536
 8092TIP3    H124240   5.965   4.708   4.588
 8092TIP3    H224241   6.016   4.707   4.445
 8093TIP3   OH224242   7.083   3.382   4.916
 8093TIP3    H124243   7.032   3.428   4.983
 8093TIP3    H224244   7.124   3.309   4.962
 8094TIP3   OH224245   2.902   4.026   0.910
 8094TIP3    H124246   2.940   4.046   0.824
 8094TIP3    H224247   2.906   3.930   0.915
 8095TIP3   OH224248   6.877   6.160   4.770
 8095TIP3    H124249   6.791   6.124   4.791
 8095TIP3    H224250   6.938   6.087   4.784
 8096TIP3   OH224251   6.376   1.516   3.301
 8096TIP3    H124252   6.283   1.498   3.313
 8096TIP3    H224253   6.408   1.537   3.389
 8097TIP3   OH224254   3.847   1.630   4.516
 8097TIP3    H124255   3.800   1.580   4.583
 8097TIP3    H224256   3.796   1.618   4.436
 8098TIP3   OH224257   4.545   0.920   4.628
 8098TIP3    H124258   4.559   0.832   4.593
 8098TIP3    H224259   4.452   0.922   4.651
 8099TIP3   OH224260   5.901   6.297   3.426
 8099TIP3    H124261   5.891   6.338   3.340
 8099TIP3    H224262   5.989   6.259   3.425
 8100TIP3   OH224263   3.352   1.723   1.766
 8100TIP3    H124264   3.403   1.803   1.773
 8100TIP3    H224265   3.417   1.653   1.769
 8101TIP3   OH224266   0.466   2.464   5.340
 8101TIP3    H124267   0.546   2.481   5.390
 8101TIP3    H224268   0.430   2.551   5.323
 8102TIP3   OH224269   6.487   6.525   3.813
 8102TIP3    H124270   6.531   6.521   3.728
 8102TIP3    H224271   6.556   6.553   3.874
 8103TIP3   OH224272   5.081   1.411   4.261
 8103TIP3    H124273   5.156   1.464   4.289
 8103TIP3    H224274   5.058   1.447   4.175
 8104TIP3   OH224275   0.878   3.956   5.535
 8104TIP3    H124276   0.818   4.014   5.488
 8104TIP3    H224277   0.949   3.940   5.474
 8105TIP3   OH224278   0.491   6.541   0.653
 8105TIP3    H124279   0.428   6.522   0.722
 8105TIP3    H224280   0.571   6.564   0.699
 8106TIP3   OH224281   2.003   4.808   3.582
 8106TIP3    H124282   2.096   4.809   3.605
 8106TIP3    H224283   1.958   4.778   3.662
 8107TIP3   OH224284   1.672   4.846   3.411
 8107TIP3    H124285   1.753   4.880   3.372
 8107TIP3    H224286   1.673   4.752   3.391
 8108TIP3   OH224287   6.575   5.740   4.751
 8108TIP3    H124288   6.578   5.686   4.830
 8108TIP3    H224289   6.659   5.787   4.751
 8109TIP3   OH224290   3.344   3.820   0.994
 8109TIP3    H124291   3.379   3.863   0.916
 8109TIP3    H224292   3.282   3.756   0.960
 8110TIP3   OH224293   0.623   4.981   5.740
 8110TIP3    H124294   0.646   4.890   5.757
 8110TIP3    H224295   0.531   4.978   5.714
 8111TIP3   OH224296   5.923   1.959   2.087
 8111TIP3    H124297   6.017   1.948   2.069
 8111TIP3    H224298   5.914   2.052   2.108
 8112TIP3   OH224299   3.613   0.065   3.031
 8112TIP3    H124300   3.557   0.081   3.107
 8112TIP3    H224301   3.702   0.073   3.064
 8113TIP3   OH224302   2.656   3.071   4.229
 8113TIP3    H124303   2.585   3.008   4.218
 8113TIP3    H224304   2.716   3.053   4.157
 8114TIP3   OH224305   3.744   3.309   5.467
 8114TIP3    H124306   3.786   3.225   5.448
 8114TIP3    H224307   3.718   3.343   5.381
 8115TIP3   OH224308   7.195   0.759  -0.002
 8115TIP3    H124309   7.123   0.722  -0.053
 8115TIP3    H224310   7.184   0.721   0.086
 8116TIP3   OH224311   5.174   6.632   4.827
 8116TIP3    H124312   5.085   6.665   4.815
 8116TIP3    H224313   5.166   6.537   4.819
 8117TIP3   OH224314   3.128   3.415   2.549
 8117TIP3    H124315   3.088   3.353   2.610
 8117TIP3    H224316   3.062   3.484   2.539
 8118TIP3   OH224317   4.719   1.747   4.183
 8118TIP3    H124318   4.686   1.830   4.217
 8118TIP3    H224319   4.711   1.756   4.088
 8119TIP3   OH224320   4.200   3.338   1.673
 8119TIP3    H124321   4.264   3.409   1.681
 8119TIP3    H224322   4.247   3.261   1.703
 8120TIP3   OH224323   3.510   3.665   5.735
 8120TIP3    H124324   3.501   3.699   5.824
 8120TIP3    H224325   3.563   3.586   5.745
 8121TIP3   OH224326   1.082   5.535   3.207
 8121TIP3    H124327   1.102   5.443   3.189
 8121TIP3    H224328   1.158   5.567   3.255
 8122TIP3   OH224329   6.332   1.913   5.272
 8122TIP3    H124330   6.280   1.922   5.352
 8122TIP3    H224331   6.413   1.872   5.300
 8123TIP3   OH224332   0.882   0.472   2.697
 8123TIP3    H124333   0.836   0.530   2.758
 8123TIP3    H224334   0.816   0.446   2.633
 8124TIP3   OH224335   6.253   4.560   3.934
 8124TIP3    H124336   6.298   4.636   3.897
 8124TIP3    H224337   6.166   4.562   3.894
 8125TIP3   OH224338   3.162   0.701   1.144
 8125TIP3    H124339   3.165   0.795   1.126
 8125TIP3    H224340   3.085   0.670   1.097
 8126TIP3   OH224341   2.611   1.614   0.111
 8126TIP3    H124342   2.517   1.624   0.104
 8126TIP3    H224343   2.647   1.669   0.041
 8127TIP3   OH224344   4.931   1.980   3.311
 8127TIP3    H124345   4.870   1.952   3.243
 8127TIP3    H224346   4.973   1.900   3.341
 8128TIP3   OH224347   0.069   4.494   5.703
 8128TIP3    H124348   0.017   4.574   5.709
 8128TIP3    H224349   0.124   4.496   5.782
 8129TIP3   OH224350   2.372   5.908   2.810
 8129TIP3    H124351   2.301   5.897   2.873
 8129TIP3    H224352   2.451   5.920   2.863
 8130TIP3   OH224353   0.427   0.822   1.492
 8130TIP3    H124354   0.422   0.778   1.577
 8130TIP3    H224355   0.379   0.904   1.504
 8131TIP3   OH224356   1.474   4.256   3.293
 8131TIP3    H124357   1.560   4.298   3.297
 8131TIP3    H224358   1.493   4.163   3.287
 8132TIP3   OH224359   2.795   1.412   1.007
 8132TIP3    H124360   2.706   1.405   1.039
 8132TIP3    H224361   2.840   1.467   1.071
 8133TIP3   OH224362   1.923   1.181   2.152
 8133TIP3    H124363   1.849   1.213   2.101
 8133TIP3    H224364   1.932   1.089   2.126
 8134TIP3   OH224365   4.258   0.804   4.595
 8134TIP3    H124366   4.278   0.785   4.503
 8134TIP3    H224367   4.165   0.782   4.604
 8135TIP3   OH224368   0.571   5.685   4.280
 8135TIP3    H124369   0.637   5.750   4.256
 8135TIP3    H224370   0.612   5.600   4.263
 8136TIP3   OH224371   4.792   2.718   3.924
 8136TIP3    H124372   4.776   2.728   4.017
 8136TIP3    H224373   4.837   2.633   3.916
 8137TIP3   OH224374   1.632   4.419   2.915
 8137TIP3    H124375   1.696   4.393   2.980
 8137TIP3    H224376   1.646   4.513   2.903
 8138TIP3   OH224377   1.227   2.895   5.197
 8138TIP3    H124378   1.268   2.808   5.195
 8138TIP3    H224379   1.205   2.914   5.106
 8139TIP3   OH224380   0.697   1.129   0.002
 8139TIP3    H124381   0.774   1.149  -0.052
 8139TIP3    H224382   0.726   1.148   0.091
 8140TIP3   OH224383   4.685   4.803   0.762
 8140TIP3    H124384   4.766   4.848   0.786
 8140TIP3    H224385   4.705   4.710   0.774
 8141TIP3   OH224386   5.060   0.464   4.643
 8141TIP3    H124387   4.970   0.435   4.628
 8141TIP3    H224388   5.092   0.487   4.556
 8142TIP3   OH224389   1.501   2.232   1.642
 8142TIP3    H124390   1.555   2.189   1.576
 8142TIP3    H224391   1.487   2.165   1.709
 8143TIP3   OH224392   5.865   6.126   1.933
 8143TIP3    H124393   5.846   6.049   1.878
 8143TIP3    H224394   5.783   6.144   1.979
 8144TIP3   OH224395   6.826   0.830   4.534
 8144TIP3    H124396   6.778   0.808   4.614
 8144TIP3    H224397   6.833   0.926   4.536
 8145TIP3   OH224398   4.144   0.361   1.179
 8145TIP3    H124399   4.231   0.363   1.219
 8145TIP3    H224400   4.092   0.308   1.239
 8146TIP3   OH224401   6.547   4.834   0.838
 8146TIP3    H124402   6.543   4.813   0.745
 8146TIP3    H224403   6.624   4.788   0.870
 8147TIP3   OH224404   5.630   1.633   2.134
 8147TIP3    H124405   5.645   1.586   2.052
 8147TIP3    H224406   5.536   1.629   2.148
 8148TIP3   OH224407   4.474   2.791   5.512
 8148TIP3    H124408   4.554   2.739   5.512
 8148TIP3    H224409   4.403   2.727   5.510
 8149TIP3   OH224410   4.680   0.171   3.749
 8149TIP3    H124411   4.688   0.266   3.736
 8149TIP3    H224412   4.753   0.148   3.805
 8150TIP3   OH224413   3.145   2.171   3.928
 8150TIP3    H124414   3.081   2.112   3.890
 8150TIP3    H224415   3.127   2.168   4.022
 8151TIP3   OH224416   6.704   3.410   0.260
 8151TIP3    H124417   6.682   3.354   0.186
 8151TIP3    H224418   6.797   3.393   0.276
 8152TIP3   OH224419   6.568   4.992   0.231
 8152TIP3    H124420   6.480   5.018   0.202
 8152TIP3    H224421   6.559   4.899   0.254
 8153TIP3   OH224422   5.011   3.207   4.700
 8153TIP3    H124423   5.097   3.170   4.722
 8153TIP3    H224424   4.982   3.249   4.781
 8154TIP3   OH224425   6.082   5.300   5.862
 8154TIP3    H124426   6.018   5.371   5.871
 8154TIP3    H224427   6.051   5.251   5.786
 8155TIP3   OH224428   0.663   1.942   3.209
 8155TIP3    H124429   0.716   1.993   3.148
 8155TIP3    H224430   0.717   1.865   3.228
 8156TIP3   OH224431   1.737   4.339   2.658
 8156TIP3    H124432   1.658   4.363   2.610
 8156TIP3    H224433   1.711   4.342   2.750
 8157TIP3   OH224434   1.625   4.707   2.395
 8157TIP3    H124435   1.682   4.676   2.325
 8157TIP3    H224436   1.581   4.784   2.358
 8158TIP3   OH224437   4.626   3.063   3.717
 8158TIP3    H124438   4.553   3.060   3.779
 8158TIP3    H224439   4.587   3.094   3.636
 8159TIP3   OH224440   6.210   3.786   0.034
 8159TIP3    H124441   6.260   3.857  -0.006
 8159TIP3    H224442   6.205   3.809   0.126
 8160TIP3   OH224443   4.136   6.586   2.974
 8160TIP3    H124444   4.073   6.562   3.041
 8160TIP3    H224445   4.174   6.668   3.006
 8161TIP3   OH224446   4.066   0.878   4.126
 8161TIP3    H124447   4.032   0.791   4.146
 8161TIP3    H224448   4.076   0.879   4.031
 8162TIP3   OH224449   0.205   5.382   4.314
 8162TIP3    H124450   0.185   5.443   4.385
 8162TIP3    H224451   0.183   5.430   4.234
 8163TIP3   OH224452   5.790   0.052   3.604
 8163TIP3    H124453   5.791   0.122   3.669
 8163TIP3    H224454   5.698   0.025   3.599
 8164TIP3   OH224455   3.001   1.987   1.766
 8164TIP3    H124456   3.077   1.982   1.709
 8164TIP3    H224457   3.028   2.046   1.837
 8165TIP3   OH224458   0.989   4.689   1.182
 8165TIP3    H124459   1.050   4.745   1.230
 8165TIP3    H224460   0.946   4.748   1.120
 8166TIP3   OH224461   3.659   5.433   0.465
 8166TIP3    H124462   3.734   5.374   0.458
 8166TIP3    H224463   3.584   5.378   0.444
 8167TIP3   OH224464   0.255   0.315   1.579
 8167TIP3    H124465   0.175   0.264   1.570
 8167TIP3    H224466   0.260   0.367   1.498
 8168TIP3   OH224467   5.886   1.136   3.811
 8168TIP3    H124468   5.838   1.067   3.766
 8168TIP3    H224469   5.832   1.215   3.801
 8169TIP3   OH224470   1.357   0.465   2.630
 8169TIP3    H124471   1.392   0.553   2.615
 8169TIP3    H224472   1.370   0.450   2.723
 8170TIP3   OH224473   5.757   1.772   1.255
 8170TIP3    H124474   5.763   1.697   1.195
 8170TIP3    H224475   5.756   1.732   1.342
 8171TIP3   OH224476   3.932   5.032   2.391
 8171TIP3    H124477   3.935   5.018   2.296
 8171TIP3    H224478   3.944   5.127   2.401
 8172TIP3   OH224479   3.069   3.032   3.476
 8172TIP3    H124480   3.082   2.937   3.469
 8172TIP3    H224481   2.974   3.042   3.482
 8173TIP3   OH224482   7.147   3.142   2.657
 8173TIP3    H124483   7.074   3.114   2.602
 8173TIP3    H224484   7.219   3.083   2.632
 8174TIP3   OH224485   2.180   3.754   2.023
 8174TIP3    H124486   2.263   3.715   1.997
 8174TIP3    H224487   2.198   3.848   2.030
 8175TIP3   OH224488   4.728   5.932   2.483
 8175TIP3    H124489   4.820   5.951   2.501
 8175TIP3    H224490   4.710   5.853   2.534
 8176TIP3   OH224491   5.242   4.765   3.758
 8176TIP3    H124492   5.181   4.698   3.727
 8176TIP3    H224493   5.305   4.775   3.687
 8177TIP3   OH224494   3.197   4.599   0.650
 8177TIP3    H124495   3.156   4.680   0.680
 8177TIP3    H224496   3.126   4.550   0.609
 8178TIP3   OH224497   2.556   6.013   1.353
 8178TIP3    H124498   2.472   6.017   1.306
 8178TIP3    H224499   2.619   6.050   1.291
 8179TIP3   OH224500   4.101   0.985   2.207
 8179TIP3    H124501   4.173   0.988   2.144
 8179TIP3    H224502   4.052   0.906   2.183
 8180TIP3   OH224503   4.238   1.078   0.514
 8180TIP3    H124504   4.207   0.997   0.474
 8180TIP3    H224505   4.233   1.062   0.608
 8181TIP3   OH224506   5.627   3.667   4.352
 8181TIP3    H124507   5.720   3.667   4.327
 8181TIP3    H224508   5.625   3.710   4.437
 8182TIP3   OH224509   0.873   3.497   1.573
 8182TIP3    H124510   0.831   3.497   1.659
 8182TIP3    H224511   0.964   3.521   1.590
 8183TIP3   OH224512   2.971   5.702   5.443
 8183TIP3    H124513   3.024   5.720   5.366
 8183TIP3    H224514   3.032   5.710   5.517
 8184TIP3   OH224515   2.972   5.337   2.451
 8184TIP3    H124516   2.993   5.377   2.367
 8184TIP3    H224517   2.876   5.330   2.451
 8185TIP3   OH224518   6.407   5.356   4.362
 8185TIP3    H124519   6.440   5.293   4.298
 8185TIP3    H224520   6.482   5.412   4.381
 8186TIP3   OH224521   1.460   0.349   2.897
 8186TIP3    H124522   1.379   0.398   2.913
 8186TIP3    H224523   1.528   0.399   2.941
 8187TIP3   OH224524   0.463   1.554   5.776
 8187TIP3    H124525   0.519   1.480   5.755
 8187TIP3    H224526   0.478   1.617   5.705
 8188TIP3   OH224527   5.191   4.496   5.190
 8188TIP3    H124528   5.140   4.572   5.220
 8188TIP3    H224529   5.215   4.517   5.100
 8189TIP3   OH224530   2.971   3.292   1.738
 8189TIP3    H124531   2.901   3.232   1.713
 8189TIP3    H224532   2.929   3.354   1.798
 8190TIP3   OH224533   4.757   2.126   1.503
 8190TIP3    H124534   4.786   2.039   1.528
 8190TIP3    H224535   4.754   2.124   1.407
 8191TIP3   OH224536   2.894   2.732   2.512
 8191TIP3    H124537   2.954   2.698   2.579
 8191TIP3    H224538   2.913   2.679   2.435
 8192TIP3   OH224539   4.539   0.541   0.502
 8192TIP3    H124540   4.507   0.583   0.581
 8192TIP3    H224541   4.629   0.516   0.522
 8193TIP3   OH224542   4.439   4.236   3.780
 8193TIP3    H124543   4.398   4.150   3.786
 8193TIP3    H224544   4.365   4.297   3.773
 8194TIP3   OH224545   2.894   0.355   4.624
 8194TIP3    H124546   2.969   0.296   4.611
 8194TIP3    H224547   2.818   0.304   4.595
 8195TIP3   OH224548   5.753   6.400   1.431
 8195TIP3    H124549   5.669   6.356   1.417
 8195TIP3    H224550   5.782   6.369   1.516
 8196TIP3   OH224551   1.893   5.285   1.346
 8196TIP3    H124552   1.923   5.358   1.400
 8196TIP3    H224553   1.973   5.239   1.320
 8197TIP3   OH224554   1.234   1.215   4.132
 8197TIP3    H124555   1.231   1.277   4.205
 8197TIP3    H224556   1.201   1.265   4.057
 8198TIP3   OH224557   2.861   2.532   2.014
 8198TIP3    H124558   2.916   2.591   1.963
 8198TIP3    H224559   2.779   2.579   2.025
 8199TIP3   OH224560   2.115   6.120   1.606
 8199TIP3    H124561   2.210   6.127   1.619
 8199TIP3    H224562   2.085   6.211   1.600
 8200TIP3   OH224563   3.255   2.707   1.680
 8200TIP3    H124564   3.274   2.780   1.738
 8200TIP3    H224565   3.313   2.637   1.709
 8201TIP3   OH224566   3.096   5.798   2.938
 8201TIP3    H124567   3.161   5.732   2.913
 8201TIP3    H224568   3.047   5.757   3.010
 8202TIP3   OH224569   2.008   1.097   4.783
 8202TIP3    H124570   2.016   1.185   4.820
 8202TIP3    H224571   1.968   1.046   4.853
 8203TIP3   OH224572   6.533   3.507   4.793
 8203TIP3    H124573   6.506   3.443   4.727
 8203TIP3    H224574   6.627   3.517   4.780
 8204TIP3   OH224575   2.119   3.184   2.854
 8204TIP3    H124576   2.053   3.134   2.806
 8204TIP3    H224577   2.093   3.176   2.946
 8205TIP3   OH224578   2.710   0.404   2.790
 8205TIP3    H124579   2.799   0.439   2.783
 8205TIP3    H224580   2.722   0.313   2.816
 8206TIP3   OH224581   7.158   3.238   3.281
 8206TIP3    H124582   7.249   3.233   3.250
 8206TIP3    H224583   7.123   3.150   3.265
 8207TIP3   OH224584   4.325   1.004   2.070
 8207TIP3    H124585   4.409   0.994   2.115
 8207TIP3    H224586   4.343   0.976   1.980
 8208TIP3   OH224587   2.312   1.980   0.278
 8208TIP3    H124588   2.326   1.933   0.196
 8208TIP3    H224589   2.226   2.020   0.269
 8209TIP3   OH224590   6.400   0.032   0.478
 8209TIP3    H124591   6.323   0.013   0.425
 8209TIP3    H224592   6.426   0.120   0.453
 8210TIP3   OH224593   4.096   6.007   1.610
 8210TIP3    H124594   4.080   6.078   1.671
 8210TIP3    H224595   4.050   6.032   1.530
 8211TIP3   OH224596   4.864   6.565   5.412
 8211TIP3    H124597   4.910   6.631   5.359
 8211TIP3    H224598   4.854   6.606   5.498
 8212TIP3   OH224599   2.116   4.710   2.669
 8212TIP3    H124600   2.081   4.759   2.595
 8212TIP3    H224601   2.055   4.638   2.681
 8213TIP3   OH224602   5.683   1.266   4.432
 8213TIP3    H124603   5.693   1.184   4.383
 8213TIP3    H224604   5.771   1.284   4.466
 8214TIP3   OH224605   3.884   6.028   5.167
 8214TIP3    H124606   3.901   6.001   5.077
 8214TIP3    H224607   3.943   5.974   5.220
 8215TIP3   OH224608   5.029   5.572   2.446
 8215TIP3    H124609   4.939   5.592   2.419
 8215TIP3    H224610   5.030   5.477   2.459
 8216TIP3   OH224611   6.549   0.573   3.376
 8216TIP3    H124612   6.491   0.642   3.409
 8216TIP3    H224613   6.587   0.610   3.297
 8217TIP3   OH224614   6.272   6.690   1.873
 8217TIP3    H124615   6.288   6.597   1.893
 8217TIP3    H224616   6.250   6.729   1.958
 8218TIP3   OH224617   2.575   2.769   5.399
 8218TIP3    H124618   2.600   2.819   5.476
 8218TIP3    H224619   2.560   2.680   5.432
 8219TIP3   OH224620   0.234   1.190   3.056
 8219TIP3    H124621   0.267   1.139   2.982
 8219TIP3    H224622   0.141   1.165   3.063
 8220TIP3   OH224623   4.798   5.548   5.173
 8220TIP3    H124624   4.739   5.530   5.100
 8220TIP3    H224625   4.828   5.461   5.201
 8221TIP3   OH224626   2.752   0.615   1.617
 8221TIP3    H124627   2.720   0.528   1.593
 8221TIP3    H224628   2.836   0.598   1.659
 8222TIP3   OH224629   0.675   0.831   3.542
 8222TIP3    H124630   0.678   0.761   3.606
 8222TIP3    H224631   0.723   0.797   3.466
 8223TIP3   OH224632   6.629   0.410   2.492
 8223TIP3    H124633   6.584   0.379   2.571
 8223TIP3    H224634   6.720   0.422   2.519
 8224TIP3   OH224635   4.536   4.886   4.912
 8224TIP3    H124636   4.564   4.827   4.983
 8224TIP3    H224637   4.589   4.860   4.837
 8225TIP3   OH224638   6.350   1.752   3.572
 8225TIP3    H124639   6.394   1.788   3.650
 8225TIP3    H224640   6.419   1.705   3.526
 8226TIP3   OH224641   6.266   4.709   0.095
 8226TIP3    H124642   6.218   4.718   0.177
 8226TIP3    H224643   6.355   4.686   0.123
 8227TIP3   OH224644   5.721   5.849   0.791
 8227TIP3    H124645   5.698   5.941   0.776
 8227TIP3    H224646   5.745   5.815   0.705
 8228TIP3   OH224647   2.414   5.337   3.938
 8228TIP3    H124648   2.327   5.361   3.907
 8228TIP3    H224649   2.400   5.297   4.023
 8229TIP3   OH224650   7.046   0.281   2.196
 8229TIP3    H124651   7.068   0.331   2.117
 8229TIP3    H224652   6.982   0.217   2.167
 8230TIP3   OH224653   3.942   3.928   3.202
 8230TIP3    H124654   3.908   3.988   3.268
 8230TIP3    H224655   3.911   3.842   3.229
 8231TIP3   OH224656   1.830   3.123   0.366
 8231TIP3    H124657   1.893   3.196   0.371
 8231TIP3    H224658   1.746   3.165   0.347
 8232TIP3   OH224659   6.168   2.456   4.178
 8232TIP3    H124660   6.244   2.505   4.209
 8232TIP3    H224661   6.111   2.522   4.138
 8233TIP3   OH224662   3.749   5.959   3.341
 8233TIP3    H124663   3.809   5.998   3.278
 8233TIP3    H224664   3.789   5.978   3.426
 8234TIP3   OH224665   4.744   6.142   5.144
 8234TIP3    H124666   4.836   6.166   5.137
 8234TIP3    H224667   4.702   6.217   5.186
 8235TIP3   OH224668   0.140   0.329   0.033
 8235TIP3    H124669   0.207   0.274   0.074
 8235TIP3    H224670   0.168   0.337  -0.058
 8236TIP3   OH224671   2.214   0.048   4.127
 8236TIP3    H124672   2.254   0.029   4.043
 8236TIP3    H224673   2.284   0.088   4.179
 8237TIP3   OH224674   0.180   5.595   4.887
 8237TIP3    H124675   0.112   5.652   4.924
 8237TIP3    H224676   0.231   5.653   4.830
 8238TIP3   OH224677   6.074   2.361   3.046
 8238TIP3    H124678   5.979   2.368   3.038
 8238TIP3    H224679   6.106   2.390   2.961
 8239TIP3   OH224680   1.862   3.510   0.950
 8239TIP3    H124681   1.794   3.494   0.884
 8239TIP3    H224682   1.937   3.460   0.919
 8240TIP3   OH224683   4.979   2.236   1.294
 8240TIP3    H124684   5.070   2.223   1.320
 8240TIP3    H224685   4.971   2.188   1.211
 8241TIP3   OH224686   1.028   1.192   2.192
 8241TIP3    H124687   1.106   1.244   2.209
 8241TIP3    H224688   1.051   1.104   2.223
 8242TIP3   OH224689   1.613   3.314   4.936
 8242TIP3    H124690   1.564   3.371   4.995
 8242TIP3    H224691   1.568   3.324   4.852
 8243TIP3   OH224692   4.837   1.293   4.074
 8243TIP3    H124693   4.751   1.251   4.073
 8243TIP3    H224694   4.824   1.376   4.027
 8244TIP3   OH224695   3.387   4.581   1.277
 8244TIP3    H124696   3.373   4.516   1.208
 8244TIP3    H224697   3.389   4.665   1.232
 8245TIP3   OH224698   5.258   3.119   3.419
 8245TIP3    H124699   5.345   3.149   3.446
 8245TIP3    H224700   5.207   3.118   3.500
 8246TIP3   OH224701   5.667   2.408   4.845
 8246TIP3    H124702   5.665   2.397   4.940
 8246TIP3    H224703   5.622   2.330   4.812
 8247TIP3   OH224704   0.801   2.293   4.341
 8247TIP3    H124705   0.893   2.274   4.321
 8247TIP3    H224706   0.762   2.208   4.360
 8248TIP3   OH224707   4.128   6.797   5.237
 8248TIP3    H124708   4.153   6.718   5.189
 8248TIP3    H224709   4.041   6.776   5.272
 8249TIP3   OH224710   5.809   1.527   0.384
 8249TIP3    H124711   5.771   1.570   0.461
 8249TIP3    H224712   5.737   1.475   0.348
 8250TIP3   OH224713   5.330   0.916   1.082
 8250TIP3    H124714   5.246   0.906   1.127
 8250TIP3    H224715   5.346   0.831   1.041
 8251TIP3   OH224716   4.447   2.395   0.060
 8251TIP3    H124717   4.483   2.307   0.069
 8251TIP3    H224718   4.434   2.425   0.151
 8252TIP3   OH224719   1.660   6.643   2.177
 8252TIP3    H124720   1.718   6.568   2.166
 8252TIP3    H224721   1.576   6.615   2.141
 8253TIP3   OH224722   1.136   2.851   0.174
 8253TIP3    H124723   1.157   2.839   0.081
 8253TIP3    H224724   1.091   2.771   0.199
 8254TIP3   OH224725   3.060   2.669   1.872
 8254TIP3    H124726   3.116   2.650   1.796
 8254TIP3    H224727   3.042   2.763   1.866
 8255TIP3   OH224728   6.128   6.419   3.869
 8255TIP3    H124729   6.151   6.507   3.836
 8255TIP3    H224730   6.211   6.382   3.898
 8256TIP3   OH224731   4.952   0.629   2.365
 8256TIP3    H124732   5.024   0.680   2.403
 8256TIP3    H224733   4.968   0.539   2.395
 8257TIP3   OH224734   6.514   1.633   2.125
 8257TIP3    H124735   6.480   1.715   2.161
 8257TIP3    H224736   6.525   1.576   2.201
 8258TIP3   OH224737   5.089   5.060   1.325
 8258TIP3    H124738   5.154   5.130   1.334
 8258TIP3    H224739   5.121   5.007   1.252
 8259TIP3   OH224740   3.588   6.795   3.392
 8259TIP3    H124741   3.514   6.830   3.441
 8259TIP3    H224742   3.560   6.708   3.363
 8260TIP3   OH224743   4.596   3.470   5.509
 8260TIP3    H124744   4.526   3.489   5.571
 8260TIP3    H224745   4.671   3.521   5.539
 8261TIP3   OH224746   0.708   6.531   0.299
 8261TIP3    H124747   0.752   6.574   0.372
 8261TIP3    H224748   0.721   6.590   0.225
 8262TIP3   OH224749   3.882   6.281   4.986
 8262TIP3    H124750   3.956   6.221   4.984
 8262TIP3    H224751   3.866   6.296   5.079
 8263TIP3   OH224752   2.563   3.578   5.487
 8263TIP3    H124753   2.552   3.641   5.558
 8263TIP3    H224754   2.655   3.586   5.462
 8264TIP3   OH224755   6.984   4.434   4.409
 8264TIP3    H124756   6.995   4.397   4.322
 8264TIP3    H224757   7.063   4.485   4.424
 8265TIP3   OH224758   0.527   5.411   5.370
 8265TIP3    H124759   0.515   5.346   5.301
 8265TIP3    H224760   0.501   5.494   5.330
 8266TIP3   OH224761   3.635   5.203   4.145
 8266TIP3    H124762   3.621   5.219   4.052
 8266TIP3    H224763   3.661   5.111   4.150
 8267TIP3   OH224764   2.130   5.084   0.237
 8267TIP3    H124765   2.154   4.991   0.235
 8267TIP3    H224766   2.170   5.117   0.318
 8268TIP3   OH224767   4.355   6.073   1.582
 8268TIP3    H124768   4.267   6.038   1.569
 8268TIP3    H224769   4.410   5.996   1.594
 8269TIP3   OH224770   2.269   1.925   4.022
 8269TIP3    H124771   2.363   1.923   4.005
 8269TIP3    H224772   2.240   2.010   3.991
 8270TIP3   OH224773   6.782   4.722   5.295
 8270TIP3    H124774   6.768   4.644   5.240
 8270TIP3    H224775   6.826   4.689   5.373
 8271TIP3   OH224776   6.004   0.676   3.673
 8271TIP3    H124777   6.067   0.605   3.680
 8271TIP3    H224778   6.049   0.752   3.709
 8272TIP3   OH224779   5.519   3.792   1.324
 8272TIP3    H124780   5.555   3.715   1.368
 8272TIP3    H224781   5.594   3.829   1.276
 8273TIP3   OH224782   4.807   5.710   4.760
 8273TIP3    H124783   4.855   5.752   4.832
 8273TIP3    H224784   4.875   5.683   4.699
 8274TIP3   OH224785   0.408   4.706   1.807
 8274TIP3    H124786   0.324   4.694   1.851
 8274TIP3    H224787   0.451   4.621   1.815
 8275TIP3   OH224788   0.324   1.987   2.723
 8275TIP3    H124789   0.308   2.000   2.629
 8275TIP3    H224790   0.246   2.022   2.766
 8276TIP3   OH224791   5.828   2.935   2.028
 8276TIP3    H124792   5.906   2.989   2.021
 8276TIP3    H224793   5.817   2.920   2.122
 8277TIP3   OH224794   5.980   4.179   1.253
 8277TIP3    H124795   5.901   4.233   1.252
 8277TIP3    H224796   5.958   4.103   1.306
 8278TIP3   OH224797   1.434   3.911   2.569
 8278TIP3    H124798   1.464   3.831   2.614
 8278TIP3    H224799   1.478   3.982   2.615
 8279TIP3   OH224800   6.190   0.959   3.415
 8279TIP3    H124801   6.251   1.033   3.421
 8279TIP3    H224802   6.121   0.980   3.478
 8280TIP3   OH224803   7.065   6.141   0.402
 8280TIP3    H124804   6.987   6.178   0.444
 8280TIP3    H224805   7.031   6.087   0.330
 8281TIP3   OH224806   6.621   4.313   0.462
 8281TIP3    H124807   6.584   4.318   0.373
 8281TIP3    H224808   6.549   4.280   0.516
 8282TIP3   OH224809   3.364   0.966   1.318
 8282TIP3    H124810   3.294   0.923   1.367
 8282TIP3    H224811   3.442   0.913   1.335
 8283TIP3   OH224812   3.604   2.323   0.092
 8283TIP3    H124813   3.570   2.351   0.177
 8283TIP3    H224814   3.585   2.229   0.088
 8284TIP3   OH224815   1.854   4.570   3.082
 8284TIP3    H124816   1.947   4.551   3.071
 8284TIP3    H224817   1.851   4.661   3.110
 8285TIP3   OH224818   5.332   4.890   3.048
 8285TIP3    H124819   5.294   4.939   2.975
 8285TIP3    H224820   5.313   4.944   3.125
 8286TIP3   OH224821   2.470   3.998   5.589
 8286TIP3    H124822   2.409   4.016   5.517
 8286TIP3    H224823   2.513   4.082   5.606
 8287TIP3   OH224824   0.179   5.635   4.486
 8287TIP3    H124825   0.249   5.689   4.448
 8287TIP3    H224826   0.108   5.696   4.502
 8288TIP3   OH224827   2.868   1.890   2.638
 8288TIP3    H124828   2.810   1.931   2.701
 8288TIP3    H224829   2.810   1.845   2.576
 8289TIP3   OH224830   4.740   1.450   4.275
 8289TIP3    H124831   4.737   1.538   4.239
 8289TIP3    H224832   4.798   1.402   4.217
 8290TIP3   OH224833   6.373   1.668   1.847
 8290TIP3    H124834   6.434   1.634   1.914
 8290TIP3    H224835   6.357   1.593   1.789
 8291TIP3   OH224836   1.504   2.657   1.570
 8291TIP3    H124837   1.479   2.671   1.662
 8291TIP3    H224838   1.426   2.619   1.530
 8292TIP3   OH224839   1.098   0.611   1.968
 8292TIP3    H124840   1.132   0.694   1.936
 8292TIP3    H224841   1.172   0.551   1.963
 8293TIP3   OH224842   5.189   6.515   5.707
 8293TIP3    H124843   5.098   6.509   5.735
 8293TIP3    H224844   5.186   6.555   5.621
 8294TIP3   OH224845   1.606   3.814   5.033
 8294TIP3    H124846   1.644   3.810   4.945
 8294TIP3    H224847   1.678   3.794   5.092
 8295TIP3   OH224848   3.452   4.580   0.882
 8295TIP3    H124849   3.532   4.527   0.873
 8295TIP3    H224850   3.423   4.594   0.792
 8296TIP3   OH224851   5.967   0.124   5.281
 8296TIP3    H124852   5.906   0.051   5.293
 8296TIP3    H224853   5.994   0.148   5.370
 8297TIP3   OH224854   4.429   0.184   1.165
 8297TIP3    H124855   4.493   0.208   1.098
 8297TIP3    H224856   4.433   0.256   1.228
 8298TIP3   OH224857   6.651   0.237   1.716
 8298TIP3    H124858   6.732   0.213   1.761
 8298TIP3    H224859   6.581   0.195   1.765
 8299TIP3   OH224860   4.693   4.366   5.572
 8299TIP3    H124861   4.638   4.323   5.638
 8299TIP3    H224862   4.741   4.433   5.621
 8300TIP3   OH224863   2.077   5.072   1.613
 8300TIP3    H124864   2.002   5.111   1.659
 8300TIP3    H224865   2.119   5.017   1.679
 8301TIP3   OH224866   0.154   4.198   0.620
 8301TIP3    H124867   0.134   4.142   0.544
 8301TIP3    H224868   0.218   4.261   0.587
 8302TIP3   OH224869   1.984   6.381   1.624
 8302TIP3    H124870   1.899   6.346   1.596
 8302TIP3    H224871   1.970   6.475   1.630
 8303TIP3   OH224872   6.720   3.077   4.817
 8303TIP3    H124873   6.701   3.152   4.874
 8303TIP3    H224874   6.636   3.057   4.776
 8304TIP3   OH224875   0.440   0.529   3.025
 8304TIP3    H124876   0.443   0.449   3.078
 8304TIP3    H224877   0.530   0.542   2.995
 8305TIP3   OH224878   1.862   5.079   0.165
 8305TIP3    H124879   1.808   5.122   0.231
 8305TIP3    H224880   1.946   5.124   0.169
 8306TIP3   OH224881   5.494   5.660   2.869
 8306TIP3    H124882   5.499   5.706   2.953
 8306TIP3    H224883   5.401   5.657   2.849
 8307TIP3   OH224884   5.550   3.267   1.700
 8307TIP3    H124885   5.567   3.217   1.780
 8307TIP3    H224886   5.628   3.254   1.646
 8308TIP3   OH224887   5.024   5.052   3.287
 8308TIP3    H124888   5.038   5.098   3.371
 8308TIP3    H224889   4.998   4.964   3.312
 8309TIP3   OH224890   1.275   4.317   4.118
 8309TIP3    H124891   1.220   4.270   4.181
 8309TIP3    H224892   1.304   4.249   4.057
 8310TIP3   OH224893   1.536   4.088   2.218
 8310TIP3    H124894   1.467   4.155   2.212
 8310TIP3    H224895   1.618   4.137   2.212
 8311TIP3   OH224896   6.206   1.330   2.643
 8311TIP3    H124897   6.134   1.301   2.587
 8311TIP3    H224898   6.171   1.406   2.690
 8312TIP3   OH224899   7.150   0.349   4.755
 8312TIP3    H124900   7.195   0.324   4.674
 8312TIP3    H224901   7.103   0.428   4.733
 8313TIP3   OH224902   6.388   1.404   5.571
 8313TIP3    H124903   6.357   1.405   5.662
 8313TIP3    H224904   6.327   1.346   5.526
 8314TIP3   OH224905   3.834   1.325   1.471
 8314TIP3    H124906   3.749   1.298   1.508
 8314TIP3    H224907   3.845   1.416   1.501
 8315TIP3   OH224908   1.747   3.105   2.210
 8315TIP3    H124909   1.723   3.036   2.271
 8315TIP3    H224910   1.842   3.098   2.203
 8316TIP3   OH224911   7.166   6.070   4.902
 8316TIP3    H124912   7.249   6.052   4.944
 8316TIP3    H224913   7.129   6.142   4.953
 8317TIP3   OH224914   5.713   2.912   4.346
 8317TIP3    H124915   5.668   2.835   4.379
 8317TIP3    H224916   5.654   2.985   4.364
 8318TIP3   OH224917   1.766   5.064   2.847
 8318TIP3    H124918   1.843   5.055   2.791
 8318TIP3    H224919   1.759   5.158   2.862
 8319TIP3   OH224920   4.922   3.817   3.881
 8319TIP3    H124921   4.990   3.764   3.923
 8319TIP3    H224922   4.947   3.907   3.901
 8320TIP3   OH224923   3.890   0.651   5.893
 8320TIP3    H124924   3.928   0.730   5.853
 8320TIP3    H224925   3.920   0.654   5.984
 8321TIP3   OH224926   0.571   5.353   3.330
 8321TIP3    H124927   0.593   5.333   3.239
 8321TIP3    H224928   0.656   5.357   3.375
 8322TIP3   OH224929   5.943   2.334   5.115
 8322TIP3    H124930   5.974   2.344   5.205
 8322TIP3    H224931   5.942   2.422   5.079
 8323TIP3   OH224932   0.187   5.660   5.585
 8323TIP3    H124933   0.112   5.601   5.589
 8323TIP3    H224934   0.247   5.626   5.652
 8324TIP3   OH224935   3.754   0.505   3.146
 8324TIP3    H124936   3.713   0.476   3.064
 8324TIP3    H224937   3.843   0.470   3.142
 8325TIP3   OH224938   2.120   5.625   5.654
 8325TIP3    H124939   2.177   5.700   5.666
 8325TIP3    H224940   2.137   5.595   5.565
 8326TIP3   OH224941   2.188   4.893   0.924
 8326TIP3    H124942   2.202   4.905   1.018
 8326TIP3    H224943   2.204   4.979   0.886
 8327TIP3   OH224944   0.575   2.593   5.645
 8327TIP3    H124945   0.670   2.598   5.633
 8327TIP3    H224946   0.554   2.667   5.702
 8328TIP3   OH224947   2.144   4.093   3.889
 8328TIP3    H124948   2.059   4.136   3.900
 8328TIP3    H224949   2.193   4.152   3.831
 8329TIP3   OH224950   0.204   2.749   2.225
 8329TIP3    H124951   0.226   2.688   2.296
 8329TIP3    H224952   0.288   2.778   2.191
 8330TIP3   OH224953   3.120   4.676   3.873
 8330TIP3    H124954   3.143   4.596   3.827
 8330TIP3    H224955   3.033   4.699   3.840
 8331TIP3   OH224956   3.772   5.826   4.337
 8331TIP3    H124957   3.788   5.917   4.311
 8331TIP3    H224958   3.859   5.792   4.360
 8332TIP3   OH224959   3.446   4.719   4.935
 8332TIP3    H124960   3.534   4.684   4.951
 8332TIP3    H224961   3.454   4.765   4.851
 8333TIP3   OH224962   6.678   1.979   2.458
 8333TIP3    H124963   6.704   1.908   2.516
 8333TIP3    H224964   6.638   1.935   2.383
 8334TIP3   OH224965   1.236   2.769   2.352
 8334TIP3    H124966   1.316   2.779   2.404
 8334TIP3    H224967   1.188   2.851   2.366
 8335TIP3   OH224968   6.632   0.054   5.501
 8335TIP3    H124969   6.572   0.129   5.504
 8335TIP3    H224970   6.619   0.017   5.414
 8336TIP3   OH224971   3.806   5.950   5.477
 8336TIP3    H124972   3.794   5.887   5.406
 8336TIP3    H224973   3.723   5.949   5.524
 8337TIP3   OH224974   5.349   6.222   4.611
 8337TIP3    H124975   5.406   6.153   4.644
 8337TIP3    H224976   5.318   6.189   4.527
 8338TIP3   OH224977   2.282   3.347   0.534
 8338TIP3    H124978   2.284   3.326   0.440
 8338TIP3    H224979   2.359   3.304   0.570
 8339TIP3   OH224980   2.930   1.747   1.669
 8339TIP3    H124981   3.006   1.696   1.698
 8339TIP3    H224982   2.928   1.822   1.728
 8340TIP3   OH224983   4.234   6.221   4.855
 8340TIP3    H124984   4.273   6.305   4.882
 8340TIP3    H224985   4.210   6.179   4.938
 8341TIP3   OH224986   5.235   1.299   3.224
 8341TIP3    H124987   5.323   1.331   3.203
 8341TIP3    H224988   5.187   1.305   3.141
 8342TIP3   OH224989   6.709   3.056   0.297
 8342TIP3    H124990   6.633   3.010   0.262
 8342TIP3    H224991   6.755   3.089   0.220
 8343TIP3   OH224992   2.512   6.655   1.988
 8343TIP3    H124993   2.416   6.660   1.994
 8343TIP3    H224994   2.541   6.653   2.079
 8344TIP3   OH224995   5.550   4.441   2.942
 8344TIP3    H124996   5.549   4.530   2.907
 8344TIP3    H224997   5.505   4.447   3.026
 8345TIP3   OH224998   5.818   2.890   2.441
 8345TIP3    H124999   5.869   2.961   2.402
 8345TIP3    H225000   5.760   2.861   2.371
 8346TIP3   OH225001   6.119   6.558   2.981
 8346TIP3    H125002   6.199   6.596   3.017
 8346TIP3    H225003   6.149   6.501   2.910
 8347TIP3   OH225004   4.811   4.737   1.717
 8347TIP3    H125005   4.746   4.796   1.679
 8347TIP3    H225006   4.807   4.754   1.811
 8348TIP3   OH225007   4.674   0.203   4.467
 8348TIP3    H125008   4.640   0.139   4.404
 8348TIP3    H225009   4.746   0.245   4.421
 8349TIP3   OH225010   0.494   2.112   3.371
 8349TIP3    H125011   0.563   2.068   3.321
 8349TIP3    H225012   0.469   2.187   3.316
 8350TIP3   OH225013   6.983   6.647   0.036
 8350TIP3    H125014   7.018   6.725   0.078
 8350TIP3    H225015   7.023   6.574   0.084
 8351TIP3   OH225016   5.700   6.197   0.130
 8351TIP3    H125017   5.658   6.218   0.046
 8351TIP3    H225018   5.771   6.260   0.137
 8352TIP3   OH225019   5.354   3.441   4.397
 8352TIP3    H125020   5.431   3.385   4.391
 8352TIP3    H225021   5.327   3.435   4.489
 8353TIP3   OH225022   7.271   4.041   5.886
 8353TIP3    H125023   7.252   3.999   5.802
 8353TIP3    H225024   7.349   4.093   5.869
 8354TIP3   OH225025   2.801   4.659   0.865
 8354TIP3    H125026   2.759   4.626   0.786
 8354TIP3    H225027   2.884   4.695   0.835
 8355TIP3   OH225028   1.093   4.042   3.166
 8355TIP3    H125029   1.134   3.963   3.132
 8355TIP3    H225030   1.000   4.033   3.144
 8356TIP3   OH225031   2.355   4.296   4.574
 8356TIP3    H125032   2.329   4.212   4.612
 8356TIP3    H225033   2.367   4.277   4.481
 8357TIP3   OH225034   5.078   3.774   0.512
 8357TIP3    H125035   5.024   3.704   0.550
 8357TIP3    H225036   5.082   3.841   0.580
 8358TIP3   OH225037   1.290   3.511   5.725
 8358TIP3    H125038   1.377   3.478   5.701
 8358TIP3    H225039   1.266   3.572   5.655
 8359TIP3   OH225040   1.092   0.249   0.802
 8359TIP3    H125041   1.168   0.294   0.840
 8359TIP3    H225042   1.055   0.313   0.742
 8360TIP3   OH225043   3.991   5.455   3.544
 8360TIP3    H125044   3.945   5.397   3.605
 8360TIP3    H225045   4.074   5.411   3.527
 8361TIP3   OH225046   1.414   3.848   0.707
 8361TIP3    H125047   1.361   3.888   0.777
 8361TIP3    H225048   1.499   3.833   0.747
 8362TIP3   OH225049   4.778   3.156   4.880
 8362TIP3    H125050   4.866   3.127   4.903
 8362TIP3    H225051   4.721   3.113   4.944
 8363TIP3   OH225052   1.508   2.505   3.693
 8363TIP3    H125053   1.455   2.550   3.627
 8363TIP3    H225054   1.446   2.448   3.739
 8364TIP3   OH225055   0.879   0.193   5.190
 8364TIP3    H125056   0.938   0.141   5.245
 8364TIP3    H225057   0.868   0.275   5.238
 8365TIP3   OH225058   5.559   0.528   3.245
 8365TIP3    H125059   5.624   0.596   3.233
 8365TIP3    H225060   5.477   0.575   3.263
 8366TIP3   OH225061   6.793   5.863   5.712
 8366TIP3    H125062   6.831   5.845   5.798
 8366TIP3    H225063   6.699   5.870   5.728
 8367TIP3   OH225064   2.441   0.840   0.460
 8367TIP3    H125065   2.519   0.880   0.499
 8367TIP3    H225066   2.460   0.746   0.460
 8368TIP3   OH225067   1.457   4.510   1.535
 8368TIP3    H125068   1.387   4.480   1.477
 8368TIP3    H225069   1.538   4.487   1.489
 8369TIP3   OH225070   5.634   2.380   5.141
 8369TIP3    H125071   5.721   2.377   5.180
 8369TIP3    H225072   5.574   2.362   5.214
 8370TIP3   OH225073   1.420   3.701   3.550
 8370TIP3    H125074   1.396   3.685   3.642
 8370TIP3    H225075   1.393   3.621   3.505
 8371TIP3   OH225076   2.001   5.635   4.149
 8371TIP3    H125077   2.009   5.544   4.122
 8371TIP3    H225078   2.089   5.660   4.176
 8372TIP3   OH225079   7.076   3.256   4.633
 8372TIP3    H125080   6.986   3.267   4.601
 8372TIP3    H225081   7.065   3.242   4.728
 8373TIP3   OH225082   5.648   4.810   4.049
 8373TIP3    H125083   5.573   4.866   4.071
 8373TIP3    H225084   5.620   4.762   3.971
 8374TIP3   OH225085   2.686   2.209   1.379
 8374TIP3    H125086   2.731   2.128   1.403
 8374TIP3    H225087   2.645   2.239   1.461
 8375TIP3   OH225088   3.841   0.754   0.926
 8375TIP3    H125089   3.750   0.770   0.953
 8375TIP3    H225090   3.892   0.767   1.006
 8376TIP3   OH225091   4.767   0.825   2.338
 8376TIP3    H125092   4.787   0.846   2.429
 8376TIP3    H225093   4.823   0.751   2.317
 8377TIP3   OH225094   4.255   2.344   2.038
 8377TIP3    H125095   4.324   2.385   1.985
 8377TIP3    H225096   4.301   2.278   2.089
 8378TIP3   OH225097   1.874   5.989   1.517
 8378TIP3    H125098   1.875   5.897   1.491
 8378TIP3    H225099   1.955   6.025   1.481
 8379TIP3   OH225100   1.852   3.309   4.806
 8379TIP3    H125101   1.876   3.400   4.824
 8379TIP3    H225102   1.766   3.298   4.849
 8380TIP3   OH225103   6.932   1.387   4.615
 8380TIP3    H125104   6.838   1.374   4.628
 8380TIP3    H225105   6.966   1.404   4.703
 8381TIP3   OH225106   4.040   5.971   5.875
 8381TIP3    H125107   4.085   5.914   5.938
 8381TIP3    H225108   3.975   5.914   5.834
 8382TIP3   OH225109   5.288   1.481   2.518
 8382TIP3    H125110   5.323   1.422   2.451
 8382TIP3    H225111   5.341   1.465   2.595
 8383TIP3   OH225112   5.900   1.739   4.457
 8383TIP3    H125113   5.992   1.714   4.467
 8383TIP3    H225114   5.857   1.702   4.534
 8384TIP3   OH225115   3.432   4.030   0.506
 8384TIP3    H125116   3.374   4.073   0.442
 8384TIP3    H225117   3.378   3.961   0.545
 8385TIP3   OH225118   2.836   0.855   3.938
 8385TIP3    H125119   2.771   0.859   3.868
 8385TIP3    H225120   2.832   0.941   3.980
 8386TIP3   OH225121   4.160   4.454   2.438
 8386TIP3    H125122   4.081   4.405   2.459
 8386TIP3    H225123   4.155   4.468   2.343
 8387TIP3   OH225124   1.509   6.775   2.738
 8387TIP3    H125125   1.602   6.754   2.749
 8387TIP3    H225126   1.509   6.852   2.682
 8388TIP3   OH225127   3.237   6.564   4.014
 8388TIP3    H125128   3.210   6.566   3.922
 8388TIP3    H225129   3.178   6.500   4.054
 8389TIP3   OH225130   4.511   1.472   3.822
 8389TIP3    H125131   4.431   1.463   3.874
 8389TIP3    H225132   4.490   1.541   3.758
 8390TIP3   OH225133   4.637   0.955   5.296
 8390TIP3    H125134   4.549   0.947   5.333
 8390TIP3    H225135   4.625   0.945   5.202
 8391TIP3   OH225136   4.604   4.237   0.113
 8391TIP3    H125137   4.618   4.245   0.207
 8391TIP3    H225138   4.522   4.284   0.097
 8392TIP3   OH225139   5.720   0.907   1.541
 8392TIP3    H125140   5.799   0.951   1.510
 8392TIP3    H225141   5.707   0.941   1.630
 8393TIP3   OH225142   6.517   3.423   2.784
 8393TIP3    H125143   6.597   3.409   2.732
 8393TIP3    H225144   6.449   3.440   2.718
 8394TIP3   OH225145   2.780   3.044   5.081
 8394TIP3    H125146   2.832   2.987   5.138
 8394TIP3    H225147   2.768   3.124   5.131
 8395TIP3   OH225148   2.585   0.855   5.137
 8395TIP3    H125149   2.576   0.937   5.185
 8395TIP3    H225150   2.565   0.877   5.046
 8396TIP3   OH225151   0.403   4.847   2.767
 8396TIP3    H125152   0.435   4.838   2.678
 8396TIP3    H225153   0.315   4.809   2.766
 8397TIP3   OH225154   6.983   2.426   2.184
 8397TIP3    H125155   6.952   2.337   2.170
 8397TIP3    H225156   6.972   2.441   2.278
 8398TIP3   OH225157   4.374   2.716   2.997
 8398TIP3    H125158   4.418   2.633   3.014
 8398TIP3    H225159   4.422   2.755   2.925
 8399TIP3   OH225160   5.896   0.600   4.774
 8399TIP3    H125161   5.854   0.686   4.774
 8399TIP3    H225162   5.976   0.612   4.825
 8400TIP3   OH225163   6.403   4.240   0.602
 8400TIP3    H125164   6.409   4.149   0.632
 8400TIP3    H225165   6.316   4.269   0.630
 8401TIP3   OH225166   1.203   3.447   0.303
 8401TIP3    H125167   1.143   3.476   0.372
 8401TIP3    H225168   1.258   3.381   0.345
 8402TIP3   OH225169   6.190   6.101   1.789
 8402TIP3    H125170   6.204   6.012   1.823
 8402TIP3    H225171   6.273   6.124   1.748
 8403TIP3   OH225172   3.207   6.272   5.362
 8403TIP3    H125173   3.183   6.364   5.364
 8403TIP3    H225174   3.123   6.225   5.361
 8404TIP3   OH225175   0.681   1.944   1.853
 8404TIP3    H125176   0.639   1.958   1.768
 8404TIP3    H225177   0.608   1.931   1.914
 8405TIP3   OH225178   6.054   6.315   1.874
 8405TIP3    H125179   6.095   6.244   1.825
 8405TIP3    H225180   5.969   6.280   1.901
 8406TIP3   OH225181   0.757   4.045   4.752
 8406TIP3    H125182   0.808   4.117   4.716
 8406TIP3    H225183   0.798   4.027   4.837
 8407TIP3   OH225184   4.645   6.194   2.446
 8407TIP3    H125185   4.664   6.104   2.470
 8407TIP3    H225186   4.585   6.225   2.514
 8408TIP3   OH225187   3.902   0.581   3.862
 8408TIP3    H125188   3.986   0.622   3.883
 8408TIP3    H225189   3.907   0.563   3.768
 8409TIP3   OH225190   4.292   0.214   1.887
 8409TIP3    H125191   4.372   0.170   1.917
 8409TIP3    H225192   4.324   0.289   1.837
 8410TIP3   OH225193   3.232   3.148   2.490
 8410TIP3    H125194   3.292   3.161   2.417
 8410TIP3    H225195   3.191   3.233   2.503
 8411TIP3   OH225196   5.523  -0.001   4.563
 8411TIP3    H125197   5.487   0.071   4.614
 8411TIP3    H225198   5.566  -0.057   4.628
 8412TIP3   OH225199   1.695   0.704   3.631
 8412TIP3    H125200   1.618   0.650   3.616
 8412TIP3    H225201   1.762   0.667   3.572
 8413TIP3   OH225202   2.025   1.265   5.762
 8413TIP3    H125203   2.055   1.246   5.851
 8413TIP3    H225204   2.021   1.180   5.719
 8414TIP3   OH225205   1.715   1.450   4.336
 8414TIP3    H125206   1.765   1.481   4.411
 8414TIP3    H225207   1.625   1.480   4.352
 8415TIP3   OH225208   0.681   6.263   5.116
 8415TIP3    H125209   0.608   6.214   5.155
 8415TIP3    H225210   0.754   6.250   5.177
 8416TIP3   OH225211   5.818   5.368   3.278
 8416TIP3    H125212   5.791   5.451   3.240
 8416TIP3    H225213   5.737   5.328   3.309
 8417TIP3   OH225214   2.520   3.064  -0.021
 8417TIP3    H125215   2.438   3.044   0.025
 8417TIP3    H225216   2.559   3.134   0.031
 8418TIP3   OH225217   0.187   4.997   0.146
 8418TIP3    H125218   0.200   5.024   0.237
 8418TIP3    H225219   0.271   5.014   0.103
 8419TIP3   OH225220   5.965   1.078   3.532
 8419TIP3    H125221   5.996   1.154   3.580
 8419TIP3    H225222   5.908   1.032   3.594
 8420TIP3   OH225223   6.430   0.852   4.919
 8420TIP3    H125224   6.400   0.911   4.988
 8420TIP3    H225225   6.412   0.764   4.953
 8421TIP3   OH225226   6.734   4.643   0.952
 8421TIP3    H125227   6.788   4.688   1.017
 8421TIP3    H225228   6.798   4.602   0.893
 8422TIP3   OH225229   1.952   0.658   3.904
 8422TIP3    H125230   1.949   0.754   3.911
 8422TIP3    H225231   1.925   0.640   3.814
 8423TIP3   OH225232   6.493   3.713   2.188
 8423TIP3    H125233   6.502   3.722   2.093
 8423TIP3    H225234   6.570   3.661   2.215
 8424TIP3   OH225235   2.983   6.329   4.188
 8424TIP3    H125236   2.922   6.268   4.230
 8424TIP3    H225237   2.965   6.413   4.230
 8425TIP3   OH225238   6.392   0.249   2.662
 8425TIP3    H125239   6.425   0.177   2.716
 8425TIP3    H225240   6.374   0.210   2.577
 8426TIP3   OH225241   5.627   2.670   4.431
 8426TIP3    H125242   5.607   2.606   4.363
 8426TIP3    H225243   5.546   2.676   4.482
 8427TIP3   OH225244   0.679   6.061   4.396
 8427TIP3    H125245   0.691   6.154   4.416
 8427TIP3    H225246   0.591   6.056   4.359
 8428TIP3   OH225247   6.046   3.436   4.701
 8428TIP3    H125248   6.066   3.527   4.679
 8428TIP3    H225249   5.961   3.439   4.745
 8429TIP3   OH225250   4.709   0.980   2.956
 8429TIP3    H125251   4.701   1.027   2.873
 8429TIP3    H225252   4.640   1.016   3.011
 8430TIP3   OH225253   4.912   1.915   1.104
 8430TIP3    H125254   4.824   1.936   1.133
 8430TIP3    H225255   4.910   1.820   1.088
 8431TIP3   OH225256   4.391   5.800   1.067
 8431TIP3    H125257   4.430   5.774   1.151
 8431TIP3    H225258   4.427   5.887   1.050
 8432TIP3   OH225259   4.412   1.052   1.800
 8432TIP3    H125260   4.369   1.069   1.716
 8432TIP3    H225261   4.499   1.019   1.775
 8433TIP3   OH225262   1.057   4.604   0.615
 8433TIP3    H125263   1.041   4.695   0.639
 8433TIP3    H225264   1.146   4.604   0.579
 8434TIP3   OH225265   2.789   0.711   1.327
 8434TIP3    H125266   2.855   0.647   1.302
 8434TIP3    H225267   2.740   0.670   1.398
 8435TIP3   OH225268   3.258   6.159   4.423
 8435TIP3    H125269   3.186   6.219   4.443
 8435TIP3    H225270   3.215   6.077   4.400
 8436TIP3   OH225271   0.297   4.205   4.485
 8436TIP3    H125272   0.357   4.134   4.466
 8436TIP3    H225273   0.222   4.189   4.428
 8437TIP3   OH225274   3.656   1.061   5.873
 8437TIP3    H125275   3.637   1.025   5.787
 8437TIP3    H225276   3.648   1.156   5.862
 8438TIP3   OH225277   0.926   1.288   0.136
 8438TIP3    H125278   0.996   1.286   0.202
 8438TIP3    H225279   0.845   1.283   0.186
 8439TIP3   OH225280   3.234   3.406   0.766
 8439TIP3    H125281   3.161   3.438   0.819
 8439TIP3    H225282   3.208   3.425   0.675
 8440TIP3   OH225283   2.896   1.829   0.867
 8440TIP3    H125284   2.842   1.905   0.848
 8440TIP3    H225285   2.929   1.843   0.955
 8441TIP3   OH225286   0.579   4.446   0.384
 8441TIP3    H125287   0.555   4.378   0.321
 8441TIP3    H225288   0.672   4.433   0.399
 8442TIP3   OH225289   6.738   5.565   3.141
 8442TIP3    H125290   6.763   5.623   3.069
 8442TIP3    H225291   6.707   5.485   3.099
 8443TIP3   OH225292   0.792   4.838   2.633
 8443TIP3    H125293   0.777   4.759   2.581
 8443TIP3    H225294   0.857   4.811   2.699
 8444TIP3   OH225295   2.890   3.512   1.897
 8444TIP3    H125296   2.974   3.476   1.923
 8444TIP3    H225297   2.839   3.517   1.978
 8445TIP3   OH225298   2.092   3.370   2.193
 8445TIP3    H125299   2.059   3.443   2.245
 8445TIP3    H225300   2.041   3.373   2.112
 8446TIP3   OH225301   2.166   5.855   2.309
 8446TIP3    H125302   2.185   5.885   2.398
 8446TIP3    H225303   2.203   5.767   2.305
 8447TIP3   OH225304   1.757   2.084   2.942
 8447TIP3    H125305   1.793   2.039   3.018
 8447TIP3    H225306   1.664   2.094   2.963
 8448TIP3   OH225307   0.964   4.087   0.768
 8448TIP3    H125308   1.002   4.101   0.681
 8448TIP3    H225309   0.876   4.052   0.751
 8449TIP3   OH225310   4.235   2.040   1.053
 8449TIP3    H125311   4.154   2.009   1.014
 8449TIP3    H225312   4.223   2.135   1.062
 8450TIP3   OH225313   6.414   4.832   4.520
 8450TIP3    H125314   6.453   4.772   4.456
 8450TIP3    H225315   6.471   4.908   4.520
 8451TIP3   OH225316   0.683   4.002   1.362
 8451TIP3    H125317   0.629   4.045   1.296
 8451TIP3    H225318   0.756   4.062   1.375
 8452TIP3   OH225319   2.955   1.208   1.292
 8452TIP3    H125320   2.887   1.276   1.295
 8452TIP3    H225321   3.017   1.233   1.360
 8453TIP3   OH225322   1.827   5.148   5.563
 8453TIP3    H125323   1.916   5.126   5.533
 8453TIP3    H225324   1.773   5.075   5.533
 8454TIP3   OH225325   6.649   6.107   1.461
 8454TIP3    H125326   6.705   6.143   1.529
 8454TIP3    H225327   6.709   6.079   1.392
 8455TIP3   OH225328   1.352   3.181   4.987
 8455TIP3    H125329   1.390   3.108   5.036
 8455TIP3    H225330   1.405   3.187   4.908
 8456TIP3   OH225331   4.736   0.057   2.246
 8456TIP3    H125332   4.773   0.137   2.284
 8456TIP3    H225333   4.723  -0.002   2.320
 8457TIP3   OH225334   6.083   2.115   5.260
 8457TIP3    H125335   6.167   2.147   5.228
 8457TIP3    H225336   6.101   2.085   5.350
 8458TIP3   OH225337   2.347   2.757   2.319
 8458TIP3    H125338   2.392   2.840   2.303
 8458TIP3    H225339   2.259   2.769   2.282
 8459TIP3   OH225340   4.889   4.845   3.543
 8459TIP3    H125341   4.854   4.835   3.632
 8459TIP3    H225342   4.862   4.765   3.498
 8460TIP3   OH225343   2.278   1.869   2.451
 8460TIP3    H125344   2.316   1.801   2.395
 8460TIP3    H225345   2.185   1.846   2.456
 8461TIP3   OH225346   7.214   5.766   4.968
 8461TIP3    H125347   7.173   5.761   5.055
 8461TIP3    H225348   7.157   5.825   4.919
 8462TIP3   OH225349   0.357   2.130   4.123
 8462TIP3    H125350   0.274   2.177   4.118
 8462TIP3    H225351   0.346   2.056   4.064
 8463TIP3   OH225352   2.571   3.495   1.759
 8463TIP3    H125353   2.581   3.479   1.665
 8463TIP3    H225354   2.609   3.418   1.801
 8464TIP3   OH225355   1.298   4.726   1.095
 8464TIP3    H125356   1.266   4.753   1.181
 8464TIP3    H225357   1.383   4.685   1.113
 8465TIP3   OH225358   1.960   2.900   0.048
 8465TIP3    H125359   1.928   2.863   0.130
 8465TIP3    H225360   1.881   2.918  -0.003
 8466TIP3   OH225361   3.685   1.802   5.226
 8466TIP3    H125362   3.741   1.834   5.155
 8466TIP3    H225363   3.743   1.793   5.301
 8467TIP3   OH225364   4.742   1.050   3.248
 8467TIP3    H125365   4.728   0.956   3.234
 8467TIP3    H225366   4.671   1.092   3.200
 8468TIP3   OH225367   2.184   4.669   2.087
 8468TIP3    H125368   2.109   4.725   2.107
 8468TIP3    H225369   2.260   4.725   2.099
 8469TIP3   OH225370   1.419   5.261   4.358
 8469TIP3    H125371   1.437   5.228   4.270
 8469TIP3    H225372   1.454   5.350   4.358
 8470TIP3   OH225373   2.222   0.911   3.003
 8470TIP3    H125374   2.130   0.924   2.979
 8470TIP3    H225375   2.261   0.998   3.000
 8471TIP3   OH225376   2.938   5.899   5.052
 8471TIP3    H125377   2.938   5.970   4.987
 8471TIP3    H225378   2.847   5.893   5.082
 8472TIP3   OH225379   1.583   3.149   2.913
 8472TIP3    H125380   1.585   3.244   2.923
 8472TIP3    H225381   1.660   3.118   2.960
 8473TIP3   OH225382   6.624   5.685   2.741
 8473TIP3    H125383   6.584   5.622   2.801
 8473TIP3    H225384   6.717   5.681   2.760
 8474TIP3   OH225385   5.222   2.538   2.521
 8474TIP3    H125386   5.220   2.464   2.460
 8474TIP3    H225387   5.139   2.534   2.567
 8475TIP3   OH225388   2.863   5.557   1.097
 8475TIP3    H125389   2.830   5.568   1.007
 8475TIP3    H225390   2.863   5.645   1.134
 8476TIP3   OH225391   0.346   5.190   3.381
 8476TIP3    H125392   0.368   5.136   3.305
 8476TIP3    H225393   0.425   5.241   3.399
 8477TIP3   OH225394   4.472   4.127   4.219
 8477TIP3    H125395   4.545   4.172   4.261
 8477TIP3    H225396   4.483   4.035   4.242
 8478TIP3   OH225397   2.773   4.157   4.330
 8478TIP3    H125398   2.786   4.105   4.409
 8478TIP3    H225399   2.774   4.094   4.259
 8479TIP3   OH225400   2.934   0.194   5.901
 8479TIP3    H125401   2.857   0.240   5.868
 8479TIP3    H225402   2.993   0.191   5.826
 8480TIP3   OH225403   5.619   2.810   5.313
 8480TIP3    H125404   5.569   2.793   5.393
 8480TIP3    H225405   5.708   2.785   5.334
 8481TIP3   OH225406   4.731   3.324   3.763
 8481TIP3    H125407   4.672   3.250   3.749
 8481TIP3    H225408   4.813   3.298   3.721
 8482TIP3   OH225409   5.806   0.976   4.426
 8482TIP3    H125410   5.722   0.945   4.460
 8482TIP3    H225411   5.817   0.930   4.343
 8483TIP3   OH225412   2.284   3.849   2.306
 8483TIP3    H125413   2.205   3.826   2.355
 8483TIP3    H225414   2.354   3.800   2.350
 8484TIP3   OH225415   5.467   0.500   4.299
 8484TIP3    H125416   5.416   0.445   4.239
 8484TIP3    H225417   5.516   0.559   4.242
 8485TIP3   OH225418   3.928   5.377   0.442
 8485TIP3    H125419   3.956   5.286   0.457
 8485TIP3    H225420   3.976   5.428   0.507
 8486TIP3   OH225421   6.981   6.001   4.301
 8486TIP3    H125422   6.940   5.960   4.225
 8486TIP3    H225423   7.075   5.991   4.286
 8487TIP3   OH225424   6.033   1.384   0.112
 8487TIP3    H125425   6.049   1.438   0.035
 8487TIP3    H225426   5.938   1.376   0.117
 8488TIP3   OH225427   1.312   4.793   3.963
 8488TIP3    H125428   1.337   4.849   3.889
 8488TIP3    H225429   1.297   4.854   4.035
 8489TIP3   OH225430   2.661   2.683   5.664
 8489TIP3    H125431   2.669   2.684   5.759
 8489TIP3    H225432   2.588   2.624   5.646
 8490TIP3   OH225433   3.994   0.376   2.790
 8490TIP3    H125434   3.920   0.329   2.753
 8490TIP3    H225435   4.068   0.353   2.734
 8491TIP3   OH225436   5.432   2.030   3.939
 8491TIP3    H125437   5.379   2.078   4.002
 8491TIP3    H225438   5.370   2.003   3.871
 8492TIP3   OH225439   5.754   3.130   4.566
 8492TIP3    H125440   5.691   3.087   4.624
 8492TIP3    H225441   5.700   3.169   4.498
 8493TIP3   OH225442   4.590   2.195   2.089
 8493TIP3    H125443   4.655   2.130   2.115
 8493TIP3    H225444   4.642   2.267   2.052
 8494TIP3   OH225445   5.603   0.410   3.502
 8494TIP3    H125446   5.656   0.487   3.524
 8494TIP3    H225447   5.594   0.413   3.407
 8495TIP3   OH225448   4.599   2.625   0.746
 8495TIP3    H125449   4.505   2.634   0.762
 8495TIP3    H225450   4.609   2.634   0.651
 8496TIP3   OH225451   6.856   3.964   4.193
 8496TIP3    H125452   6.920   4.001   4.255
 8496TIP3    H225453   6.892   3.985   4.107
 8497TIP3   OH225454   0.293   1.459   0.300
 8497TIP3    H125455   0.232   1.450   0.226
 8497TIP3    H225456   0.246   1.515   0.362
 8498TIP3   OH225457   4.942   3.450   1.379
 8498TIP3    H125458   4.996   3.495   1.314
 8498TIP3    H225459   4.980   3.362   1.385
 8499TIP3   OH225460   6.431   4.229   5.172
 8499TIP3    H125461   6.336   4.228   5.175
 8499TIP3    H225462   6.453   4.292   5.104
 8500TIP3   OH225463   4.102   1.023   2.959
 8500TIP3    H125464   4.077   0.970   2.884
 8500TIP3    H225465   4.162   0.968   3.010
 8501TIP3   OH225466   3.232   5.493   2.553
 8501TIP3    H125467   3.213   5.586   2.541
 8501TIP3    H225468   3.147   5.452   2.571
 8502TIP3   OH225469   0.299   1.228   2.565
 8502TIP3    H125470   0.371   1.263   2.513
 8502TIP3    H225471   0.248   1.175   2.503
 8503TIP3   OH225472   1.119   5.315   3.846
 8503TIP3    H125473   1.058   5.380   3.812
 8503TIP3    H225474   1.072   5.232   3.841
 8504TIP3   OH225475   3.496   2.930   5.792
 8504TIP3    H125476   3.520   2.928   5.885
 8504TIP3    H225477   3.445   3.010   5.782
 8505TIP3   OH225478   1.308   5.425   0.916
 8505TIP3    H125479   1.312   5.483   0.840
 8505TIP3    H225480   1.375   5.458   0.976
 8506TIP3   OH225481   2.740   1.191   5.674
 8506TIP3    H125482   2.686   1.149   5.740
 8506TIP3    H225483   2.756   1.123   5.608
 8507TIP3   OH225484   2.856   6.518   0.839
 8507TIP3    H125485   2.791   6.486   0.777
 8507TIP3    H225486   2.807   6.532   0.920
 8508TIP3   OH225487   1.248   4.452   3.777
 8508TIP3    H125488   1.276   4.371   3.735
 8508TIP3    H225489   1.197   4.424   3.853
 8509TIP3   OH225490   1.970   3.179   5.490
 8509TIP3    H125491   1.982   3.172   5.395
 8509TIP3    H225492   1.879   3.151   5.504
 8510TIP3   OH225493   1.867   4.223   3.899
 8510TIP3    H125494   1.780   4.260   3.915
 8510TIP3    H225495   1.906   4.280   3.833
 8511TIP3   OH225496   2.832   5.615   2.625
 8511TIP3    H125497   2.902   5.637   2.564
 8511TIP3    H225498   2.795   5.700   2.650
 8512TIP3   OH225499   5.565   5.979   1.665
 8512TIP3    H125500   5.535   5.894   1.698
 8512TIP3    H225501   5.659   5.979   1.680
 8513TIP3   OH225502   1.793   5.789   5.762
 8513TIP3    H125503   1.824   5.770   5.674
 8513TIP3    H225504   1.725   5.855   5.750
 8514TIP3   OH225505   4.397   6.310   5.226
 8514TIP3    H125506   4.439   6.396   5.220
 8514TIP3    H225507   4.372   6.289   5.136
 8515TIP3   OH225508   5.599   4.857   2.105
 8515TIP3    H125509   5.596   4.843   2.200
 8515TIP3    H225510   5.689   4.888   2.088
 8516TIP3   OH225511   3.196   2.064   0.934
 8516TIP3    H125512   3.141   1.987   0.954
 8516TIP3    H225513   3.161   2.096   0.851
 8517TIP3   OH225514   3.649   2.961   3.718
 8517TIP3    H125515   3.586   3.024   3.681
 8517TIP3    H225516   3.617   2.945   3.807
 8518TIP3   OH225517   5.404   5.394   2.455
 8518TIP3    H125518   5.321   5.425   2.491
 8518TIP3    H225519   5.400   5.299   2.464
 8519TIP3   OH225520   6.278   3.834   3.186
 8519TIP3    H125521   6.301   3.915   3.232
 8519TIP3    H225522   6.352   3.776   3.202
 8520TIP3   OH225523   5.412   6.649   1.463
 8520TIP3    H125524   5.411   6.737   1.502
 8520TIP3    H225525   5.472   6.600   1.519
 8521TIP3   OH225526   5.679   5.630   5.747
 8521TIP3    H125527   5.768   5.605   5.721
 8521TIP3    H225528   5.628   5.625   5.667
 8522TIP3   OH225529   6.925   3.887   4.538
 8522TIP3    H125530   7.011   3.882   4.497
 8522TIP3    H225531   6.867   3.841   4.477
 8523TIP3   OH225532   0.566   3.016   2.572
 8523TIP3    H125533   0.639   3.068   2.605
 8523TIP3    H225534   0.507   3.079   2.532
 8524TIP3   OH225535   2.140   5.608   3.256
 8524TIP3    H125536   2.216   5.651   3.295
 8524TIP3    H225537   2.129   5.528   3.307
 8525TIP3   OH225538   3.714   1.588   4.787
 8525TIP3    H125539   3.773   1.526   4.829
 8525TIP3    H225540   3.626   1.552   4.802
 8526TIP3   OH225541   4.455   6.158   3.514
 8526TIP3    H125542   4.474   6.158   3.607
 8526TIP3    H225543   4.506   6.231   3.478
 8527TIP3   OH225544   0.629   1.741   5.338
 8527TIP3    H125545   0.710   1.698   5.366
 8527TIP3    H225546   0.645   1.765   5.246
 8528TIP3   OH225547   3.747   0.349   1.386
 8528TIP3    H125548   3.694   0.390   1.318
 8528TIP3    H225549   3.813   0.299   1.337
 8529TIP3   OH225550   5.905   3.102   5.399
 8529TIP3    H125551   5.843   3.129   5.466
 8529TIP3    H225552   5.991   3.125   5.435
 8530TIP3   OH225553   3.107   4.408   3.801
 8530TIP3    H125554   3.024   4.363   3.786
 8530TIP3    H225555   3.174   4.341   3.789
 8531TIP3   OH225556   0.040   0.300   0.476
 8531TIP3    H125557  -0.052   0.277   0.471
 8531TIP3    H225558   0.074   0.249   0.550
 8532TIP3   OH225559   3.403   5.388   4.680
 8532TIP3    H125560   3.498   5.389   4.688
 8532TIP3    H225561   3.372   5.397   4.770
 8533TIP3   OH225562   5.132   2.340   0.644
 8533TIP3    H125563   5.069   2.411   0.631
 8533TIP3    H225564   5.123   2.285   0.566
 8534TIP3   OH225565   0.264   3.934   2.487
 8534TIP3    H125566   0.189   3.988   2.463
 8534TIP3    H225567   0.230   3.845   2.490
 8535TIP3   OH225568   7.183   4.493   3.498
 8535TIP3    H125569   7.168   4.404   3.465
 8535TIP3    H225570   7.253   4.527   3.443
 8536TIP3   OH225571   2.273   3.997   4.117
 8536TIP3    H125572   2.233   4.045   4.045
 8536TIP3    H225573   2.215   3.922   4.130
 8537TIP3   OH225574   0.181   2.318   3.059
 8537TIP3    H125575   0.256   2.373   3.080
 8537TIP3    H225576   0.144   2.295   3.144
 8538TIP3   OH225577   3.021   0.965   4.720
 8538TIP3    H125578   3.080   1.008   4.658
 8538TIP3    H225579   3.068   0.886   4.747
 8539TIP3   OH225580   2.569   3.674   4.399
 8539TIP3    H125581   2.648   3.680   4.345
 8539TIP3    H225582   2.559   3.581   4.416
 8540TIP3   OH225583   5.110   5.666   0.782
 8540TIP3    H125584   5.044   5.673   0.851
 8540TIP3    H225585   5.172   5.737   0.800
 8541TIP3   OH225586   2.537   0.788   0.820
 8541TIP3    H125587   2.458   0.834   0.848
 8541TIP3    H225588   2.542   0.805   0.726
 8542TIP3   OH225589   4.741   1.373   1.054
 8542TIP3    H125590   4.679   1.305   1.081
 8542TIP3    H225591   4.805   1.326   1.000
 8543TIP3   OH225592   4.168   0.146   5.788
 8543TIP3    H125593   4.176   0.087   5.712
 8543TIP3    H225594   4.090   0.198   5.770
 8544TIP3   OH225595   3.881   0.310   0.262
 8544TIP3    H125596   3.848   0.286   0.175
 8544TIP3    H225597   3.975   0.322   0.250
 8545TIP3   OH225598   6.681   5.588   0.736
 8545TIP3    H125599   6.712   5.505   0.771
 8545TIP3    H225600   6.596   5.601   0.776
 8546TIP3   OH225601   3.853   3.603   0.547
 8546TIP3    H125602   3.761   3.624   0.559
 8546TIP3    H225603   3.857   3.508   0.548
 8547TIP3   OH225604   3.679   2.075   1.676
 8547TIP3    H125605   3.772   2.083   1.696
 8547TIP3    H225606   3.673   2.098   1.583
 8548TIP3   OH225607   6.888   0.304   2.429
 8548TIP3    H125608   6.934   0.302   2.345
 8548TIP3    H225609   6.796   0.314   2.405
 8549TIP3   OH225610   7.167   1.488   4.053
 8549TIP3    H125611   7.164   1.404   4.100
 8549TIP3    H225612   7.127   1.551   4.113
 8550TIP3   OH225613   2.871   1.881   5.018
 8550TIP3    H125614   2.936   1.935   4.972
 8550TIP3    H225615   2.827   1.942   5.077
 8551TIP3   OH225616   2.005   3.811   3.830
 8551TIP3    H125617   2.022   3.771   3.745
 8551TIP3    H225618   2.060   3.890   3.830
 8552TIP3   OH225619   1.958   5.102   2.659
 8552TIP3    H125620   1.996   5.024   2.618
 8552TIP3    H225621   2.000   5.176   2.613
 8553TIP3   OH225622   4.348   3.550   5.220
 8553TIP3    H125623   4.275   3.602   5.254
 8553TIP3    H225624   4.364   3.586   5.133
 8554TIP3   OH225625   0.379   3.306   1.090
 8554TIP3    H125626   0.452   3.342   1.141
 8554TIP3    H225627   0.302   3.351   1.123
 8555TIP3   OH225628   1.713   4.342   3.186
 8555TIP3    H125629   1.747   4.426   3.155
 8555TIP3    H225630   1.782   4.279   3.166
 8556TIP3   OH225631   5.767   4.851   2.809
 8556TIP3    H125632   5.840   4.803   2.849
 8556TIP3    H225633   5.696   4.788   2.805
 8557TIP3   OH225634   3.532   4.751   5.643
 8557TIP3    H125635   3.606   4.690   5.639
 8557TIP3    H225636   3.519   4.780   5.553
 8558TIP3   OH225637   4.336   5.881   3.929
 8558TIP3    H125638   4.364   5.844   3.845
 8558TIP3    H225639   4.416   5.883   3.982
 8559TIP3   OH225640   3.631   6.585   0.908
 8559TIP3    H125641   3.711   6.534   0.895
 8559TIP3    H225642   3.642   6.625   0.995
 8560TIP3   OH225643   0.668   5.956   5.157
 8560TIP3    H125644   0.760   5.930   5.162
 8560TIP3    H225645   0.644   5.943   5.066
 8561TIP3   OH225646   0.828   5.661   1.057
 8561TIP3    H125647   0.789   5.592   1.003
 8561TIP3    H225648   0.799   5.742   1.015
 8562TIP3   OH225649   2.694   0.088   0.398
 8562TIP3    H125650   2.635   0.015   0.413
 8562TIP3    H225651   2.771   0.049   0.356
 8563TIP3   OH225652   2.639   5.802   1.022
 8563TIP3    H125653   2.730   5.789   1.048
 8563TIP3    H225654   2.611   5.717   0.988
 8564TIP3   OH225655   5.346   2.110   1.495
 8564TIP3    H125656   5.302   2.071   1.420
 8564TIP3    H225657   5.283   2.101   1.567
 8565TIP3   OH225658   5.407   2.769   1.298
 8565TIP3    H125659   5.479   2.782   1.236
 8565TIP3    H225660   5.355   2.849   1.291
 8566TIP3   OH225661   6.221   4.379   0.168
 8566TIP3    H125662   6.175   4.344   0.245
 8566TIP3    H225663   6.152   4.396   0.104
 8567TIP3   OH225664   4.996   3.162   5.053
 8567TIP3    H125665   4.934   3.229   5.082
 8567TIP3    H225666   5.081   3.195   5.083
 8568TIP3   OH225667   2.229   3.930   4.898
 8568TIP3    H125668   2.268   4.006   4.940
 8568TIP3    H225669   2.137   3.932   4.925
 8569TIP3   OH225670   4.125   2.290   1.554
 8569TIP3    H125671   4.183   2.248   1.491
 8569TIP3    H225672   4.045   2.307   1.505
 8570TIP3   OH225673   1.160   4.877   0.147
 8570TIP3    H125674   1.235   4.932   0.172
 8570TIP3    H225675   1.134   4.834   0.229
 8571TIP3   OH225676   4.563   0.324   4.888
 8571TIP3    H125677   4.606   0.409   4.877
 8571TIP3    H225678   4.537   0.299   4.799
 8572TIP3   OH225679   0.564   2.272   4.021
 8572TIP3    H125680   0.518   2.338   4.074
 8572TIP3    H225681   0.516   2.191   4.039
 8573TIP3   OH225682   1.295   2.447   2.883
 8573TIP3    H125683   1.267   2.493   2.803
 8573TIP3    H225684   1.360   2.505   2.922
 8574TIP3   OH225685   0.066   6.577   0.325
 8574TIP3    H125686   0.071   6.648   0.389
 8574TIP3    H225687   0.054   6.498   0.378
 8575TIP3   OH225688   4.032   5.477   4.405
 8575TIP3    H125689   4.005   5.438   4.322
 8575TIP3    H225690   4.126   5.489   4.396
 8576TIP3   OH225691   2.524   0.563   0.133
 8576TIP3    H125692   2.475   0.554   0.051
 8576TIP3    H225693   2.607   0.517   0.116
 8577TIP3   OH225694   2.469   4.916   3.163
 8577TIP3    H125695   2.550   4.966   3.169
 8577TIP3    H225696   2.400   4.982   3.157
 8578TIP3   OH225697   3.520   4.916   3.077
 8578TIP3    H125698   3.543   5.008   3.087
 8578TIP3    H225699   3.452   4.915   3.010
 8579TIP3   OH225700   1.865   0.742   3.335
 8579TIP3    H125701   1.917   0.662   3.328
 8579TIP3    H225702   1.914   0.797   3.396
 8580TIP3   OH225703   6.121   1.283   3.711
 8580TIP3    H125704   6.166   1.352   3.760
 8580TIP3    H225705   6.061   1.243   3.774
 8581TIP3   OH225706   3.238   0.547   1.706
 8581TIP3    H125707   3.318   0.549   1.759
 8581TIP3    H225708   3.258   0.601   1.630
 8582TIP3   OH225709   3.223   3.736   1.445
 8582TIP3    H125710   3.142   3.756   1.399
 8582TIP3    H225711   3.197   3.722   1.536
 8583TIP3   OH225712   2.996   0.632   4.647
 8583TIP3    H125713   2.964   0.542   4.640
 8583TIP3    H225714   2.975   0.671   4.562
 8584TIP3   OH225715   5.414   4.251   3.624
 8584TIP3    H125716   5.443   4.162   3.603
 8584TIP3    H225717   5.356   4.240   3.699
 8585TIP3   OH225718   6.414   2.128   2.942
 8585TIP3    H125719   6.485   2.065   2.956
 8585TIP3    H225720   6.342   2.075   2.908
 8586TIP3   OH225721   4.508   2.080   3.016
 8586TIP3    H125722   4.499   1.985   3.027
 8586TIP3    H225723   4.490   2.116   3.103
 8587TIP3   OH225724   4.168   4.572   5.551
 8587TIP3    H125725   4.219   4.588   5.472
 8587TIP3    H225726   4.148   4.658   5.586
 8588TIP3   OH225727   1.048   2.208   4.217
 8588TIP3    H125728   1.103   2.174   4.289
 8588TIP3    H225729   0.985   2.138   4.201
 8589TIP3   OH225730   0.577   2.361   2.678
 8589TIP3    H125731   0.630   2.330   2.605
 8589TIP3    H225732   0.561   2.283   2.732
 8590TIP3   OH225733   4.974   0.202   3.794
 8590TIP3    H125734   4.916   0.278   3.804
 8590TIP3    H225735   5.018   0.217   3.710
 8591TIP3   OH225736   6.032   4.024   5.783
 8591TIP3    H125737   5.988   3.978   5.712
 8591TIP3    H225738   5.995   4.112   5.783
 8592TIP3   OH225739   3.645   1.500   4.337
 8592TIP3    H125740   3.589   1.575   4.351
 8592TIP3    H225741   3.665   1.502   4.243
 8593TIP3   OH225742   2.795   3.214   1.172
 8593TIP3    H125743   2.763   3.128   1.146
 8593TIP3    H225744   2.816   3.258   1.090
 8594TIP3   OH225745   1.195   3.840   3.003
 8594TIP3    H125746   1.164   3.752   2.979
 8594TIP3    H225747   1.287   3.841   2.978
 8595TIP3   OH225748   6.473   3.999   2.320
 8595TIP3    H125749   6.457   3.958   2.235
 8595TIP3    H225750   6.421   4.079   2.318
 8596TIP3   OH225751   6.313   2.067   3.706
 8596TIP3    H125752   6.344   2.098   3.621
 8596TIP3    H225753   6.362   1.986   3.722
 8597TIP3   OH225754   5.882   5.848   4.904
 8597TIP3    H125755   5.965   5.814   4.937
 8597TIP3    H225756   5.897   5.942   4.896
 8598TIP3   OH225757   6.451   5.275   3.966
 8598TIP3    H125758   6.478   5.365   3.985
 8598TIP3    H225759   6.392   5.253   4.038
 8599TIP3   OH225760   1.699   1.133   0.807
 8599TIP3    H125761   1.661   1.146   0.720
 8599TIP3    H225762   1.790   1.109   0.791
 8600TIP3   OH225763   2.497   3.532   0.765
 8600TIP3    H125764   2.477   3.474   0.839
 8600TIP3    H225765   2.552   3.480   0.707
 8601TIP3   OH225766   3.902   3.054   3.311
 8601TIP3    H125767   3.829   2.996   3.334
 8601TIP3    H225768   3.977   2.995   3.303
 8602TIP3   OH225769   1.488   4.838   5.507
 8602TIP3    H125770   1.573   4.832   5.550
 8602TIP3    H225771   1.445   4.756   5.528
 8603TIP3   OH225772   4.987   1.746   3.454
 8603TIP3    H125773   4.928   1.730   3.528
 8603TIP3    H225774   4.964   1.679   3.390
 8604TIP3   OH225775   3.800   2.613   2.055
 8604TIP3    H125776   3.832   2.525   2.076
 8604TIP3    H225777   3.749   2.638   2.132
 8605TIP3   OH225778   6.965   6.522   4.560
 8605TIP3    H125779   6.889   6.578   4.545
 8605TIP3    H225780   6.947   6.442   4.510
 8606TIP3   OH225781   3.491   5.686   5.306
 8606TIP3    H125782   3.452   5.603   5.278
 8606TIP3    H225783   3.439   5.753   5.262
 8607TIP3   OH225784   2.119   3.461   0.855
 8607TIP3    H125785   2.203   3.454   0.901
 8607TIP3    H225786   2.139   3.507   0.774
 8608TIP3   OH225787   0.541   5.595   1.357
 8608TIP3    H125788   0.456   5.564   1.327
 8608TIP3    H225789   0.604   5.533   1.319
 8609TIP3   OH225790   2.330   3.347   0.240
 8609TIP3    H125791   2.295   3.346   0.151
 8609TIP3    H225792   2.369   3.435   0.249
 8610TIP3   OH225793   1.976   4.754   0.757
 8610TIP3    H125794   2.014   4.666   0.756
 8610TIP3    H225795   2.021   4.798   0.829
 8611TIP3   OH225796   5.644   2.828   2.214
 8611TIP3    H125797   5.599   2.803   2.295
 8611TIP3    H225798   5.582   2.805   2.144
 8612TIP3   OH225799   6.031   5.715   0.908
 8612TIP3    H125800   6.118   5.753   0.899
 8612TIP3    H225801   5.974   5.790   0.929
 8613TIP3   OH225802   5.006   0.984   2.239
 8613TIP3    H125803   5.053   0.921   2.184
 8613TIP3    H225804   4.923   0.997   2.194
 8614TIP3   OH225805   1.878   5.914   1.788
 8614TIP3    H125806   1.898   5.947   1.700
 8614TIP3    H225807   1.907   5.822   1.786
 8615TIP3   OH225808   3.173   1.265   0.085
 8615TIP3    H125809   3.244   1.329   0.076
 8615TIP3    H225810   3.096   1.311   0.052
 8616TIP3   OH225811   3.569   1.370   4.055
 8616TIP3    H125812   3.619   1.452   4.052
 8616TIP3    H225813   3.607   1.317   3.985
 8617TIP3   OH225814   6.541   6.400   4.959
 8617TIP3    H125815   6.472   6.463   4.980
 8617TIP3    H225816   6.520   6.323   5.012
 8618TIP3   OH225817   5.078   5.777   2.280
 8618TIP3    H125818   5.052   5.857   2.326
 8618TIP3    H225819   5.063   5.707   2.344
 8619TIP3   OH225820   4.667   2.746   2.059
 8619TIP3    H125821   4.586   2.789   2.086
 8619TIP3    H225822   4.728   2.818   2.042
 8620TIP3   OH225823   1.386   6.307   5.294
 8620TIP3    H125824   1.413   6.268   5.377
 8620TIP3    H225825   1.290   6.309   5.299
 8621TIP3   OH225826   1.207   3.004   0.392
 8621TIP3    H125827   1.217   2.946   0.317
 8621TIP3    H225828   1.243   2.954   0.466
 8622TIP3   OH225829   4.098   5.288   2.800
 8622TIP3    H125830   4.056   5.233   2.733
 8622TIP3    H225831   4.037   5.360   2.814
 8623TIP3   OH225832   2.722   6.018   3.087
 8623TIP3    H125833   2.671   5.994   3.164
 8623TIP3    H225834   2.707   5.947   3.025
 8624TIP3   OH225835   5.985   0.922   2.977
 8624TIP3    H125836   6.052   0.986   2.953
 8624TIP3    H225837   5.999   0.907   3.071
 8625TIP3   OH225838   0.169   2.943   1.290
 8625TIP3    H125839   0.078   2.970   1.273
 8625TIP3    H225840   0.218   2.979   1.217
 8626TIP3   OH225841   4.944   1.757   4.016
 8626TIP3    H125842   4.865   1.707   4.039
 8626TIP3    H225843   5.015   1.693   4.020
 8627TIP3   OH225844   3.800   1.493   5.103
 8627TIP3    H125845   3.869   1.550   5.137
 8627TIP3    H225846   3.718   1.536   5.129
 8628TIP3   OH225847   1.455   1.261   5.176
 8628TIP3    H125848   1.363   1.241   5.159
 8628TIP3    H225849   1.502   1.219   5.104
 8629TIP3   OH225850   6.826   5.483   2.563
 8629TIP3    H125851   6.892   5.423   2.529
 8629TIP3    H225852   6.843   5.565   2.517
 8630TIP3   OH225853   6.107   6.031   4.068
 8630TIP3    H125854   6.146   6.011   4.153
 8630TIP3    H225855   6.142   5.964   4.009
 8631TIP3   OH225856   2.688   0.143   4.317
 8631TIP3    H125857   2.703   0.101   4.402
 8631TIP3    H225858   2.701   0.074   4.253
 8632TIP3   OH225859   0.817   2.074   2.787
 8632TIP3    H125860   0.856   2.158   2.763
 8632TIP3    H225861   0.843   2.061   2.879
 8633TIP3   OH225862   7.232   4.873   1.161
 8633TIP3    H125863   7.190   4.788   1.157
 8633TIP3    H225864   7.285   4.871   1.241
 8634TIP3   OH225865   1.523   5.815   1.853
 8634TIP3    H125866   1.524   5.764   1.772
 8634TIP3    H225867   1.595   5.877   1.843
 8635TIP3   OH225868   6.543   0.689   4.539
 8635TIP3    H125869   6.449   0.707   4.531
 8635TIP3    H225870   6.585   0.773   4.518
 8636TIP3   OH225871   7.173   4.236   3.371
 8636TIP3    H125872   7.078   4.243   3.359
 8636TIP3    H225873   7.190   4.142   3.370
 8637TIP3   OH225874   6.791   4.882   0.471
 8637TIP3    H125875   6.735   4.804   0.479
 8637TIP3    H225876   6.879   4.846   0.453
 8638TIP3   OH225877   6.133   0.730   2.851
 8638TIP3    H125878   6.161   0.682   2.929
 8638TIP3    H225879   6.081   0.803   2.885
 8639TIP3   OH225880   4.786   1.159   2.141
 8639TIP3    H125881   4.764   1.186   2.052
 8639TIP3    H225882   4.790   1.241   2.191
 8640TIP3   OH225883   5.708   3.813   1.117
 8640TIP3    H125884   5.645   3.866   1.066
 8640TIP3    H225885   5.768   3.777   1.051
 8641TIP3   OH225886   3.991   3.989   2.429
 8641TIP3    H125887   3.898   4.004   2.444
 8641TIP3    H225888   4.016   4.054   2.364
 8642TIP3   OH225889   0.758   2.134   2.237
 8642TIP3    H125890   0.841   2.171   2.205
 8642TIP3    H225891   0.691   2.178   2.185
 8643TIP3   OH225892   2.953   4.709   3.225
 8643TIP3    H125893   3.037   4.750   3.247
 8643TIP3    H225894   2.893   4.739   3.293
 8644TIP3   OH225895   0.714   4.720   5.768
 8644TIP3    H125896   0.780   4.663   5.728
 8644TIP3    H225897   0.747   4.737   5.856
 8645TIP3   OH225898   0.254   2.894   3.191
 8645TIP3    H125899   0.343   2.912   3.159
 8645TIP3    H225900   0.199   2.901   3.113
 8646TIP3   OH225901   5.860   2.860   5.745
 8646TIP3    H125902   5.955   2.859   5.735
 8646TIP3    H225903   5.829   2.918   5.675
 8647TIP3   OH225904   5.071   2.427   3.348
 8647TIP3    H125905   5.115   2.503   3.310
 8647TIP3    H225906   5.073   2.443   3.442
 8648TIP3   OH225907   1.795   4.202   2.259
 8648TIP3    H125908   1.819   4.283   2.302
 8648TIP3    H225909   1.830   4.133   2.315
 8649TIP3   OH225910   2.374   1.924   5.308
 8649TIP3    H125911   2.379   1.900   5.401
 8649TIP3    H225912   2.449   1.880   5.268
 8650TIP3   OH225913   5.043   5.119   0.978
 8650TIP3    H125914   5.040   5.169   0.897
 8650TIP3    H225915   5.101   5.169   1.036
 8651TIP3   OH225916   3.688   6.247   5.360
 8651TIP3    H125917   3.746   6.203   5.422
 8651TIP3    H225918   3.623   6.182   5.337
 8652TIP3   OH225919   7.070   2.360   4.279
 8652TIP3    H125920   6.983   2.341   4.245
 8652TIP3    H225921   7.111   2.414   4.212
 8653TIP3   OH225922   3.460   0.221   4.503
 8653TIP3    H125923   3.481   0.307   4.467
 8653TIP3    H225924   3.493   0.223   4.593
 8654TIP3   OH225925   2.503   0.535   4.177
 8654TIP3    H125926   2.587   0.533   4.130
 8654TIP3    H225927   2.455   0.460   4.142
 8655TIP3   OH225928   5.175   5.415   3.609
 8655TIP3    H125929   5.101   5.398   3.550
 8655TIP3    H225930   5.134   5.427   3.695
 8656TIP3   OH225931   0.599   0.359   2.708
 8656TIP3    H125932   0.653   0.394   2.779
 8656TIP3    H225933   0.513   0.347   2.747
 8657TIP3   OH225934   4.724   3.607   3.559
 8657TIP3    H125935   4.806   3.558   3.559
 8657TIP3    H225936   4.712   3.633   3.467
 8658TIP3   OH225937   3.624   0.403   2.929
 8658TIP3    H125938   3.625   0.309   2.910
 8658TIP3    H225939   3.543   0.417   2.978
 8659TIP3   OH225940   2.085   3.914   1.422
 8659TIP3    H125941   2.020   3.982   1.405
 8659TIP3    H225942   2.061   3.879   1.507
 8660TIP3   OH225943   3.116   0.240   4.324
 8660TIP3    H125944   3.195   0.186   4.328
 8660TIP3    H225945   3.071   0.212   4.245
 8661TIP3   OH225946   3.203   2.652   5.480
 8661TIP3    H125947   3.172   2.730   5.435
 8661TIP3    H225948   3.298   2.662   5.483
 8662TIP3   OH225949   5.549   4.059   0.390
 8662TIP3    H125950   5.478   4.018   0.441
 8662TIP3    H225951   5.504   4.116   0.328
 8663TIP3   OH225952   1.704   1.412   4.912
 8663TIP3    H125953   1.687   1.378   4.824
 8663TIP3    H225954   1.748   1.495   4.898
 8664TIP3   OH225955   3.632   2.973   4.427
 8664TIP3    H125956   3.603   2.945   4.340
 8664TIP3    H225957   3.596   2.906   4.486
 8665TIP3   OH225958   7.182   1.954   5.584
 8665TIP3    H125959   7.152   1.867   5.559
 8665TIP3    H225960   7.254   1.973   5.524
 8666TIP3   OH225961   6.166   2.780   5.467
 8666TIP3    H125962   6.129   2.804   5.553
 8666TIP3    H225963   6.207   2.861   5.436
 8667TIP3   OH225964   4.269   6.755   1.054
 8667TIP3    H125965   4.294   6.672   1.014
 8667TIP3    H225966   4.204   6.731   1.120
 8668TIP3   OH225967   6.376   1.121   2.465
 8668TIP3    H125968   6.316   1.080   2.528
 8668TIP3    H225969   6.384   1.211   2.496
 8669TIP3   OH225970   5.004   5.823   2.775
 8669TIP3    H125971   5.076   5.871   2.733
 8669TIP3    H225972   4.933   5.887   2.780
 8670TIP3   OH225973   6.237   6.784   0.890
 8670TIP3    H125974   6.190   6.779   0.807
 8670TIP3    H225975   6.304   6.852   0.877
 8671TIP3   OH225976   5.056   1.221   3.846
 8671TIP3    H125977   4.972   1.263   3.865
 8671TIP3    H225978   5.041   1.176   3.763
 8672TIP3   OH225979   4.888   6.697   2.220
 8672TIP3    H125980   4.920   6.662   2.136
 8672TIP3    H225981   4.794   6.681   2.218
 8673TIP3   OH225982   2.593   0.476   4.506
 8673TIP3    H125983   2.610   0.554   4.559
 8673TIP3    H225984   2.579   0.509   4.418
 8674TIP3   OH225985   1.311   4.581   0.502
 8674TIP3    H125986   1.377   4.635   0.458
 8674TIP3    H225987   1.332   4.491   0.476
 8675TIP3   OH225988   0.331   5.637   3.260
 8675TIP3    H125989   0.320   5.542   3.263
 8675TIP3    H225990   0.243   5.672   3.266
 8676TIP3   OH225991   7.080   6.770   0.656
 8676TIP3    H125992   7.022   6.780   0.580
 8676TIP3    H225993   7.085   6.858   0.694
 8677TIP3   OH225994   1.720   0.485   4.834
 8677TIP3    H125995   1.751   0.562   4.881
 8677TIP3    H225996   1.782   0.473   4.763
 8678TIP3   OH225997   0.612   4.118   3.132
 8678TIP3    H125998   0.684   4.179   3.148
 8678TIP3    H225999   0.533   4.172   3.137
 8679TIP3   OH226000   4.761   5.027   3.151
 8679TIP3    H126001   4.706   5.005   3.226
 8679TIP3    H226002   4.848   5.040   3.188
 8680TIP3   OH226003   6.459   1.140   0.164
 8680TIP3    H126004   6.534   1.124   0.106
 8680TIP3    H226005   6.402   1.198   0.113
 8681TIP3   OH226006   4.053   6.591   4.524
 8681TIP3    H126007   3.981   6.602   4.462
 8681TIP3    H226008   4.111   6.665   4.508
 8682TIP3   OH226009   1.532   4.798   4.405
 8682TIP3    H126010   1.574   4.845   4.477
 8682TIP3    H226011   1.595   4.730   4.381
 8683TIP3   OH226012   3.850   4.129   5.038
 8683TIP3    H126013   3.837   4.163   5.126
 8683TIP3    H226014   3.842   4.206   4.981
 8684TIP3   OH226015   2.286   1.018   3.606
 8684TIP3    H126016   2.223   1.038   3.675
 8684TIP3    H226017   2.351   1.088   3.611
 8685TIP3   OH226018   2.957   6.164   2.785
 8685TIP3    H126019   2.863   6.161   2.765
 8685TIP3    H226020   2.997   6.108   2.719
 8686TIP3   OH226021   7.114   6.242   2.776
 8686TIP3    H126022   7.057   6.254   2.852
 8686TIP3    H226023   7.065   6.278   2.702
 8687TIP3   OH226024   6.629   0.970   1.844
 8687TIP3    H126025   6.638   0.890   1.895
 8687TIP3    H226026   6.696   1.029   1.878
 8688TIP3   OH226027   6.713   6.591   2.559
 8688TIP3    H126028   6.807   6.607   2.559
 8688TIP3    H226029   6.679   6.641   2.485
 8689TIP3   OH226030   6.071   5.292   2.767
 8689TIP3    H126031   6.162   5.266   2.753
 8689TIP3    H226032   6.019   5.221   2.727
 8690TIP3   OH226033   0.978   5.252   2.450
 8690TIP3    H126034   1.008   5.161   2.440
 8690TIP3    H226035   0.925   5.250   2.530
 8691TIP3   OH226036   0.004   3.411   0.164
 8691TIP3    H126037   0.090   3.378   0.139
 8691TIP3    H226038  -0.007   3.383   0.255
 8692TIP3   OH226039   4.991   5.975   2.439
 8692TIP3    H126040   5.034   5.970   2.524
 8692TIP3    H226041   5.060   6.003   2.379
 8693TIP3   OH226042   5.739   5.794   5.479
 8693TIP3    H126043   5.834   5.785   5.464
 8693TIP3    H226044   5.700   5.775   5.394
 8694TIP3   OH226045   3.709   0.587   3.524
 8694TIP3    H126046   3.769   0.520   3.557
 8694TIP3    H226047   3.639   0.538   3.481
 8695TIP3   OH226048   3.709   6.687   3.645
 8695TIP3    H126049   3.661   6.641   3.714
 8695TIP3    H226050   3.641   6.730   3.593
 8696TIP3   OH226051   2.252   5.588   1.758
 8696TIP3    H126052   2.255   5.598   1.662
 8696TIP3    H226053   2.290   5.669   1.791
 8697TIP3   OH226054   1.420   0.079   2.968
 8697TIP3    H126055   1.413   0.174   2.957
 8697TIP3    H226056   1.357   0.043   2.906
 8698TIP3   OH226057   4.575   2.706   4.392
 8698TIP3    H126058   4.488   2.666   4.395
 8698TIP3    H226059   4.577   2.764   4.468
 8699TIP3   OH226060   4.621   2.005   1.271
 8699TIP3    H126061   4.565   2.005   1.349
 8699TIP3    H226062   4.590   2.080   1.219
 8700TIP3   OH226063   5.451   6.276   1.459
 8700TIP3    H126064   5.389   6.257   1.389
 8700TIP3    H226065   5.419   6.226   1.534
 8701TIP3   OH226066   1.735   5.315   2.230
 8701TIP3    H126067   1.709   5.355   2.312
 8701TIP3    H226068   1.654   5.308   2.179
 8702TIP3   OH226069   2.926   4.719   4.986
 8702TIP3    H126070   2.855   4.743   4.926
 8702TIP3    H226071   2.980   4.798   4.993
 8703TIP3   OH226072   5.001   6.603   1.975
 8703TIP3    H126073   5.089   6.639   1.979
 8703TIP3    H226074   4.991   6.575   1.884
 8704TIP3   OH226075   1.726   1.220   3.596
 8704TIP3    H126076   1.752   1.128   3.605
 8704TIP3    H226077   1.703   1.247   3.685
 8705TIP3   OH226078   6.397   1.065   5.817
 8705TIP3    H126079   6.360   0.992   5.767
 8705TIP3    H226080   6.394   1.035   5.908
 8706TIP3   OH226081   2.213   3.242   3.147
 8706TIP3    H126082   2.226   3.148   3.133
 8706TIP3    H226083   2.288   3.268   3.201
 8707TIP3   OH226084   6.761   5.075   1.005
 8707TIP3    H126085   6.760   5.099   0.913
 8707TIP3    H226086   6.678   5.107   1.040
 8708TIP3   OH226087   0.468   6.548   3.615
 8708TIP3    H126088   0.413   6.469   3.617
 8708TIP3    H226089   0.425   6.606   3.554
 8709TIP3   OH226090   0.676   1.136   4.902
 8709TIP3    H126091   0.600   1.110   4.851
 8709TIP3    H226092   0.651   1.220   4.941
 8710TIP3   OH226093   1.468   5.315   2.496
 8710TIP3    H126094   1.512   5.395   2.467
 8710TIP3    H226095   1.457   5.327   2.590
 8711TIP3   OH226096   6.642   6.557   1.644
 8711TIP3    H126097   6.547   6.553   1.633
 8711TIP3    H226098   6.677   6.507   1.570
 8712TIP3   OH226099   1.239   6.376   3.949
 8712TIP3    H126100   1.334   6.362   3.948
 8712TIP3    H226101   1.229   6.467   3.923
 8713TIP3   OH226102   5.826   3.360   2.077
 8713TIP3    H126103   5.737   3.376   2.108
 8713TIP3    H226104   5.882   3.395   2.146
 8714TIP3   OH226105   2.356   1.523   2.859
 8714TIP3    H126106   2.434   1.576   2.877
 8714TIP3    H226107   2.296   1.583   2.814
 8715TIP3   OH226108   1.269   5.718   5.014
 8715TIP3    H126109   1.338   5.656   4.990
 8715TIP3    H226110   1.270   5.720   5.109
 8716TIP3   OH226111   4.576   2.195   4.768
 8716TIP3    H126112   4.494   2.220   4.808
 8716TIP3    H226113   4.626   2.276   4.761
 8717TIP3   OH226114   4.496   5.635   0.724
 8717TIP3    H126115   4.499   5.542   0.746
 8717TIP3    H226116   4.412   5.646   0.680
 8718TIP3   OH226117   6.445   3.810   5.117
 8718TIP3    H126118   6.498   3.873   5.166
 8718TIP3    H226119   6.458   3.833   5.026
 8719TIP3   OH226120   0.202   1.547   1.391
 8719TIP3    H126121   0.220   1.499   1.310
 8719TIP3    H226122   0.242   1.495   1.460
 8720TIP3   OH226123   5.352   1.845   5.682
 8720TIP3    H126124   5.409   1.910   5.724
 8720TIP3    H226125   5.389   1.761   5.709
 8721TIP3   OH226126   0.868   5.842   5.306
 8721TIP3    H126127   0.878   5.855   5.401
 8721TIP3    H226128   0.830   5.754   5.298
 8722TIP3   OH226129   4.637   3.728   5.169
 8722TIP3    H126130   4.678   3.720   5.082
 8722TIP3    H226131   4.628   3.638   5.200
 8723TIP3   OH226132   6.730   5.497   1.846
 8723TIP3    H126133   6.635   5.508   1.841
 8723TIP3    H226134   6.754   5.457   1.763
 8724TIP3   OH226135   1.392   5.428   5.383
 8724TIP3    H126136   1.370   5.356   5.323
 8724TIP3    H226137   1.481   5.408   5.412
 8725TIP3   OH226138   1.045   2.866   3.563
 8725TIP3    H126139   0.966   2.855   3.510
 8725TIP3    H226140   1.103   2.919   3.509
 8726TIP3   OH226141   0.532   1.397   1.198
 8726TIP3    H126142   0.438   1.394   1.181
 8726TIP3    H226143   0.549   1.487   1.226
 8727TIP3   OH226144   6.257   0.467   3.592
 8727TIP3    H126145   6.308   0.538   3.552
 8727TIP3    H226146   6.321   0.398   3.607
 8728TIP3   OH226147   0.148   2.340   4.672
 8728TIP3    H126148   0.141   2.308   4.762
 8728TIP3    H226149   0.131   2.434   4.679
 8729TIP3   OH226150   0.394   1.706   2.284
 8729TIP3    H126151   0.483   1.703   2.250
 8729TIP3    H226152   0.357   1.620   2.261
 8730TIP3   OH226153   5.706   6.199   3.887
 8730TIP3    H126154   5.698   6.152   3.804
 8730TIP3    H226155   5.678   6.288   3.867
 8731TIP3   OH226156   7.011   3.464   5.703
 8731TIP3    H126157   7.001   3.399   5.773
 8731TIP3    H226158   6.921   3.493   5.685
 8732TIP3   OH226159   0.553   6.158   4.140
 8732TIP3    H126160   0.501   6.235   4.161
 8732TIP3    H226161   0.644   6.188   4.148
 8733TIP3   OH226162   2.040   0.679   5.408
 8733TIP3    H126163   1.979   0.752   5.398
 8733TIP3    H226164   2.125   0.717   5.387
 8734TIP3   OH226165   0.281   2.077   4.604
 8734TIP3    H126166   0.243   2.026   4.532
 8734TIP3    H226167   0.234   2.161   4.601
 8735TIP3   OH226168   2.478   5.685   5.768
 8735TIP3    H126169   2.413   5.724   5.710
 8735TIP3    H226170   2.510   5.759   5.820
 8736TIP3   OH226171   3.702   3.304   2.834
 8736TIP3    H126172   3.667   3.235   2.890
 8736TIP3    H226173   3.643   3.307   2.759
 8737TIP3   OH226174   5.046   1.172   2.643
 8737TIP3    H126175   4.975   1.115   2.670
 8737TIP3    H226176   5.093   1.121   2.577
 8738TIP3   OH226177   5.264   2.676   5.071
 8738TIP3    H126178   5.212   2.623   5.011
 8738TIP3    H226179   5.354   2.647   5.059
 8739TIP3   OH226180   2.239   1.505   5.674
 8739TIP3    H126181   2.200   1.567   5.613
 8739TIP3    H226182   2.326   1.541   5.693
 8740TIP3   OH226183   2.698   1.935   3.387
 8740TIP3    H126184   2.761   1.967   3.452
 8740TIP3    H226185   2.743   1.862   3.345
 8741TIP3   OH226186   2.891   0.304   2.035
 8741TIP3    H126187   2.966   0.363   2.036
 8741TIP3    H226188   2.892   0.263   2.121
 8742TIP3   OH226189   5.643   3.868   4.996
 8742TIP3    H126190   5.677   3.785   5.028
 8742TIP3    H226191   5.667   3.870   4.903
 8743TIP3   OH226192   3.751   1.590   4.098
 8743TIP3    H126193   3.730   1.637   4.018
 8743TIP3    H226194   3.788   1.657   4.156
 8744TIP3   OH226195   1.388   5.768   4.562
 8744TIP3    H126196   1.387   5.673   4.547
 8744TIP3    H226197   1.306   5.786   4.608
 8745TIP3   OH226198   4.023   1.568   2.784
 8745TIP3    H126199   3.939   1.570   2.739
 8745TIP3    H226200   4.088   1.562   2.714
 8746TIP3   OH226201   1.836   3.486   0.477
 8746TIP3    H126202   1.776   3.481   0.551
 8746TIP3    H226203   1.800   3.555   0.421
 8747TIP3   OH226204   3.350   5.747   3.138
 8747TIP3    H126205   3.258   5.721   3.141
 8747TIP3    H226206   3.395   5.681   3.190
 8748TIP3   OH226207   3.819   1.305   4.775
 8748TIP3    H126208   3.809   1.210   4.765
 8748TIP3    H226209   3.764   1.343   4.708
 8749TIP3   OH226210   4.694   5.751   3.127
 8749TIP3    H126211   4.677   5.716   3.215
 8749TIP3    H226212   4.646   5.693   3.069
 8750TIP3   OH226213   5.005   3.294   1.996
 8750TIP3    H126214   5.035   3.257   1.913
 8750TIP3    H226215   5.005   3.388   1.982
 8751TIP3   OH226216   2.823   6.281   4.685
 8751TIP3    H126217   2.742   6.252   4.643
 8751TIP3    H226218   2.839   6.368   4.649
 8752TIP3   OH226219   0.202   6.190   1.193
 8752TIP3    H126220   0.280   6.245   1.205
 8752TIP3    H226221   0.237   6.107   1.161
 8753TIP3   OH226222   7.112   0.523   2.061
 8753TIP3    H126223   7.204   0.520   2.087
 8753TIP3    H226224   7.090   0.616   2.060
 8754TIP3   OH226225   3.578   5.301   4.389
 8754TIP3    H126226   3.621   5.293   4.304
 8754TIP3    H226227   3.586   5.394   4.411
 8755TIP3   OH226228   2.890   0.461   3.624
 8755TIP3    H126229   2.931   0.404   3.689
 8755TIP3    H226230   2.799   0.468   3.652
 8756TIP3   OH226231   5.301   0.791   1.387
 8756TIP3    H126232   5.229   0.819   1.330
 8756TIP3    H226233   5.376   0.844   1.358
 8757TIP3   OH226234   4.891   4.740   0.475
 8757TIP3    H126235   4.825   4.807   0.495
 8757TIP3    H226236   4.905   4.693   0.557
 8758TIP3   OH226237   4.338   5.301   3.270
 8758TIP3    H126238   4.432   5.304   3.253
 8758TIP3    H226239   4.298   5.308   3.184
 8759TIP3   OH226240   5.383   6.464   2.903
 8759TIP3    H126241   5.351   6.528   2.839
 8759TIP3    H226242   5.478   6.475   2.901
 8760TIP3   OH226243   4.316   6.236   4.374
 8760TIP3    H126244   4.335   6.317   4.422
 8760TIP3    H226245   4.297   6.266   4.285
 8761TIP3   OH226246   0.621   1.917   2.347
 8761TIP3    H126247   0.679   1.842   2.342
 8761TIP3    H226248   0.665   1.985   2.296
 8762TIP3   OH226249   3.873   5.282   3.080
 8762TIP3    H126250   3.874   5.193   3.116
 8762TIP3    H226251   3.789   5.318   3.109
 8763TIP3   OH226252   4.289   2.541   4.707
 8763TIP3    H126253   4.229   2.550   4.781
 8763TIP3    H226254   4.372   2.574   4.740
 8764TIP3   OH226255   7.161   5.030   0.323
 8764TIP3    H126256   7.121   4.971   0.386
 8764TIP3    H226257   7.121   5.007   0.239
 8765TIP3   OH226258   1.392   5.019   1.759
 8765TIP3    H126259   1.449   5.029   1.683
 8765TIP3    H226260   1.304   5.013   1.722
 8766TIP3   OH226261   3.757   1.564   1.534
 8766TIP3    H126262   3.785   1.621   1.462
 8766TIP3    H226263   3.714   1.624   1.595
 8767TIP3   OH226264   0.855   0.486   2.009
 8767TIP3    H126265   0.795   0.556   2.034
 8767TIP3    H226266   0.936   0.531   1.983
 8768TIP3   OH226267   0.135   1.562   3.195
 8768TIP3    H126268   0.123   1.657   3.206
 8768TIP3    H226269   0.059   1.523   3.238
 8769TIP3   OH226270   5.986   3.204   1.114
 8769TIP3    H126271   5.968   3.286   1.161
 8769TIP3    H226272   5.946   3.136   1.167
 8770TIP3   OH226273   2.205   1.703   2.718
 8770TIP3    H126274   2.130   1.665   2.765
 8770TIP3    H226275   2.209   1.793   2.748
 8771TIP3   OH226276   1.689   2.803   2.012
 8771TIP3    H126277   1.636   2.878   2.038
 8771TIP3    H226278   1.731   2.830   1.930
 8772TIP3   OH226279   6.845   5.573   5.340
 8772TIP3    H126280   6.780   5.508   5.311
 8772TIP3    H226281   6.834   5.646   5.279
 8773TIP3   OH226282   6.996   6.696   5.089
 8773TIP3    H126283   7.087   6.684   5.117
 8773TIP3    H226284   6.987   6.640   5.013
 8774TIP3   OH226285   3.806   2.515   1.615
 8774TIP3    H126286   3.883   2.510   1.671
 8774TIP3    H226287   3.836   2.483   1.530
 8775TIP3   OH226288   1.263   0.866   3.004
 8775TIP3    H126289   1.305   0.828   3.081
 8775TIP3    H226290   1.323   0.847   2.932
 8776TIP3   OH226291   4.094   0.624   3.642
 8776TIP3    H126292   4.183   0.593   3.661
 8776TIP3    H226293   4.056   0.554   3.589
 8777TIP3   OH226294   3.096   5.408   1.143
 8777TIP3    H126295   3.010   5.448   1.151
 8777TIP3    H226296   3.139   5.459   1.074
 8778TIP3   OH226297   6.410   2.103   3.459
 8778TIP3    H126298   6.397   2.161   3.384
 8778TIP3    H226299   6.464   2.032   3.426
 8779TIP3   OH226300   5.473   6.569   3.452
 8779TIP3    H126301   5.379   6.578   3.434
 8779TIP3    H226302   5.512   6.648   3.413
 8780TIP3   OH226303   5.867   4.936   3.919
 8780TIP3    H126304   5.795   4.969   3.864
 8780TIP3    H226305   5.823   4.904   3.998
 8781TIP3   OH226306   0.456   1.929   2.037
 8781TIP3    H126307   0.445   1.908   2.129
 8781TIP3    H226308   0.367   1.936   2.002
 8782TIP3   OH226309   5.579   0.075   3.833
 8782TIP3    H126310   5.558  -0.016   3.809
 8782TIP3    H226311   5.494   0.118   3.842
 8783TIP3   OH226312   3.625   0.632   1.605
 8783TIP3    H126313   3.664   0.552   1.641
 8783TIP3    H226314   3.671   0.703   1.649
 8784TIP3   OH226315   1.203   1.720   1.699
 8784TIP3    H126316   1.264   1.648   1.685
 8784TIP3    H226317   1.159   1.730   1.615
 8785TIP3   OH226318   2.724   5.702   3.252
 8785TIP3    H126319   2.713   5.774   3.315
 8785TIP3    H226320   2.685   5.735   3.171
 8786TIP3   OH226321   2.145   1.246   4.328
 8786TIP3    H126322   2.231   1.268   4.367
 8786TIP3    H226323   2.082   1.272   4.395
 8787TIP3   OH226324   0.050   2.153   1.962
 8787TIP3    H126325  -0.037   2.119   1.981
 8787TIP3    H226326   0.069   2.214   2.034
 8788TIP3   OH226327   1.957   5.495   0.343
 8788TIP3    H126328   1.948   5.527   0.433
 8788TIP3    H226329   2.015   5.558   0.301
 8789TIP3   OH226330   4.970   2.256   3.840
 8789TIP3    H126331   4.959   2.165   3.868
 8789TIP3    H226332   4.974   2.252   3.745
 8790TIP3   OH226333   5.398   4.641   1.637
 8790TIP3    H126334   5.323   4.656   1.695
 8790TIP3    H226335   5.446   4.723   1.637
 8791TIP3   OH226336   1.732   1.816   4.623
 8791TIP3    H126337   1.780   1.876   4.566
 8791TIP3    H226338   1.675   1.873   4.675
 8792TIP3   OH226339   5.131   5.212   2.719
 8792TIP3    H126340   5.178   5.283   2.762
 8792TIP3    H226341   5.127   5.238   2.627
 8793TIP3   OH226342   6.361   5.536   3.743
 8793TIP3    H126343   6.316   5.551   3.660
 8793TIP3    H226344   6.291   5.525   3.806
 8794TIP3   OH226345   6.422   5.101   5.090
 8794TIP3    H126346   6.460   5.025   5.135
 8794TIP3    H226347   6.414   5.073   4.999
 8795TIP3   OH226348   3.997   2.854   0.908
 8795TIP3    H126349   4.082   2.843   0.950
 8795TIP3    H226350   3.936   2.810   0.968
 8796TIP3   OH226351   3.079   3.596   4.884
 8796TIP3    H126352   3.154   3.633   4.836
 8796TIP3    H226353   3.003   3.639   4.846
 8797TIP3   OH226354   5.732   1.791   5.818
 8797TIP3    H126355   5.815   1.780   5.863
 8797TIP3    H226356   5.753   1.776   5.725
 8798TIP3   OH226357   1.195   2.940   1.238
 8798TIP3    H126358   1.143   3.012   1.201
 8798TIP3    H226359   1.148   2.861   1.212
 8799TIP3   OH226360   5.295   3.390   1.819
 8799TIP3    H126361   5.380   3.351   1.839
 8799TIP3    H226362   5.316   3.474   1.778
 8800TIP3   OH226363   0.897   3.511   3.931
 8800TIP3    H126364   0.891   3.458   4.011
 8800TIP3    H226365   0.866   3.597   3.957
 8801TIP3   OH226366   0.625   5.558   1.923
 8801TIP3    H126367   0.710   5.564   1.966
 8801TIP3    H226368   0.612   5.464   1.907
 8802TIP3   OH226369   0.176   4.102   2.932
 8802TIP3    H126370   0.184   4.026   2.873
 8802TIP3    H226371   0.235   4.167   2.896
 8803TIP3   OH226372   2.010   3.125   4.572
 8803TIP3    H126373   2.056   3.046   4.601
 8803TIP3    H226374   1.980   3.166   4.654
 8804TIP3   OH226375   3.191   3.497   5.359
 8804TIP3    H126376   3.242   3.536   5.288
 8804TIP3    H226377   3.113   3.462   5.317
 8805TIP3   OH226378   4.413   2.277   2.283
 8805TIP3    H126379   4.433   2.370   2.286
 8805TIP3    H226380   4.478   2.241   2.222
 8806TIP3   OH226381   4.432   4.872   0.370
 8806TIP3    H126382   4.374   4.853   0.297
 8806TIP3    H226383   4.478   4.952   0.344
 8807TIP3   OH226384   2.250   6.035   4.355
 8807TIP3    H126385   2.315   5.982   4.401
 8807TIP3    H226386   2.170   6.025   4.407
 8808TIP3   OH226387   1.988   0.601   4.153
 8808TIP3    H126388   1.986   0.626   4.061
 8808TIP3    H226389   2.073   0.631   4.184
 8809TIP3   OH226390   3.905   5.454   2.862
 8809TIP3    H126391   3.846   5.524   2.892
 8809TIP3    H226392   3.882   5.379   2.916
 8810TIP3   OH226393   2.129   1.370   2.561
 8810TIP3    H126394   2.074   1.320   2.501
 8810TIP3    H226395   2.120   1.324   2.645
 8811TIP3   OH226396   2.578   0.379   1.547
 8811TIP3    H126397   2.538   0.319   1.485
 8811TIP3    H226398   2.570   0.334   1.632
 8812TIP3   OH226399   5.775   0.121   0.378
 8812TIP3    H126400   5.738   0.041   0.415
 8812TIP3    H226401   5.819   0.092   0.298
 8813TIP3   OH226402   6.863   3.632   1.637
 8813TIP3    H126403   6.784   3.683   1.620
 8813TIP3    H226404   6.865   3.622   1.732
 8814TIP3   OH226405   0.086   1.748   2.173
 8814TIP3    H126406   0.118   1.716   2.089
 8814TIP3    H226407  -0.008   1.729   2.171
 8815TIP3   OH226408   0.240   2.788   4.182
 8815TIP3    H126409   0.326   2.763   4.218
 8815TIP3    H226410   0.217   2.715   4.125
 8816TIP3   OH226411   5.681   4.039   2.470
 8816TIP3    H126412   5.628   4.116   2.450
 8816TIP3    H226413   5.618   3.966   2.468
 8817TIP3   OH226414   1.424   4.948   3.350
 8817TIP3    H126415   1.357   4.884   3.375
 8817TIP3    H226416   1.507   4.903   3.367
 8818TIP3   OH226417   3.706   5.392   5.379
 8818TIP3    H126418   3.702   5.316   5.436
 8818TIP3    H226419   3.708   5.467   5.439
 8819TIP3   OH226420   1.180   3.120   3.131
 8819TIP3    H126421   1.111   3.184   3.117
 8819TIP3    H226422   1.195   3.083   3.044
 8820TIP3   OH226423   7.066   0.351   2.883
 8820TIP3    H126424   7.056   0.419   2.950
 8820TIP3    H226425   7.010   0.380   2.811
 8821TIP3   OH226426   3.218   6.247   4.117
 8821TIP3    H126427   3.138   6.281   4.156
 8821TIP3    H226428   3.257   6.192   4.185
 8822TIP3   OH226429   5.176   1.907   0.021
 8822TIP3    H126430   5.097   1.860  -0.004
 8822TIP3    H226431   5.225   1.918  -0.061
 8823TIP3   OH226432   4.819   0.546   4.256
 8823TIP3    H126433   4.844   0.627   4.212
 8823TIP3    H226434   4.765   0.574   4.330
 8824TIP3   OH226435   2.515   5.267   1.905
 8824TIP3    H126436   2.452   5.337   1.922
 8824TIP3    H226437   2.587   5.310   1.861
 8825TIP3   OH226438   6.061   4.841   5.662
 8825TIP3    H126439   6.124   4.913   5.666
 8825TIP3    H226440   6.109   4.770   5.619
 8826TIP3   OH226441   5.995   1.780   4.964
 8826TIP3    H126442   6.011   1.691   4.933
 8826TIP3    H226443   5.937   1.769   5.040
 8827TIP3   OH226444   3.227   2.852   3.708
 8827TIP3    H126445   3.158   2.793   3.677
 8827TIP3    H226446   3.264   2.806   3.784
 8828TIP3   OH226447   4.734   6.596   1.958
 8828TIP3    H126448   4.826   6.581   1.981
 8828TIP3    H226449   4.715   6.528   1.893
 8829TIP3   OH226450   4.609   0.007   0.859
 8829TIP3    H126451   4.581   0.098   0.874
 8829TIP3    H226452   4.689   0.015   0.808
 8830TIP3   OH226453   4.079   3.162   1.082
 8830TIP3    H126454   4.151   3.184   1.140
 8830TIP3    H226455   4.008   3.135   1.140
 8831TIP3   OH226456   5.700   6.550   4.055
 8831TIP3    H126457   5.757   6.580   3.984
 8831TIP3    H226458   5.753   6.558   4.134
 8832TIP3   OH226459   6.666   6.240   5.256
 8832TIP3    H126460   6.575   6.208   5.253
 8832TIP3    H226461   6.675   6.278   5.343
 8833TIP3   OH226462   6.523   5.161   1.879
 8833TIP3    H126463   6.540   5.173   1.786
 8833TIP3    H226464   6.594   5.209   1.923
 8834TIP3   OH226465   3.112   1.233   4.249
 8834TIP3    H126466   3.125   1.138   4.255
 8834TIP3    H226467   3.099   1.260   4.340
 8835TIP3   OH226468   6.203   2.617   5.865
 8835TIP3    H126469   6.183   2.535   5.820
 8835TIP3    H226470   6.211   2.681   5.794
 8836TIP3   OH226471   4.397   5.971   3.206
 8836TIP3    H126472   4.399   6.013   3.120
 8836TIP3    H226473   4.324   6.013   3.252
 8837TIP3   OH226474   1.087   5.447   0.291
 8837TIP3    H126475   1.133   5.519   0.249
 8837TIP3    H226476   1.120   5.448   0.381
 8838TIP3   OH226477   3.530   2.066   3.616
 8838TIP3    H126478   3.609   2.065   3.563
 8838TIP3    H226479   3.516   2.158   3.638
 8839TIP3   OH226480   7.199   5.998   2.893
 8839TIP3    H126481   7.171   6.079   2.850
 8839TIP3    H226482   7.293   6.010   2.907
 8840TIP3   OH226483   4.793   6.106   0.729
 8840TIP3    H126484   4.785   6.018   0.767
 8840TIP3    H226485   4.884   6.131   0.747
 8841TIP3   OH226486   0.375   6.087   3.866
 8841TIP3    H126487   0.413   6.175   3.864
 8841TIP3    H226488   0.363   6.068   3.959
 8842TIP3   OH226489   6.749   1.445   3.635
 8842TIP3    H126490   6.701   1.372   3.596
 8842TIP3    H226491   6.828   1.406   3.673
 8843TIP3   OH226492   2.286   3.891   1.749
 8843TIP3    H126493   2.286   3.875   1.843
 8843TIP3    H226494   2.341   3.821   1.712
 8844TIP3   OH226495   1.830   3.421   5.105
 8844TIP3    H126496   1.900   3.484   5.093
 8844TIP3    H226497   1.780   3.424   5.023
 8845TIP3   OH226498   0.971   0.544   1.141
 8845TIP3    H126499   0.939   0.632   1.125
 8845TIP3    H226500   0.946   0.526   1.232
 8846TIP3   OH226501   7.232   1.294   5.664
 8846TIP3    H126502   7.219   1.361   5.730
 8846TIP3    H226503   7.289   1.335   5.599
 8847TIP3   OH226504   4.745   4.220   1.903
 8847TIP3    H126505   4.746   4.302   1.951
 8847TIP3    H226506   4.765   4.153   1.968
 8848TIP3   OH226507   2.685   4.775   1.071
 8848TIP3    H126508   2.721   4.742   0.988
 8848TIP3    H226509   2.601   4.814   1.046
 8849TIP3   OH226510   1.637   5.538   2.421
 8849TIP3    H126511   1.715   5.591   2.406
 8849TIP3    H226512   1.575   5.564   2.352
 8850TIP3   OH226513   6.430   2.032   5.553
 8850TIP3    H126514   6.423   2.123   5.521
 8850TIP3    H226515   6.347   1.992   5.528
 8851TIP3   OH226516   2.336   2.600   3.391
 8851TIP3    H126517   2.426   2.575   3.368
 8851TIP3    H226518   2.293   2.616   3.307
 8852TIP3   OH226519   3.302   3.910   3.207
 8852TIP3    H126520   3.230   3.895   3.146
 8852TIP3    H226521   3.266   3.887   3.292
 8853TIP3   OH226522   1.319   4.329   1.855
 8853TIP3    H126523   1.408   4.317   1.821
 8853TIP3    H226524   1.296   4.419   1.832
 8854TIP3   OH226525   6.593   3.169   1.938
 8854TIP3    H126526   6.665   3.141   1.994
 8854TIP3    H226527   6.556   3.087   1.903
 8855TIP3   OH226528   0.765   3.385   0.629
 8855TIP3    H126529   0.671   3.373   0.642
 8855TIP3    H226530   0.805   3.308   0.669
 8856TIP3   OH226531   6.452   6.760   4.411
 8856TIP3    H126532   6.509   6.834   4.433
 8856TIP3    H226533   6.379   6.767   4.472
 8857TIP3   OH226534   2.889   0.750   4.416
 8857TIP3    H126535   2.904   0.710   4.330
 8857TIP3    H226536   2.882   0.844   4.398
 8858TIP3   OH226537   0.056   0.567   0.547
 8858TIP3    H126538   0.082   0.602   0.462
 8858TIP3    H226539   0.044   0.473   0.531
 8859TIP3   OH226540   7.106   5.178   3.332
 8859TIP3    H126541   7.117   5.084   3.320
 8859TIP3    H226542   7.145   5.217   3.254
 8860TIP3   OH226543   4.228   4.851   4.234
 8860TIP3    H126544   4.249   4.758   4.245
 8860TIP3    H226545   4.137   4.852   4.205
 8861TIP3   OH226546   3.602   3.987   1.340
 8861TIP3    H126547   3.687   3.972   1.382
 8861TIP3    H226548   3.610   4.072   1.298
 8862TIP3   OH226549   1.944   4.926   3.323
 8862TIP3    H126550   2.001   5.001   3.305
 8862TIP3    H226551   1.964   4.901   3.413
 8863TIP3   OH226552   4.670   2.914   3.061
 8863TIP3    H126553   4.642   2.981   2.999
 8863TIP3    H226554   4.704   2.843   3.006
 8864TIP3   OH226555   4.859   4.058   2.610
 8864TIP3    H126556   4.838   4.138   2.562
 8864TIP3    H226557   4.919   4.011   2.552
 8865TIP3   OH226558   0.546   4.380   1.085
 8865TIP3    H126559   0.477   4.432   1.126
 8865TIP3    H226560   0.500   4.308   1.042
 8866TIP3   OH226561   2.486   4.731   0.113
 8866TIP3    H126562   2.481   4.733   0.209
 8866TIP3    H226563   2.444   4.812   0.085
 8867TIP3   OH226564   3.445   4.508   0.574
 8867TIP3    H126565   3.418   4.425   0.535
 8867TIP3    H226566   3.363   4.547   0.606
 8868TIP3   OH226567   6.539   5.428   2.902
 8868TIP3    H126568   6.446   5.450   2.904
 8868TIP3    H226569   6.553   5.372   2.978
 8869TIP3   OH226570   0.005   3.441   2.379
 8869TIP3    H126571   0.032   3.448   2.471
 8869TIP3    H226572  -0.073   3.495   2.373
 8870TIP3   OH226573   1.268   5.144   3.498
 8870TIP3    H126574   1.331   5.094   3.446
 8870TIP3    H226575   1.321   5.198   3.555
 8871TIP3   OH226576   7.116   0.417   1.552
 8871TIP3    H126577   7.132   0.403   1.645
 8871TIP3    H226578   7.082   0.506   1.547
 8872TIP3   OH226579   6.577   2.907   0.096
 8872TIP3    H126580   6.579   2.851   0.019
 8872TIP3    H226581   6.484   2.916   0.117
 8873TIP3   OH226582   3.975   6.095   3.259
 8873TIP3    H126583   4.060   6.097   3.304
 8873TIP3    H226584   3.993   6.123   3.170
 8874TIP3   OH226585   1.760   4.638   3.700
 8874TIP3    H126586   1.676   4.677   3.725
 8874TIP3    H226587   1.773   4.667   3.610
 8875TIP3   OH226588   5.615   5.709   0.487
 8875TIP3    H126589   5.563   5.660   0.423
 8875TIP3    H226590   5.553   5.735   0.554
 8876TIP3   OH226591   4.530   2.753   3.852
 8876TIP3    H126592   4.619   2.733   3.879
 8876TIP3    H226593   4.498   2.671   3.814
 8877TIP3   OH226594   3.626   3.206   3.275
 8877TIP3    H126595   3.711   3.248   3.274
 8877TIP3    H226596   3.637   3.130   3.331
 8878TIP3   OH226597   3.049   2.262   2.215
 8878TIP3    H126598   2.985   2.238   2.147
 8878TIP3    H226599   3.020   2.215   2.293
 8879TIP3   OH226600   0.605   2.585   1.971
 8879TIP3    H126601   0.522   2.583   1.923
 8879TIP3    H226602   0.581   2.610   2.060
 8880TIP3   OH226603   1.387   6.030   3.079
 8880TIP3    H126604   1.304   5.986   3.095
 8880TIP3    H226605   1.402   6.083   3.157
 8881TIP3   OH226606   1.704   0.666   5.234
 8881TIP3    H126607   1.757   0.737   5.271
 8881TIP3    H226608   1.742   0.651   5.147
 8882TIP3   OH226609   1.424   6.792   2.205
 8882TIP3    H126610   1.357   6.736   2.245
 8882TIP3    H226611   1.502   6.736   2.202
 8883TIP3   OH226612   1.978   4.074   1.023
 8883TIP3    H126613   1.986   4.097   0.930
 8883TIP3    H226614   2.052   4.017   1.040
 8884TIP3   OH226615   3.041   1.665   5.024
 8884TIP3    H126616   2.964   1.721   5.031
 8884TIP3    H226617   3.113   1.716   5.061
 8885TIP3   OH226618   2.223   5.330   3.358
 8885TIP3    H126619   2.309   5.298   3.383
 8885TIP3    H226620   2.223   5.329   3.262
 8886TIP3   OH226621   2.169   2.816   0.621
 8886TIP3    H126622   2.134   2.904   0.605
 8886TIP3    H226623   2.095   2.757   0.602
 8887TIP3   OH226624   3.837   6.705   2.561
 8887TIP3    H126625   3.921   6.679   2.524
 8887TIP3    H226626   3.824   6.795   2.532
 8888TIP3   OH226627   3.232   5.294   0.734
 8888TIP3    H126628   3.275   5.256   0.811
 8888TIP3    H226629   3.150   5.246   0.726
 8889TIP3   OH226630   5.486   2.515   0.595
 8889TIP3    H126631   5.462   2.468   0.674
 8889TIP3    H226632   5.476   2.450   0.525
 8890TIP3   OH226633   1.072   5.702   3.840
 8890TIP3    H126634   1.101   5.667   3.925
 8890TIP3    H226635   1.013   5.635   3.806
 8891TIP3   OH226636   5.001   0.787   0.668
 8891TIP3    H126637   5.008   0.746   0.582
 8891TIP3    H226638   5.089   0.822   0.685
 8892TIP3   OH226639   4.683   4.486   4.216
 8892TIP3    H126640   4.741   4.455   4.147
 8892TIP3    H226641   4.680   4.414   4.280
 8893TIP3   OH226642   5.842   1.832   0.444
 8893TIP3    H126643   5.851   1.753   0.391
 8893TIP3    H226644   5.778   1.885   0.396
 8894TIP3   OH226645   7.006   5.093   1.937
 8894TIP3    H126646   6.912   5.077   1.943
 8894TIP3    H226647   7.044   5.005   1.928
 8895TIP3   OH226648   6.712   0.512   5.594
 8895TIP3    H126649   6.726   0.420   5.572
 8895TIP3    H226650   6.799   0.545   5.616
 8896TIP3   OH226651   1.476   2.010   3.019
 8896TIP3    H126652   1.456   1.967   2.936
 8896TIP3    H226653   1.401   2.067   3.035
 8897TIP3   OH226654   1.591   3.381   1.003
 8897TIP3    H126655   1.505   3.375   1.044
 8897TIP3    H226656   1.572   3.408   0.913
 8898TIP3   OH226657   2.434   4.324   2.904
 8898TIP3    H126658   2.376   4.382   2.855
 8898TIP3    H226659   2.428   4.355   2.995
 8899TIP3   OH226660   3.955   0.948   5.811
 8899TIP3    H126661   3.906   0.949   5.729
 8899TIP3    H226662   3.893   0.984   5.876
 8900TIP3   OH226663   4.521   6.426   4.720
 8900TIP3    H126664   4.584   6.477   4.669
 8900TIP3    H226665   4.446   6.415   4.661
 8901TIP3   OH226666   7.175   6.321   3.885
 8901TIP3    H126667   7.082   6.346   3.885
 8901TIP3    H226668   7.176   6.236   3.841
 8902TIP3   OH226669   6.864   4.671   3.993
 8902TIP3    H126670   6.931   4.706   3.933
 8902TIP3    H226671   6.821   4.749   4.028
 8903TIP3   OH226672   3.177   2.493   0.879
 8903TIP3    H126673   3.142   2.522   0.795
 8903TIP3    H226674   3.111   2.522   0.943
 8904TIP3   OH226675   1.042   1.334   4.975
 8904TIP3    H126676   1.122   1.385   4.986
 8904TIP3    H226677   0.972   1.393   5.005
 8905TIP3   OH226678   6.715  -0.003   3.022
 8905TIP3    H126679   6.671   0.082   3.024
 8905TIP3    H226680   6.806   0.017   2.999
 8906TIP3   OH226681   5.575   3.688   2.667
 8906TIP3    H126682   5.632   3.764   2.677
 8906TIP3    H226683   5.504   3.702   2.729
 8907TIP3   OH226684   0.467   0.744   0.774
 8907TIP3    H126685   0.534   0.789   0.824
 8907TIP3    H226686   0.384   0.777   0.809
 8908TIP3   OH226687   2.523   6.537   0.025
 8908TIP3    H126688   2.473   6.541   0.106
 8908TIP3    H226689   2.525   6.627  -0.008
 8909TIP3   OH226690   1.082   1.673   4.619
 8909TIP3    H126691   1.054   1.655   4.529
 8909TIP3    H226692   1.003   1.663   4.671
 8910TIP3   OH226693   1.862   3.232   3.477
 8910TIP3    H126694   1.795   3.220   3.409
 8910TIP3    H226695   1.822   3.292   3.540
 8911TIP3   OH226696   5.314   3.248   2.424
 8911TIP3    H126697   5.238   3.288   2.382
 8911TIP3    H226698   5.322   3.163   2.382
 8912TIP3   OH226699   5.408   0.492   1.231
 8912TIP3    H126700   5.438   0.529   1.314
 8912TIP3    H226701   5.462   0.414   1.219
 8913TIP3   OH226702   5.720   2.320   3.322
 8913TIP3    H126703   5.751   2.396   3.272
 8913TIP3    H226704   5.770   2.247   3.287
 8914TIP3   OH226705   0.914   5.542   3.452
 8914TIP3    H126706   0.875   5.628   3.439
 8914TIP3    H226707   0.972   5.530   3.377
 8915TIP3   OH226708   1.617   2.010   1.539
 8915TIP3    H126709   1.559   1.949   1.585
 8915TIP3    H226710   1.623   1.976   1.450
 8916TIP3   OH226711   0.153   3.854   4.946
 8916TIP3    H126712   0.167   3.942   4.911
 8916TIP3    H226713   0.182   3.860   5.038
 8917TIP3   OH226714   3.514   5.172   0.755
 8917TIP3    H126715   3.552   5.126   0.680
 8917TIP3    H226716   3.472   5.249   0.717
 8918TIP3   OH226717   0.580   1.973   3.821
 8918TIP3    H126718   0.633   1.894   3.824
 8918TIP3    H226719   0.643   2.044   3.810
 8919TIP3   OH226720   0.967   0.286   5.606
 8919TIP3    H126721   0.952   0.215   5.545
 8919TIP3    H226722   0.900   0.275   5.673
 8920TIP3   OH226723   4.679   4.988   4.483
 8920TIP3    H126724   4.633   5.053   4.536
 8920TIP3    H226725   4.667   5.017   4.393
 8921TIP3   OH226726   0.892   3.643   5.661
 8921TIP3    H126727   0.949   3.720   5.660
 8921TIP3    H226728   0.818   3.667   5.605
 8922TIP3   OH226729   7.046   6.436   3.026
 8922TIP3    H126730   7.125   6.488   3.038
 8922TIP3    H226731   6.998   6.480   2.955
 8923TIP3   OH226732   6.907   2.062   1.854
 8923TIP3    H126733   6.964   2.018   1.917
 8923TIP3    H226734   6.907   2.005   1.777
 8924TIP3   OH226735   2.632   4.446   1.643
 8924TIP3    H126736   2.593   4.361   1.663
 8924TIP3    H226737   2.563   4.494   1.597
 8925TIP3   OH226738   4.011   1.998   3.807
 8925TIP3    H126739   4.037   2.090   3.814
 8925TIP3    H226740   3.939   1.989   3.869
 8926TIP3   OH226741   5.035   1.447   2.039
 8926TIP3    H126742   5.051   1.377   2.103
 8926TIP3    H226743   5.094   1.427   1.967
 8927TIP3   OH226744   6.005   3.242   4.483
 8927TIP3    H126745   6.033   3.308   4.547
 8927TIP3    H226746   5.918   3.216   4.512
 8928TIP3   OH226747   0.358   2.499   0.556
 8928TIP3    H126748   0.312   2.490   0.640
 8928TIP3    H226749   0.302   2.557   0.505
 8929TIP3   OH226750   5.899   3.502   2.315
 8929TIP3    H126751   5.865   3.439   2.379
 8929TIP3    H226752   5.990   3.516   2.340
 8930TIP3   OH226753   3.047   2.896   0.856
 8930TIP3    H126754   3.047   2.808   0.894
 8930TIP3    H226755   3.054   2.955   0.931
 8931TIP3   OH226756   1.768   6.695   2.789
 8931TIP3    H126757   1.751   6.645   2.869
 8931TIP3    H226758   1.855   6.667   2.762
 8932TIP3   OH226759   3.712   6.749   1.771
 8932TIP3    H126760   3.803   6.752   1.800
 8932TIP3    H226761   3.661   6.744   1.852
 8933TIP3   OH226762   7.041   2.170   5.376
 8933TIP3    H126763   7.078   2.238   5.432
 8933TIP3    H226764   6.972   2.130   5.429
 8934TIP3   OH226765   3.234   2.274   0.113
 8934TIP3    H126766   3.246   2.275   0.018
 8934TIP3    H226767   3.274   2.356   0.143
 8935TIP3   OH226768   4.119   1.552   4.939
 8935TIP3    H126769   4.213   1.572   4.940
 8935TIP3    H226770   4.098   1.530   5.029
 8936TIP3   OH226771   2.096   4.529   2.991
 8936TIP3    H126772   2.100   4.522   2.895
 8936TIP3    H226773   2.168   4.474   3.022
 8937TIP3   OH226774   6.845   4.903   3.655
 8937TIP3    H126775   6.814   4.916   3.565
 8937TIP3    H226776   6.827   4.986   3.699
 8938TIP3   OH226777   4.124   4.280   3.888
 8938TIP3    H126778   4.041   4.312   3.924
 8938TIP3    H226779   4.189   4.298   3.957
 8939TIP3   OH226780   6.016   5.408  -0.027
 8939TIP3    H126781   6.056   5.427   0.058
 8939TIP3    H226782   5.953   5.339  -0.008
 8940TIP3   OH226783   5.659   4.348   2.345
 8940TIP3    H126784   5.664   4.394   2.429
 8940TIP3    H226785   5.748   4.354   2.310
 8941TIP3   OH226786   5.904   5.847   5.768
 8941TIP3    H126787   5.881   5.780   5.705
 8941TIP3    H226788   5.966   5.804   5.827
 8942TIP3   OH226789   6.674   1.654   1.244
 8942TIP3    H126790   6.656   1.568   1.207
 8942TIP3    H226791   6.591   1.681   1.285
 8943TIP3   OH226792   1.666   3.838   1.013
 8943TIP3    H126793   1.689   3.824   0.921
 8943TIP3    H226794   1.614   3.761   1.036
 8944TIP3   OH226795   0.251   2.004   1.087
 8944TIP3    H126796   0.262   2.064   1.161
 8944TIP3    H226797   0.214   1.925   1.127
 8945TIP3   OH226798   7.082   2.215   2.779
 8945TIP3    H126799   7.173   2.205   2.806
 8945TIP3    H226800   7.049   2.288   2.832
 8946TIP3   OH226801   2.136   5.112   4.332
 8946TIP3    H126802   2.087   5.050   4.278
 8946TIP3    H226803   2.147   5.068   4.416
 8947TIP3   OH226804   2.965   1.051   2.764
 8947TIP3    H126805   2.953   1.145   2.778
 8947TIP3    H226806   2.906   1.010   2.827
 8948TIP3   OH226807   5.207   1.170   1.167
 8948TIP3    H126808   5.260   1.092   1.148
 8948TIP3    H226809   5.218   1.225   1.090
 8949TIP3   OH226810   4.752   0.789   0.178
 8949TIP3    H126811   4.828   0.840   0.204
 8949TIP3    H226812   4.787   0.725   0.116
 8950TIP3   OH226813   4.942   2.877   1.382
 8950TIP3    H126814   4.858   2.846   1.416
 8950TIP3    H226815   4.940   2.971   1.396
 8951TIP3   OH226816   0.958   5.899   0.876
 8951TIP3    H126817   1.050   5.873   0.870
 8951TIP3    H226818   0.943   5.914   0.969
 8952TIP3   OH226819   5.423   3.171   4.627
 8952TIP3    H126820   5.468   3.088   4.640
 8952TIP3    H226821   5.370   3.182   4.706
 8953TIP3   OH226822   1.747   3.840   3.463
 8953TIP3    H126823   1.761   3.917   3.517
 8953TIP3    H226824   1.664   3.857   3.418
 8954TIP3   OH226825   3.345   5.506   1.652
 8954TIP3    H126826   3.340   5.424   1.701
 8954TIP3    H226827   3.432   5.540   1.671
 8955TIP3   OH226828   1.634   2.148   5.824
 8955TIP3    H126829   1.616   2.070   5.877
 8955TIP3    H226830   1.556   2.202   5.834
 8956TIP3   OH226831   1.180   4.796   2.284
 8956TIP3    H126832   1.251   4.838   2.333
 8956TIP3    H226833   1.194   4.702   2.296
 8957TIP3   OH226834   1.340  -0.028   5.710
 8957TIP3    H126835   1.305  -0.051   5.796
 8957TIP3    H226836   1.329   0.067   5.704
 8958TIP3   OH226837   6.244   4.498   2.842
 8958TIP3    H126838   6.285   4.420   2.803
 8958TIP3    H226839   6.275   4.570   2.788
 8959TIP3   OH226840   2.859   3.240   2.507
 8959TIP3    H126841   2.908   3.276   2.433
 8959TIP3    H226842   2.871   3.145   2.499
 8960TIP3   OH226843   1.141   3.884   4.981
 8960TIP3    H126844   1.220   3.911   4.933
 8960TIP3    H226845   1.173   3.830   5.053
 8961TIP3   OH226846   1.085   1.566   2.955
 8961TIP3    H126847   1.045   1.646   2.988
 8961TIP3    H226848   1.112   1.518   3.033
 8962TIP3   OH226849   3.346   2.381   4.939
 8962TIP3    H126850   3.313   2.300   4.979
 8962TIP3    H226851   3.363   2.439   5.013
 8963TIP3   OH226852   1.375   2.391   0.667
 8963TIP3    H126853   1.463   2.378   0.702
 8963TIP3    H226854   1.383   2.378   0.573
 8964TIP3   OH226855   3.161   5.791   1.081
 8964TIP3    H126856   3.131   5.710   1.040
 8964TIP3    H226857   3.238   5.816   1.030
 8965TIP3   OH226858   7.047   4.804   0.413
 8965TIP3    H126859   7.045   4.744   0.339
 8965TIP3    H226860   7.104   4.762   0.477
 8966TIP3   OH226861   4.033   0.612   4.526
 8966TIP3    H126862   3.946   0.595   4.491
 8966TIP3    H226863   4.093   0.576   4.462
 8967TIP3   OH226864   3.067   4.871   4.718
 8967TIP3    H126865   3.052   4.909   4.805
 8967TIP3    H226866   3.117   4.938   4.671
 8968TIP3   OH226867   0.684   3.476   2.662
 8968TIP3    H126868   0.679   3.554   2.717
 8968TIP3    H226869   0.714   3.509   2.577
 8969TIP3   OH226870   0.231   5.560   1.466
 8969TIP3    H126871   0.263   5.555   1.556
 8969TIP3    H226872   0.277   5.635   1.428
 8970TIP3   OH226873   2.002   0.503   3.670
 8970TIP3    H126874   2.023   0.445   3.597
 8970TIP3    H226875   2.040   0.587   3.646
 8971TIP3   OH226876   2.811   6.219   3.944
 8971TIP3    H126877   2.762   6.275   4.005
 8971TIP3    H226878   2.873   6.171   4.000
 8972TIP3   OH226879   6.577   2.710   5.068
 8972TIP3    H126880   6.560   2.648   4.997
 8972TIP3    H226881   6.649   2.764   5.035
 8973TIP3   OH226882   4.900   0.046   3.320
 8973TIP3    H126883   4.835   0.021   3.254
 8973TIP3    H226884   4.852   0.042   3.403
 8974TIP3   OH226885   2.796   5.610   5.011
 8974TIP3    H126886   2.710   5.573   4.995
 8974TIP3    H226887   2.779   5.695   5.050
 8975TIP3   OH226888   1.234   4.900   2.916
 8975TIP3    H126889   1.207   4.809   2.902
 8975TIP3    H226890   1.327   4.901   2.892
 8976TIP3   OH226891   4.501   2.689   4.793
 8976TIP3    H126892   4.515   2.673   4.887
 8976TIP3    H226893   4.589   2.691   4.756
 8977TIP3   OH226894   3.728   2.123   3.251
 8977TIP3    H126895   3.803   2.181   3.240
 8977TIP3    H226896   3.660   2.178   3.288
 8978TIP3   OH226897   0.522   1.741   5.054
 8978TIP3    H126898   0.488   1.825   5.082
 8978TIP3    H226899   0.592   1.762   4.993
 8979TIP3   OH226900   4.192   4.099   0.160
 8979TIP3    H126901   4.157   4.014   0.185
 8979TIP3    H226902   4.122   4.139   0.109
 8980TIP3   OH226903   3.457   0.809   5.807
 8980TIP3    H126904   3.426   0.834   5.894
 8980TIP3    H226905   3.437   0.886   5.753
 8981TIP3   OH226906   3.683   4.835   0.933
 8981TIP3    H126907   3.608   4.891   0.952
 8981TIP3    H226908   3.644   4.756   0.894
 8982TIP3   OH226909   2.625   0.799   2.737
 8982TIP3    H126910   2.702   0.765   2.782
 8982TIP3    H226911   2.613   0.739   2.663
 8983TIP3   OH226912   1.195   5.643   4.095
 8983TIP3    H126913   1.287   5.620   4.108
 8983TIP3    H226914   1.177   5.707   4.165
 8984TIP3   OH226915   3.754   0.066   3.381
 8984TIP3    H126916   3.702  -0.003   3.422
 8984TIP3    H226917   3.802   0.022   3.311
 8985TIP3   OH226918   1.189   6.324   1.373
 8985TIP3    H126919   1.094   6.328   1.357
 8985TIP3    H226920   1.198   6.344   1.466
 8986TIP3   OH226921   5.529   4.327   1.038
 8986TIP3    H126922   5.624   4.334   1.042
 8986TIP3    H226923   5.505   4.377   0.960
 8987TIP3   OH226924   1.662   1.584   3.533
 8987TIP3    H126925   1.665   1.553   3.443
 8987TIP3    H226926   1.695   1.673   3.530
 8988TIP3   OH226927   1.670   6.161   1.419
 8988TIP3    H126928   1.731   6.092   1.447
 8988TIP3    H226929   1.714   6.203   1.345
 8989TIP3   OH226930   0.637   3.181   0.807
 8989TIP3    H126931   0.596   3.129   0.738
 8989TIP3    H226932   0.577   3.256   0.819
 8990TIP3   OH226933   2.767   1.407   4.733
 8990TIP3    H126934   2.742   1.491   4.694
 8990TIP3    H226935   2.857   1.393   4.704
 8991TIP3   OH226936   3.394   1.878   4.983
 8991TIP3    H126937   3.478   1.832   4.981
 8991TIP3    H226938   3.336   1.821   5.033
 8992TIP3   OH226939   3.483   3.872   1.920
 8992TIP3    H126940   3.407   3.916   1.958
 8992TIP3    H226941   3.525   3.828   1.994
 8993TIP3   OH226942   4.923   1.480   3.269
 8993TIP3    H126943   4.845   1.520   3.309
 8993TIP3    H226944   4.913   1.496   3.175
 8994TIP3   OH226945   0.886   5.854   5.631
 8994TIP3    H126946   0.840   5.895   5.704
 8994TIP3    H226947   0.966   5.905   5.621
 8995TIP3   OH226948   4.139   2.371   5.281
 8995TIP3    H126949   4.091   2.313   5.223
 8995TIP3    H226950   4.216   2.398   5.231
 8996TIP3   OH226951   1.022   0.193   4.439
 8996TIP3    H126952   1.044   0.151   4.522
 8996TIP3    H226953   1.001   0.283   4.462
 8997TIP3   OH226954   5.169   5.384   0.218
 8997TIP3    H126955   5.222   5.445   0.165
 8997TIP3    H226956   5.233   5.333   0.267
 8998TIP3   OH226957   1.731   0.299   2.541
 8998TIP3    H126958   1.736   0.391   2.567
 8998TIP3    H226959   1.822   0.274   2.524
 8999TIP3   OH226960   0.728   1.959   4.800
 8999TIP3    H126961   0.750   2.047   4.833
 8999TIP3    H226962   0.651   1.973   4.745
 9000TIP3   OH226963   0.885   1.788   2.294
 9000TIP3    H126964   0.969   1.800   2.339
 9000TIP3    H226965   0.903   1.814   2.204
 9001TIP3   OH226966   1.009   3.237   2.807
 9001TIP3    H126967   1.052   3.167   2.758
 9001TIP3    H226968   1.075   3.305   2.814
 9002TIP3   OH226969   2.038   3.840   4.147
 9002TIP3    H126970   1.985   3.915   4.173
 9002TIP3    H226971   1.996   3.806   4.068
 9003TIP3   OH226972   6.085   1.459   2.282
 9003TIP3    H126973   6.066   1.479   2.190
 9003TIP3    H226974   6.072   1.543   2.327
 9004TIP3   OH226975   3.568   0.866   1.439
 9004TIP3    H126976   3.606   0.780   1.459
 9004TIP3    H226977   3.564   0.912   1.523
 9005TIP3   OH226978   1.271   1.485   4.986
 9005TIP3    H126979   1.315   1.492   5.071
 9005TIP3    H226980   1.315   1.413   4.942
 9006TIP3   OH226981   6.230   1.204   5.443
 9006TIP3    H126982   6.266   1.117   5.456
 9006TIP3    H226983   6.191   1.201   5.356
 9007TIP3   OH226984   0.113   5.087   2.820
 9007TIP3    H126985   0.136   5.155   2.757
 9007TIP3    H226986   0.123   5.005   2.771
 9008TIP3   OH226987   1.455   0.742   3.394
 9008TIP3    H126988   1.369   0.740   3.353
 9008TIP3    H226989   1.445   0.687   3.472
 9009TIP3   OH226990   2.826   2.053   0.434
 9009TIP3    H126991   2.744   2.102   0.423
 9009TIP3    H226992   2.797   1.963   0.448
 9010TIP3   OH226993   6.754   4.552   2.439
 9010TIP3    H126994   6.762   4.628   2.381
 9010TIP3    H226995   6.660   4.546   2.457
 9011TIP3   OH226996   2.081   3.782   2.511
 9011TIP3    H126997   2.145   3.711   2.519
 9011TIP3    H226998   2.096   3.836   2.589
 9012TIP3   OH226999   5.471   2.268   0.131
 9012TIP3    H127000   5.489   2.202   0.063
 9012TIP3    H227001   5.385   2.244   0.165
 9013TIP3   OH227002   5.150   5.166   1.940
 9013TIP3    H127003   5.163   5.084   1.893
 9013TIP3    H227004   5.237   5.206   1.943
 9014TIP3   OH227005   3.860   4.635   2.439
 9014TIP3    H127006   3.797   4.688   2.390
 9014TIP3    H227007   3.930   4.696   2.461
 9015TIP3   OH227008   6.551   1.274   1.532
 9015TIP3    H127009   6.506   1.335   1.474
 9015TIP3    H227010   6.499   1.194   1.528
 9016TIP3   OH227011   5.257   2.240   1.028
 9016TIP3    H127012   5.244   2.318   1.081
 9016TIP3    H227013   5.329   2.193   1.071
 9017TIP3   OH227014   6.073   1.075   4.422
 9017TIP3    H127015   6.109   1.069   4.333
 9017TIP3    H227016   5.987   1.035   4.415
 9018TIP3   OH227017   2.383   0.282   0.294
 9018TIP3    H127018   2.405   0.277   0.387
 9018TIP3    H227019   2.341   0.367   0.285
 9019TIP3   OH227020   5.639   0.784   0.960
 9019TIP3    H127021   5.695   0.832   1.021
 9019TIP3    H227022   5.654   0.826   0.875
 9020TIP3   OH227023   0.857   3.519   0.021
 9020TIP3    H127024   0.871   3.596   0.076
 9020TIP3    H227025   0.931   3.462   0.040
 9021TIP3   OH227026   4.029   2.958   2.164
 9021TIP3    H127027   4.071   2.875   2.139
 9021TIP3    H227028   4.034   3.012   2.086
 9022TIP3   OH227029   6.103   1.988   5.789
 9022TIP3    H127030   6.057   1.921   5.840
 9022TIP3    H227031   6.143   2.044   5.855
 9023TIP3   OH227032   6.651   6.720   0.397
 9023TIP3    H127033   6.631   6.635   0.358
 9023TIP3    H227034   6.602   6.721   0.479
 9024TIP3   OH227035   5.768   0.939   0.765
 9024TIP3    H127036   5.720   0.963   0.685
 9024TIP3    H227037   5.853   0.981   0.755
 9025TIP3   OH227038   6.715   0.378   0.342
 9025TIP3    H127039   6.742   0.302   0.394
 9025TIP3    H227040   6.699   0.344   0.255
 9026TIP3   OH227041   4.787   2.333   5.398
 9026TIP3    H127042   4.806   2.334   5.492
 9026TIP3    H227043   4.760   2.243   5.380
 9027TIP3   OH227044   4.222   6.798   4.512
 9027TIP3    H127045   4.225   6.821   4.604
 9027TIP3    H227046   4.258   6.874   4.466
 9028TIP3   OH227047   1.104   1.823   0.979
 9028TIP3    H127048   1.068   1.754   0.923
 9028TIP3    H227049   1.062   1.809   1.064
 9029TIP3   OH227050   0.095   0.977   5.575
 9029TIP3    H127051   0.080   0.912   5.506
 9029TIP3    H227052   0.012   0.982   5.622
 9030TIP3   OH227053   6.396   3.959   3.938
 9030TIP3    H127054   6.460   4.028   3.954
 9030TIP3    H227055   6.433   3.908   3.866
 9031TIP3   OH227056   5.397   0.660   1.009
 9031TIP3    H127057   5.483   0.694   0.985
 9031TIP3    H227058   5.413   0.602   1.083
 9032TIP3   OH227059   4.060   5.613   2.686
 9032TIP3    H127060   4.021   5.539   2.732
 9032TIP3    H227061   4.002   5.687   2.707
 9033TIP3   OH227062   1.547   5.885   3.741
 9033TIP3    H127063   1.500   5.919   3.665
 9033TIP3    H227064   1.490   5.907   3.815
 9034TIP3   OH227065   3.081   3.151   5.535
 9034TIP3    H127066   3.074   3.193   5.449
 9034TIP3    H227067   3.030   3.070   5.527
 9035TIP3   OH227068   0.958   3.468   3.665
 9035TIP3    H127069   0.895   3.535   3.639
 9035TIP3    H227070   0.945   3.457   3.759
 9036TIP3   OH227071   2.113   0.835   5.031
 9036TIP3    H127072   2.068   0.901   5.084
 9036TIP3    H227073   2.138   0.767   5.093
 9037TIP3   OH227074   1.176   6.162   0.869
 9037TIP3    H127075   1.091   6.143   0.909
 9037TIP3    H227076   1.207   6.077   0.839
 9038TIP3   OH227077   3.543   2.180   4.537
 9038TIP3    H127078   3.482   2.240   4.579
 9038TIP3    H227079   3.509   2.093   4.557
 9039TIP3   OH227080   1.203   0.312   4.807
 9039TIP3    H127081   1.185   0.330   4.715
 9039TIP3    H227082   1.119   0.285   4.843
 9040TIP3   OH227083   2.632   1.007   3.331
 9040TIP3    H127084   2.561   1.026   3.269
 9040TIP3    H227085   2.705   0.981   3.276
 9041TIP3   OH227086   0.511   1.487   2.450
 9041TIP3    H127087   0.499   1.542   2.527
 9041TIP3    H227088   0.538   1.547   2.381
 9042TIP3   OH227089   5.723   0.648   5.071
 9042TIP3    H127090   5.706   0.742   5.079
 9042TIP3    H227091   5.637   0.608   5.057
 9043TIP3   OH227092   4.485   4.717   0.594
 9043TIP3    H127093   4.548   4.772   0.642
 9043TIP3    H227094   4.448   4.775   0.528
 9044TIP3   OH227095   4.624   3.202   0.947
 9044TIP3    H127096   4.694   3.157   0.899
 9044TIP3    H227097   4.606   3.146   1.022
 9045TIP3   OH227098   5.287   3.180   4.875
 9045TIP3    H127099   5.336   3.134   4.943
 9045TIP3    H227100   5.302   3.273   4.893
 9046TIP3   OH227101   5.883   6.624   3.856
 9046TIP3    H127102   5.891   6.560   3.785
 9046TIP3    H227103   5.971   6.633   3.891
 9047TIP3   OH227104   2.436   1.584   4.910
 9047TIP3    H127105   2.531   1.594   4.918
 9047TIP3    H227106   2.418   1.599   4.817
 9048TIP3   OH227107   0.114   4.566   3.842
 9048TIP3    H127108   0.152   4.649   3.813
 9048TIP3    H227109   0.189   4.506   3.846
 9049TIP3   OH227110   5.992   6.324   0.551
 9049TIP3    H127111   5.936   6.402   0.549
 9049TIP3    H227112   5.942   6.258   0.503
 9050TIP3   OH227113   0.551   5.678   3.095
 9050TIP3    H127114   0.549   5.588   3.064
 9050TIP3    H227115   0.472   5.687   3.149
 9051TIP3   OH227116   5.179   0.991   2.477
 9051TIP3    H127117   5.193   0.901   2.505
 9051TIP3    H227118   5.120   0.984   2.402
 9052TIP3   OH227119   5.156   1.194   0.624
 9052TIP3    H127120   5.193   1.120   0.672
 9052TIP3    H227121   5.156   1.265   0.688
 9053TIP3   OH227122   4.557   5.032   1.860
 9053TIP3    H127123   4.597   5.117   1.881
 9053TIP3    H227124   4.608   5.000   1.786
 9054TIP3   OH227125   5.564   2.506   4.195
 9054TIP3    H127126   5.491   2.569   4.197
 9054TIP3    H227127   5.563   2.472   4.106
 9055TIP3   OH227128   6.382   3.889   4.577
 9055TIP3    H127129   6.301   3.858   4.616
 9055TIP3    H227130   6.376   3.866   4.485
 9056TIP3   OH227131   0.469   0.020   5.381
 9056TIP3    H127132   0.498   0.069   5.458
 9056TIP3    H227133   0.542   0.026   5.319
 9057TIP3   OH227134   2.272   0.870   5.344
 9057TIP3    H127135   2.302   0.818   5.269
 9057TIP3    H227136   2.245   0.954   5.307
 9058TIP3   OH227137   6.141   5.536   2.090
 9058TIP3    H127138   6.116   5.613   2.140
 9058TIP3    H227139   6.231   5.517   2.118
 9059TIP3   OH227140   4.662   3.842   3.732
 9059TIP3    H127141   4.659   3.754   3.696
 9059TIP3    H227142   4.736   3.842   3.792
 9060TIP3   OH227143   0.583   0.635   1.871
 9060TIP3    H127144   0.519   0.618   1.802
 9060TIP3    H227145   0.667   0.640   1.826
 9061TIP3   OH227146   3.986   6.035   4.361
 9061TIP3    H127147   4.022   6.012   4.276
 9061TIP3    H227148   4.005   6.128   4.371
 9062TIP3   OH227149   2.499   0.099   5.668
 9062TIP3    H127150   2.574   0.068   5.719
 9062TIP3    H227151   2.467   0.175   5.716
 9063TIP3   OH227152   7.208   4.067   0.446
 9063TIP3    H127153   7.170   3.983   0.419
 9063TIP3    H227154   7.132   4.122   0.465
 9064TIP3   OH227155   5.334   4.636   0.423
 9064TIP3    H127156   5.377   4.685   0.492
 9064TIP3    H227157   5.394   4.563   0.403
 9065TIP3   OH227158   1.130   4.035   2.286
 9065TIP3    H127159   1.173   4.106   2.238
 9065TIP3    H227160   1.198   3.970   2.300
 9066TIP3   OH227161   0.376   6.231   0.480
 9066TIP3    H127162   0.392   6.309   0.426
 9066TIP3    H227163   0.427   6.247   0.560
 9067TIP3   OH227164   5.140   0.900   5.560
 9067TIP3    H127165   5.162   0.979   5.611
 9067TIP3    H227166   5.184   0.913   5.476
 9068TIP3   OH227167   0.010   5.894   0.847
 9068TIP3    H127168  -0.015   5.815   0.800
 9068TIP3    H227169   0.070   5.940   0.788
 9069TIP3   OH227170   1.837   1.862   2.074
 9069TIP3    H127171   1.768   1.927   2.090
 9069TIP3    H227172   1.918   1.906   2.102
 9070TIP3   OH227173   4.498   4.827   2.864
 9070TIP3    H127174   4.405   4.838   2.883
 9070TIP3    H227175   4.530   4.916   2.846
 9071TIP3   OH227176   3.745   3.793   0.279
 9071TIP3    H127177   3.758   3.701   0.302
 9071TIP3    H227178   3.650   3.804   0.278
 9072TIP3   OH227179   4.768   2.470   1.014
 9072TIP3    H127180   4.805   2.382   1.015
 9072TIP3    H227181   4.729   2.481   1.101
 9073TIP3   OH227182   4.864   0.262   1.048
 9073TIP3    H127183   4.830   0.286   1.133
 9073TIP3    H227184   4.791   0.218   1.004
 9074TIP3   OH227185   6.935   0.926   0.081
 9074TIP3    H127186   6.974   0.990   0.140
 9074TIP3    H227187   6.842   0.925   0.103
 9075TIP3   OH227188   4.098   5.070   1.719
 9075TIP3    H127189   4.085   4.982   1.756
 9075TIP3    H227190   4.183   5.065   1.676
 9076TIP3   OH227191   0.487   3.862   3.578
 9076TIP3    H127192   0.401   3.865   3.537
 9076TIP3    H227193   0.548   3.885   3.508
 9077TIP3   OH227194   2.996   6.689   3.139
 9077TIP3    H127195   3.085   6.706   3.169
 9077TIP3    H227196   2.944   6.686   3.219
 9078TIP3   OH227197   3.869   1.911   2.430
 9078TIP3    H127198   3.944   1.962   2.461
 9078TIP3    H227199   3.854   1.846   2.498
 9079TIP3   OH227200   6.141   5.518   5.280
 9079TIP3    H127201   6.097   5.510   5.196
 9079TIP3    H227202   6.217   5.459   5.273
 9080TIP3   OH227203   4.939   0.592   3.549
 9080TIP3    H127204   4.920   0.683   3.573
 9080TIP3    H227205   5.014   0.568   3.603
 9081TIP3   OH227206   2.373   0.035   0.993
 9081TIP3    H127207   2.286   0.072   1.008
 9081TIP3    H227208   2.425   0.108   0.960
 9082TIP3   OH227209   5.528   3.206   3.502
 9082TIP3    H127210   5.547   3.298   3.485
 9082TIP3    H227211   5.560   3.192   3.592
 9083TIP3   OH227212   4.570   1.921   4.883
 9083TIP3    H127213   4.489   1.957   4.917
 9083TIP3    H227214   4.609   1.992   4.832
 9084TIP3   OH227215   2.736   0.909   1.775
 9084TIP3    H127216   2.809   0.858   1.739
 9084TIP3    H227217   2.669   0.907   1.707
 9085TIP3   OH227218   3.941   0.068   3.001
 9085TIP3    H127219   3.931   0.051   2.907
 9085TIP3    H227220   4.036   0.068   3.015
 9086TIP3   OH227221   6.973   3.420   4.183
 9086TIP3    H127222   7.063   3.438   4.211
 9086TIP3    H227223   6.933   3.507   4.172
 9087TIP3   OH227224   6.730   5.940   0.972
 9087TIP3    H127225   6.819   5.906   0.982
 9087TIP3    H227226   6.704   5.912   0.884
 9088TIP3   OH227227   1.476   2.077   3.810
 9088TIP3    H127228   1.468   2.023   3.732
 9088TIP3    H227229   1.489   2.014   3.881
 9089TIP3   OH227230   0.828   1.708   4.717
 9089TIP3    H127231   0.798   1.673   4.801
 9089TIP3    H227232   0.791   1.796   4.713
 9090TIP3   OH227233   0.942   6.723   0.988
 9090TIP3    H127234   0.854   6.762   0.978
 9090TIP3    H227235   0.944   6.692   1.078
 9091TIP3   OH227236   0.360   4.227   3.362
 9091TIP3    H127237   0.437   4.270   3.400
 9091TIP3    H227238   0.329   4.286   3.294
 9092TIP3   OH227239   3.668   6.141   0.053
 9092TIP3    H127240   3.588   6.103   0.087
 9092TIP3    H227241   3.672   6.113  -0.038
 9093TIP3   OH227242   6.126   4.284   0.397
 9093TIP3    H127243   6.139   4.204   0.347
 9093TIP3    H227244   6.084   4.255   0.478
 9094TIP3   OH227245   4.915   5.598   1.009
 9094TIP3    H127246   4.926   5.527   0.946
 9094TIP3    H227247   4.984   5.583   1.074
 9095TIP3   OH227248   4.805   2.754   5.976
 9095TIP3    H127249   4.747   2.765   5.900
 9095TIP3    H227250   4.856   2.835   5.978
 9096TIP3   OH227251   2.312   6.167   3.942
 9096TIP3    H127252   2.246   6.142   4.007
 9096TIP3    H227253   2.371   6.091   3.938
 9097TIP3   OH227254   1.265   1.470   4.570
 9097TIP3    H127255   1.331   1.469   4.640
 9097TIP3    H227256   1.206   1.541   4.594
 9098TIP3   OH227257   2.902   2.792   5.173
 9098TIP3    H127258   2.822   2.740   5.164
 9098TIP3    H227259   2.926   2.784   5.265
 9099TIP3   OH227260   1.046   6.211   3.854
 9099TIP3    H127261   1.062   6.205   3.948
 9099TIP3    H227262   1.091   6.291   3.827
 9100TIP3   OH227263   4.542   5.553   3.062
 9100TIP3    H127264   4.580   5.466   3.074
 9100TIP3    H227265   4.474   5.541   2.996
 9101TIP3   OH227266   0.429   1.694   4.536
 9101TIP3    H127267   0.384   1.645   4.605
 9101TIP3    H227268   0.498   1.634   4.506
 9102TIP3   OH227269   1.584   4.711   3.923
 9102TIP3    H127270   1.514   4.677   3.866
 9102TIP3    H227271   1.554   4.799   3.946
 9103TIP3   OH227272   2.421   4.262   5.392
 9103TIP3    H127273   2.370   4.208   5.453
 9103TIP3    H227274   2.466   4.324   5.449
 9104TIP3   OH227275   6.517   6.429   1.073
 9104TIP3    H127276   6.427   6.454   1.055
 9104TIP3    H227277   6.547   6.494   1.137
 9105TIP3   OH227278   4.641   4.806   5.702
 9105TIP3    H127279   4.643   4.752   5.622
 9105TIP3    H227280   4.571   4.768   5.754
 9106TIP3   OH227281   1.604   0.872   2.403
 9106TIP3    H127282   1.534   0.935   2.388
 9106TIP3    H227283   1.682   0.912   2.364
 9107TIP3   OH227284   3.264   3.951   2.708
 9107TIP3    H127285   3.260   4.005   2.787
 9107TIP3    H227286   3.176   3.914   2.700
 9108TIP3   OH227287   0.211   1.680   4.211
 9108TIP3    H127288   0.166   1.609   4.257
 9108TIP3    H227289   0.142   1.721   4.158
 9109TIP3   OH227290   4.253   5.190   5.330
 9109TIP3    H127291   4.167   5.151   5.313
 9109TIP3    H227292   4.272   5.241   5.251
 9110TIP3   OH227293   1.456   0.046   5.181
 9110TIP3    H127294   1.367   0.061   5.151
 9110TIP3    H227295   1.477   0.123   5.234
 9111TIP3   OH227296   4.571   2.873   2.534
 9111TIP3    H127297   4.559   2.958   2.491
 9111TIP3    H227298   4.482   2.844   2.554
 9112TIP3   OH227299   6.470   4.074   5.783
 9112TIP3    H127300   6.553   4.042   5.747
 9112TIP3    H227301   6.404   4.015   5.746
 9113TIP3   OH227302   4.004   1.643   5.203
 9113TIP3    H127303   4.084   1.599   5.232
 9113TIP3    H227304   3.978   1.697   5.278
 9114TIP3   OH227305   1.167   1.498   1.977
 9114TIP3    H127306   1.125   1.573   1.935
 9114TIP3    H227307   1.172   1.522   2.069
 9115TIP3   OH227308   5.878   5.290   0.337
 9115TIP3    H127309   5.962   5.247   0.327
 9115TIP3    H227310   5.877   5.319   0.428
 9116TIP3   OH227311   1.778   4.697   4.309
 9116TIP3    H127312   1.872   4.687   4.324
 9116TIP3    H227313   1.744   4.608   4.308
 9117TIP3   OH227314   3.485   3.223   1.783
 9117TIP3    H127315   3.487   3.253   1.874
 9117TIP3    H227316   3.392   3.217   1.761
 9118TIP3   OH227317   0.295   2.818   3.702
 9118TIP3    H127318   0.292   2.891   3.640
 9118TIP3    H227319   0.204   2.792   3.713
 9119TIP3   OH227320   3.400   1.629   4.598
 9119TIP3    H127321   3.318   1.617   4.550
 9119TIP3    H227322   3.387   1.584   4.681
 9120TIP3   OH227323   3.366   5.009   5.092
 9120TIP3    H127324   3.426   5.011   5.017
 9120TIP3    H227325   3.416   5.048   5.163
 9121TIP3   OH227326   3.400   3.929   4.074
 9121TIP3    H127327   3.495   3.932   4.085
 9121TIP3    H227328   3.376   3.839   4.096
 9122TIP3   OH227329   6.093   5.801   3.374
 9122TIP3    H127330   6.158   5.854   3.421
 9122TIP3    H227331   6.013   5.810   3.426
 9123TIP3   OH227332   0.007   4.741   5.747
 9123TIP3    H127333  -0.033   4.787   5.821
 9123TIP3    H227334  -0.022   4.788   5.670
 9124TIP3   OH227335   2.675   6.147   2.722
 9124TIP3    H127336   2.603   6.177   2.776
 9124TIP3    H227337   2.638   6.143   2.633
 9125TIP3   OH227338   7.151   5.520   1.898
 9125TIP3    H127339   7.171   5.601   1.943
 9125TIP3    H227340   7.176   5.536   1.807
 9126TIP3   OH227341   6.511   3.032   0.995
 9126TIP3    H127342   6.513   3.080   0.912
 9126TIP3    H227343   6.450   3.081   1.050
 9127TIP3   OH227344   5.758   5.751   2.864
 9127TIP3    H127345   5.746   5.843   2.841
 9127TIP3    H227346   5.669   5.715   2.868
 9128TIP3   OH227347   2.895   1.491   1.572
 9128TIP3    H127348   2.820   1.467   1.627
 9128TIP3    H227349   2.903   1.586   1.584
 9129TIP3   OH227350   6.426   2.462   1.613
 9129TIP3    H127351   6.417   2.454   1.518
 9129TIP3    H227352   6.372   2.390   1.648
 9130TIP3   OH227353   6.927   5.552   3.368
 9130TIP3    H127354   7.011   5.532   3.327
 9130TIP3    H227355   6.863   5.541   3.298
 9131TIP3   OH227356   7.060   4.283   0.369
 9131TIP3    H127357   7.028   4.329   0.291
 9131TIP3    H227358   7.154   4.298   0.369
 9132TIP3   OH227359   2.077   0.258   3.054
 9132TIP3    H127360   2.013   0.318   3.015
 9132TIP3    H227361   2.077   0.281   3.147
 9133TIP3   OH227362   1.411   1.533   5.205
 9133TIP3    H127363   1.447   1.445   5.216
 9133TIP3    H227364   1.478   1.580   5.156
 9134TIP3   OH227365   2.626  -0.023   0.039
 9134TIP3    H127366   2.601   0.061   0.078
 9134TIP3    H227367   2.667  -0.072   0.110
 9135TIP3   OH227368   2.702   1.672   4.952
 9135TIP3    H127369   2.729   1.761   4.927
 9135TIP3    H227370   2.783   1.632   4.985
 9136TIP3   OH227371   5.539   0.442   3.786
 9136TIP3    H127372   5.459   0.390   3.779
 9136TIP3    H227373   5.578   0.437   3.699
 9137TIP3   OH227374   0.299   4.347   4.780
 9137TIP3    H127375   0.341   4.309   4.857
 9137TIP3    H227376   0.334   4.297   4.706
 9138TIP3   OH227377   5.932   3.043   3.632
 9138TIP3    H127378   5.956   3.128   3.595
 9138TIP3    H227379   5.994   2.982   3.593
 9139TIP3   OH227380   5.362   4.292   0.568
 9139TIP3    H127381   5.425   4.319   0.502
 9139TIP3    H227382   5.337   4.203   0.543
 9140TIP3   OH227383   0.175   5.363   5.058
 9140TIP3    H127384   0.116   5.290   5.039
 9140TIP3    H227385   0.169   5.419   4.980
 9141TIP3   OH227386   4.014   0.006   0.355
 9141TIP3    H127387   3.931   0.011   0.401
 9141TIP3    H227388   3.990   0.006   0.262
 9142TIP3   OH227389   2.206   3.594   0.621
 9142TIP3    H127390   2.251   3.510   0.624
 9142TIP3    H227391   2.249   3.641   0.550
 9143TIP3   OH227392   6.700   5.195   5.572
 9143TIP3    H127393   6.643   5.191   5.649
 9143TIP3    H227394   6.788   5.208   5.608
 9144TIP3   OH227395   6.124   3.145   2.810
 9144TIP3    H127396   6.047   3.097   2.839
 9144TIP3    H227397   6.146   3.107   2.724
 9145TIP3   OH227398   0.110   6.353   2.333
 9145TIP3    H127399   0.162   6.339   2.412
 9145TIP3    H227400   0.067   6.269   2.317
 9146TIP3   OH227401   2.404   3.363   3.343
 9146TIP3    H127402   2.455   3.283   3.356
 9146TIP3    H227403   2.391   3.398   3.431
 9147TIP3   OH227404   0.577   2.514   0.950
 9147TIP3    H127405   0.526   2.580   0.904
 9147TIP3    H227406   0.659   2.507   0.901
 9148TIP3   OH227407   6.813   4.498   1.994
 9148TIP3    H127408   6.760   4.570   1.959
 9148TIP3    H227409   6.882   4.486   1.930
 9149TIP3   OH227410   2.307   5.145   5.187
 9149TIP3    H127411   2.299   5.190   5.271
 9149TIP3    H227412   2.348   5.061   5.209
 9150TIP3   OH227413   0.738   4.547   0.911
 9150TIP3    H127414   0.819   4.497   0.922
 9150TIP3    H227415   0.668   4.484   0.932
 9151TIP3   OH227416   2.902  -0.004   5.571
 9151TIP3    H127417   2.862   0.053   5.504
 9151TIP3    H227418   2.961   0.054   5.618
 9152TIP3   OH227419   4.345   6.352   2.095
 9152TIP3    H127420   4.407   6.418   2.128
 9152TIP3    H227421   4.350   6.280   2.158
 9153TIP3   OH227422   1.713   3.014   5.490
 9153TIP3    H127423   1.734   2.943   5.429
 9153TIP3    H227424   1.642   3.062   5.448
 9154TIP3   OH227425   0.780   6.172   5.383
 9154TIP3    H127426   0.810   6.261   5.399
 9154TIP3    H227427   0.839   6.117   5.435
 9155TIP3   OH227428   4.212   3.207   3.487
 9155TIP3    H127429   4.209   3.292   3.444
 9155TIP3    H227430   4.180   3.224   3.576
 9156TIP3   OH227431   5.660   3.241   1.091
 9156TIP3    H127432   5.721   3.315   1.089
 9156TIP3    H227433   5.692   3.183   1.022
 9157TIP3   OH227434   4.982   2.570   2.648
 9157TIP3    H127435   4.912   2.523   2.603
 9157TIP3    H227436   4.958   2.566   2.740
 9158TIP3   OH227437   6.210   6.615   2.440
 9158TIP3    H127438   6.235   6.524   2.423
 9158TIP3    H227439   6.270   6.643   2.510
 9159TIP3   OH227440   3.065   4.696   5.625
 9159TIP3    H127441   3.015   4.772   5.597
 9159TIP3    H227442   3.061   4.635   5.551
 9160TIP3   OH227443   6.370   2.224   3.220
 9160TIP3    H127444   6.296   2.285   3.224
 9160TIP3    H227445   6.361   2.182   3.134
 9161TIP3   OH227446   6.299   5.897   2.575
 9161TIP3    H127447   6.301   5.811   2.617
 9161TIP3    H227448   6.279   5.958   2.646
 9162TIP3   OH227449   0.439   0.965   3.760
 9162TIP3    H127450   0.448   0.932   3.850
 9162TIP3    H227451   0.378   1.038   3.767
 9163TIP3   OH227452   1.852   0.079   3.499
 9163TIP3    H127453   1.852   0.024   3.421
 9163TIP3    H227454   1.945   0.092   3.519
 9164TIP3   OH227455   1.496   2.599   3.029
 9164TIP3    H127456   1.562   2.669   3.025
 9164TIP3    H227457   1.488   2.579   3.122
 9165TIP3   OH227458   5.121   0.439   0.331
 9165TIP3    H127459   5.120   0.409   0.421
 9165TIP3    H227460   5.213   0.459   0.312
 9166TIP3   OH227461   3.296   0.271   3.644
 9166TIP3    H127462   3.380   0.290   3.604
 9166TIP3    H227463   3.300   0.178   3.666
 9167TIP3   OH227464   0.339   1.159   3.511
 9167TIP3    H127465   0.276   1.157   3.584
 9167TIP3    H227466   0.324   1.244   3.470
 9168TIP3   OH227467   4.182   4.168   4.509
 9168TIP3    H127468   4.253   4.108   4.530
 9168TIP3    H227469   4.105   4.132   4.552
 9169TIP3   OH227470   1.018   4.950   4.321
 9169TIP3    H127471   1.102   4.926   4.280
 9169TIP3    H227472   0.975   4.866   4.337
 9170TIP3   OH227473   0.157   2.037   0.323
 9170TIP3    H127474   0.155   2.005   0.413
 9170TIP3    H227475   0.221   2.107   0.323
 9171TIP3   OH227476   5.449   4.098   1.572
 9171TIP3    H127477   5.503   4.088   1.494
 9171TIP3    H227478   5.454   4.191   1.594
 9172TIP3   OH227479   1.283   1.868   4.297
 9172TIP3    H127480   1.258   1.777   4.282
 9172TIP3    H227481   1.377   1.864   4.316
 9173TIP3   OH227482   0.154   1.327   3.922
 9173TIP3    H127483   0.235   1.377   3.910
 9173TIP3    H227484   0.086   1.393   3.932
 9174TIP3   OH227485   0.271   5.689   3.668
 9174TIP3    H127486   0.200   5.651   3.615
 9174TIP3    H227487   0.320   5.613   3.700
 9175TIP3   OH227488   6.336   3.657   3.766
 9175TIP3    H127489   6.251   3.655   3.809
 9175TIP3    H227490   6.325   3.602   3.689
 9176TIP3   OH227491   2.319   0.478   1.603
 9176TIP3    H127492   2.408   0.461   1.570
 9176TIP3    H227493   2.274   0.520   1.530
 9177TIP3   OH227494   6.411   0.848   2.635
 9177TIP3    H127495   6.459   0.889   2.563
 9177TIP3    H227496   6.468   0.860   2.711
 9178TIP3   OH227497   5.006   3.713   2.207
 9178TIP3    H127498   5.096   3.720   2.241
 9178TIP3    H227499   4.992   3.795   2.160
 9179TIP3   OH227500   3.498   0.280   3.968
 9179TIP3    H127501   3.524   0.210   4.027
 9179TIP3    H227502   3.413   0.310   4.002
 9180TIP3   OH227503   1.489   1.148   0.042
 9180TIP3    H127504   1.527   1.116  -0.040
 9180TIP3    H227505   1.398   1.117   0.039
 9181TIP3   OH227506   6.049   5.996   2.761
 9181TIP3    H127507   6.001   6.066   2.806
 9181TIP3    H227508   6.021   6.003   2.669
 9182TIP3   OH227509   3.463   0.535   5.216
 9182TIP3    H127510   3.469   0.536   5.121
 9182TIP3    H227511   3.497   0.620   5.243
 9183TIP3   OH227512   0.655   3.939   4.070
 9183TIP3    H127513   0.591   4.008   4.050
 9183TIP3    H227514   0.668   3.944   4.164
 9184TIP3   OH227515   2.750   6.565   2.564
 9184TIP3    H127516   2.824   6.615   2.529
 9184TIP3    H227517   2.746   6.589   2.656
 9185TIP3   OH227518   6.047   3.899   3.668
 9185TIP3    H127519   5.975   3.960   3.682
 9185TIP3    H227520   6.014   3.815   3.703
 9186TIP3   OH227521   4.280   6.327   4.125
 9186TIP3    H127522   4.214   6.273   4.081
 9186TIP3    H227523   4.258   6.416   4.099
 9187TIP3   OH227524   4.907   1.922   1.537
 9187TIP3    H127525   4.974   1.961   1.594
 9187TIP3    H227526   4.918   1.827   1.549
 9188TIP3   OH227527   1.608   0.395   0.177
 9188TIP3    H127528   1.670   0.323   0.178
 9188TIP3    H227529   1.537   0.365   0.121
 9189TIP3   OH227530   0.154   2.163   1.712
 9189TIP3    H127531   0.110   2.154   1.796
 9189TIP3    H227532   0.138   2.080   1.666
 9190TIP3   OH227533   5.997   5.650   3.728
 9190TIP3    H127534   5.976   5.590   3.657
 9190TIP3    H227535   5.952   5.613   3.804
 9191TIP3   OH227536   5.790   0.927   4.142
 9191TIP3    H127537   5.805   0.883   4.058
 9191TIP3    H227538   5.787   1.020   4.121
 9192TIP3   OH227539   5.557   1.398   0.295
 9192TIP3    H127540   5.479   1.448   0.273
 9192TIP3    H227541   5.574   1.344   0.217
 9193TIP3   OH227542   1.798   4.387   0.964
 9193TIP3    H127543   1.772   4.300   0.996
 9193TIP3    H227544   1.719   4.440   0.972
 9194TIP3   OH227545   7.162   4.874   3.288
 9194TIP3    H127546   7.102   4.846   3.219
 9194TIP3    H227547   7.228   4.804   3.290
 9195TIP3   OH227548   1.217   0.570   4.853
 9195TIP3    H127549   1.209   0.475   4.851
 9195TIP3    H227550   1.285   0.590   4.789
 9196TIP3   OH227551   0.324   6.278   3.435
 9196TIP3    H127552   0.337   6.230   3.354
 9196TIP3    H227553   0.394   6.249   3.492
 9197TIP3   OH227554   5.870   4.782   2.120
 9197TIP3    H127555   5.947   4.833   2.094
 9197TIP3    H227556   5.883   4.764   2.213
 9198TIP3   OH227557   6.083   1.949   0.487
 9198TIP3    H127558   6.103   1.948   0.580
 9198TIP3    H227559   5.989   1.933   0.482
 9199TIP3   OH227560   0.247   1.690   3.517
 9199TIP3    H127561   0.282   1.739   3.592
 9199TIP3    H227562   0.283   1.735   3.441
 9200TIP3   OH227563   1.744   4.841   5.576
 9200TIP3    H127564   1.781   4.836   5.664
 9200TIP3    H227565   1.782   4.767   5.530
 9201TIP3   OH227566   5.356   4.378   1.551
 9201TIP3    H127567   5.384   4.393   1.461
 9201TIP3    H227568   5.351   4.465   1.590
 9202TIP3   OH227569   6.194   1.781   2.085
 9202TIP3    H127570   6.174   1.700   2.037
 9202TIP3    H227571   6.276   1.812   2.047
 9203TIP3   OH227572   6.886   5.357   0.846
 9203TIP3    H127573   6.844   5.278   0.811
 9203TIP3    H227574   6.980   5.340   0.835
 9204TIP3   OH227575   6.996   4.395   3.097
 9204TIP3    H127576   6.929   4.436   3.042
 9204TIP3    H227577   6.958   4.395   3.184
 9205TIP3   OH227578   2.529   0.101   2.716
 9205TIP3    H127579   2.623   0.084   2.704
 9205TIP3    H227580   2.494   0.017   2.745
 9206TIP3   OH227581   5.501   5.925   1.082
 9206TIP3    H127582   5.529   6.011   1.112
 9206TIP3    H227583   5.574   5.894   1.027
 9207TIP3   OH227584   2.485   1.090   3.107
 9207TIP3    H127585   2.483   1.052   3.019
 9207TIP3    H227586   2.444   1.176   3.097
 9208TIP3   OH227587   0.853   3.177   1.782
 9208TIP3    H127588   0.838   3.271   1.773
 9208TIP3    H227589   0.809   3.138   1.706
 9209TIP3   OH227590   0.004   3.354   4.310
 9209TIP3    H127591  -0.045   3.280   4.347
 9209TIP3    H227592   0.037   3.402   4.387
 9210TIP3   OH227593   5.093   3.783   2.893
 9210TIP3    H127594   5.038   3.851   2.931
 9210TIP3    H227595   5.056   3.701   2.924
 9211TIP3   OH227596   2.875   1.504   0.156
 9211TIP3    H127597   2.897   1.489   0.064
 9211TIP3    H227598   2.781   1.524   0.155
 9212TIP3   OH227599   6.268   3.785   5.600
 9212TIP3    H127600   6.323   3.840   5.544
 9212TIP3    H227601   6.329   3.748   5.664
 9213TIP3   OH227602   4.966   0.306   3.022
 9213TIP3    H127603   5.010   0.384   2.987
 9213TIP3    H227604   5.011   0.290   3.105
 9214TIP3   OH227605   1.682   1.179   2.013
 9214TIP3    H127606   1.660   1.087   2.027
 9214TIP3    H227607   1.615   1.211   1.952
 9215TIP3   OH227608   7.159   1.805   3.191
 9215TIP3    H127609   7.112   1.859   3.254
 9215TIP3    H227610   7.197   1.867   3.129
 9216TIP3   OH227611   1.383   6.604   3.641
 9216TIP3    H127612   1.420   6.692   3.650
 9216TIP3    H227613   1.361   6.577   3.730
 9217TIP3   OH227614   6.180   3.361   1.421
 9217TIP3    H127615   6.088   3.382   1.405
 9217TIP3    H227616   6.178   3.281   1.473
 9218TIP3   OH227617   4.266   4.517   4.875
 9218TIP3    H127618   4.309   4.482   4.797
 9218TIP3    H227619   4.232   4.602   4.848
 9219TIP3   OH227620   6.396   6.773   1.142
 9219TIP3    H127621   6.488   6.791   1.125
 9219TIP3    H227622   6.353   6.786   1.058
 9220TIP3   OH227623   1.174   3.408   3.856
 9220TIP3    H127624   1.131   3.376   3.776
 9220TIP3    H227625   1.161   3.339   3.920
 9221TIP3   OH227626   7.129   1.069   0.223
 9221TIP3    H127627   7.093   1.154   0.198
 9221TIP3    H227628   7.223   1.080   0.218
 9222TIP3   OH227629   6.377   2.636   1.852
 9222TIP3    H127630   6.363   2.595   1.766
 9222TIP3    H227631   6.291   2.633   1.893
 9223TIP3   OH227632   5.290   0.527   2.101
 9223TIP3    H127633   5.279   0.621   2.084
 9223TIP3    H227634   5.333   0.524   2.186
 9224TIP3   OH227635   6.050   1.958   1.334
 9224TIP3    H127636   6.067   2.044   1.374
 9224TIP3    H227637   6.011   1.978   1.249
 9225TIP3   OH227638   1.627   1.763   1.355
 9225TIP3    H127639   1.555   1.824   1.338
 9225TIP3    H227640   1.584   1.680   1.374
 9226TIP3   OH227641   5.055   2.961   2.020
 9226TIP3    H127642   5.034   3.035   2.077
 9226TIP3    H227643   5.119   2.996   1.957
 9227TIP3   OH227644   3.649   4.959   3.360
 9227TIP3    H127645   3.554   4.950   3.367
 9227TIP3    H227646   3.675   5.001   3.442
 9228TIP3   OH227647   1.681   5.382   1.569
 9228TIP3    H127648   1.654   5.293   1.545
 9228TIP3    H227649   1.734   5.412   1.495
 9229TIP3   OH227650   2.783   6.453   5.557
 9229TIP3    H127651   2.789   6.404   5.475
 9229TIP3    H227652   2.712   6.410   5.605
 9230TIP3   OH227653   6.178   6.561   4.238
 9230TIP3    H127654   6.121   6.596   4.306
 9230TIP3    H227655   6.122   6.505   4.185
 9231TIP3   OH227656   6.290   3.921   2.046
 9231TIP3    H127657   6.220   3.984   2.065
 9231TIP3    H227658   6.244   3.840   2.022
 9232TIP3   OH227659   2.487   6.572   2.522
 9232TIP3    H127660   2.579   6.598   2.528
 9232TIP3    H227661   2.445   6.612   2.598
 9233TIP3   OH227662   3.461   1.325   3.594
 9233TIP3    H127663   3.425   1.242   3.564
 9233TIP3    H227664   3.429   1.335   3.684
 9234TIP3   OH227665   3.886   3.828   5.556
 9234TIP3    H127666   3.943   3.896   5.590
 9234TIP3    H227667   3.826   3.874   5.497
 9235TIP3   OH227668   3.855   1.849   1.232
 9235TIP3    H127669   3.914   1.920   1.256
 9235TIP3    H227670   3.847   1.856   1.137
 9236TIP3   OH227671   1.275   6.078   4.997
 9236TIP3    H127672   1.365   6.055   5.022
 9236TIP3    H227673   1.221   6.046   5.070
 9237TIP3   OH227674   0.607   1.452   4.759
 9237TIP3    H127675   0.552   1.466   4.836
 9237TIP3    H227676   0.547   1.460   4.685
 9238TIP3   OH227677   2.819   3.887   5.801
 9238TIP3    H127678   2.826   3.818   5.866
 9238TIP3    H227679   2.775   3.958   5.846
 9239TIP3   OH227680   2.802   3.686   1.659
 9239TIP3    H127681   2.734   3.657   1.597
 9239TIP3    H227682   2.815   3.611   1.716
 9240TIP3   OH227683   6.527   6.219   1.931
 9240TIP3    H127684   6.561   6.136   1.898
 9240TIP3    H227685   6.603   6.277   1.934
 9241TIP3   OH227686   1.911   2.611   4.417
 9241TIP3    H127687   1.880   2.579   4.332
 9241TIP3    H227688   2.000   2.642   4.400
 9242TIP3   OH227689   3.055   4.832   4.100
 9242TIP3    H127690   3.058   4.923   4.069
 9242TIP3    H227691   3.086   4.780   4.026
 9243TIP3   OH227692   3.646   3.736   3.979
 9243TIP3    H127693   3.729   3.706   4.015
 9243TIP3    H227694   3.619   3.665   3.920
 9244TIP3   OH227695   2.415   3.492   5.183
 9244TIP3    H127696   2.425   3.558   5.115
 9244TIP3    H227697   2.500   3.488   5.226
 9245TIP3   OH227698   5.104   1.522   3.968
 9245TIP3    H127699   5.197   1.520   3.990
 9245TIP3    H227700   5.101   1.567   3.884
 9246TIP3   OH227701   5.903   6.388   2.221
 9246TIP3    H127702   5.956   6.395   2.300
 9246TIP3    H227703   5.939   6.313   2.174
 9247TIP3   OH227704   5.880   1.733   2.758
 9247TIP3    H127705   5.865   1.652   2.710
 9247TIP3    H227706   5.808   1.738   2.821
 9248TIP3   OH227707   5.282   2.879   3.912
 9248TIP3    H127708   5.244   2.834   3.987
 9248TIP3    H227709   5.222   2.951   3.894
 9249TIP3   OH227710   3.220   2.619   3.050
 9249TIP3    H127711   3.309   2.652   3.060
 9249TIP3    H227712   3.230   2.537   3.002
 9250TIP3   OH227713   3.279   4.147   3.948
 9250TIP3    H127714   3.246   4.138   3.859
 9250TIP3    H227715   3.304   4.059   3.974
 9251TIP3   OH227716   6.638   6.249   3.549
 9251TIP3    H127717   6.680   6.335   3.545
 9251TIP3    H227718   6.698   6.194   3.599
 9252TIP3   OH227719   1.847   3.634   3.649
 9252TIP3    H127720   1.805   3.699   3.593
 9252TIP3    H227721   1.890   3.574   3.589
 9253TIP3   OH227722   1.037   2.981   2.615
 9253TIP3    H127723   1.012   2.994   2.523
 9253TIP3    H227724   1.003   2.894   2.637
 9254TIP3   OH227725   3.486   2.419   0.306
 9254TIP3    H127726   3.416   2.386   0.362
 9254TIP3    H227727   3.466   2.512   0.296
 9255TIP3   OH227728   0.258   1.153   4.179
 9255TIP3    H127729   0.200   1.200   4.120
 9255TIP3    H227730   0.336   1.208   4.185
 9256TIP3   OH227731   6.920   6.455   0.884
 9256TIP3    H127732   6.933   6.508   0.963
 9256TIP3    H227733   6.946   6.367   0.911
 9257TIP3   OH227734   0.711   2.340   1.989
 9257TIP3    H127735   0.631   2.286   1.993
 9257TIP3    H227736   0.679   2.430   1.980
 9258TIP3   OH227737   0.596   2.426   5.895
 9258TIP3    H127738   0.544   2.486   5.841
 9258TIP3    H227739   0.571   2.339   5.864
 9259TIP3   OH227740   4.032   0.178   1.377
 9259TIP3    H127741   4.065   0.194   1.466
 9259TIP3    H227742   4.091   0.111   1.342
 9260TIP3   OH227743   6.228   2.907   1.883
 9260TIP3    H127744   6.207   2.988   1.835
 9260TIP3    H227745   6.323   2.897   1.872
 9261TIP3   OH227746   4.167   2.224   0.273
 9261TIP3    H127747   4.074   2.217   0.294
 9261TIP3    H227748   4.186   2.145   0.222
 9262TIP3   OH227749   3.224   6.430   3.185
 9262TIP3    H127750   3.268   6.500   3.138
 9262TIP3    H227751   3.190   6.372   3.116
 9263TIP3   OH227752   4.892   0.299   0.245
 9263TIP3    H127753   4.966   0.336   0.294
 9263TIP3    H227754   4.920   0.211   0.222
 9264TIP3   OH227755   6.635   3.806   2.519
 9264TIP3    H127756   6.579   3.798   2.596
 9264TIP3    H227757   6.724   3.794   2.553
 9265TIP3   OH227758   3.561   0.467   1.216
 9265TIP3    H127759   3.493   0.475   1.283
 9265TIP3    H227760   3.532   0.525   1.145
 9266TIP3   OH227761   1.300   5.573   3.413
 9266TIP3    H127762   1.286   5.546   3.504
 9266TIP3    H227763   1.380   5.528   3.386
 9267TIP3   OH227764   1.856   0.013   3.791
 9267TIP3    H127765   1.951   0.005   3.797
 9267TIP3    H227766   1.837   0.003   3.698
 9268TIP3   OH227767   7.207   3.915   3.621
 9268TIP3    H127768   7.229   3.823   3.635
 9268TIP3    H227769   7.179   3.920   3.530
 9269TIP3   OH227770  -0.013   1.137   2.202
 9269TIP3    H127771   0.076   1.109   2.224
 9269TIP3    H227772  -0.010   1.232   2.207
 9270TIP3   OH227773   1.668   5.260   3.096
 9270TIP3    H127774   1.742   5.200   3.103
 9270TIP3    H227775   1.658   5.276   3.002
 9271TIP3   OH227776   4.522   1.775   2.385
 9271TIP3    H127777   4.528   1.822   2.468
 9271TIP3    H227778   4.461   1.826   2.333
 9272TIP3   OH227779   4.888   0.315   3.525
 9272TIP3    H127780   4.896   0.406   3.553
 9272TIP3    H227781   4.978   0.282   3.527
 9273TIP3   OH227782   5.630   4.135   5.676
 9273TIP3    H127783   5.670   4.112   5.760
 9273TIP3    H227784   5.632   4.230   5.673
 9274TIP3   OH227785   3.926   1.820   1.680
 9274TIP3    H127786   3.961   1.905   1.656
 9274TIP3    H227787   4.002   1.770   1.711
 9275TIP3   OH227788   1.593   0.506   1.021
 9275TIP3    H127789   1.546   0.442   1.074
 9275TIP3    H227790   1.685   0.487   1.034
 9276TIP3   OH227791   5.360   1.666   1.025
 9276TIP3    H127792   5.400   1.706   1.103
 9276TIP3    H227793   5.300   1.732   0.992
 9277TIP3   OH227794   2.475   1.378   1.942
 9277TIP3    H127795   2.542   1.333   1.890
 9277TIP3    H227796   2.517   1.394   2.027
 9278TIP3   OH227797   0.150   4.075   3.975
 9278TIP3    H127798   0.129   4.106   3.886
 9278TIP3    H227799   0.150   3.980   3.967
 9279TIP3   OH227800   4.493   3.814   5.379
 9279TIP3    H127801   4.551   3.800   5.304
 9279TIP3    H227802   4.552   3.827   5.453
 9280TIP3   OH227803   6.192   1.519   0.913
 9280TIP3    H127804   6.181   1.537   1.007
 9280TIP3    H227805   6.257   1.449   0.909
 9281TIP3   OH227806   4.647   3.053   2.824
 9281TIP3    H127807   4.727   3.104   2.815
 9281TIP3    H227808   4.577   3.118   2.817
 9282TIP3   OH227809   6.236   6.653   3.762
 9282TIP3    H127810   6.304   6.594   3.796
 9282TIP3    H227811   6.277   6.694   3.686
 9283TIP3   OH227812   4.215   6.366   1.343
 9283TIP3    H127813   4.291   6.371   1.401
 9283TIP3    H227814   4.181   6.455   1.340
 9284TIP3   OH227815   3.115   1.715   5.675
 9284TIP3    H127816   3.046   1.735   5.737
 9284TIP3    H227817   3.155   1.634   5.709
 9285TIP3   OH227818   2.346   3.674  -0.021
 9285TIP3    H127819   2.269   3.684  -0.076
 9285TIP3    H227820   2.390   3.596  -0.053
 9286TIP3   OH227821   7.084   0.377   1.036
 9286TIP3    H127822   7.151   0.329   1.085
 9286TIP3    H227823   7.001   0.344   1.071
 9287TIP3   OH227824   0.815   2.585   0.825
 9287TIP3    H127825   0.813   2.553   0.734
 9287TIP3    H227826   0.842   2.509   0.876
 9288TIP3   OH227827   4.432   0.543   0.002
 9288TIP3    H127828   4.460   0.633  -0.014
 9288TIP3    H227829   4.501   0.489  -0.036
 9289TIP3   OH227830   7.114   1.707   5.077
 9289TIP3    H127831   7.092   1.790   5.036
 9289TIP3    H227832   7.190   1.726   5.132
 9290TIP3   OH227833   0.899   4.923   1.821
 9290TIP3    H127834   0.805   4.933   1.838
 9290TIP3    H227835   0.934   4.886   1.902
 9291TIP3   OH227836   6.968   5.990   0.191
 9291TIP3    H127837   6.900   6.055   0.169
 9291TIP3    H227838   6.968   5.930   0.117
 9292TIP3   OH227839   0.967   0.521   0.221
 9292TIP3    H127840   0.966   0.588   0.153
 9292TIP3    H227841   0.928   0.564   0.297
 9293TIP3   OH227842   3.739   0.972   4.173
 9293TIP3    H127843   3.743   0.899   4.112
 9293TIP3    H227844   3.668   0.949   4.233
 9294TIP3   OH227845   3.115   3.149   0.486
 9294TIP3    H127846   3.154   3.146   0.398
 9294TIP3    H227847   3.153   3.075   0.532
 9295TIP3   OH227848   2.582   6.307   5.686
 9295TIP3    H127849   2.633   6.228   5.669
 9295TIP3    H227850   2.491   6.278   5.687
 9296TIP3   OH227851   1.069   0.483   3.249
 9296TIP3    H127852   1.073   0.549   3.318
 9296TIP3    H227853   1.062   0.533   3.168
 9297TIP3   OH227854   1.132   6.336   4.226
 9297TIP3    H127855   1.215   6.309   4.187
 9297TIP3    H227856   1.154   6.356   4.317
 9298TIP3   OH227857   6.444   3.478   5.776
 9298TIP3    H127858   6.441   3.565   5.815
 9298TIP3    H227859   6.422   3.492   5.684
 9299TIP3   OH227860   6.887   2.607   5.403
 9299TIP3    H127861   6.881   2.545   5.330
 9299TIP3    H227862   6.878   2.693   5.362
 9300TIP3   OH227863   1.463   3.850   2.979
 9300TIP3    H127864   1.518   3.928   2.966
 9300TIP3    H227865   1.503   3.806   3.054
 9301TIP3   OH227866   2.559   4.113   1.483
 9301TIP3    H127867   2.505   4.062   1.423
 9301TIP3    H227868   2.526   4.202   1.476
 9302TIP3   OH227869   1.063   1.890   2.095
 9302TIP3    H127870   1.031   1.948   2.026
 9302TIP3    H227871   1.149   1.863   2.065
 9303TIP3   OH227872   1.489   1.918   4.033
 9303TIP3    H127873   1.550   1.872   4.092
 9303TIP3    H227874   1.419   1.855   4.017
 9304TIP3   OH227875   6.510   6.497   2.131
 9304TIP3    H127876   6.435   6.488   2.072
 9304TIP3    H227877   6.553   6.578   2.103
 9305TIP3   OH227878   6.185   4.726   0.360
 9305TIP3    H127879   6.159   4.680   0.440
 9305TIP3    H227880   6.199   4.817   0.389
 9306TIP3   OH227881   4.352   3.947   5.183
 9306TIP3    H127882   4.390   3.896   5.255
 9306TIP3    H227883   4.259   3.927   5.186
 9307TIP3   OH227884   5.844   4.754   0.695
 9307TIP3    H127885   5.843   4.812   0.619
 9307TIP3    H227886   5.937   4.739   0.712
 9308TIP3   OH227887   4.244   4.785   3.118
 9308TIP3    H127888   4.215   4.696   3.138
 9308TIP3    H227889   4.210   4.802   3.030
 9309TIP3   OH227890   4.599   3.960   0.752
 9309TIP3    H127891   4.670   3.981   0.812
 9309TIP3    H227892   4.542   3.900   0.801
 9310TIP3   OH227893   6.849   0.420   2.748
 9310TIP3    H127894   6.849   0.484   2.677
 9310TIP3    H227895   6.810   0.467   2.822
 9311TIP3   OH227896   6.682   4.136   4.000
 9311TIP3    H127897   6.638   4.154   3.917
 9311TIP3    H227898   6.776   4.136   3.978
 9312TIP3   OH227899   2.062   3.797   4.725
 9312TIP3    H127900   2.131   3.840   4.775
 9312TIP3    H227901   2.077   3.825   4.634
 9313TIP3   OH227902   3.043   6.613   0.646
 9313TIP3    H127903   3.002   6.604   0.732
 9313TIP3    H227904   3.062   6.523   0.620
 9314TIP3   OH227905   4.631   2.103   1.732
 9314TIP3    H127906   4.651   2.126   1.642
 9314TIP3    H227907   4.538   2.125   1.743
 9315TIP3   OH227908   6.516   5.683   0.195
 9315TIP3    H127909   6.473   5.684   0.280
 9315TIP3    H227910   6.552   5.594   0.187
 9316TIP3   OH227911   1.488   3.077   0.395
 9316TIP3    H127912   1.470   3.097   0.303
 9316TIP3    H227913   1.426   3.008   0.417
 9317TIP3   OH227914   0.053   2.213   5.565
 9317TIP3    H127915   0.035   2.128   5.607
 9317TIP3    H227916   0.027   2.278   5.631
 9318TIP3   OH227917   0.533   1.687   3.406
 9318TIP3    H127918   0.627   1.675   3.387
 9318TIP3    H227919   0.495   1.711   3.322
 9319TIP3   OH227920   6.149   0.747   5.250
 9319TIP3    H127921   6.232   0.740   5.296
 9319TIP3    H227922   6.152   0.678   5.184
 9320TIP3   OH227923   6.140   6.121   0.214
 9320TIP3    H127924   6.147   6.033   0.250
 9320TIP3    H227925   6.125   6.108   0.121
 9321TIP3   OH227926   3.111   0.792   4.109
 9321TIP3    H127927   3.071   0.858   4.052
 9321TIP3    H227928   3.046   0.722   4.115
 9322TIP3   OH227929   4.725   1.262   1.873
 9322TIP3    H127930   4.667   1.215   1.812
 9322TIP3    H227931   4.770   1.326   1.818
 9323TIP3   OH227932   2.233   3.409   3.953
 9323TIP3    H127933   2.283   3.490   3.964
 9323TIP3    H227934   2.300   3.341   3.949
 9324TIP3   OH227935   0.479   2.707   4.299
 9324TIP3    H127936   0.429   2.685   4.378
 9324TIP3    H227937   0.559   2.656   4.307
 9325TIP3   OH227938   1.106   1.048   1.677
 9325TIP3    H127939   1.100   1.067   1.771
 9325TIP3    H227940   1.195   1.015   1.665
 9326TIP3   OH227941   6.188   0.860   1.268
 9326TIP3    H127942   6.222   0.939   1.226
 9326TIP3    H227943   6.267   0.814   1.298
 9327TIP3   OH227944   0.934   4.264   0.230
 9327TIP3    H127945   0.979   4.329   0.284
 9327TIP3    H227946   0.933   4.302   0.142
 9328TIP3   OH227947   0.833   4.503   2.998
 9328TIP3    H127948   0.922   4.536   2.982
 9328TIP3    H227949   0.780   4.541   2.928
 9329TIP3   OH227950   3.977   1.018   5.048
 9329TIP3    H127951   3.960   1.112   5.053
 9329TIP3    H227952   3.977   0.988   5.139
 9330TIP3   OH227953   3.043   6.298   4.520
 9330TIP3    H127954   3.012   6.370   4.574
 9330TIP3    H227955   2.980   6.227   4.535
 9331TIP3   OH227956   4.582   6.247   3.234
 9331TIP3    H127957   4.499   6.293   3.217
 9331TIP3    H227958   4.649   6.315   3.224
 9332TIP3   OH227959   5.809   1.389   2.863
 9332TIP3    H127960   5.744   1.451   2.896
 9332TIP3    H227961   5.806   1.399   2.768
 9333TIP3   OH227962   3.418   5.940   1.962
 9333TIP3    H127963   3.375   6.025   1.971
 9333TIP3    H227964   3.361   5.890   1.902
 9334TIP3   OH227965   1.252   5.009   4.564
 9334TIP3    H127966   1.303   5.087   4.587
 9334TIP3    H227967   1.253   4.955   4.643
 9335TIP3   OH227968   0.060   4.833   0.886
 9335TIP3    H127969   0.146   4.870   0.868
 9335TIP3    H227970   0.039   4.864   0.974
 9336TIP3   OH227971   3.909   0.557   4.968
 9336TIP3    H127972   3.951   0.628   5.016
 9336TIP3    H227973   3.828   0.594   4.934
 9337TIP3   OH227974   2.351   0.290   4.828
 9337TIP3    H127975   2.281   0.226   4.811
 9337TIP3    H227976   2.329   0.365   4.772
 9338TIP3   OH227977   0.669   0.910   1.936
 9338TIP3    H127978   0.573   0.906   1.933
 9338TIP3    H227979   0.693   0.948   1.852
 9339TIP3   OH227980   0.765   3.586   1.345
 9339TIP3    H127981   0.831   3.576   1.276
 9339TIP3    H227982   0.811   3.560   1.425
 9340TIP3   OH227983   3.098   1.324   1.514
 9340TIP3    H127984   3.053   1.408   1.508
 9340TIP3    H227985   3.049   1.275   1.579
 9341TIP3   OH227986   3.073   2.710   1.449
 9341TIP3    H127987   3.122   2.655   1.388
 9341TIP3    H227988   3.131   2.722   1.524
 9342TIP3   OH227989   3.231   1.762   5.182
 9342TIP3    H127990   3.211   1.852   5.208
 9342TIP3    H227991   3.235   1.713   5.264
 9343TIP3   OH227992   2.258   2.811   1.942
 9343TIP3    H127993   2.205   2.737   1.971
 9343TIP3    H227994   2.318   2.828   2.015
 9344TIP3   OH227995   2.620   1.410   1.376
 9344TIP3    H127996   2.638   1.393   1.468
 9344TIP3    H227997   2.644   1.328   1.332
 9345TIP3   OH227998   7.108   4.447   3.754
 9345TIP3    H127999   7.182   4.480   3.806
 9345TIP3    H228000   7.135   4.459   3.663
 9346TIP3   OH228001   3.612   0.992   2.847
 9346TIP3    H128002   3.570   1.073   2.874
 9346TIP3    H228003   3.539   0.931   2.832
 9347TIP3   OH228004   0.269   4.001   1.671
 9347TIP3    H128005   0.346   4.053   1.695
 9347TIP3    H228006   0.195   4.054   1.699
 9348TIP3   OH228007   7.090   1.672   4.242
 9348TIP3    H128008   7.109   1.763   4.267
 9348TIP3    H228009   7.069   1.629   4.325
 9349TIP3   OH228010   7.089   2.007   1.211
 9349TIP3    H128011   7.028   2.072   1.177
 9349TIP3    H228012   7.153   2.058   1.260
 9350TIP3   OH228013   0.060   6.509   1.902
 9350TIP3    H128014   0.042   6.570   1.831
 9350TIP3    H228015   0.074   6.566   1.979
 9351TIP3   OH228016   2.558   6.706   4.979
 9351TIP3    H128017   2.478   6.654   4.983
 9351TIP3    H228018   2.543   6.779   5.040
 9352TIP3   OH228019   5.100   1.445   0.749
 9352TIP3    H128020   5.183   1.453   0.700
 9352TIP3    H228021   5.065   1.534   0.752
 9353TIP3   OH228022   0.293   2.709   5.077
 9353TIP3    H128023   0.366   2.707   5.138
 9353TIP3    H228024   0.233   2.641   5.109
 9354TIP3   OH228025   6.096   0.369   4.375
 9354TIP3    H128026   6.093   0.461   4.402
 9354TIP3    H228027   6.013   0.356   4.329
 9355TIP3   OH228028   0.691   5.588   2.564
 9355TIP3    H128029   0.641   5.584   2.483
 9355TIP3    H228030   0.780   5.611   2.536
 9356TIP3   OH228031   1.699   1.148   4.442
 9356TIP3    H128032   1.660   1.146   4.355
 9356TIP3    H228033   1.775   1.206   4.433
 9357TIP3   OH228034   3.245   1.982   1.650
 9357TIP3    H128035   3.308   2.014   1.715
 9357TIP3    H228036   3.236   2.055   1.589
 9358TIP3   OH228037   1.387   2.310   2.121
 9358TIP3    H128038   1.466   2.275   2.163
 9358TIP3    H228039   1.403   2.299   2.028
 9359TIP3   OH228040   5.783   0.313   4.224
 9359TIP3    H128041   5.756   0.274   4.141
 9359TIP3    H228042   5.807   0.403   4.201
 9360TIP3   OH228043   2.343   2.019   1.880
 9360TIP3    H128044   2.378   1.967   1.807
 9360TIP3    H228045   2.363   2.110   1.857
 9361TIP3   OH228046   1.432   3.182   1.394
 9361TIP3    H128047   1.421   3.088   1.409
 9361TIP3    H228048   1.352   3.221   1.427
 9362TIP3   OH228049   4.551   4.290   5.787
 9362TIP3    H128050   4.460   4.283   5.817
 9362TIP3    H228051   4.596   4.216   5.828
 9363TIP3   OH228052   3.409   3.947   1.640
 9363TIP3    H128053   3.397   3.896   1.720
 9363TIP3    H228054   3.430   4.036   1.670
 9364TIP3   OH228055   0.142   5.033   5.543
 9364TIP3    H128056   0.157   5.102   5.478
 9364TIP3    H228057   0.065   4.986   5.510
 9365TIP3   OH228058   1.309   2.966   1.488
 9365TIP3    H128059   1.254   2.939   1.415
 9365TIP3    H228060   1.283   2.909   1.561
 9366TIP3   OH228061   1.113   3.516   4.432
 9366TIP3    H128062   1.115   3.603   4.471
 9366TIP3    H228063   1.038   3.518   4.372
 9367TIP3   OH228064   1.026   5.521   4.384
 9367TIP3    H128065   1.008   5.428   4.370
 9367TIP3    H228066   1.034   5.530   4.479
 9368TIP3   OH228067   4.369   4.249   1.933
 9368TIP3    H128068   4.304   4.265   2.002
 9368TIP3    H228069   4.337   4.171   1.888
 9369TIP3   OH228070   2.172   4.268   3.695
 9369TIP3    H128071   2.132   4.283   3.609
 9369TIP3    H228072   2.260   4.236   3.674
 9370TIP3   OH228073   6.662   5.909   2.970
 9370TIP3    H128074   6.584   5.856   2.952
 9370TIP3    H228075   6.735   5.850   2.949
 9371TIP3   OH228076   0.431   6.407   4.186
 9371TIP3    H128077   0.509   6.441   4.230
 9371TIP3    H228078   0.372   6.381   4.257
 9372TIP3   OH228079   4.953   2.420   4.316
 9372TIP3    H128080   4.943   2.402   4.222
 9372TIP3    H228081   5.047   2.414   4.331
 9373TIP3   OH228082   4.814   6.722   0.611
 9373TIP3    H128083   4.837   6.751   0.522
 9373TIP3    H228084   4.719   6.707   0.607
 9374TIP3   OH228085   3.669   4.156   0.516
 9374TIP3    H128086   3.581   4.118   0.518
 9374TIP3    H228087   3.727   4.082   0.497
 9375TIP3   OH228088   3.075   5.236   4.773
 9375TIP3    H128089   2.996   5.200   4.732
 9375TIP3    H228090   3.042   5.281   4.851
 9376TIP3   OH228091   0.432   0.151   0.902
 9376TIP3    H128092   0.440   0.215   0.831
 9376TIP3    H228093   0.366   0.089   0.871
 9377TIP3   OH228094   5.134   3.711   1.765
 9377TIP3    H128095   5.182   3.678   1.689
 9377TIP3    H228096   5.135   3.806   1.754
 9378TIP3   OH228097   2.293   6.050   0.323
 9378TIP3    H128098   2.330   6.101   0.395
 9378TIP3    H228099   2.311   5.959   0.346
 9379TIP3   OH228100   2.805   5.651   0.281
 9379TIP3    H128101   2.835   5.634   0.370
 9379TIP3    H228102   2.781   5.744   0.281
 9380TIP3   OH228103   5.683   3.466   2.525
 9380TIP3    H128104   5.769   3.501   2.547
 9380TIP3    H228105   5.621   3.533   2.555
 9381TIP3   OH228106   6.810   5.187   3.248
 9381TIP3    H128107   6.896   5.215   3.279
 9381TIP3    H228108   6.791   5.107   3.298
 9382TIP3   OH228109   5.295   6.176   1.684
 9382TIP3    H128110   5.235   6.117   1.731
 9382TIP3    H228111   5.247   6.258   1.677
 9383TIP3   OH228112   2.243   3.842   0.850
 9383TIP3    H128113   2.285   3.764   0.886
 9383TIP3    H228114   2.203   3.885   0.925
 9384TIP3   OH228115   6.738   5.858   0.721
 9384TIP3    H128116   6.729   5.763   0.734
 9384TIP3    H228117   6.711   5.873   0.630
 9385TIP3   OH228118   5.685   5.518   1.716
 9385TIP3    H128119   5.611   5.553   1.666
 9385TIP3    H228120   5.658   5.526   1.808
 9386TIP3   OH228121   6.301   5.505   3.389
 9386TIP3    H128122   6.326   5.427   3.339
 9386TIP3    H228123   6.246   5.554   3.329
 9387TIP3   OH228124   3.254   2.531   1.293
 9387TIP3    H128125   3.237   2.436   1.289
 9387TIP3    H228126   3.338   2.538   1.338
 9388TIP3   OH228127   4.506   2.457   3.512
 9388TIP3    H128128   4.551   2.497   3.437
 9388TIP3    H228129   4.459   2.529   3.554
 9389TIP3   OH228130   4.397   4.625   5.832
 9389TIP3    H128131   4.319   4.678   5.852
 9389TIP3    H228132   4.365   4.559   5.771
 9390TIP3   OH228133   0.467   3.239   5.030
 9390TIP3    H128134   0.392   3.191   4.995
 9390TIP3    H228135   0.466   3.222   5.124
 9391TIP3   OH228136   0.167   1.112   3.745
 9391TIP3    H128137   0.100   1.049   3.772
 9391TIP3    H228138   0.142   1.193   3.788
 9392TIP3   OH228139   0.545   6.534   2.690
 9392TIP3    H128140   0.600   6.599   2.646
 9392TIP3    H228141   0.603   6.460   2.705
 9393TIP3   OH228142   3.366   6.158   1.702
 9393TIP3    H128143   3.351   6.244   1.664
 9393TIP3    H228144   3.419   6.175   1.780
 9394TIP3   OH228145   4.583   5.154   1.390
 9394TIP3    H128146   4.622   5.210   1.457
 9394TIP3    H228147   4.527   5.212   1.339
 9395TIP3   OH228148   1.743   3.919   2.406
 9395TIP3    H128149   1.741   3.960   2.493
 9395TIP3    H228150   1.655   3.932   2.371
 9396TIP3   OH228151   0.533   1.062   3.048
 9396TIP3    H128152   0.518   1.154   3.065
 9396TIP3    H228153   0.484   1.043   2.968
 9397TIP3   OH228154   0.656   4.687   2.842
 9397TIP3    H128155   0.681   4.758   2.901
 9397TIP3    H228156   0.596   4.727   2.779
 9398TIP3   OH228157   3.725   6.493   3.945
 9398TIP3    H128158   3.646   6.440   3.938
 9398TIP3    H228159   3.770   6.460   4.023
 9399TIP3   OH228160   3.638   4.644   3.002
 9399TIP3    H128161   3.723   4.689   2.996
 9399TIP3    H228162   3.579   4.711   3.037
 9400TIP3   OH228163   5.187   6.605   4.433
 9400TIP3    H128164   5.206   6.524   4.386
 9400TIP3    H228165   5.244   6.602   4.510
 9401TIP3   OH228166   3.031   6.259   5.821
 9401TIP3    H128167   3.082   6.253   5.902
 9401TIP3    H228168   3.057   6.343   5.783
 9402TIP3   OH228169   1.366   1.860   1.022
 9402TIP3    H128170   1.278   1.825   1.007
 9402TIP3    H228171   1.423   1.800   0.975
 9403TIP3   OH228172   1.661   0.657   0.033
 9403TIP3    H128173   1.681   0.573   0.076
 9403TIP3    H228174   1.624   0.711   0.103
 9404TIP3   OH228175   0.442   5.297   2.759
 9404TIP3    H128176   0.378   5.254   2.702
 9404TIP3    H228177   0.397   5.377   2.790
 9405TIP3   OH228178   0.944   1.585   4.380
 9405TIP3    H128179   0.905   1.549   4.300
 9405TIP3    H228180   0.914   1.526   4.449
 9406TIP3   OH228181   6.534   0.419   3.740
 9406TIP3    H128182   6.566   0.331   3.759
 9406TIP3    H228183   6.609   0.476   3.759
 9407TIP3   OH228184   5.455   5.840   0.041
 9407TIP3    H128185   5.407   5.860   0.121
 9407TIP3    H228186   5.547   5.851   0.064
 9408TIP3   OH228187   2.735   5.185   5.123
 9408TIP3    H128188   2.828   5.206   5.118
 9408TIP3    H228189   2.715   5.184   5.216
 9409TIP3   OH228190   5.490   3.400   3.822
 9409TIP3    H128191   5.520   3.309   3.823
 9409TIP3    H228192   5.471   3.420   3.914
 9410TIP3   OH228193   2.166   0.418   2.411
 9410TIP3    H128194   2.245   0.391   2.458
 9410TIP3    H228195   2.107   0.343   2.419
 9411TIP3   OH228196   4.147   6.138   2.607
 9411TIP3    H128197   4.125   6.071   2.542
 9411TIP3    H228198   4.089   6.211   2.587
 9412TIP3   OH228199   5.451   1.153   3.686
 9412TIP3    H128200   5.447   1.181   3.777
 9412TIP3    H228201   5.494   1.067   3.689
 9413TIP3   OH228202   3.940   5.647   2.311
 9413TIP3    H128203   3.981   5.600   2.239
 9413TIP3    H228204   3.979   5.734   2.308
 9414TIP3   OH228205   4.149   4.209   1.025
 9414TIP3    H128206   4.203   4.279   0.989
 9414TIP3    H228207   4.168   4.211   1.119
 9415TIP3   OH228208   2.944   4.418   4.356
 9415TIP3    H128209   2.914   4.509   4.345
 9415TIP3    H228210   2.912   4.373   4.278
 9416TIP3   OH228211   5.179   6.060   3.904
 9416TIP3    H128212   5.111   6.058   3.972
 9416TIP3    H228213   5.243   6.123   3.936
 9417TIP3   OH228214   3.270   1.845   4.039
 9417TIP3    H128215   3.178   1.850   4.015
 9417TIP3    H228216   3.317   1.851   3.955
 9418TIP3   OH228217   0.920   6.148   2.614
 9418TIP3    H128218   0.837   6.137   2.662
 9418TIP3    H228219   0.953   6.059   2.602
 9419TIP3   OH228220   7.003   2.886   4.297
 9419TIP3    H128221   6.920   2.910   4.256
 9419TIP3    H228222   7.045   2.970   4.317
 9420TIP3   OH228223   7.077   2.898   1.266
 9420TIP3    H128224   7.033   2.982   1.251
 9420TIP3    H228225   7.010   2.832   1.247
 9421TIP3   OH228226   1.553   3.084   1.109
 9421TIP3    H128227   1.552   3.041   1.023
 9421TIP3    H228228   1.461   3.106   1.125
 9422TIP3   OH228229   6.190   1.903   3.148
 9422TIP3    H128230   6.190   1.952   3.230
 9422TIP3    H228231   6.183   1.969   3.080
 9423TIP3   OH228232   0.193   4.921   3.049
 9423TIP3    H128233   0.206   4.829   3.024
 9423TIP3    H228234   0.162   4.964   2.969
 9424TIP3   OH228235   4.827   2.753   5.232
 9424TIP3    H128236   4.906   2.701   5.244
 9424TIP3    H228237   4.770   2.699   5.177
 9425TIP3   OH228238   4.763   4.011   0.044
 9425TIP3    H128239   4.701   4.083   0.032
 9425TIP3    H228240   4.709   3.933   0.052
 9426TIP3   OH228241   0.386   2.396   4.432
 9426TIP3    H128242   0.440   2.453   4.378
 9426TIP3    H228243   0.428   2.310   4.425
 9427TIP3   OH228244   6.231   3.622   2.082
 9427TIP3    H128245   6.314   3.658   2.112
 9427TIP3    H228246   6.256   3.555   2.018
 9428TIP3   OH228247   2.644   6.473   1.295
 9428TIP3    H128248   2.567   6.419   1.279
 9428TIP3    H228249   2.687   6.432   1.370
 9429TIP3   OH228250   6.545   3.306   2.203
 9429TIP3    H128251   6.504   3.220   2.191
 9429TIP3    H228252   6.561   3.338   2.114
 9430TIP3   OH228253   4.856   0.143   4.103
 9430TIP3    H128254   4.926   0.191   4.058
 9430TIP3    H228255   4.872   0.160   4.196
 9431TIP3   OH228256   6.043   0.172   0.549
 9431TIP3    H128257   6.096   0.095   0.529
 9431TIP3    H228258   5.958   0.137   0.577
 9432TIP3   OH228259   6.546   3.770   0.822
 9432TIP3    H128260   6.584   3.694   0.778
 9432TIP3    H228261   6.531   3.741   0.912
 9433TIP3   OH228262   6.224   0.544   1.379
 9433TIP3    H128263   6.137   0.574   1.351
 9433TIP3    H228264   6.276   0.544   1.299
 9434TIP3   OH228265   7.191   5.464   5.566
 9434TIP3    H128266   7.097   5.478   5.559
 9434TIP3    H228267   7.215   5.420   5.485
 9435TIP3   OH228268   1.677   3.381   4.423
 9435TIP3    H128269   1.586   3.405   4.405
 9435TIP3    H228270   1.671   3.303   4.479
 9436TIP3   OH228271   3.208   3.243   3.724
 9436TIP3    H128272   3.167   3.310   3.778
 9436TIP3    H228273   3.187   3.269   3.634
 9437TIP3   OH228274   3.006   2.907   1.260
 9437TIP3    H128275   3.020   2.897   1.354
 9437TIP3    H228276   3.043   2.828   1.222
 9438TIP3   OH228277   2.022   6.624   4.539
 9438TIP3    H128278   1.939   6.622   4.588
 9438TIP3    H228279   2.073   6.553   4.578
 9439TIP3   OH228280   3.865   6.221   5.865
 9439TIP3    H128281   3.912   6.138   5.865
 9439TIP3    H228282   3.772   6.196   5.868
 9440TIP3   OH228283   1.877   6.190   2.711
 9440TIP3    H128284   1.828   6.266   2.681
 9440TIP3    H228285   1.916   6.217   2.794
 9441TIP3   OH228286   1.421   0.547   5.787
 9441TIP3    H128287   1.491   0.486   5.759
 9441TIP3    H228288   1.341   0.495   5.779
 9442TIP3   OH228289   4.167   1.759   5.424
 9442TIP3    H128290   4.183   1.810   5.504
 9442TIP3    H228291   4.148   1.671   5.456
 9443TIP3   OH228292   4.136   4.254   2.081
 9443TIP3    H128293   4.074   4.275   2.151
 9443TIP3    H228294   4.106   4.307   2.007
 9444TIP3   OH228295   6.895   2.333   0.244
 9444TIP3    H128296   6.967   2.292   0.291
 9444TIP3    H228297   6.876   2.274   0.171
 9445TIP3   OH228298   6.376   0.435   1.585
 9445TIP3    H128299   6.328   0.506   1.542
 9445TIP3    H228300   6.439   0.405   1.519
 9446TIP3   OH228301   6.115   1.404   3.416
 9446TIP3    H128302   6.072   1.346   3.354
 9446TIP3    H228303   6.049   1.419   3.484
 9447TIP3   OH228304   3.271   5.957   2.811
 9447TIP3    H128305   3.205   5.893   2.838
 9447TIP3    H228306   3.225   6.016   2.752
 9448TIP3   OH228307   7.177   2.499   2.738
 9448TIP3    H128308   7.114   2.487   2.667
 9448TIP3    H228309   7.130   2.550   2.803
 9449TIP3   OH228310   2.953   0.755   4.927
 9449TIP3    H128311   2.867   0.747   4.886
 9449TIP3    H228312   2.943   0.711   5.012
 9450TIP3   OH228313   4.882   6.047   4.810
 9450TIP3    H128314   4.812   6.082   4.865
 9450TIP3    H228315   4.848   6.057   4.721
 9451TIP3   OH228316   4.206   6.048   3.401
 9451TIP3    H128317   4.220   5.954   3.409
 9451TIP3    H228318   4.278   6.087   3.451
 9452TIP3   OH228319   0.487   0.118   5.845
 9452TIP3    H128320   0.425   0.183   5.813
 9452TIP3    H228321   0.441   0.073   5.916
 9453TIP3   OH228322   2.863   1.730   3.278
 9453TIP3    H128323   2.816   1.647   3.274
 9453TIP3    H228324   2.935   1.713   3.339
 9454TIP3   OH228325   6.168   0.466   3.846
 9454TIP3    H128326   6.231   0.495   3.780
 9454TIP3    H228327   6.221   0.452   3.925
 9455TIP3   OH228328   0.231   1.814   5.637
 9455TIP3    H128329   0.294   1.860   5.581
 9455TIP3    H228330   0.252   1.846   5.725
 9456TIP3   OH228331   5.783   5.424   0.576
 9456TIP3    H128332   5.769   5.511   0.538
 9456TIP3    H228333   5.798   5.441   0.669
 9457TIP3   OH228334   1.193   1.035   3.415
 9457TIP3    H128335   1.145   1.109   3.379
 9457TIP3    H228336   1.201   1.053   3.508
 9458TIP3   OH228337   4.117   2.805   0.356
 9458TIP3    H128338   4.096   2.717   0.325
 9458TIP3    H228339   4.045   2.827   0.415
 9459TIP3   OH228340   3.988   2.635   5.098
 9459TIP3    H128341   3.902   2.675   5.090
 9459TIP3    H228342   3.990   2.602   5.188
 9460TIP3   OH228343   2.712   5.138   3.484
 9460TIP3    H128344   2.795   5.104   3.452
 9460TIP3    H228345   2.733   5.224   3.520
 9461TIP3   OH228346   2.301   0.784   4.813
 9461TIP3    H128347   2.225   0.765   4.869
 9461TIP3    H228348   2.351   0.849   4.862
 9462TIP3   OH228349   5.179   0.179   0.605
 9462TIP3    H128350   5.258   0.203   0.556
 9462TIP3    H228351   5.210   0.116   0.670
 9463TIP3   OH228352   1.106   1.287   3.332
 9463TIP3    H128353   1.024   1.325   3.299
 9463TIP3    H228354   1.107   1.308   3.425
 9464TIP3   OH228355   2.607   0.574   2.580
 9464TIP3    H128356   2.668   0.544   2.512
 9464TIP3    H228357   2.633   0.526   2.659
 9465TIP3   OH228358   5.734   2.139   2.746
 9465TIP3    H128359   5.779   2.215   2.711
 9465TIP3    H228360   5.804   2.074   2.760
 9466TIP3   OH228361   1.957   5.129   0.748
 9466TIP3    H128362   1.936   5.059   0.811
 9466TIP3    H228363   1.960   5.085   0.663
 9467TIP3   OH228364   6.146   1.605   4.588
 9467TIP3    H128365   6.079   1.604   4.656
 9467TIP3    H228366   6.170   1.513   4.577
 9468TIP3   OH228367   5.470   1.331   3.109
 9468TIP3    H128368   5.529   1.327   3.184
 9468TIP3    H228369   5.472   1.243   3.071
 9469TIP3   OH228370   2.596   1.751   2.066
 9469TIP3    H128371   2.504   1.731   2.053
 9469TIP3    H228372   2.624   1.693   2.137
 9470TIP3   OH228373   4.752   5.800   1.072
 9470TIP3    H128374   4.755   5.845   0.988
 9470TIP3    H228375   4.808   5.724   1.061
 9471TIP3   OH228376   1.593   1.833   3.182
 9471TIP3    H128377   1.543   1.879   3.115
 9471TIP3    H228378   1.669   1.889   3.198
 9472TIP3   OH228379   1.702   4.769   1.405
 9472TIP3    H128380   1.716   4.812   1.489
 9472TIP3    H228381   1.701   4.675   1.425
 9473TIP3   OH228382   5.968   4.121   4.074
 9473TIP3    H128383   5.981   4.158   4.162
 9473TIP3    H228384   6.005   4.187   4.015
 9474TIP3   OH228385   0.865   4.331   1.191
 9474TIP3    H128386   0.874   4.236   1.183
 9474TIP3    H228387   0.910   4.366   1.114
 9475TIP3   OH228388   1.536   0.013   3.560
 9475TIP3    H128389   1.615   0.050   3.521
 9475TIP3    H228390   1.475   0.004   3.487
 9476TIP3   OH228391   3.382   5.498   1.068
 9476TIP3    H128392   3.463   5.530   1.029
 9476TIP3    H228393   3.339   5.577   1.102
 9477TIP3   OH228394   3.545   2.681   4.459
 9477TIP3    H128395   3.581   2.640   4.538
 9477TIP3    H228396   3.453   2.697   4.480
 9478TIP3   OH228397   1.381   2.279   3.264
 9478TIP3    H128398   1.465   2.325   3.260
 9478TIP3    H228399   1.340   2.312   3.344
 9479TIP3   OH228400   5.606   3.485   5.491
 9479TIP3    H128401   5.536   3.453   5.434
 9479TIP3    H228402   5.639   3.564   5.447
 9480TIP3   OH228403   6.691   6.741   2.907
 9480TIP3    H128404   6.655   6.827   2.930
 9480TIP3    H228405   6.766   6.760   2.851
 9481TIP3   OH228406   6.340   6.781   1.611
 9481TIP3    H128407   6.322   6.737   1.694
 9481TIP3    H228408   6.426   6.822   1.625
 9482TIP3   OH228409   1.998   6.064   4.715
 9482TIP3    H128410   2.053   6.142   4.705
 9482TIP3    H228411   2.032   6.002   4.651
 9483TIP3   OH228412   5.952   5.018   5.285
 9483TIP3    H128413   6.014   5.074   5.332
 9483TIP3    H228414   5.958   4.933   5.328
 9484TIP3   OH228415   3.698   1.812   1.978
 9484TIP3    H128416   3.690   1.834   1.885
 9484TIP3    H228417   3.709   1.717   1.979
 9485TIP3   OH228418   3.159   3.332   4.060
 9485TIP3    H128419   3.252   3.344   4.078
 9485TIP3    H228420   3.115   3.384   4.128
 9486TIP3   OH228421   2.871   4.408   1.757
 9486TIP3    H128422   2.926   4.372   1.688
 9486TIP3    H228423   2.782   4.405   1.721
 9487TIP3   OH228424   6.123   1.315   1.347
 9487TIP3    H128425   6.097   1.389   1.401
 9487TIP3    H228426   6.144   1.245   1.409
 9488TIP3   OH228427   4.783   0.736   1.527
 9488TIP3    H128428   4.744   0.725   1.440
 9488TIP3    H228429   4.840   0.660   1.538
 9489TIP3   OH228430   6.365   0.958   0.370
 9489TIP3    H128431   6.388   0.996   0.286
 9489TIP3    H228432   6.450   0.939   0.411
 9490TIP3   OH228433   5.226   4.961   1.797
 9490TIP3    H128434   5.319   4.970   1.775
 9490TIP3    H228435   5.214   4.867   1.813
 9491TIP3   OH228436   1.042   0.069   3.495
 9491TIP3    H128437   1.014   0.056   3.586
 9491TIP3    H228438   1.069   0.161   3.492
 9492TIP3   OH228439   5.916   3.733   0.940
 9492TIP3    H128440   5.893   3.649   0.899
 9492TIP3    H228441   5.978   3.773   0.879
 9493TIP3   OH228442   3.595   2.968   5.034
 9493TIP3    H128443   3.512   2.929   5.063
 9493TIP3    H228444   3.595   3.055   5.074
 9494TIP3   OH228445   3.473   0.577   1.844
 9494TIP3    H128446   3.542   0.642   1.830
 9494TIP3    H228447   3.519   0.496   1.865
 9495TIP3   OH228448   1.580   3.483   0.081
 9495TIP3    H128449   1.505   3.425   0.070
 9495TIP3    H228450   1.655   3.425   0.088
 9496TIP3   OH228451   4.450   0.715   2.457
 9496TIP3    H128452   4.503   0.725   2.378
 9496TIP3    H228453   4.514   0.710   2.529
 9497TIP3   OH228454   7.186   1.736   1.086
 9497TIP3    H128455   7.276   1.746   1.118
 9497TIP3    H228456   7.138   1.808   1.127
 9498TIP3   OH228457   3.900   6.316   0.098
 9498TIP3    H128458   3.881   6.256   0.170
 9498TIP3    H228459   3.889   6.263   0.019
 9499TIP3   OH228460   6.151   2.485   2.814
 9499TIP3    H128461   6.209   2.508   2.886
 9499TIP3    H228462   6.209   2.456   2.744
 9500TIP3   OH228463   3.811   6.363   4.575
 9500TIP3    H128464   3.832   6.433   4.637
 9500TIP3    H228465   3.892   6.350   4.525
 9501TIP3   OH228466   5.732   6.036   2.852
 9501TIP3    H128467   5.640   6.017   2.873
 9501TIP3    H228468   5.749   6.120   2.895
 9502TIP3   OH228469   0.582   2.620   0.184
 9502TIP3    H128470   0.645   2.691   0.191
 9502TIP3    H228471   0.498   2.664   0.169
 9503TIP3   OH228472   5.392   0.313   5.401
 9503TIP3    H128473   5.440   0.298   5.320
 9503TIP3    H228474   5.329   0.241   5.405
 9504TIP3   OH228475   4.197   6.179   0.261
 9504TIP3    H128476   4.260   6.144   0.198
 9504TIP3    H228477   4.167   6.261   0.222
 9505TIP3   OH228478   3.007   2.334   1.810
 9505TIP3    H128479   3.054   2.390   1.872
 9505TIP3    H228480   2.984   2.256   1.861
 9506TIP3   OH228481   2.288   4.485   3.504
 9506TIP3    H128482   2.346   4.536   3.448
 9506TIP3    H228483   2.347   4.428   3.554
 9507TIP3   OH228484   3.039   5.515   4.648
 9507TIP3    H128485   3.084   5.432   4.664
 9507TIP3    H228486   3.012   5.545   4.735
 9508TIP3   OH228487   5.073   3.813   1.174
 9508TIP3    H128488   5.168   3.803   1.164
 9508TIP3    H228489   5.047   3.870   1.102
 9509TIP3   OH228490   5.594   0.077   5.670
 9509TIP3    H128491   5.499   0.078   5.681
 9509TIP3    H228492   5.628   0.098   5.757
 9510TIP3   OH228493   3.456   4.855   5.377
 9510TIP3    H128494   3.457   4.930   5.318
 9510TIP3    H228495   3.540   4.812   5.361
 9511TIP3   OH228496   2.075   5.341   3.039
 9511TIP3    H128497   2.072   5.382   2.953
 9511TIP3    H228498   2.087   5.415   3.099
 9512TIP3   OH228499   3.591   4.376   1.896
 9512TIP3    H128500   3.516   4.421   1.936
 9512TIP3    H228501   3.635   4.444   1.845
 9513TIP3   OH228502   4.322   2.691   0.039
 9513TIP3    H128503   4.269   2.764   0.072
 9513TIP3    H228504   4.391   2.680   0.103
 9514TIP3   OH228505   5.093   6.326   5.339
 9514TIP3    H128506   5.185   6.344   5.359
 9514TIP3    H228507   5.044   6.394   5.385
 9515TIP3   OH228508   4.111   1.375   2.572
 9515TIP3    H128509   4.020   1.403   2.568
 9515TIP3    H228510   4.150   1.407   2.490
 9516TIP3   OH228511   5.325   5.651   3.500
 9516TIP3    H128512   5.274   5.574   3.524
 9516TIP3    H228513   5.278   5.725   3.540
 9517TIP3   OH228514   6.005   3.655   0.648
 9517TIP3    H128515   6.014   3.560   0.654
 9517TIP3    H228516   5.976   3.671   0.558
 9518TIP3   OH228517   5.560   2.541   3.920
 9518TIP3    H128518   5.560   2.487   3.841
 9518TIP3    H228519   5.576   2.630   3.888
 9519TIP3   OH228520   6.992   4.420   5.605
 9519TIP3    H128521   7.017   4.503   5.565
 9519TIP3    H228522   7.054   4.410   5.678
 9520TIP3   OH228523   6.224   1.525   0.228
 9520TIP3    H128524   6.198   1.611   0.195
 9520TIP3    H228525   6.161   1.464   0.188
 9521TIP3   OH228526   4.412   1.429   5.389
 9521TIP3    H128527   4.458   1.499   5.435
 9521TIP3    H228528   4.474   1.356   5.388
 9522TIP3   OH228529   2.711   2.298   1.934
 9522TIP3    H128530   2.778   2.360   1.906
 9522TIP3    H228531   2.715   2.228   1.870
 9523TIP3   OH228532   2.867   0.940   3.193
 9523TIP3    H128533   2.945   0.913   3.241
 9523TIP3    H228534   2.870   0.891   3.111
 9524TIP3   OH228535   0.137   1.494   0.869
 9524TIP3    H128536   0.148   1.589   0.873
 9524TIP3    H228537   0.206   1.463   0.811
 9525TIP3   OH228538   1.894   6.012   2.201
 9525TIP3    H128539   1.968   6.026   2.261
 9525TIP3    H228540   1.833   5.957   2.250
 9526TIP3   OH228541   1.433   2.437   2.548
 9526TIP3    H128542   1.476   2.476   2.472
 9526TIP3    H228543   1.449   2.498   2.619
 9527TIP3   OH228544   6.893   4.924   2.848
 9527TIP3    H128545   6.881   5.019   2.855
 9527TIP3    H228546   6.849   4.901   2.766
 9528TIP3   OH228547   7.181   0.945   3.833
 9528TIP3    H128548   7.132   1.015   3.875
 9528TIP3    H228549   7.242   0.915   3.901
 9529TIP3   OH228550   3.855   6.449   0.979
 9529TIP3    H128551   3.910   6.450   0.901
 9529TIP3    H228552   3.859   6.358   1.011
 9530TIP3   OH228553   4.974   3.358   4.015
 9530TIP3    H128554   5.010   3.425   4.072
 9530TIP3    H228555   4.881   3.353   4.039
 9531TIP3   OH228556   6.648   4.257   3.697
 9531TIP3    H128557   6.680   4.192   3.635
 9531TIP3    H228558   6.715   4.326   3.696
 9532TIP3   OH228559   0.170   6.107   5.674
 9532TIP3    H128560   0.183   6.201   5.664
 9532TIP3    H228561   0.088   6.098   5.723
 9533TIP3   OH228562   2.606   5.484   4.776
 9533TIP3    H128563   2.614   5.571   4.737
 9533TIP3    H228564   2.518   5.482   4.813
 9534TIP3   OH228565   1.314   0.754   2.712
 9534TIP3    H128566   1.286   0.828   2.658
 9534TIP3    H228567   1.233   0.708   2.734
 9535TIP3   OH228568   2.716   4.141   0.703
 9535TIP3    H128569   2.770   4.091   0.765
 9535TIP3    H228570   2.710   4.084   0.627
 9536TIP3   OH228571   5.011   1.827   4.349
 9536TIP3    H128572   4.965   1.865   4.274
 9536TIP3    H228573   4.942   1.811   4.413
 9537TIP3   OH228574   1.525   1.727   2.163
 9537TIP3    H128575   1.612   1.764   2.175
 9537TIP3    H228576   1.478   1.792   2.110
 9538TIP3   OH228577   6.507   5.124   1.123
 9538TIP3    H128578   6.503   5.179   1.201
 9538TIP3    H228579   6.501   5.035   1.157
 9539TIP3   OH228580   0.728   3.139   3.973
 9539TIP3    H128581   0.712   3.098   4.059
 9539TIP3    H228582   0.822   3.127   3.958
 9540TIP3   OH228583   6.386   0.920   5.186
 9540TIP3    H128584   6.375   0.921   5.281
 9540TIP3    H228585   6.479   0.901   5.173
 9541TIP3   OH228586   5.292   5.325   2.958
 9541TIP3    H128587   5.337   5.289   2.882
 9541TIP3    H228588   5.263   5.248   3.007
 9542TIP3   OH228589   2.094   3.120   5.245
 9542TIP3    H128590   2.103   3.174   5.166
 9542TIP3    H228591   2.174   3.068   5.248
 9543TIP3   OH228592   6.643   6.001   1.847
 9543TIP3    H128593   6.587   5.948   1.791
 9543TIP3    H228594   6.732   5.981   1.818
 9544TIP3   OH228595   5.034   4.117   1.170
 9544TIP3    H128596   5.070   4.160   1.248
 9544TIP3    H228597   4.946   4.153   1.161
 9545TIP3   OH228598   3.380   1.404   0.834
 9545TIP3    H128599   3.458   1.447   0.869
 9545TIP3    H228600   3.409   1.316   0.809
 9546TIP3   OH228601   3.320   5.691   0.691
 9546TIP3    H128602   3.288   5.744   0.618
 9546TIP3    H228603   3.411   5.717   0.701
 9547TIP3   OH228604   2.693   2.940   3.706
 9547TIP3    H128605   2.768   2.900   3.749
 9547TIP3    H228606   2.617   2.893   3.742
 9548TIP3   OH228607   5.222   4.131   3.212
 9548TIP3    H128608   5.225   4.052   3.266
 9548TIP3    H228609   5.146   4.117   3.155
 9549TIP3   OH228610   1.670   3.516   0.749
 9549TIP3    H128611   1.661   3.611   0.754
 9549TIP3    H228612   1.606   3.489   0.682
 9550TIP3   OH228613   2.649   3.267   0.110
 9550TIP3    H128614   2.621   3.341   0.057
 9550TIP3    H228615   2.603   3.277   0.193
 9551TIP3   OH228616   0.387   0.846   1.942
 9551TIP3    H128617   0.325   0.828   1.871
 9551TIP3    H228618   0.449   0.773   1.938
 9552TIP3   OH228619   4.739   0.470   3.798
 9552TIP3    H128620   4.671   0.481   3.865
 9552TIP3    H228621   4.791   0.550   3.804
 9553TIP3   OH228622   4.881   6.449   4.666
 9553TIP3    H128623   4.824   6.402   4.728
 9553TIP3    H228624   4.969   6.437   4.702
 9554TIP3   OH228625   6.112   5.485   0.559
 9554TIP3    H128626   6.184   5.530   0.514
 9554TIP3    H228627   6.121   5.393   0.534
 9555TIP3   OH228628   5.729   0.184   3.246
 9555TIP3    H128629   5.793   0.243   3.286
 9555TIP3    H228630   5.694   0.233   3.172
 9556TIP3   OH228631   1.724   4.957   5.289
 9556TIP3    H128632   1.725   4.879   5.345
 9556TIP3    H228633   1.810   4.959   5.249
 9557TIP3   OH228634   1.973   6.753   3.080
 9557TIP3    H128635   2.031   6.688   3.119
 9557TIP3    H228636   1.983   6.742   2.985
 9558TIP3   OH228637   1.642   6.712   1.095
 9558TIP3    H128638   1.703   6.783   1.077
 9558TIP3    H228639   1.556   6.754   1.101
 9559TIP3   OH228640   5.062   5.947   1.100
 9559TIP3    H128641   5.060   5.881   1.170
 9559TIP3    H228642   5.139   6.000   1.120
 9560TIP3   OH228643   5.525   5.597   2.150
 9560TIP3    H128644   5.604   5.599   2.204
 9560TIP3    H228645   5.480   5.679   2.169
 9561TIP3   OH228646   6.377   1.866   4.448
 9561TIP3    H128647   6.302   1.906   4.491
 9561TIP3    H228648   6.450   1.883   4.507
 9562TIP3   OH228649   1.645   0.393   0.598
 9562TIP3    H128650   1.722   0.343   0.626
 9562TIP3    H228651   1.671   0.433   0.515
 9563TIP3   OH228652   4.394   4.442   1.523
 9563TIP3    H128653   4.421   4.448   1.431
 9563TIP3    H228654   4.314   4.494   1.527
 9564TIP3   OH228655   5.162   0.876   4.255
 9564TIP3    H128656   5.155   0.969   4.234
 9564TIP3    H228657   5.230   0.872   4.322
 9565TIP3   OH228658   0.066   6.455   3.209
 9565TIP3    H128659   0.033   6.366   3.199
 9565TIP3    H228660   0.159   6.449   3.188
 9566TIP3   OH228661   1.067   3.316   5.282
 9566TIP3    H128662   1.031   3.289   5.197
 9566TIP3    H228663   0.990   3.329   5.338
 9567TIP3   OH228664   5.942   3.334   0.715
 9567TIP3    H128665   6.035   3.350   0.734
 9567TIP3    H228666   5.941   3.305   0.624
 9568TIP3   OH228667   4.766   2.596   3.641
 9568TIP3    H128668   4.712   2.563   3.713
 9568TIP3    H228669   4.722   2.564   3.562
 9569TIP3   OH228670   0.523   1.683   4.042
 9569TIP3    H128671   0.479   1.722   3.966
 9569TIP3    H228672   0.515   1.749   4.110
 9570TIP3   OH228673   0.044   4.983   4.155
 9570TIP3    H128674  -0.022   5.046   4.126
 9570TIP3    H228675   0.017   4.899   4.117
 9571TIP3   OH228676   6.702   4.863   1.834
 9571TIP3    H128677   6.734   4.923   1.766
 9571TIP3    H228678   6.701   4.915   1.914
 9572TIP3   OH228679   6.338   4.010   1.246
 9572TIP3    H128680   6.414   3.956   1.230
 9572TIP3    H228681   6.280   3.956   1.300
 9573TIP3   OH228682   6.816   0.244   3.660
 9573TIP3    H128683   6.908   0.220   3.652
 9573TIP3    H228684   6.810   0.333   3.624
 9574TIP3   OH228685   5.618   4.811   2.378
 9574TIP3    H128686   5.713   4.800   2.381
 9574TIP3    H228687   5.583   4.730   2.417
 9575TIP3   OH228688   5.204   3.215   2.152
 9575TIP3    H128689   5.167   3.166   2.226
 9575TIP3    H228690   5.128   3.236   2.097
 9576TIP3   OH228691   3.658   0.488   5.494
 9576TIP3    H128692   3.569   0.474   5.525
 9576TIP3    H228693   3.688   0.567   5.539
 9577TIP3   OH228694   2.883   2.194   3.223
 9577TIP3    H128695   2.867   2.139   3.300
 9577TIP3    H228696   2.976   2.182   3.205
 9578TIP3   OH228697   0.678   5.232   5.798
 9578TIP3    H128698   0.723   5.268   5.722
 9578TIP3    H228699   0.673   5.138   5.779
 9579TIP3   OH228700   5.036   5.793   0.214
 9579TIP3    H128701   4.988   5.713   0.194
 9579TIP3    H228702   5.107   5.765   0.272
 9580TIP3   OH228703   2.924   4.028   4.984
 9580TIP3    H128704   2.874   4.027   4.903
 9580TIP3    H228705   3.007   3.987   4.963
 9581TIP3   OH228706   2.591   6.687   2.253
 9581TIP3    H128707   2.684   6.668   2.264
 9581TIP3    H228708   2.565   6.728   2.335
 9582TIP3   OH228709   4.302   2.050   5.008
 9582TIP3    H128710   4.228   2.051   5.069
 9582TIP3    H228711   4.331   2.141   5.003
 9583TIP3   OH228712   4.375   1.206   5.082
 9583TIP3    H128713   4.468   1.186   5.077
 9583TIP3    H228714   4.343   1.194   4.993
 9584TIP3   OH228715   0.891   0.587   5.641
 9584TIP3    H128716   0.815   0.618   5.592
 9584TIP3    H228717   0.957   0.656   5.630
 9585TIP3   OH228718   5.349   6.124   2.782
 9585TIP3    H128719   5.375   6.115   2.690
 9585TIP3    H228720   5.408   6.065   2.830
 9586TIP3   OH228721   5.973   6.094   5.615
 9586TIP3    H128722   5.978   6.005   5.648
 9586TIP3    H228723   5.894   6.130   5.655
 9587TIP3   OH228724   1.358   2.915   0.607
 9587TIP3    H128725   1.377   2.829   0.644
 9587TIP3    H228726   1.392   2.978   0.671
 9588TIP3   OH228727   2.909   1.237   0.813
 9588TIP3    H128728   2.880   1.273   0.729
 9588TIP3    H228729   2.865   1.292   0.878
 9589TIP3   OH228730   0.479   2.249   0.837
 9589TIP3    H128731   0.532   2.262   0.758
 9589TIP3    H228732   0.505   2.322   0.894
 9590TIP3   OH228733   3.077   4.768   2.815
 9590TIP3    H128734   3.004   4.710   2.835
 9590TIP3    H228735   3.087   4.762   2.720
 9591TIP3   OH228736   0.378   0.972   4.373
 9591TIP3    H128737   0.333   1.018   4.302
 9591TIP3    H228738   0.414   1.042   4.428
 9592TIP3   OH228739   4.074   6.544   2.497
 9592TIP3    H128740   4.144   6.557   2.561
 9592TIP3    H228741   4.116   6.500   2.424
 9593TIP3   OH228742   4.613   0.328   5.843
 9593TIP3    H128743   4.613   0.356   5.934
 9593TIP3    H228744   4.615   0.409   5.792
 9594TIP3   OH228745   6.860   0.250   1.105
 9594TIP3    H128746   6.790   0.236   1.041
 9594TIP3    H228747   6.896   0.163   1.121
 9595TIP3   OH228748   6.666   0.969   5.214
 9595TIP3    H128749   6.648   0.950   5.306
 9595TIP3    H228750   6.762   0.975   5.209
 9596TIP3   OH228751   5.964   2.339   1.688
 9596TIP3    H128752   5.982   2.432   1.698
 9596TIP3    H228753   5.880   2.336   1.641
 9597TIP3   OH228754   1.568   2.102   1.055
 9597TIP3    H128755   1.495   2.106   0.993
 9597TIP3    H228756   1.536   2.147   1.133
 9598TIP3   OH228757   7.009   4.497   1.128
 9598TIP3    H128758   6.955   4.572   1.153
 9598TIP3    H228759   7.014   4.501   1.032
 9599TIP3   OH228760   2.717   6.317   5.330
 9599TIP3    H128761   2.778   6.308   5.256
 9599TIP3    H228762   2.639   6.269   5.303
 9600TIP3   OH228763   2.322   5.930   4.667
 9600TIP3    H128764   2.265   5.896   4.736
 9600TIP3    H228765   2.365   6.005   4.707
 9601TIP3   OH228766   0.059   3.386   2.639
 9601TIP3    H128767   0.027   3.298   2.662
 9601TIP3    H228768   0.080   3.426   2.723
 9602TIP3   OH228769   5.425   3.599   1.686
 9602TIP3    H128770   5.494   3.637   1.740
 9602TIP3    H228771   5.394   3.672   1.632
 9603TIP3   OH228772   2.599   6.462   2.997
 9603TIP3    H128773   2.692   6.440   2.987
 9603TIP3    H228774   2.593   6.554   2.971
 9604TIP3   OH228775   3.923   2.049   4.805
 9604TIP3    H128776   3.970   2.111   4.750
 9604TIP3    H228777   3.909   1.973   4.748
 9605TIP3   OH228778   4.330   1.101   5.321
 9605TIP3    H128779   4.301   1.014   5.294
 9605TIP3    H228780   4.358   1.144   5.240
 9606TIP3   OH228781   6.758   5.205   4.743
 9606TIP3    H128782   6.702   5.228   4.669
 9606TIP3    H228783   6.751   5.280   4.803
 9607TIP3   OH228784   1.610   5.069   5.789
 9607TIP3    H128785   1.557   5.098   5.715
 9607TIP3    H228786   1.600   5.138   5.855
 9608TIP3   OH228787   0.284   0.907   0.182
 9608TIP3    H128788   0.261   0.842   0.115
 9608TIP3    H228789   0.308   0.985   0.132
 9609TIP3   OH228790   3.879   4.194   5.611
 9609TIP3    H128791   3.905   4.217   5.522
 9609TIP3    H228792   3.941   4.125   5.636
 9610TIP3   OH228793   6.696   3.553   4.207
 9610TIP3    H128794   6.690   3.466   4.247
 9610TIP3    H228795   6.636   3.550   4.133
 9611TIP3   OH228796   5.414   1.795   4.371
 9611TIP3    H128797   5.343   1.845   4.411
 9611TIP3    H228798   5.483   1.859   4.356
 9612TIP3   OH228799   5.174   4.405   2.381
 9612TIP3    H128800   5.177   4.312   2.400
 9612TIP3    H228801   5.229   4.446   2.448
 9613TIP3   OH228802   5.533   5.473   1.047
 9613TIP3    H128803   5.504   5.523   1.123
 9613TIP3    H228804   5.555   5.386   1.082
 9614TIP3   OH228805   1.647   4.085   2.958
 9614TIP3    H128806   1.581   4.134   3.006
 9614TIP3    H228807   1.719   4.073   3.020
 9615TIP3   OH228808   2.881   0.991   1.121
 9615TIP3    H128809   2.910   1.061   1.180
 9615TIP3    H228810   2.962   0.949   1.092
 9616TIP3   OH228811   5.589   2.532   2.495
 9616TIP3    H128812   5.665   2.503   2.546
 9616TIP3    H228813   5.614   2.514   2.404
 9617TIP3   OH228814   3.402   0.468   0.829
 9617TIP3    H128815   3.495   0.488   0.812
 9617TIP3    H228816   3.364   0.455   0.743
 9618TIP3   OH228817   0.680   5.541   0.157
 9618TIP3    H128818   0.719   5.524   0.243
 9618TIP3    H228819   0.605   5.597   0.175
 9619TIP3   OH228820   5.348   1.665   2.125
 9619TIP3    H128821   5.302   1.706   2.198
 9619TIP3    H228822   5.288   1.675   2.051
 9620TIP3   OH228823   4.748   5.036   5.265
 9620TIP3    H128824   4.823   4.987   5.230
 9620TIP3    H228825   4.755   5.026   5.360
 9621TIP3   OH228826   4.066   6.282   3.955
 9621TIP3    H128827   4.086   6.319   3.869
 9621TIP3    H228828   4.007   6.209   3.936
 9622TIP3   OH228829   0.533   4.583   3.076
 9622TIP3    H128830   0.516   4.660   3.129
 9622TIP3    H228831   0.624   4.592   3.049
 9623TIP3   OH228832   0.226   1.412   3.576
 9623TIP3    H128833   0.136   1.385   3.558
 9623TIP3    H228834   0.229   1.504   3.551
 9624TIP3   OH228835   6.040   3.803   5.189
 9624TIP3    H128836   5.991   3.793   5.271
 9624TIP3    H228837   6.049   3.714   5.155
 9625TIP3   OH228838   6.308   4.752   2.698
 9625TIP3    H128839   6.391   4.777   2.739
 9625TIP3    H228840   6.312   4.793   2.611
 9626TIP3   OH228841   5.740   5.271   4.234
 9626TIP3    H128842   5.706   5.338   4.175
 9626TIP3    H228843   5.668   5.209   4.244
 9627TIP3   OH228844   3.339   1.190   1.494
 9627TIP3    H128845   3.323   1.134   1.418
 9627TIP3    H228846   3.258   1.240   1.504
 9628TIP3   OH228847   1.987   4.675   3.915
 9628TIP3    H128848   1.990   4.649   4.007
 9628TIP3    H228849   2.075   4.657   3.882
 9629TIP3   OH228850   0.873   0.424   5.364
 9629TIP3    H128851   0.922   0.455   5.288
 9629TIP3    H228852   0.926   0.451   5.439
 9630TIP3   OH228853   0.483   4.686   1.117
 9630TIP3    H128854   0.578   4.699   1.115
 9630TIP3    H228855   0.447   4.774   1.109
 9631TIP3   OH228856   5.781   2.715   1.411
 9631TIP3    H128857   5.744   2.781   1.470
 9631TIP3    H228858   5.712   2.649   1.404
 9632TIP3   OH228859   3.407   6.103   2.304
 9632TIP3    H128860   3.496   6.114   2.270
 9632TIP3    H228861   3.402   6.163   2.378
 9633TIP3   OH228862   0.244   6.040   2.905
 9633TIP3    H128863   0.328   5.999   2.924
 9633TIP3    H228864   0.266   6.119   2.855
 9634TIP3   OH228865   5.320   4.838   5.792
 9634TIP3    H128866   5.237   4.879   5.770
 9634TIP3    H228867   5.316   4.752   5.751
 9635TIP3   OH228868   4.462   1.116   5.566
 9635TIP3    H128869   4.390   1.126   5.504
 9635TIP3    H228870   4.534   1.164   5.527
 9636TIP3   OH228871   1.341   0.800   5.620
 9636TIP3    H128872   1.342   0.807   5.525
 9636TIP3    H228873   1.382   0.716   5.639
 9637TIP3   OH228874   0.181   6.668   4.382
 9637TIP3    H128875   0.217   6.713   4.459
 9637TIP3    H228876   0.205   6.577   4.395
 9638TIP3   OH228877   6.894   5.513   5.863
 9638TIP3    H128878   6.920   5.540   5.775
 9638TIP3    H228879   6.813   5.463   5.850
 9639TIP3   OH228880   4.678   3.490   4.026
 9639TIP3    H128881   4.708   3.580   4.029
 9639TIP3    H228882   4.706   3.458   3.940
 9640TIP3   OH228883   5.162   0.360   0.045
 9640TIP3    H128884   5.170   0.423  -0.026
 9640TIP3    H228885   5.109   0.404   0.111
 9641TIP3   OH228886   1.859   1.373   3.404
 9641TIP3    H128887   1.795   1.350   3.471
 9641TIP3    H228888   1.818   1.444   3.355
 9642TIP3   OH228889   1.392   2.641   1.847
 9642TIP3    H128890   1.429   2.662   1.933
 9642TIP3    H228891   1.369   2.548   1.852
 9643TIP3   OH228892   3.164   5.095   3.170
 9643TIP3    H128893   3.149   5.054   3.085
 9643TIP3    H228894   3.216   5.031   3.218
 9644TIP3   OH228895   3.977   1.358   1.842
 9644TIP3    H128896   4.020   1.286   1.889
 9644TIP3    H228897   4.045   1.392   1.785
 9645TIP3   OH228898   5.649   1.519   1.882
 9645TIP3    H128899   5.736   1.496   1.917
 9645TIP3    H228900   5.619   1.438   1.840
 9646TIP3   OH228901   3.359   2.845   5.058
 9646TIP3    H128902   3.304   2.767   5.064
 9646TIP3    H228903   3.298   2.918   5.062
 9647TIP3   OH228904   6.751   5.726   4.221
 9647TIP3    H128905   6.764   5.768   4.306
 9647TIP3    H228906   6.658   5.738   4.202
 9648TIP3   OH228907   2.447   3.115   4.993
 9648TIP3    H128908   2.541   3.124   5.011
 9648TIP3    H228909   2.423   3.199   4.952
 9649TIP3   OH228910   0.573   4.875   1.308
 9649TIP3    H128911   0.561   4.786   1.341
 9649TIP3    H228912   0.493   4.895   1.261
 9650TIP3   OH228913   4.912   5.570   2.721
 9650TIP3    H128914   4.873   5.574   2.634
 9650TIP3    H228915   4.950   5.657   2.735
 9651TIP3   OH228916   2.856   2.105   5.704
 9651TIP3    H128917   2.901   2.054   5.636
 9651TIP3    H228918   2.790   2.155   5.657
 9652TIP3   OH228919   5.846   5.219   0.065
 9652TIP3    H128920   5.864   5.233   0.158
 9652TIP3    H228921   5.755   5.189   0.063
 9653TIP3   OH228922   0.524   6.454   2.126
 9653TIP3    H128923   0.569   6.420   2.203
 9653TIP3    H228924   0.582   6.433   2.053
 9654TIP3   OH228925   1.534   1.526   0.702
 9654TIP3    H128926   1.454   1.488   0.668
 9654TIP3    H228927   1.551   1.479   0.784
 9655TIP3   OH228928   5.780   1.316   4.861
 9655TIP3    H128929   5.772   1.251   4.931
 9655TIP3    H228930   5.698   1.365   4.864
 9656TIP3   OH228931   0.755   3.467   2.145
 9656TIP3    H128932   0.744   3.533   2.077
 9656TIP3    H228933   0.729   3.510   2.226
 9657TIP3   OH228934   2.244   4.439   0.137
 9657TIP3    H128935   2.304   4.451   0.063
 9657TIP3    H228936   2.275   4.360   0.181
 9658TIP3   OH228937   6.632   5.012   2.944
 9658TIP3    H128938   6.673   4.944   2.998
 9658TIP3    H228939   6.682   5.091   2.963
 9659TIP3   OH228940   4.923   1.244   3.446
 9659TIP3    H128941   5.000   1.197   3.414
 9659TIP3    H228942   4.907   1.311   3.380
 9660TIP3   OH228943   5.864   1.988   0.164
 9660TIP3    H128944   5.795   2.036   0.210
 9660TIP3    H228945   5.831   1.899   0.157
 9661TIP3   OH228946   6.218   4.119   3.781
 9661TIP3    H128947   6.162   4.064   3.726
 9661TIP3    H228948   6.251   4.059   3.848
 9662TIP3   OH228949   3.071   2.290   2.880
 9662TIP3    H128950   3.092   2.208   2.925
 9662TIP3    H228951   3.112   2.281   2.794
 9663TIP3   OH228952   3.953   6.233   3.019
 9663TIP3    H128953   3.961   6.169   2.948
 9663TIP3    H228954   3.867   6.273   3.006
 9664TIP3   OH228955   5.918   3.230   4.080
 9664TIP3    H128956   5.941   3.161   4.143
 9664TIP3    H228957   5.852   3.190   4.024
 9665TIP3   OH228958   3.681   4.918   3.684
 9665TIP3    H128959   3.591   4.901   3.713
 9665TIP3    H228960   3.703   4.842   3.631
 9666TIP3   OH228961   5.845   0.320   0.112
 9666TIP3    H128962   5.843   0.379   0.037
 9666TIP3    H228963   5.783   0.250   0.090
 9667TIP3   OH228964   2.529   5.016   0.526
 9667TIP3    H128965   2.521   4.927   0.492
 9667TIP3    H228966   2.610   5.050   0.486
 9668TIP3   OH228967   6.283   6.004   2.272
 9668TIP3    H128968   6.261   6.014   2.364
 9668TIP3    H228969   6.367   6.049   2.262
 9669TIP3   OH228970   6.408   5.221   3.707
 9669TIP3    H128971   6.369   5.308   3.701
 9669TIP3    H228972   6.429   5.210   3.799
 9670TIP3   OH228973   2.387   6.647   5.633
 9670TIP3    H128974   2.342   6.670   5.552
 9670TIP3    H228975   2.363   6.718   5.693
 9671TIP3   OH228976   2.741   6.731   3.500
 9671TIP3    H128977   2.764   6.823   3.488
 9671TIP3    H228978   2.660   6.732   3.551
 9672TIP3   OH228979   0.978   1.296   1.168
 9672TIP3    H128980   1.044   1.311   1.236
 9672TIP3    H228981   0.921   1.372   1.172
 9673TIP3   OH228982   6.280   1.223   4.748
 9673TIP3    H128983   6.188   1.199   4.739
 9673TIP3    H228984   6.282   1.283   4.822
 9674TIP3   OH228985   4.533   1.183   1.123
 9674TIP3    H128986   4.440   1.158   1.129
 9674TIP3    H228987   4.575   1.107   1.082
 9675TIP3   OH228988   6.878   4.415   4.669
 9675TIP3    H128989   6.930   4.335   4.655
 9675TIP3    H228990   6.895   4.468   4.592
 9676TIP3   OH228991   5.371   5.212  -0.003
 9676TIP3    H128992   5.357   5.217   0.091
 9676TIP3    H228993   5.289   5.242  -0.042
 9677TIP3   OH228994   2.003   4.622   4.705
 9677TIP3    H128995   2.086   4.656   4.737
 9677TIP3    H228996   2.009   4.527   4.717
 9678TIP3   OH228997   3.493   3.123   3.937
 9678TIP3    H128998   3.474   3.181   4.011
 9678TIP3    H228999   3.486   3.179   3.860
 9679TIP3   OH229000   3.237   3.259   1.682
 9679TIP3    H129001   3.148   3.256   1.717
 9679TIP3    H229002   3.231   3.315   1.605
 9680TIP3   OH229003   2.425   2.266   1.881
 9680TIP3    H129004   2.361   2.336   1.894
 9680TIP3    H229005   2.498   2.288   1.939
 9681TIP3   OH229006   5.962   4.147   2.797
 9681TIP3    H129007   5.884   4.159   2.850
 9681TIP3    H229008   5.960   4.221   2.735
 9682TIP3   OH229009   3.963   5.592   3.313
 9682TIP3    H129010   3.956   5.560   3.403
 9682TIP3    H229011   3.881   5.639   3.298
 9683TIP3   OH229012   0.816   5.636   0.607
 9683TIP3    H129013   0.857   5.632   0.693
 9683TIP3    H229014   0.843   5.721   0.571
 9684TIP3   OH229015   3.939   2.859   1.435
 9684TIP3    H129016   4.006   2.885   1.498
 9684TIP3    H229017   3.870   2.819   1.488
 9685TIP3   OH229018   0.208   3.920   4.281
 9685TIP3    H129019   0.288   3.958   4.245
 9685TIP3    H229020   0.238   3.866   4.354
 9686TIP3   OH229021   4.727   1.146   1.622
 9686TIP3    H129022   4.676   1.139   1.542
 9686TIP3    H229023   4.772   1.231   1.615
 9687TIP3   OH229024   5.772   4.295   2.998
 9687TIP3    H129025   5.839   4.363   2.996
 9687TIP3    H229026   5.690   4.342   2.981
 9688TIP3   OH229027   2.877   3.911   1.761
 9688TIP3    H129028   2.947   3.943   1.704
 9688TIP3    H229029   2.844   3.832   1.717
 9689TIP3   OH229030   1.880   0.443   5.422
 9689TIP3    H129031   1.792   0.465   5.390
 9689TIP3    H229032   1.922   0.528   5.434
 9690TIP3   OH229033   3.854   1.881   0.412
 9690TIP3    H129034   3.762   1.894   0.391
 9690TIP3    H229035   3.860   1.788   0.433
 9691TIP3   OH229036   0.299   1.176   5.518
 9691TIP3    H129037   0.214   1.132   5.517
 9691TIP3    H229038   0.287   1.249   5.579
 9692TIP3   OH229039   2.562   5.913   1.757
 9692TIP3    H129040   2.551   5.830   1.803
 9692TIP3    H229041   2.595   5.889   1.671
 9693TIP3   OH229042   6.213   0.847   2.115
 9693TIP3    H129043   6.138   0.833   2.057
 9693TIP3    H229044   6.232   0.760   2.151
 9694TIP3   OH229045   6.800   2.901   1.054
 9694TIP3    H129046   6.772   2.895   0.962
 9694TIP3    H229047   6.893   2.879   1.051
 9695TIP3   OH229048   1.913   6.707   1.893
 9695TIP3    H129049   1.836   6.681   1.842
 9695TIP3    H229050   1.929   6.632   1.951
 9696TIP3   OH229051   4.680   3.975   1.219
 9696TIP3    H129052   4.644   3.953   1.133
 9696TIP3    H229053   4.604   3.994   1.273
 9697TIP3   OH229054   6.590   0.724   2.429
 9697TIP3    H129055   6.557   0.635   2.420
 9697TIP3    H229056   6.534   0.777   2.372
 9698TIP3   OH229057   3.212   6.303   3.426
 9698TIP3    H129058   3.231   6.343   3.341
 9698TIP3    H229059   3.136   6.350   3.459
 9699TIP3   OH229060   6.571   1.190   4.763
 9699TIP3    H129061   6.478   1.209   4.776
 9699TIP3    H229062   6.597   1.140   4.841
 9700TIP3   OH229063   1.948   6.654   1.556
 9700TIP3    H129064   1.861   6.635   1.591
 9700TIP3    H229065   1.960   6.748   1.570
 9701TIP3   OH229066   0.872   5.606   2.059
 9701TIP3    H129067   0.883   5.693   2.098
 9701TIP3    H229068   0.929   5.550   2.111
 9702TIP3   OH229069   0.526   5.123   0.396
 9702TIP3    H129070   0.574   5.048   0.362
 9702TIP3    H229071   0.531   5.188   0.327
 9703TIP3   OH229072   1.897   1.777   0.490
 9703TIP3    H129073   1.883   1.828   0.570
 9703TIP3    H229074   1.889   1.686   0.518
 9704TIP3   OH229075   3.911   3.732   3.734
 9704TIP3    H129076   3.987   3.763   3.784
 9704TIP3    H229077   3.918   3.636   3.738
 9705TIP3   OH229078   1.885   5.419   3.272
 9705TIP3    H129079   1.843   5.343   3.230
 9705TIP3    H229080   1.813   5.463   3.317
 9706TIP3   OH229081   1.632   6.441   4.738
 9706TIP3    H129082   1.635   6.355   4.697
 9706TIP3    H229083   1.585   6.496   4.675
 9707TIP3   OH229084   1.773   2.910   1.172
 9707TIP3    H129085   1.691   2.926   1.124
 9707TIP3    H229086   1.744   2.876   1.257
 9708TIP3   OH229087   2.967   0.530   1.794
 9708TIP3    H129088   2.980   0.610   1.845
 9708TIP3    H229089   3.049   0.518   1.747
 9709TIP3   OH229090   0.812   2.879   0.106
 9709TIP3    H129091   0.876   2.827   0.155
 9709TIP3    H229092   0.848   2.967   0.105
 9710TIP3   OH229093   6.581   2.216   1.085
 9710TIP3    H129094   6.622   2.130   1.072
 9710TIP3    H229095   6.516   2.202   1.153
 9711TIP3   OH229096   6.010   3.811   2.104
 9711TIP3    H129097   6.075   3.743   2.120
 9711TIP3    H229098   5.969   3.826   2.189
 9712TIP3   OH229099   7.061   5.074   4.446
 9712TIP3    H129100   7.094   5.163   4.436
 9712TIP3    H229101   7.121   5.020   4.395
 9713TIP3   OH229102   4.715   0.041   3.519
 9713TIP3    H129103   4.656   0.055   3.445
 9713TIP3    H229104   4.673   0.087   3.592
 9714TIP3   OH229105   5.160   1.717   1.354
 9714TIP3    H129106   5.148   1.700   1.448
 9714TIP3    H229107   5.197   1.806   1.351
 9715TIP3   OH229108   0.906   4.690   2.402
 9715TIP3    H129109   0.876   4.771   2.360
 9715TIP3    H229110   0.995   4.678   2.369
 9716TIP3   OH229111   1.301   5.104   2.251
 9716TIP3    H129112   1.223   5.128   2.201
 9716TIP3    H229113   1.314   5.177   2.312
 9717TIP3   OH229114   4.077   6.550   5.154
 9717TIP3    H129115   3.991   6.511   5.172
 9717TIP3    H229116   4.126   6.537   5.235
 9718TIP3   OH229117   4.051   4.667   5.179
 9718TIP3    H129118   4.039   4.594   5.119
 9718TIP3    H229119   4.118   4.637   5.241
 9719TIP3   OH229120   3.529   2.348   2.380
 9719TIP3    H129121   3.438   2.320   2.366
 9719TIP3    H229122   3.525   2.444   2.375
 9720TIP3   OH229123   5.417   5.772   0.665
 9720TIP3    H129124   5.416   5.692   0.717
 9720TIP3    H229125   5.390   5.841   0.726
 9721TIP3   OH229126   0.197   6.127   3.183
 9721TIP3    H129127   0.210   6.100   3.092
 9721TIP3    H229128   0.271   6.090   3.230
 9722TIP3   OH229129   2.306   2.652   1.143
 9722TIP3    H129130   2.248   2.685   1.211
 9722TIP3    H229131   2.252   2.593   1.090
 9723TIP3   OH229132   0.761   5.308   4.722
 9723TIP3    H129133   0.821   5.278   4.790
 9723TIP3    H229134   0.745   5.400   4.742
 9724TIP3   OH229135   4.126   3.755   2.480
 9724TIP3    H129136   4.073   3.831   2.456
 9724TIP3    H229137   4.126   3.755   2.576
 9725TIP3   OH229138   5.569   1.221   1.301
 9725TIP3    H129139   5.636   1.161   1.269
 9725TIP3    H229140   5.582   1.301   1.250
 9726TIP3   OH229141   4.575   6.802   0.957
 9726TIP3    H129142   4.515   6.748   0.906
 9726TIP3    H229143   4.617   6.741   1.017
 9727TIP3   OH229144   3.513   0.110   5.631
 9727TIP3    H129145   3.525   0.202   5.607
 9727TIP3    H229146   3.599   0.071   5.619
 9728TIP3   OH229147   2.703   5.285   2.430
 9728TIP3    H129148   2.652   5.334   2.365
 9728TIP3    H229149   2.677   5.194   2.418
 9729TIP3   OH229150   2.963   3.552   2.949
 9729TIP3    H129151   3.041   3.549   3.004
 9729TIP3    H229152   2.891   3.533   3.009
 9730TIP3   OH229153   1.221   0.804   4.273
 9730TIP3    H129154   1.162   0.876   4.295
 9730TIP3    H229155   1.261   0.779   4.356
 9731TIP3   OH229156   2.257   0.202   2.846
 9731TIP3    H129157   2.198   0.237   2.912
 9731TIP3    H229158   2.337   0.254   2.856
 9732TIP3   OH229159   3.423   0.590   3.794
 9732TIP3    H129160   3.352   0.616   3.854
 9732TIP3    H229161   3.428   0.495   3.804
 9733TIP3   OH229162   1.127   3.534   0.819
 9733TIP3    H129163   1.058   3.471   0.843
 9733TIP3    H229164   1.088   3.619   0.835
 9734TIP3   OH229165   2.178   0.710   1.983
 9734TIP3    H129166   2.195   0.662   2.064
 9734TIP3    H229167   2.131   0.648   1.928
 9735TIP3   OH229168   5.492   5.990   2.960
 9735TIP3    H129169   5.493   6.056   3.030
 9735TIP3    H229170   5.492   5.906   3.006
 9736TIP3   OH229171   2.787   6.725   0.357
 9736TIP3    H129172   2.880   6.706   0.353
 9736TIP3    H229173   2.750   6.656   0.412
 9737TIP3   OH229174   6.240   2.767   1.382
 9737TIP3    H129175   6.319   2.721   1.409
 9737TIP3    H229176   6.248   2.778   1.288
 9738TIP3   OH229177   5.865   3.024   1.293
 9738TIP3    H129178   5.785   2.973   1.299
 9738TIP3    H229179   5.859   3.087   1.365
 9739TIP3   OH229180   1.780   1.425   3.018
 9739TIP3    H129181   1.869   1.391   3.019
 9739TIP3    H229182   1.740   1.386   2.940
 9740TIP3   OH229183   5.962   5.755   2.545
 9740TIP3    H129184   5.905   5.827   2.518
 9740TIP3    H229185   5.972   5.766   2.639
 9741TIP3   OH229186   2.100   5.310   0.064
 9741TIP3    H129187   2.185   5.301   0.020
 9741TIP3    H229188   2.116   5.278   0.153
 9742TIP3   OH229189   3.324   5.364   5.744
 9742TIP3    H129190   3.275   5.289   5.712
 9742TIP3    H229191   3.365   5.333   5.825
 9743TIP3   OH229192   3.469   3.429   4.995
 9743TIP3    H129193   3.487   3.346   5.039
 9743TIP3    H229194   3.555   3.458   4.963
 9744TIP3   OH229195   4.972   4.657   5.264
 9744TIP3    H129196   4.961   4.688   5.354
 9744TIP3    H229197   4.907   4.588   5.255
 9745TIP3   OH229198   0.500   2.693   3.317
 9745TIP3    H129199   0.524   2.778   3.281
 9745TIP3    H229200   0.509   2.704   3.412
 9746TIP3   OH229201   2.044   4.653   4.404
 9746TIP3    H129202   2.042   4.640   4.499
 9746TIP3    H229203   2.135   4.676   4.385
 9747TIP3   OH229204   7.202   1.255   2.823
 9747TIP3    H129205   7.271   1.313   2.854
 9747TIP3    H229206   7.180   1.200   2.898
 9748TIP3   OH229207   6.630   5.217   4.489
 9748TIP3    H129208   6.677   5.138   4.461
 9748TIP3    H229209   6.655   5.284   4.425
 9749TIP3   OH229210   4.613   6.241   4.883
 9749TIP3    H129211   4.654   6.302   4.945
 9749TIP3    H229212   4.574   6.298   4.817
   7.22332   6.81023   5.89781   0.00000   0.00000  -2.40778   0.00000  -2.40778  -3.40511
