Title
29212
    1ASP      N    1   1.874   3.346   4.054  0.2496  0.2461  0.2744
    1ASP    HT1    2   1.956   3.287   4.078  1.0041 -0.4878 -3.4604
    1ASP    HT2    3   1.906   3.441   4.026 -1.0239  1.1824  1.7599
    1ASP    HT3    4   1.838   3.298   3.969  1.3195 -2.1287  1.0812
    1ASP     CA    5   1.775   3.365   4.162  0.2007  0.0167  0.5675
    1ASP     HA    6   1.744   3.271   4.204 -2.0282  0.7185  0.6280
    1ASP     CB    7   1.841   3.457   4.271  0.3952 -0.2055 -0.2178
    1ASP    HB1    8   1.766   3.488   4.346  0.0073  1.3384 -1.1976
    1ASP    HB2    9   1.894   3.541   4.223 -0.8993 -0.7342 -2.7225
    1ASP     CG   10   1.943   3.379   4.344 -0.1275 -0.0942  0.1924
    1ASP    OD1   11   2.038   3.446   4.388 -0.1711  0.8271 -0.3670
    1ASP    OD2   12   1.940   3.254   4.338 -0.3817  0.1484  0.3656
    1ASP      C   13   1.649   3.421   4.109 -0.3069  1.0601  0.0406
    1ASP      O   14   1.596   3.361   4.012 -0.2413 -0.5589  0.4822
    2GLY      N   15   1.591   3.533   4.169 -0.4528  0.0488 -0.0602
    2GLY     HN   16   1.622   3.582   4.249  0.6943  0.1172 -0.5239
    2GLY     CA   17   1.462   3.585   4.136 -0.5701 -0.3380  0.1125
    2GLY    HA1   18   1.405   3.618   4.221 -0.4540 -0.5566  0.2757
    2GLY    HA2   19   1.405   3.514   4.078 -1.2086 -0.1288  0.4764
    2GLY      C   20   1.466   3.713   4.054  0.2986  0.3937  0.3048
    2GLY      O   21   1.370   3.741   3.984 -1.0611  0.4540  0.5109
    3ASP      N   22   1.567   3.795   4.047 -0.6095  0.4255  0.1834
    3ASP     HN   23   1.642   3.778   4.110 -1.5599 -3.4615  0.5420
    3ASP     CA   24   1.577   3.903   3.945 -0.0367  0.6075 -0.5472
    3ASP     HA   25   1.486   3.961   3.955  0.5722  1.5350 -0.1913
    3ASP     CB   26   1.701   3.993   3.974  0.2109 -0.1046 -0.7014
    3ASP    HB1   27   1.718   4.082   3.910 -2.2868  1.3290  0.4674
    3ASP    HB2   28   1.793   3.932   3.969 -0.5702 -1.4117  0.3035
    3ASP     CG   29   1.696   4.064   4.116 -0.1664  0.3503  0.4259
    3ASP    OD1   30   1.798   4.117   4.159  0.1616 -0.4020  0.7256
    3ASP    OD2   31   1.587   4.081   4.179 -0.1781 -0.1542 -0.3473
    3ASP      C   32   1.579   3.845   3.800  0.6646  0.2033  0.1322
    3ASP      O   33   1.617   3.733   3.780  0.0319  0.3299  0.1972
    4GLY      N   34   1.537   3.929   3.704 -0.1082 -0.1448  0.2512
    4GLY     HN   35   1.484   4.006   3.740  1.0133 -0.1458  2.0058
    4GLY     CA   36   1.545   3.916   3.562  0.0115 -0.9944 -0.1600
    4GLY    HA1   37   1.479   3.989   3.518 -0.9671 -0.7968  1.5398
    4GLY    HA2   38   1.504   3.820   3.535 -1.4622 -0.2264 -0.7372
    4GLY      C   39   1.692   3.921   3.506  0.4860 -0.0810 -0.7321
    4GLY      O   40   1.788   3.926   3.580 -0.0407 -0.1943 -0.0063
    5PRO      N   41   1.704   3.915   3.374 -0.4566 -0.3986  0.0081
    5PRO     CD   42   1.603   3.860   3.283 -0.1931  0.3945  0.2711
    5PRO    HD1   43   1.515   3.928   3.282 -0.3056  0.2509 -0.9466
    5PRO    HD2   44   1.574   3.756   3.307  0.1285  0.2170 -0.1031
    5PRO     CA   45   1.834   3.938   3.305  0.0132 -0.1624 -0.5164
    5PRO     HA   46   1.892   3.850   3.325  0.9056  0.1889 -1.4620
    5PRO     CB   47   1.799   3.951   3.155 -0.1694  0.8509  0.0418
    5PRO    HB1   48   1.879   3.920   3.084  0.1234 -2.3189  1.5608
    5PRO    HB2   49   1.776   4.057   3.133 -2.1691  0.2851 -0.8493
    5PRO     CG   50   1.673   3.861   3.144  0.0790  0.1466 -0.0621
    5PRO    HG1   51   1.610   3.894   3.059 -1.1044  2.2232  1.5286
    5PRO    HG2   52   1.715   3.758   3.134  0.5216  0.3059  0.1446
    5PRO      C   53   1.923   4.054   3.350  0.4006  0.4415 -0.1758
    5PRO      O   54   1.872   4.171   3.363  0.0457 -0.2295  0.0883
    6GLY      N   55   2.050   4.024   3.388 -1.0078 -0.5588  0.3055
    6GLY     HN   56   2.086   3.932   3.375 -1.1965 -0.4340 -1.4191
    6GLY     CA   57   2.144   4.140   3.409 -0.4566  0.0013 -0.0070
    6GLY    HA1   58   2.237   4.104   3.452 -1.0808 -1.1869  0.4092
    6GLY    HA2   59   2.094   4.204   3.480  0.4881 -1.6101  2.2627
    6GLY      C   60   2.183   4.203   3.281  0.4189 -0.2900 -0.5035
    6GLY      O   61   2.133   4.179   3.172 -0.0928  0.3191 -0.4638
    7ASP      N   62   2.273   4.307   3.296  0.2631 -0.2798 -0.3838
    7ASP     HN   63   2.315   4.333   3.383 -0.5258 -0.7437  0.1492
    7ASP     CA   64   2.324   4.402   3.196  0.2756 -0.0410  0.5658
    7ASP     HA   65   2.240   4.446   3.144 -0.8364  0.9329  3.0355
    7ASP     CB   66   2.388   4.515   3.271  0.2439  0.0086 -0.2896
    7ASP    HB1   67   2.439   4.590   3.209  0.3887  0.4739  0.3807
    7ASP    HB2   68   2.462   4.473   3.343  0.6992  2.8299  1.0218
    7ASP     CG   69   2.281   4.605   3.335  0.2424  0.3016  0.0054
    7ASP    OD1   70   2.317   4.693   3.417  0.2254 -0.6017 -0.0303
    7ASP    OD2   71   2.162   4.604   3.294 -0.1233 -0.4443 -0.1720
    7ASP      C   72   2.413   4.321   3.096  0.2710  0.1495  0.2227
    7ASP      O   73   2.481   4.229   3.145 -0.7186 -0.2986 -0.1712
    8PRO      N   74   2.419   4.345   2.961  0.4259 -1.0844  0.2961
    8PRO     CD   75   2.334   4.445   2.893  0.0061  0.1934 -0.4514
    8PRO    HD1   76   2.371   4.542   2.931  0.6614 -0.5286  0.8075
    8PRO    HD2   77   2.227   4.437   2.925  0.7466 -1.4907  1.8847
    8PRO     CA   78   2.479   4.262   2.857 -0.2895 -0.0033 -0.1065
    8PRO     HA   79   2.410   4.184   2.832 -0.6101  0.1412  0.3120
    8PRO     CB   80   2.477   4.350   2.732  0.1561 -0.5410  0.0327
    8PRO    HB1   81   2.475   4.285   2.642  1.8419  0.5062 -0.8151
    8PRO    HB2   82   2.556   4.426   2.716  0.1865 -0.6956 -0.5919
    8PRO     CG   83   2.342   4.417   2.745  0.7044 -0.0591 -1.2947
    8PRO    HG1   84   2.339   4.518   2.698  0.1371  0.5283 -0.0596
    8PRO    HG2   85   2.256   4.353   2.718  0.0246  0.2571  0.0272
    8PRO      C   86   2.612   4.196   2.883 -0.5210  0.4204  0.2855
    8PRO      O   87   2.708   4.265   2.919  0.4566  0.4688 -0.4814
    9GLY      N   88   2.628   4.063   2.848  0.4704  0.2157  0.2454
    9GLY     HN   89   2.548   4.012   2.820 -0.1688  1.4979 -0.3163
    9GLY     CA   90   2.752   3.981   2.839  0.5431 -0.2590 -0.6069
    9GLY    HA1   91   2.715   3.881   2.822 -0.5126 -0.0103  0.0960
    9GLY    HA2   92   2.807   4.003   2.928 -0.1257  2.7126 -0.8328
    9GLY      C   93   2.837   4.025   2.721  0.8488  0.5648 -0.1299
    9GLY      O   94   2.890   4.133   2.717 -0.2051  0.5768 -0.2100
   10ASP      N   95   2.855   3.935   2.623  0.1180 -0.2712  0.0901
   10ASP     HN   96   2.809   3.847   2.630 -0.8349  0.2648  0.7717
   10ASP     CA   97   2.938   3.950   2.508  0.5488 -0.6850 -0.0089
   10ASP     HA   98   3.036   3.966   2.549  0.5057  2.5977 -0.9193
   10ASP     CB   99   2.945   3.810   2.436 -0.7917 -0.0145  0.6292
   10ASP    HB1  100   3.000   3.826   2.341 -2.2240  2.4278  0.1341
   10ASP    HB2  101   2.844   3.775   2.406 -0.0181 -0.5724 -1.4677
   10ASP     CG  102   3.009   3.701   2.521  0.5589 -0.0528  0.0631
   10ASP    OD1  103   3.123   3.718   2.572  0.9207 -0.5868  0.1920
   10ASP    OD2  104   2.936   3.596   2.544 -0.0057 -0.4522  0.4085
   10ASP      C  105   2.928   4.070   2.411 -0.0432  0.0752 -0.3657
   10ASP      O  106   2.826   4.098   2.353 -0.4316  0.0119 -0.2577
   11GLY      N  107   3.045   4.140   2.383  0.2379  0.8183  0.0044
   11GLY     HN  108   3.125   4.110   2.434  0.3484 -1.5736 -1.3971
   11GLY     CA  109   3.052   4.254   2.301 -0.3811  0.4604  0.6946
   11GLY    HA1  110   3.128   4.311   2.353  1.7171 -1.0351 -0.5529
   11GLY    HA2  111   2.958   4.300   2.274  0.4213  1.1537 -1.1307
   11GLY      C  112   3.121   4.211   2.170 -0.0322 -0.7011  0.6417
   11GLY    OT1  113   3.041   4.168   2.079 -0.5928 -0.8322  0.5569
   11GLY    OT2  114   3.250   4.205   2.164  0.3227  0.3559 -0.1179
   12SOD    SOD  115   1.269   0.806   0.149 -0.2095  0.5232 -0.1427
   13SOD    SOD  116   0.293   6.769   3.374  0.2184 -0.0319 -0.2321
   14SOD    SOD  117   6.344   5.008   3.437 -0.1733  0.1580  0.0690
   15SOD    SOD  118   6.102   1.332   3.430 -0.1754  0.5756  0.0260
   16SOD    SOD  119   3.365   4.826   2.457 -0.2238 -0.5800 -0.1092
   17SOD    SOD  120   0.979   5.275   3.024 -0.1963 -0.4298 -0.7306
   18SOD    SOD  121   0.929   1.798   2.189  0.3271 -0.2410  0.1462
   19SOD    SOD  122   5.425   1.055   3.657 -0.4360 -0.1863  0.3596
   20SOD    SOD  123   2.418   1.539   5.021 -0.0660 -0.2936  0.4321
   21SOD    SOD  124   3.168   3.981   1.634  0.0228  0.1803  0.2860
   22SOD    SOD  125   0.991   3.578   0.153 -0.2548 -0.4817  0.3869
   23SOD    SOD  126   3.448   3.229   2.972  0.7520 -0.4103 -0.5484
   24SOD    SOD  127   2.647   5.202   3.552  0.2345  0.2885  0.0466
   25SOD    SOD  128   4.780   1.447   5.191 -0.0070 -0.1117 -0.1645
   26SOD    SOD  129   3.248   3.869   3.497  0.5680 -0.3548 -0.6106
   27SOD    SOD  130   0.508   1.081   0.139  0.3618 -0.0717  0.6753
   28SOD    SOD  131   3.978   1.873   1.295  0.1440 -0.0559  0.0123
   29SOD    SOD  132   4.216   1.049   4.698  0.0309 -0.0190  0.1180
   30SOD    SOD  133   5.777   6.424   1.591 -0.2294 -0.1306  0.1789
   31SOD    SOD  134   1.831   2.697   2.955 -0.2118 -0.0860  0.2382
   32SOD    SOD  135   4.641   3.479   2.040  0.2933 -0.5968  0.1882
   33SOD    SOD  136   3.357   1.498   2.384 -0.2191  0.1094 -0.4971
   34SOD    SOD  137   4.059   5.111   0.762  0.0681 -0.0993  0.6975
   35SOD    SOD  138   4.660   2.950   3.199 -0.0062  0.0619  0.3098
   36SOD    SOD  139   1.846   5.053   1.594 -0.0170 -0.2611 -0.2574
   37SOD    SOD  140   1.486   0.346   4.493  0.3821  0.2247 -0.0534
   38SOD    SOD  141   4.787   3.818   3.641  0.3204  0.5140 -0.4724
   39SOD    SOD  142   6.477   2.583   3.148  0.2823 -0.2582 -0.1836
   40SOD    SOD  143   1.003   0.715   1.878  0.3251  0.1777  0.2952
   41SOD    SOD  144   6.424   2.048   4.972 -0.3604  0.0000  0.4122
   42SOD    SOD  145   2.169   5.813   0.686  0.3272 -0.3459 -0.0139
   43CLA    CLA  146   4.943   6.736   3.134  0.3659  0.1716  0.0624
   44CLA    CLA  147   3.058   2.404   0.031  0.0947  0.3798 -0.0583
   45CLA    CLA  148   4.635   4.191   2.329  0.5545  0.3223 -0.1813
   46CLA    CLA  149   1.271   1.479   2.576 -0.1966 -0.0688 -0.3041
   47CLA    CLA  150   2.364   3.757   1.215  0.1715 -0.1573 -0.1991
   48CLA    CLA  151   4.792   1.388   1.934  0.4108  0.1039  0.3961
   49CLA    CLA  152   2.640   0.073   1.950 -0.0723  0.6184 -0.1715
   50CLA    CLA  153   5.936   5.991   1.916  0.0431 -0.0027 -0.0535
   51CLA    CLA  154   5.381   4.904   2.414 -0.2783  0.3605 -0.1915
   52CLA    CLA  155   7.151   1.831   5.585  0.1068 -0.2943  0.2833
   53CLA    CLA  156   7.181   5.287   4.914  0.3466 -0.4132 -0.1725
   54CLA    CLA  157   4.072   2.997   2.040 -0.5615 -0.6571 -0.1616
   55CLA    CLA  158   7.070   4.959   0.154  0.3466 -0.2916 -0.3947
   56CLA    CLA  159   5.205   0.079   5.692  0.0682  0.1361 -0.1951
   57CLA    CLA  160   1.124   0.175   4.777  0.1950  0.3774  0.1539
   58CLA    CLA  161   5.139   1.833   1.060 -0.3347  0.2087 -0.3499
   59CLA    CLA  162   5.337   0.300   4.178  0.2204 -0.4052  0.2031
   60CLA    CLA  163   4.536   3.897   4.331  0.1436 -0.1923 -0.2002
   61CLA    CLA  164   2.259   2.636   3.592  0.2199  0.0217  0.0639
   62CLA    CLA  165   0.310   1.293   0.588  0.1045 -0.0218 -0.4015
   63CLA    CLA  166   4.568   3.224   5.339  0.1579 -0.0929  0.0953
   64CLA    CLA  167   1.756   5.473   1.099 -0.3689  0.2732 -0.1120
   65CLA    CLA  168   1.985   0.322   4.408  0.0415 -0.4128  0.4952
   66CLA    CLA  169   2.485   5.837   0.212  0.0672  0.1413  0.4297
   67CLA    CLA  170   5.971   2.332   0.942  0.0120  0.0399 -0.3090
   68CLA    CLA  171   0.376   2.978   5.139  0.0313  0.1428 -0.0437
   69CLA    CLA  172   6.038   3.241   3.480 -0.0807 -0.0188  0.0190
   70TIP3   OH2  173   4.942   5.382   4.032  0.2171  0.7669  0.2086
   70TIP3    H1  174   4.879   5.311   4.043 -0.1102  1.3108  2.1352
   70TIP3    H2  175   4.902   5.439   3.965 -0.8832  0.5940  0.7031
   71TIP3   OH2  176   7.075   0.887   3.013 -0.2861 -0.1562  1.0552
   71TIP3    H1  177   7.041   0.826   3.078 -1.0560 -2.3665 -1.2731
   71TIP3    H2  178   7.150   0.842   2.974  0.3240  1.2180  0.5781
   72TIP3   OH2  179   1.593   5.259   4.199 -0.0681  0.1302  0.4864
   72TIP3    H1  180   1.659   5.239   4.132 -1.2959 -1.6845 -0.2475
   72TIP3    H2  181   1.536   5.324   4.157  1.0064  1.4648  1.0090
   73TIP3   OH2  182   5.884   5.953   1.518  0.0553  0.6499 -0.0928
   73TIP3    H1  183   5.838   5.938   1.600 -1.5571  1.9285 -0.7155
   73TIP3    H2  184   5.952   6.017   1.541 -0.4857  1.1204  0.2235
   74TIP3   OH2  185   6.018   6.531   2.145 -0.2073  0.1193  0.4319
   74TIP3    H1  186   5.996   6.601   2.207 -1.2812 -0.4361  0.7123
   74TIP3    H2  187   5.950   6.537   2.077 -0.2161 -0.5374  0.3781
   75TIP3   OH2  188   6.944   6.644   5.124 -0.4365 -0.2191  0.3242
   75TIP3    H1  189   7.011   6.626   5.057  0.7623 -1.0350  1.6869
   75TIP3    H2  190   6.973   6.725   5.166  0.8899 -1.6015  2.2504
   76TIP3   OH2  191   0.632   5.183   4.577  0.1818 -0.0134 -0.1860
   76TIP3    H1  192   0.571   5.234   4.629  0.9229 -1.2740  2.0456
   76TIP3    H2  193   0.588   5.171   4.493 -1.4418  1.3662  0.4212
   77TIP3   OH2  194   0.462   3.814   5.250  0.2286  0.4587 -0.4481
   77TIP3    H1  195   0.547   3.781   5.281 -0.4803 -0.5483  0.4833
   77TIP3    H2  196   0.451   3.773   5.164  0.2434 -0.2102 -0.1391
   78TIP3   OH2  197   6.424   5.250   0.141 -0.3228 -0.7872  0.1579
   78TIP3    H1  198   6.448   5.179   0.081 -0.2337 -0.6686  0.0506
   78TIP3    H2  199   6.475   5.325   0.110  0.5307 -0.9919  1.0268
   79TIP3   OH2  200   5.978   2.094   5.787 -0.2154  0.6881 -0.2405
   79TIP3    H1  201   5.989   2.040   5.866  0.9375  0.9002 -0.2407
   79TIP3    H2  202   5.904   2.151   5.808  0.6560  1.3964  1.0742
   80TIP3   OH2  203   0.994   1.292   0.627  0.6943  0.4500 -0.2366
   80TIP3    H1  204   1.061   1.361   0.627 -0.6548  1.8354 -1.1678
   80TIP3    H2  205   0.931   1.320   0.561  0.7053 -2.3473 -1.5660
   81TIP3   OH2  206   6.842   1.178   0.288  0.1796 -0.0735 -0.6622
   81TIP3    H1  207   6.914   1.120   0.310 -0.7576  0.1056  3.8769
   81TIP3    H2  208   6.866   1.262   0.327 -1.5113  0.6077 -0.9915
   82TIP3   OH2  209   1.403   0.938   3.423 -0.5545 -0.3414 -0.2634
   82TIP3    H1  210   1.442   0.866   3.373 -1.9482 -0.5034 -1.1700
   82TIP3    H2  211   1.333   0.972   3.367 -1.0060  0.6467  0.8427
   83TIP3   OH2  212   2.939   0.258   4.786 -0.4859 -0.1340 -0.0440
   83TIP3    H1  213   2.890   0.177   4.776 -1.0548 -0.0761  1.8129
   83TIP3    H2  214   2.873   0.324   4.808 -0.0269  0.8567 -1.4915
   84TIP3   OH2  215   4.375   3.439   3.150  0.3188 -1.0375  0.4824
   84TIP3    H1  216   4.318   3.410   3.221  2.3830 -0.1301  2.6704
   84TIP3    H2  217   4.410   3.358   3.113 -0.7223 -1.5280  0.5200
   85TIP3   OH2  218   2.128   2.976   4.517 -0.1262  0.3686 -0.6088
   85TIP3    H1  219   2.065   2.939   4.456  0.2741 -1.5436  0.0695
   85TIP3    H2  220   2.167   3.050   4.470  1.1717 -1.8291 -3.2760
   86TIP3   OH2  221   1.743   2.595   3.818  0.1387  0.1844  0.2341
   86TIP3    H1  222   1.738   2.659   3.746 -1.4833 -1.3878 -1.1681
   86TIP3    H2  223   1.832   2.561   3.814 -0.1345 -0.4337 -1.6056
   87TIP3   OH2  224   6.741   0.665   4.956  0.0732 -0.7318  0.3771
   87TIP3    H1  225   6.666   0.706   4.998  0.3504  2.4759 -1.9252
   87TIP3    H2  226   6.708   0.581   4.925 -1.2632 -1.3220  3.1026
   88TIP3   OH2  227   3.613   0.766   1.534  0.3348  0.6572 -0.3385
   88TIP3    H1  228   3.574   0.786   1.449 -1.1977 -0.5418  0.0347
   88TIP3    H2  229   3.540   0.733   1.586  1.9426 -2.3301  0.2106
   89TIP3   OH2  230   0.475   3.920   1.418  0.0262 -0.1238 -0.2682
   89TIP3    H1  231   0.546   3.870   1.459  1.2778  2.0309  0.3486
   89TIP3    H2  232   0.396   3.894   1.467  1.1884  1.0474  2.4413
   90TIP3   OH2  233   2.715   0.113   2.908  0.1821  0.0599 -0.2942
   90TIP3    H1  234   2.640   0.063   2.876 -0.5872  0.7732  0.3426
   90TIP3    H2  235   2.782   0.047   2.926  0.0592 -0.5014 -1.7490
   91TIP3   OH2  236   1.030   1.676   3.038 -0.1674 -0.2899  0.5275
   91TIP3    H1  237   0.947   1.631   3.022 -0.6211  0.5640  0.4773
   91TIP3    H2  238   1.007   1.768   3.048  0.9959  0.3756 -1.9476
   92TIP3   OH2  239   4.729   2.759   1.092  0.0343 -0.6983  0.2547
   92TIP3    H1  240   4.750   2.783   1.002  0.5923 -0.5912  0.4100
   92TIP3    H2  241   4.666   2.687   1.085 -1.3275  0.4882 -0.2303
   93TIP3   OH2  242   5.154   4.560   4.645 -0.3880 -0.0098  0.0800
   93TIP3    H1  243   5.188   4.647   4.665 -1.8507  0.1692  2.0607
   93TIP3    H2  244   5.065   4.575   4.613 -0.2142 -0.7341 -0.8101
   94TIP3   OH2  245   5.818   4.561   2.393  0.1724  0.4122 -0.6332
   94TIP3    H1  246   5.780   4.576   2.307 -0.1075  1.2012 -0.3785
   94TIP3    H2  247   5.885   4.629   2.403  0.0251  0.4890 -0.1297
   95TIP3   OH2  248   1.719   2.599   3.350  0.0221 -0.0318  0.1065
   95TIP3    H1  249   1.743   2.544   3.424  1.4217 -1.0391 -1.0358
   95TIP3    H2  250   1.802   2.634   3.318 -0.4891  0.0304 -1.2211
   96TIP3   OH2  251   3.608   3.972   0.202 -0.1002 -0.5378  0.5421
   96TIP3    H1  252   3.651   3.893   0.236  2.7786 -0.0279 -1.5159
   96TIP3    H2  253   3.544   3.939   0.139  1.2630 -1.3122 -0.4994
   97TIP3   OH2  254   5.963   0.348   0.633 -0.3037 -0.2961 -0.2586
   97TIP3    H1  255   6.000   0.260   0.641 -1.8003 -0.8304  1.6136
   97TIP3    H2  256   5.895   0.340   0.566 -1.2017 -0.8930  0.6898
   98TIP3   OH2  257   3.941   0.574   4.540  0.3379 -0.1168 -0.1383
   98TIP3    H1  258   4.003   0.518   4.493 -0.9159 -2.0737  0.4177
   98TIP3    H2  259   3.900   0.516   4.604 -0.6898  1.5816  0.8246
   99TIP3   OH2  260   0.192   2.399   2.365  0.5386 -0.0063  0.7229
   99TIP3    H1  261   0.173   2.339   2.437  0.4749 -0.0276  0.6879
   99TIP3    H2  262   0.118   2.459   2.364 -1.7628 -2.5789 -2.1073
  100TIP3   OH2  263   2.524   4.695   1.089 -0.3671 -0.5246 -0.2229
  100TIP3    H1  264   2.564   4.767   1.041 -0.7950 -1.0539 -1.4067
  100TIP3    H2  265   2.460   4.737   1.147  0.2657  0.1336  0.0091
  101TIP3   OH2  266   5.771   6.510   2.751  0.1001 -1.0308 -0.4872
  101TIP3    H1  267   5.845   6.501   2.691 -1.1261 -2.4573 -1.8648
  101TIP3    H2  268   5.767   6.426   2.797 -0.2803 -0.7317  0.0392
  102TIP3   OH2  269   5.341   2.685   1.798  0.2999 -0.1847 -0.1827
  102TIP3    H1  270   5.428   2.647   1.812 -0.1247 -1.4581 -0.8555
  102TIP3    H2  271   5.285   2.610   1.782 -1.2198  0.5108  1.5802
  103TIP3   OH2  272   0.121   2.682   5.364 -0.3373 -0.3993 -0.1888
  103TIP3    H1  273   0.171   2.659   5.286  1.2610  0.7561  0.4489
  103TIP3    H2  274   0.052   2.615   5.369 -0.5165 -0.4739 -2.5742
  104TIP3   OH2  275   4.347   6.476   1.869 -0.4062 -0.1920  0.1889
  104TIP3    H1  276   4.418   6.423   1.832 -1.4253 -2.6167  1.5122
  104TIP3    H2  277   4.267   6.440   1.830 -1.1131  0.5791  0.8823
  105TIP3   OH2  278   2.400   3.955   3.091  0.2849 -0.3724 -0.6598
  105TIP3    H1  279   2.465   3.885   3.099 -0.3591 -0.9241 -0.1620
  105TIP3    H2  280   2.436   4.027   3.143  0.5603 -0.6251 -0.4961
  106TIP3   OH2  281   4.606   0.655   0.661  0.3516  0.0368  0.2446
  106TIP3    H1  282   4.605   0.719   0.591 -0.2581 -0.2383 -0.0022
  106TIP3    H2  283   4.595   0.706   0.741 -2.3683  0.1119 -0.0722
  107TIP3   OH2  284   5.289   2.604   4.587 -0.1744  0.2710  0.2939
  107TIP3    H1  285   5.295   2.535   4.521  0.5078 -0.3697  1.0090
  107TIP3    H2  286   5.359   2.583   4.650 -1.0934  0.6090  1.4560
  108TIP3   OH2  287   1.625   0.533   5.371 -0.0303 -0.8023  0.3143
  108TIP3    H1  288   1.679   0.468   5.417  0.6947 -0.7000 -0.3676
  108TIP3    H2  289   1.627   0.610   5.428  0.7505 -0.7208  0.1945
  109TIP3   OH2  290   3.765   2.922   1.608 -0.4130  0.5687  0.0863
  109TIP3    H1  291   3.672   2.909   1.590 -0.2471  1.1919 -1.2968
  109TIP3    H2  292   3.766   2.981   1.684 -1.1397  0.3002  0.3150
  110TIP3   OH2  293   4.486   4.395   3.817  0.5897 -0.2879 -0.6663
  110TIP3    H1  294   4.507   4.408   3.910  0.7058 -0.5391 -0.6575
  110TIP3    H2  295   4.422   4.464   3.798 -0.2356 -0.8784 -0.1299
  111TIP3   OH2  296   0.923   0.013   1.484  0.0468 -0.4090 -0.8080
  111TIP3    H1  297   0.997  -0.034   1.445  1.6878  0.8808  0.5749
  111TIP3    H2  298   0.960   0.055   1.562 -1.7709  1.6119 -0.9542
  112TIP3   OH2  299   1.777   0.015   2.760  0.1372 -0.0338  0.0563
  112TIP3    H1  300   1.686   0.023   2.735 -0.3701  1.3838  2.1207
  112TIP3    H2  301   1.801   0.101   2.794  1.8896 -0.6979  0.6352
  113TIP3   OH2  302   3.814   6.523   0.459  0.1970 -0.4121 -0.0538
  113TIP3    H1  303   3.740   6.467   0.480  1.2324 -0.6684  3.4685
  113TIP3    H2  304   3.890   6.465   0.460  0.9511  0.5393  0.8769
  114TIP3   OH2  305   3.102   5.413   5.389 -0.0680  0.0889  0.2898
  114TIP3    H1  306   3.051   5.341   5.427 -0.5344  1.0222  1.5247
  114TIP3    H2  307   3.039   5.465   5.341  0.1195  0.0933  0.0462
  115TIP3   OH2  308   6.891   5.134   1.081 -0.3237 -0.2000  0.2900
  115TIP3    H1  309   6.892   5.205   1.017  0.8696  0.5927  1.1463
  115TIP3    H2  310   6.798   5.110   1.088 -0.3799 -1.1767 -2.5962
  116TIP3   OH2  311   3.386   1.672   3.952 -0.3833 -0.2454  0.5318
  116TIP3    H1  312   3.443   1.736   3.909 -0.0647 -1.4997 -1.0036
  116TIP3    H2  313   3.299   1.687   3.914 -0.2630 -0.8587  0.0088
  117TIP3   OH2  314   1.834   4.887   2.057 -0.2149  0.2124  0.1152
  117TIP3    H1  315   1.846   4.970   2.010 -0.1272  0.8573  1.2330
  117TIP3    H2  316   1.922   4.851   2.064 -0.2191  0.1503 -0.1565
  118TIP3   OH2  317   6.312   4.556   4.938 -0.8399  0.8738  0.2228
  118TIP3    H1  318   6.266   4.578   5.019 -1.0467 -0.9283  0.6400
  118TIP3    H2  319   6.257   4.489   4.897  0.0967  0.5850 -0.5841
  119TIP3   OH2  320   4.895   0.778   3.846 -0.4142  0.1175  0.3504
  119TIP3    H1  321   4.842   0.809   3.919  1.4840  0.0881  1.8421
  119TIP3    H2  322   4.876   0.685   3.840 -0.5143  0.0957  0.9049
  120TIP3   OH2  323   4.715   5.302   2.823  0.7974  0.3604 -0.8420
  120TIP3    H1  324   4.796   5.326   2.868  0.5440 -1.5743  0.8304
  120TIP3    H2  325   4.652   5.369   2.848  1.1785  0.3581  0.1615
  121TIP3   OH2  326   5.129   1.760   1.950  0.2615 -0.0791 -0.6004
  121TIP3    H1  327   5.041   1.788   1.976  0.9895  0.1951  1.7721
  121TIP3    H2  328   5.188   1.808   2.007  1.9694 -0.5761 -1.8529
  122TIP3   OH2  329   1.263   3.960   3.323  0.3906  0.1954  0.3830
  122TIP3    H1  330   1.177   3.993   3.296  0.9187  0.0363 -1.6367
  122TIP3    H2  331   1.292   4.021   3.391 -1.6586 -0.2450  1.7512
  123TIP3   OH2  332   5.883   4.761   4.041  0.0017 -0.2532 -0.1262
  123TIP3    H1  333   5.807   4.781   4.095 -0.1895  0.0228 -0.4924
  123TIP3    H2  334   5.918   4.846   4.015  1.2219 -0.3433  1.0975
  124TIP3   OH2  335   3.685   6.092   1.618  0.6039  0.3412  0.1990
  124TIP3    H1  336   3.722   6.024   1.674  1.2466  2.6725  2.8491
  124TIP3    H2  337   3.747   6.165   1.624 -1.7159  2.4456  0.4322
  125TIP3   OH2  338   3.856   0.804   4.620 -0.1849 -0.4466 -0.0844
  125TIP3    H1  339   3.865   0.855   4.540  1.2864  0.7504  0.7879
  125TIP3    H2  340   3.900   0.721   4.602 -1.5894 -1.0000 -1.1322
  126TIP3   OH2  341   5.807   3.376   5.419  0.2973  0.4022 -0.0398
  126TIP3    H1  342   5.878   3.405   5.477  0.1934 -0.0230  0.3072
  126TIP3    H2  343   5.769   3.301   5.465 -1.2146  1.4010  0.4125
  127TIP3   OH2  344   0.941   0.044   2.487  0.1964  0.3261 -0.1802
  127TIP3    H1  345   0.874  -0.023   2.502 -0.1159  0.5582 -0.5212
  127TIP3    H2  346   0.969   0.070   2.575 -0.8719  0.9343  0.0008
  128TIP3   OH2  347   6.537   2.969   1.596  0.1951 -0.1762 -0.3433
  128TIP3    H1  348   6.469   3.029   1.566 -0.6555 -0.6472  0.5584
  128TIP3    H2  349   6.517   2.956   1.689  0.3818 -1.8029 -0.5076
  129TIP3   OH2  350   4.528   6.779   4.056 -0.1348  0.0304 -0.2512
  129TIP3    H1  351   4.486   6.829   4.126  2.2444  1.3872  0.2954
  129TIP3    H2  352   4.598   6.730   4.099  0.4683 -0.2137 -1.4701
  130TIP3   OH2  353   2.723   6.345   2.655  0.2950 -0.5966 -0.3082
  130TIP3    H1  354   2.763   6.304   2.578  0.1733 -0.1385 -0.6210
  130TIP3    H2  355   2.700   6.433   2.625  1.6001  0.1073  0.6888
  131TIP3   OH2  356   3.272   6.585   5.884  0.0227 -0.1716  0.2856
  131TIP3    H1  357   3.259   6.521   5.814 -0.2895  0.3439 -0.1346
  131TIP3    H2  358   3.202   6.649   5.871  1.4670  1.3358 -0.4986
  132TIP3   OH2  359   1.782   3.920   5.612  0.4508  0.5132 -0.0250
  132TIP3    H1  360   1.847   3.957   5.672  0.0636  1.8781 -0.3901
  132TIP3    H2  361   1.724   3.994   5.592  0.5779  0.1202 -2.0822
  133TIP3   OH2  362   2.017   2.791   1.485  0.5158  0.4370 -0.0818
  133TIP3    H1  363   1.941   2.771   1.430  0.6002  1.1670 -0.4721
  133TIP3    H2  364   2.000   2.878   1.519  1.2549  0.6760 -0.3045
  134TIP3   OH2  365   5.585   0.587   3.771  0.0430  0.9774  0.5807
  134TIP3    H1  366   5.617   0.497   3.782 -0.9200  0.4885 -0.4203
  134TIP3    H2  367   5.593   0.626   3.858  0.1461 -0.1899  1.1198
  135TIP3   OH2  368   3.542   5.406   3.892 -0.3702  0.1601 -0.3082
  135TIP3    H1  369   3.487   5.448   3.826  0.9433  1.8775 -0.3994
  135TIP3    H2  370   3.527   5.313   3.880 -0.0524  0.3783 -3.2128
  136TIP3   OH2  371   6.104   6.551   5.871  0.3054  0.0077 -0.0774
  136TIP3    H1  372   6.110   6.601   5.789 -2.3282 -0.0642 -0.4016
  136TIP3    H2  373   6.133   6.613   5.939 -0.7065  1.2487 -0.7282
  137TIP3   OH2  374   1.136   0.082   1.659 -0.4933  0.0196 -0.0479
  137TIP3    H1  375   1.131   0.167   1.614  0.0596  0.7350  1.2014
  137TIP3    H2  376   1.228   0.072   1.682 -1.0094  0.5374  2.4793
  138TIP3   OH2  377   1.163   3.694   5.018 -0.2746  0.2325  0.5383
  138TIP3    H1  378   1.121   3.775   4.990  0.7063  1.1631  1.6745
  138TIP3    H2  379   1.146   3.633   4.946 -4.7002  0.0857  1.4274
  139TIP3   OH2  380   3.853   4.136   1.759 -1.0126  0.0066 -0.2309
  139TIP3    H1  381   3.846   4.122   1.853 -0.5823  2.3094  0.2065
  139TIP3    H2  382   3.847   4.231   1.748  0.5085 -0.0541 -2.3748
  140TIP3   OH2  383   6.744   1.440   5.326  0.5091  0.2750  0.3687
  140TIP3    H1  384   6.732   1.534   5.322 -0.4273  0.1613  0.4323
  140TIP3    H2  385   6.716   1.415   5.414  0.7365 -0.0666  0.3498
  141TIP3   OH2  386   6.655   5.634   2.465 -0.6155  0.2097 -0.0393
  141TIP3    H1  387   6.696   5.721   2.470 -1.9246  1.0432 -2.1302
  141TIP3    H2  388   6.563   5.650   2.485 -1.3843 -0.1524 -2.8591
  142TIP3   OH2  389   3.334   0.367   5.319 -0.3206  0.0942  0.2848
  142TIP3    H1  390   3.305   0.385   5.230 -0.3827 -0.5120  0.1784
  142TIP3    H2  391   3.288   0.431   5.373 -0.4174  0.3487 -0.0955
  143TIP3   OH2  392   6.935   4.149   4.344  0.3258  0.0890  0.6913
  143TIP3    H1  393   6.854   4.166   4.296  0.7629 -0.7946 -0.4009
  143TIP3    H2  394   6.938   4.219   4.410 -0.5152  1.1010 -0.2820
  144TIP3   OH2  395   1.167   1.691   4.496 -0.2158 -0.1314  0.1361
  144TIP3    H1  396   1.185   1.660   4.408  0.1577  0.9503 -0.1916
  144TIP3    H2  397   1.088   1.644   4.523 -0.8574  0.1855 -1.1203
  145TIP3   OH2  398   0.601   5.007   5.443 -0.1711  0.2853 -0.1845
  145TIP3    H1  399   0.590   5.070   5.514  0.2496  0.4228 -0.2424
  145TIP3    H2  400   0.513   4.972   5.428 -0.3660  0.6977 -0.0031
  146TIP3   OH2  401   5.990   3.998   0.971 -0.6502 -0.2116 -0.3755
  146TIP3    H1  402   5.998   3.909   1.005  2.9100  0.3692  0.6950
  146TIP3    H2  403   5.942   3.988   0.889  0.1173 -3.2223 -0.5587
  147TIP3   OH2  404   0.216   1.850   4.806  0.6114  0.2922 -0.0384
  147TIP3    H1  405   0.143   1.872   4.747 -1.0704 -0.7358  1.5705
  147TIP3    H2  406   0.269   1.930   4.807 -0.9098  1.3876 -0.6569
  148TIP3   OH2  407   6.384   4.055   1.977 -0.0492 -0.2830  0.4333
  148TIP3    H1  408   6.347   4.103   1.902  0.9044 -0.0743  0.0823
  148TIP3    H2  409   6.326   3.979   1.987 -0.5060 -0.0305 -0.1771
  149TIP3   OH2  410   3.964   1.561   0.619 -0.9528 -0.1986  0.4595
  149TIP3    H1  411   3.880   1.582   0.659 -1.3828 -0.9575 -0.0029
  149TIP3    H2  412   4.001   1.645   0.593 -1.3533  0.1769  1.0954
  150TIP3   OH2  413   0.535   3.286   3.115  0.4483 -0.2725 -0.5284
  150TIP3    H1  414   0.556   3.194   3.132  0.4741 -0.1222  0.2776
  150TIP3    H2  415   0.601   3.335   3.164  0.7446  0.1818 -1.3585
  151TIP3   OH2  416   1.120   2.462   0.334  0.3332  0.2931 -0.3511
  151TIP3    H1  417   1.111   2.390   0.398 -0.9523  0.2506 -0.5470
  151TIP3    H2  418   1.149   2.536   0.386 -1.8778  0.6008  0.5958
  152TIP3   OH2  419   3.293   2.376   4.241 -0.5211  0.0484 -0.0432
  152TIP3    H1  420   3.226   2.329   4.192  0.2680 -0.9929 -0.1460
  152TIP3    H2  421   3.251   2.398   4.324 -0.4891 -2.0670  0.5723
  153TIP3   OH2  422   7.163   3.400   4.727 -0.3561 -0.0651 -0.1309
  153TIP3    H1  423   7.096   3.371   4.665 -0.5184 -0.6505  0.3076
  153TIP3    H2  424   7.245   3.390   4.678 -0.6197  1.2672 -0.8895
  154TIP3   OH2  425   4.032   2.026   4.163  0.4606  0.5488 -0.5190
  154TIP3    H1  426   4.011   2.108   4.208 -0.2263  0.5414 -0.8074
  154TIP3    H2  427   3.970   1.963   4.200  0.0474  0.4896 -1.2943
  155TIP3   OH2  428   5.612   4.271   3.744  0.0641  0.3800 -0.1111
  155TIP3    H1  429   5.605   4.178   3.763 -0.4188  0.3076 -0.6278
  155TIP3    H2  430   5.671   4.277   3.670 -0.0585  0.4719 -0.2026
  156TIP3   OH2  431   6.388   2.201   2.312 -0.5241 -0.2905  0.9920
  156TIP3    H1  432   6.474   2.165   2.291 -0.8597 -0.3930 -0.2983
  156TIP3    H2  433   6.326   2.131   2.290 -1.3393  1.4114 -3.1162
  157TIP3   OH2  434   4.317   0.858   0.135  0.2216  0.0021  0.2777
  157TIP3    H1  435   4.262   0.884   0.061 -0.8160 -0.4211  0.8885
  157TIP3    H2  436   4.396   0.822   0.094 -1.6627 -3.3261 -0.7906
  158TIP3   OH2  437   6.954   2.651   4.417 -0.3190  0.4472  0.5301
  158TIP3    H1  438   6.997   2.566   4.424 -0.5422  0.4197  1.8575
  158TIP3    H2  439   6.897   2.643   4.341 -0.1906 -0.5219  0.5255
  159TIP3   OH2  440   2.198   1.404   4.547 -0.3953 -0.1112  0.2248
  159TIP3    H1  441   2.260   1.435   4.481 -2.1855 -0.3489 -1.6763
  159TIP3    H2  442   2.127   1.468   4.546 -0.4599 -0.0935  1.9966
  160TIP3   OH2  443   1.804   1.485   5.206 -0.5010  0.1516 -0.0354
  160TIP3    H1  444   1.726   1.451   5.250  0.6565 -0.4705  1.6124
  160TIP3    H2  445   1.770   1.549   5.144 -2.4899 -1.4451 -0.7300
  161TIP3   OH2  446   5.862   0.086   5.660  0.3774 -0.8457  0.5559
  161TIP3    H1  447   5.910   0.129   5.730 -0.3978 -1.0293  1.2229
  161TIP3    H2  448   5.900  -0.002   5.656  1.7064 -0.2486 -0.5557
  162TIP3   OH2  449   0.117   5.396   4.535  0.2524 -0.6127 -0.4402
  162TIP3    H1  450   0.053   5.325   4.536 -1.4442  0.8300  1.7771
  162TIP3    H2  451   0.075   5.466   4.485  0.3130  0.1389  0.5245
  163TIP3   OH2  452   6.826   2.232   5.288 -0.5280  0.5272 -0.1643
  163TIP3    H1  453   6.846   2.285   5.210  0.4964  2.2268  1.1844
  163TIP3    H2  454   6.736   2.256   5.310 -1.5971 -1.5072 -1.9278
  164TIP3   OH2  455   3.211   6.755   5.097  0.3787  0.1598  0.0905
  164TIP3    H1  456   3.293   6.798   5.074 -0.1912  0.6827 -1.0596
  164TIP3    H2  457   3.232   6.701   5.173  1.6470  0.7145  0.1492
  165TIP3   OH2  458   2.961   4.231   1.323 -0.3276 -0.6849 -0.3005
  165TIP3    H1  459   2.909   4.278   1.258 -1.3908  0.1645  1.1116
  165TIP3    H2  460   3.049   4.229   1.286 -0.9289 -0.3636 -1.8223
  166TIP3   OH2  461   4.542   6.483   0.552 -0.3106 -0.0787  0.4759
  166TIP3    H1  462   4.492   6.526   0.482  0.2765  0.1146  0.1629
  166TIP3    H2  463   4.520   6.532   0.631  0.2810  0.7729  0.1400
  167TIP3   OH2  464   1.272   0.744   0.405 -0.6623 -0.6031 -0.1623
  167TIP3    H1  465   1.276   0.821   0.462  0.4355 -1.6593  1.2666
  167TIP3    H2  466   1.179   0.720   0.405 -0.7590 -0.2684  0.7528
  168TIP3   OH2  467   1.116   1.262   1.953  0.6267 -0.0998  0.1384
  168TIP3    H1  468   1.133   1.251   1.860 -0.2863 -1.5841  0.1184
  168TIP3    H2  469   1.090   1.354   1.963  0.4015 -0.0213 -1.1095
  169TIP3   OH2  470   5.217   5.393   1.881 -0.0058  0.2146  0.0779
  169TIP3    H1  471   5.138   5.447   1.874  0.1047  0.2418 -1.2193
  169TIP3    H2  472   5.226   5.352   1.795  0.2051 -1.4960  0.8734
  170TIP3   OH2  473   2.096   0.284   5.758  0.3487  0.2690 -0.1819
  170TIP3    H1  474   2.176   0.246   5.722  0.4346 -0.4010  0.7140
  170TIP3    H2  475   2.025   0.241   5.710  0.4749 -0.3396  0.1797
  171TIP3   OH2  476   2.279   4.152   4.011  0.1599 -0.3084  0.7410
  171TIP3    H1  477   2.313   4.074   3.969  0.8431  0.6107 -0.4708
  171TIP3    H2  478   2.354   4.192   4.054  0.2739  0.7374 -0.3680
  172TIP3   OH2  479   0.249   4.330   0.575  0.3475  0.2533  0.1863
  172TIP3    H1  480   0.229   4.266   0.644  0.1619 -0.6451 -0.6852
  172TIP3    H2  481   0.192   4.404   0.595 -1.7540 -1.0861 -0.5470
  173TIP3   OH2  482   1.592   3.425   5.729  0.0498  0.0447  0.1607
  173TIP3    H1  483   1.596   3.349   5.787  0.8378  0.2565  0.3974
  173TIP3    H2  484   1.499   3.436   5.711 -0.0919 -0.8533  0.2828
  174TIP3   OH2  485   4.975   3.927   2.987 -0.3375 -0.2213 -0.3088
  174TIP3    H1  486   4.936   3.851   3.030 -0.0986 -0.4669 -0.5245
  174TIP3    H2  487   4.932   3.932   2.902 -1.1996  0.5834  0.1554
  175TIP3   OH2  488   1.424   3.741   2.452 -0.1280  0.1788 -0.6676
  175TIP3    H1  489   1.357   3.808   2.465 -1.6379 -1.1259 -1.4049
  175TIP3    H2  490   1.389   3.663   2.496  0.4793 -0.7946 -1.8506
  176TIP3   OH2  491   4.345   2.505   5.136 -0.2857  0.6093  0.6391
  176TIP3    H1  492   4.287   2.567   5.180 -0.5536  1.1202 -0.3971
  176TIP3    H2  493   4.332   2.423   5.183 -0.7033  1.0881  1.3826
  177TIP3   OH2  494   6.273   1.813   0.464 -0.4302 -0.5156  0.8815
  177TIP3    H1  495   6.247   1.797   0.374 -0.9945  1.6635  0.6054
  177TIP3    H2  496   6.205   1.871   0.499  0.0043 -0.9729  2.5901
  178TIP3   OH2  497   4.142   2.189   2.870  0.0183  0.0465  0.4710
  178TIP3    H1  498   4.233   2.213   2.854  0.5875 -2.0021  0.3746
  178TIP3    H2  499   4.096   2.216   2.790  0.7399  0.1106  0.0743
  179TIP3   OH2  500   6.828   2.025   1.829  0.0524  0.5166 -0.0427
  179TIP3    H1  501   6.797   1.949   1.780  0.0277  0.9929 -0.7818
  179TIP3    H2  502   6.922   2.029   1.811  0.0088  0.8063 -0.2259
  180TIP3   OH2  503   1.558   1.471   2.403  0.4075  0.1281 -0.0705
  180TIP3    H1  504   1.501   1.451   2.478 -0.2578  0.2362 -0.5359
  180TIP3    H2  505   1.611   1.545   2.432 -0.6878  0.9470 -0.1159
  181TIP3   OH2  506   0.005   6.543   3.650 -0.0286 -0.1177 -0.3775
  181TIP3    H1  507   0.025   6.493   3.571 -0.6851  0.8343 -1.1669
  181TIP3    H2  508   0.085   6.591   3.670  0.1267 -0.3292 -0.4963
  182TIP3   OH2  509   1.091   4.299   2.090 -0.3621  0.5258 -0.2071
  182TIP3    H1  510   1.181   4.279   2.114 -0.2506  2.1951  0.8984
  182TIP3    H2  511   1.038   4.245   2.149 -0.0908  0.2787 -0.1878
  183TIP3   OH2  512   0.785   3.895   1.362  0.0426  0.6677 -0.1811
  183TIP3    H1  513   0.722   3.955   1.322 -0.2833  1.4420  1.4166
  183TIP3    H2  514   0.842   3.952   1.414 -0.3843 -0.3868  1.5212
  184TIP3   OH2  515   6.687   0.128   0.252  0.1049  0.2079  0.2977
  184TIP3    H1  516   6.594   0.107   0.261  0.4184 -0.8946  1.1845
  184TIP3    H2  517   6.705   0.116   0.158 -0.5233 -0.1263  0.2128
  185TIP3   OH2  518   1.519   2.841   2.642 -0.6619  0.5064 -0.4929
  185TIP3    H1  519   1.593   2.875   2.692 -1.2825 -0.1719  0.9322
  185TIP3    H2  520   1.552   2.836   2.552  0.1559  2.7070 -0.3848
  186TIP3   OH2  521   1.811   5.496   4.524 -0.0028  0.1969  0.0154
  186TIP3    H1  522   1.720   5.468   4.523  0.0991 -0.1626 -1.0037
  186TIP3    H2  523   1.812   5.578   4.475  0.5161 -0.9177 -1.9534
  187TIP3   OH2  524   7.027   6.767   0.348  0.1760  0.0986  0.2191
  187TIP3    H1  525   7.093   6.800   0.409 -0.3736 -0.7929  1.3307
  187TIP3    H2  526   7.009   6.678   0.378 -1.1863  0.1616 -0.3522
  188TIP3   OH2  527   5.979   6.358   4.237 -0.1323  0.4230 -0.8193
  188TIP3    H1  528   5.901   6.323   4.194 -0.5866 -0.6748  0.7858
  188TIP3    H2  529   6.037   6.283   4.246  1.4436  1.3491 -2.5596
  189TIP3   OH2  530   1.504   5.885   2.400 -0.4477 -0.6234 -0.1727
  189TIP3    H1  531   1.452   5.822   2.351  1.9989 -1.6996 -1.5560
  189TIP3    H2  532   1.555   5.931   2.334 -0.2422  0.9944  1.0447
  190TIP3   OH2  533   1.615   3.727   0.483 -0.3391 -0.4179 -0.1570
  190TIP3    H1  534   1.649   3.762   0.401  0.1160  0.3824  0.3570
  190TIP3    H2  535   1.522   3.751   0.483 -0.1034  0.5490  0.0391
  191TIP3   OH2  536   0.933   6.222   3.781  0.0978 -0.2492  0.4028
  191TIP3    H1  537   0.914   6.195   3.871 -1.9131  0.2145  0.1629
  191TIP3    H2  538   0.999   6.290   3.789  1.6306 -1.7523  1.3380
  192TIP3   OH2  539   3.667   5.588   5.743 -0.4613 -0.1252 -0.2769
  192TIP3    H1  540   3.608   5.519   5.712 -1.1093 -0.1748  0.9951
  192TIP3    H2  541   3.610   5.649   5.790  0.4233  0.0701  0.5835
  193TIP3   OH2  542   0.456   3.914   4.264  0.2714  0.0687  0.1837
  193TIP3    H1  543   0.480   4.005   4.278  2.7852 -0.6341  1.0105
  193TIP3    H2  544   0.408   3.890   4.343  1.6695  0.0866  1.0800
  194TIP3   OH2  545   3.097   5.139   1.961  0.0996 -0.7753 -0.1613
  194TIP3    H1  546   3.105   5.064   2.020 -0.3615 -0.8109 -0.1401
  194TIP3    H2  547   3.063   5.103   1.880  2.2221 -0.9847 -1.0180
  195TIP3   OH2  548   2.282   5.683   1.841  0.0931  0.4684  1.2845
  195TIP3    H1  549   2.377   5.670   1.833  0.0376  1.2610 -1.5533
  195TIP3    H2  550   2.244   5.608   1.795 -0.6846  0.1550  2.4134
  196TIP3   OH2  551   0.367   0.933   4.839  0.0577 -0.1594 -0.3878
  196TIP3    H1  552   0.368   0.936   4.744  1.1831 -1.5118 -0.4524
  196TIP3    H2  553   0.453   0.898   4.863 -0.3544 -0.2388  1.1012
  197TIP3   OH2  554   4.858   4.092   2.538 -0.0034 -0.2148  0.8842
  197TIP3    H1  555   4.792   4.128   2.478 -0.4768  0.3676  1.7191
  197TIP3    H2  556   4.934   4.148   2.526  0.6064 -1.3048 -0.5778
  198TIP3   OH2  557   4.706   4.414   5.654 -0.1935  0.3821 -0.0118
  198TIP3    H1  558   4.739   4.373   5.574 -0.8642  0.2506 -0.2323
  198TIP3    H2  559   4.611   4.419   5.641 -0.4279 -0.5076  1.1748
  199TIP3   OH2  560   1.505   1.145   1.116  0.1862  0.0120  0.3755
  199TIP3    H1  561   1.431   1.205   1.117  1.2153  1.4541 -2.3199
  199TIP3    H2  562   1.465   1.058   1.116 -1.4791  0.7409 -0.1691
  200TIP3   OH2  563   6.730   6.609   2.865 -0.3289  0.7067 -0.0731
  200TIP3    H1  564   6.682   6.687   2.835  0.8869  1.4625 -0.1124
  200TIP3    H2  565   6.819   6.622   2.832 -0.0163 -0.5298  0.2477
  201TIP3   OH2  566   4.650   2.282   2.524  0.4495  0.0115 -0.4138
  201TIP3    H1  567   4.724   2.299   2.465  0.2749  2.1748 -0.0745
  201TIP3    H2  568   4.647   2.186   2.530  2.7454 -0.1771 -1.0155
  202TIP3   OH2  569   3.239   0.497   4.484 -0.1032 -0.0166 -0.2745
  202TIP3    H1  570   3.212   0.520   4.573 -1.1506  0.1826 -0.6322
  202TIP3    H2  571   3.167   0.445   4.449 -1.2931  2.6341 -2.1294
  203TIP3   OH2  572   0.437   0.800   1.227  0.6652 -0.0055 -0.1083
  203TIP3    H1  573   0.488   0.854   1.287 -0.0620  0.4081  0.1552
  203TIP3    H2  574   0.485   0.803   1.144  0.8804  0.6554  0.0343
  204TIP3   OH2  575   2.821   3.271   0.371 -0.4863 -0.3560 -0.6667
  204TIP3    H1  576   2.908   3.236   0.388 -0.3017 -0.3802 -1.6156
  204TIP3    H2  577   2.837   3.359   0.336 -0.8454 -0.3363 -0.7883
  205TIP3   OH2  578   4.294   2.625   3.508 -0.4773 -0.4891  0.0599
  205TIP3    H1  579   4.312   2.623   3.602 -1.5312  0.7830  0.3297
  205TIP3    H2  580   4.199   2.638   3.502 -0.4077 -0.3810 -1.1744
  206TIP3   OH2  581   3.018   1.242   0.181 -0.4270 -0.4479  0.8279
  206TIP3    H1  582   2.976   1.323   0.210 -0.9621 -1.3726  2.8293
  206TIP3    H2  583   3.111   1.264   0.176 -0.5171  0.2155  1.7051
  207TIP3   OH2  584   5.650   2.855   0.403 -0.2472 -0.0439  0.3278
  207TIP3    H1  585   5.605   2.843   0.487 -0.8995  1.2017  0.1808
  207TIP3    H2  586   5.644   2.949   0.386  0.1676 -0.2336 -0.9618
  208TIP3   OH2  587   6.541   2.369   3.025 -0.1169 -0.7506  0.3409
  208TIP3    H1  588   6.609   2.428   2.991  1.4702 -1.3384  2.2937
  208TIP3    H2  589   6.555   2.287   2.978 -0.1792 -0.5597 -0.0195
  209TIP3   OH2  590   3.561   3.538   5.076  0.3947  0.5520 -0.0875
  209TIP3    H1  591   3.600   3.453   5.056  0.1627  0.6133 -0.8070
  209TIP3    H2  592   3.500   3.520   5.148  1.1135  0.3054  0.4769
  210TIP3   OH2  593   3.206   2.543   2.890  0.1443 -0.0050 -0.3688
  210TIP3    H1  594   3.151   2.497   2.954 -0.1411  1.0002  0.1345
  210TIP3    H2  595   3.144   2.584   2.830  0.3403  0.7612 -0.0640
  211TIP3   OH2  596   5.921   4.122   3.135  0.0789 -0.0488  0.1389
  211TIP3    H1  597   5.862   4.049   3.115 -1.1878  0.8883  0.3097
  211TIP3    H2  598   5.947   4.107   3.226 -0.7698  0.0938  0.4119
  212TIP3   OH2  599   1.996   6.563   1.459 -0.4695 -0.0206  0.2062
  212TIP3    H1  600   2.042   6.506   1.521 -2.4215 -2.1755 -0.2049
  212TIP3    H2  601   1.964   6.636   1.514 -0.4771 -0.8600  1.3590
  213TIP3   OH2  602   5.197   2.292   5.415  0.3563 -0.3119  0.1606
  213TIP3    H1  603   5.269   2.261   5.360 -0.3429 -0.5053 -0.6740
  213TIP3    H2  604   5.173   2.376   5.377 -0.6736 -0.8209 -0.3577
  214TIP3   OH2  605   4.010   5.069   2.185  0.0342 -0.0412 -0.0979
  214TIP3    H1  606   3.990   5.054   2.092 -0.0378  1.0414 -0.2765
  214TIP3    H2  607   4.012   4.982   2.224 -0.5164 -0.4719 -1.0038
  215TIP3   OH2  608   1.147   3.223   1.981  0.3117 -0.3318 -0.6325
  215TIP3    H1  609   1.237   3.191   1.973  0.7477 -0.1755  2.4546
  215TIP3    H2  610   1.152   3.315   1.954  0.8447 -0.5591 -1.3551
  216TIP3   OH2  611   1.139   2.466   5.360 -0.1861  0.0017 -0.0451
  216TIP3    H1  612   1.095   2.547   5.336  0.7365  0.2742 -0.9335
  216TIP3    H2  613   1.073   2.414   5.406 -0.7281  1.3343  0.7322
  217TIP3   OH2  614   2.645   3.560   3.618 -0.1566 -0.1938 -0.0791
  217TIP3    H1  615   2.715   3.623   3.601 -0.2415  0.2656  1.1830
  217TIP3    H2  616   2.682   3.501   3.683 -0.7114 -0.3651  0.0803
  218TIP3   OH2  617   2.088   1.727   5.081 -0.4075  0.5895  0.1349
  218TIP3    H1  618   2.053   1.792   5.142 -0.3575  2.0214 -1.3024
  218TIP3    H2  619   2.021   1.717   5.014 -0.3964 -0.8368  0.3103
  219TIP3   OH2  620   0.939   1.215   4.074 -0.3282 -0.3008 -0.6655
  219TIP3    H1  621   0.863   1.158   4.066  0.2393 -1.1716 -0.0299
  219TIP3    H2  622   0.968   1.204   4.164  0.8144 -0.3325 -1.0222
  220TIP3   OH2  623   0.883   0.763   1.700 -0.6242  0.0194  0.5279
  220TIP3    H1  624   0.787   0.770   1.699 -0.7223 -0.7914 -1.7980
  220TIP3    H2  625   0.912   0.820   1.628  0.5001 -0.9701  0.1631
  221TIP3   OH2  626   2.129   0.602   4.829  0.0820 -0.6909  0.2221
  221TIP3    H1  627   2.050   0.583   4.881 -0.1332  0.9720  0.5456
  221TIP3    H2  628   2.096   0.617   4.740 -0.2801  1.8548  0.7005
  222TIP3   OH2  629   0.942   1.572   2.230  0.0150 -0.1467 -0.1066
  222TIP3    H1  630   1.021   1.541   2.186  0.1796 -0.0211  0.1005
  222TIP3    H2  631   0.956   1.549   2.322  0.4111  1.0945  0.1530
  223TIP3   OH2  632   3.212   5.879   1.091  0.2005 -0.1278  0.4089
  223TIP3    H1  633   3.246   5.934   1.020  1.0097 -1.3147 -0.1544
  223TIP3    H2  634   3.180   5.942   1.157  0.6507  1.0012 -0.4143
  224TIP3   OH2  635   1.337   6.784   3.862 -0.3207 -0.3289  0.4870
  224TIP3    H1  636   1.319   6.859   3.918  0.9979 -0.6558  1.3941
  224TIP3    H2  637   1.292   6.711   3.904 -0.2962 -0.3464  0.4832
  225TIP3   OH2  638   4.755   1.722   4.787  0.4503  0.3413 -0.1796
  225TIP3    H1  639   4.757   1.794   4.849 -0.9898  0.1531  0.1234
  225TIP3    H2  640   4.722   1.647   4.838 -1.9520  0.4733 -1.3887
  226TIP3   OH2  641   5.843   0.170   4.007 -0.6046 -0.0859 -0.3474
  226TIP3    H1  642   5.812   0.112   3.937 -1.4859  1.8032 -1.6134
  226TIP3    H2  643   5.784   0.154   4.080 -1.2123 -0.3503 -0.8918
  227TIP3   OH2  644   1.785   1.651   3.750 -0.2321 -0.2910  0.0501
  227TIP3    H1  645   1.878   1.632   3.753  0.0354  0.9680  0.3658
  227TIP3    H2  646   1.764   1.656   3.656 -0.0272 -0.7474 -0.0213
  228TIP3   OH2  647   6.817   2.212   0.756 -0.1126 -0.1697 -0.1174
  228TIP3    H1  648   6.847   2.141   0.699 -1.9200 -0.4333 -0.8146
  228TIP3    H2  649   6.750   2.172   0.811 -0.0925  0.6620  0.5364
  229TIP3   OH2  650   6.810   4.136   4.782  0.0115 -0.3831  0.2697
  229TIP3    H1  651   6.803   4.183   4.865  0.6732 -0.9493  0.6633
  229TIP3    H2  652   6.858   4.194   4.724 -1.7774  0.6692 -0.2475
  230TIP3   OH2  653   2.350   1.096   4.837 -0.0356  0.1091  0.3883
  230TIP3    H1  654   2.352   1.082   4.743 -1.8220 -0.3871  0.3847
  230TIP3    H2  655   2.260   1.124   4.856  0.9771  3.0634  1.5965
  231TIP3   OH2  656   3.989   6.766   4.879 -0.2372 -0.2630 -0.1398
  231TIP3    H1  657   3.953   6.753   4.967 -0.3988 -0.0622 -0.1749
  231TIP3    H2  658   4.003   6.678   4.845  1.7161 -0.4009  0.8551
  232TIP3   OH2  659   0.771   1.413   4.244  0.1653  0.0358 -0.2579
  232TIP3    H1  660   0.697   1.413   4.183 -1.0968  0.7050  1.2084
  232TIP3    H2  661   0.764   1.329   4.290  1.1513 -0.4960 -1.0418
  233TIP3   OH2  662   6.364   4.152   5.626  0.0336 -0.3244  0.0313
  233TIP3    H1  663   6.345   4.068   5.584 -2.4856  0.0006  0.3104
  233TIP3    H2  664   6.295   4.161   5.692  1.1176  1.3079  0.9900
  234TIP3   OH2  665   5.648   4.343   0.600 -0.5595  0.2179  0.0873
  234TIP3    H1  666   5.628   4.292   0.521  0.2761  0.9115 -0.5894
  234TIP3    H2  667   5.703   4.284   0.652 -0.0576  0.2157 -0.4371
  235TIP3   OH2  668   3.936   4.711   0.866 -0.2113 -0.5889 -0.2907
  235TIP3    H1  669   3.893   4.646   0.810 -0.2342  0.0989 -1.1041
  235TIP3    H2  670   3.871   4.733   0.933  0.2595 -2.3379  0.7840
  236TIP3   OH2  671   3.779   6.728   5.453 -0.4473 -0.2993  0.0159
  236TIP3    H1  672   3.778   6.728   5.357  0.2051  1.0581 -0.0107
  236TIP3    H2  673   3.688   6.709   5.477 -1.0688  1.2336 -0.9169
  237TIP3   OH2  674   3.643   2.148   4.336  0.3248 -0.1493 -0.1987
  237TIP3    H1  675   3.667   2.106   4.419  0.9826  2.9458  1.3383
  237TIP3    H2  676   3.552   2.175   4.348  0.3674  0.1516 -0.5465
  238TIP3   OH2  677   0.172   5.450   3.255 -0.4036 -0.1850  0.3602
  238TIP3    H1  678   0.236   5.520   3.241 -3.1430  2.2894 -0.6368
  238TIP3    H2  679   0.225   5.370   3.258  2.6802  1.6519 -0.6613
  239TIP3   OH2  680   1.637   1.244   1.342 -0.1445 -0.5429 -0.2816
  239TIP3    H1  681   1.724   1.258   1.305  0.3393 -1.8216  0.3369
  239TIP3    H2  682   1.586   1.205   1.270 -0.2207  0.1877 -0.6358
  240TIP3   OH2  683   1.881   1.273   3.862 -0.1467  0.0485  0.5142
  240TIP3    H1  684   1.828   1.337   3.815 -1.0434 -1.6124 -0.8538
  240TIP3    H2  685   1.817   1.218   3.908  0.2890 -1.9073 -1.0418
  241TIP3   OH2  686   7.221   6.180   0.263  0.6022 -0.5481  0.2620
  241TIP3    H1  687   7.175   6.262   0.244  1.4562 -0.0339  0.3633
  241TIP3    H2  688   7.166   6.136   0.327  0.3282  0.1410  0.5089
  242TIP3   OH2  689   3.703   0.664   0.515  0.8797  0.1489 -0.2043
  242TIP3    H1  690   3.711   0.655   0.610 -1.5783 -0.2320  0.0284
  242TIP3    H2  691   3.635   0.730   0.502  0.5620 -0.4221 -1.6835
  243TIP3   OH2  692   1.053   5.321   3.679  0.0995 -0.3270 -0.5872
  243TIP3    H1  693   1.056   5.377   3.602 -2.1358  2.1738  0.9635
  243TIP3    H2  694   1.133   5.342   3.727  0.0955  0.2660 -0.8389
  244TIP3   OH2  695   4.060   4.027   2.259 -0.0146  0.2562 -0.2855
  244TIP3    H1  696   4.094   4.114   2.277  0.3142  0.1653 -0.4542
  244TIP3    H2  697   4.044   3.989   2.346 -1.3660  0.9366 -0.2091
  245TIP3   OH2  698   1.170   4.746   3.759 -0.4664  0.1552  0.3914
  245TIP3    H1  699   1.249   4.723   3.809  0.2584  0.6157 -0.5128
  245TIP3    H2  700   1.152   4.669   3.706  0.3790  0.6246 -0.6325
  246TIP3   OH2  701   0.440   4.628   3.675 -0.2377  0.1244 -0.4507
  246TIP3    H1  702   0.507   4.560   3.663 -0.0644  0.1691  0.1822
  246TIP3    H2  703   0.442   4.678   3.594  1.0782  0.6137 -0.1545
  247TIP3   OH2  704   2.901   3.672   2.904 -0.8437 -0.6059  0.2335
  247TIP3    H1  705   2.810   3.643   2.916 -1.0136 -0.3777 -0.4567
  247TIP3    H2  706   2.930   3.626   2.825  0.3910 -2.4397  1.6801
  248TIP3   OH2  707   0.417   2.643   4.880 -0.5489  0.6610  0.2216
  248TIP3    H1  708   0.508   2.661   4.905 -0.3318  1.5650 -1.1457
  248TIP3    H2  709   0.425   2.586   4.803 -1.1124  1.4625 -0.4416
  249TIP3   OH2  710   0.942   0.058   0.135  0.0521  0.1127 -0.1332
  249TIP3    H1  711   0.852   0.057   0.169 -0.1347  0.3645 -0.6079
  249TIP3    H2  712   0.978  -0.027   0.159  0.4760  0.8549  2.1179
  250TIP3   OH2  713   3.550   3.797   5.791  0.0557 -0.1410 -0.1728
  250TIP3    H1  714   3.546   3.784   5.886 -0.2772  0.5387 -0.0896
  250TIP3    H2  715   3.616   3.734   5.761  0.6023  0.0526  0.5843
  251TIP3   OH2  716   2.114   3.997   3.754 -0.9444  0.3485  0.3491
  251TIP3    H1  717   2.109   3.977   3.847  0.6567  1.3032  0.6620
  251TIP3    H2  718   2.189   4.055   3.745  1.7301 -3.0480 -2.0590
  252TIP3   OH2  719   6.418   0.658   4.393 -0.2094 -0.2427  0.2281
  252TIP3    H1  720   6.466   0.606   4.329  0.2595 -0.6886  0.9260
  252TIP3    H2  721   6.355   0.597   4.432 -0.6231  0.0719  0.0593
  253TIP3   OH2  722   2.394   0.042   1.142  0.3195  0.0043  0.0958
  253TIP3    H1  723   2.463   0.028   1.207  0.0913  1.1105  0.6022
  253TIP3    H2  724   2.343  -0.038   1.143  0.6989 -0.2307  0.8286
  254TIP3   OH2  725   5.019   5.169   1.986  0.3333 -0.2261  0.0752
  254TIP3    H1  726   4.989   5.081   1.961 -0.5993  0.4711 -1.4028
  254TIP3    H2  727   5.112   5.157   2.004  0.1581 -1.5771  0.2640
  255TIP3   OH2  728   3.467   2.707   2.773 -0.0020  0.1518  0.3371
  255TIP3    H1  729   3.464   2.718   2.868 -0.3337  1.6243  0.1891
  255TIP3    H2  730   3.459   2.796   2.739  0.7512 -0.2877 -1.0618
  256TIP3   OH2  731   1.552   6.025   5.092  0.0750 -0.2395 -0.2353
  256TIP3    H1  732   1.542   6.114   5.058  1.7288 -0.0992 -0.4467
  256TIP3    H2  733   1.498   6.024   5.172  1.7035  1.6834  1.0002
  257TIP3   OH2  734   3.661   3.494   4.640  0.1939 -0.0059 -0.1329
  257TIP3    H1  735   3.661   3.570   4.699  1.5329 -1.2633  1.6188
  257TIP3    H2  736   3.754   3.470   4.633 -0.1738 -1.2962 -0.8866
  258TIP3   OH2  737   2.071   5.965   0.846  0.1005  0.3411  0.3459
  258TIP3    H1  738   2.118   5.913   0.911 -1.0035 -0.3185  0.6441
  258TIP3    H2  739   2.063   6.052   0.886  0.9963  0.4617  0.3030
  259TIP3   OH2  740   2.289   6.340   1.893 -0.1190 -0.2114 -0.1111
  259TIP3    H1  741   2.215   6.385   1.933 -0.4916  0.1567 -1.1928
  259TIP3    H2  742   2.281   6.250   1.924 -0.7336 -0.0608  0.1855
  260TIP3   OH2  743   0.433   4.726   3.441  0.0185 -0.0445  0.0316
  260TIP3    H1  744   0.511   4.781   3.448  0.2131 -0.2492 -0.4471
  260TIP3    H2  745   0.440   4.687   3.354  0.1414 -1.1944  0.5381
  261TIP3   OH2  746   1.931   0.267   1.208 -0.2376  0.1776 -0.8086
  261TIP3    H1  747   2.010   0.280   1.259 -0.0262  0.3759 -1.1796
  261TIP3    H2  748   1.907   0.355   1.178 -0.3559  0.0654 -1.0491
  262TIP3   OH2  749   5.157   5.358   5.105  0.2820  0.2434  0.1975
  262TIP3    H1  750   5.090   5.404   5.157 -1.1498 -0.2920 -1.0873
  262TIP3    H2  751   5.238   5.369   5.155 -0.5742  1.7091  1.3548
  263TIP3   OH2  752   3.543   6.597   5.588  0.3398 -0.1528 -0.2410
  263TIP3    H1  753   3.556   6.512   5.631  0.4016  0.1753  0.4057
  263TIP3    H2  754   3.449   6.600   5.570  0.6140 -1.1906 -2.0748
  264TIP3   OH2  755   5.182   4.646   0.575  0.2264  0.0527 -0.3665
  264TIP3    H1  756   5.150   4.576   0.517 -0.2250  0.3713 -0.5063
  264TIP3    H2  757   5.232   4.600   0.642  0.9945 -0.3093 -1.1571
  265TIP3   OH2  758   0.715   0.896   5.741 -0.2495  0.1164 -0.3765
  265TIP3    H1  759   0.766   0.862   5.668  2.1473  0.5147  1.0324
  265TIP3    H2  760   0.703   0.989   5.720 -2.5282 -0.4185 -1.8199
  266TIP3   OH2  761   5.951   3.082   5.505 -0.1099 -0.2287 -0.3424
  266TIP3    H1  762   5.863   3.118   5.514 -0.6316 -0.8808 -2.2230
  266TIP3    H2  763   5.942   3.015   5.437  1.9756  0.2194 -1.1435
  267TIP3   OH2  764   5.085   6.780   5.559  0.6306 -0.1964  0.3780
  267TIP3    H1  765   5.088   6.696   5.606  0.8623 -0.0019  0.7097
  267TIP3    H2  766   5.114   6.845   5.623 -0.9278  0.3453  0.5775
  268TIP3   OH2  767   5.039   2.888   3.287  0.2180  0.0267  0.2635
  268TIP3    H1  768   5.097   2.818   3.316  1.9301  0.2556 -2.3294
  268TIP3    H2  769   5.095   2.948   3.239 -2.1316  0.0602 -2.7739
  269TIP3   OH2  770   0.508   2.089   3.097  0.3261 -0.1651  0.6698
  269TIP3    H1  771   0.558   2.065   3.019  1.3304  0.1553  1.1975
  269TIP3    H2  772   0.420   2.056   3.080  0.1205  1.2100 -1.2450
  270TIP3   OH2  773   7.063   0.934   4.227 -0.0283  0.9070  0.2449
  270TIP3    H1  774   7.082   0.851   4.183  1.5644  0.8306  1.0216
  270TIP3    H2  775   7.019   0.987   4.160  0.0415 -0.1099 -0.6309
  271TIP3   OH2  776   4.440   3.202   2.205  0.3265  0.1899  0.1221
  271TIP3    H1  777   4.416   3.117   2.170  0.6248 -0.4914  1.5005
  271TIP3    H2  778   4.533   3.211   2.187 -0.0235  0.9870 -1.4919
  272TIP3   OH2  779   2.000   0.885   4.168 -0.6114 -0.1796 -0.7087
  272TIP3    H1  780   1.945   0.913   4.095 -1.8509 -0.5691  0.0393
  272TIP3    H2  781   1.967   0.798   4.190  1.8540 -1.4723 -1.7178
  273TIP3   OH2  782   0.875   3.991   1.006  0.4798  0.0528 -0.0523
  273TIP3    H1  783   0.849   4.074   1.046  1.4076 -0.0021  0.6944
  273TIP3    H2  784   0.954   4.012   0.956  0.7438 -0.3795  0.1768
  274TIP3   OH2  785   0.510   2.779   0.036 -0.2098  0.7320  0.1476
  274TIP3    H1  786   0.427   2.825   0.023 -0.3633  0.1293 -1.1418
  274TIP3    H2  787   0.531   2.793   0.128 -1.7789  0.8444  0.5174
  275TIP3   OH2  788   1.082   0.641   0.201  0.2761 -0.4386  0.3066
  275TIP3    H1  789   0.986   0.643   0.203  0.2283 -1.8631  0.3239
  275TIP3    H2  790   1.103   0.558   0.158  1.5154  0.4542 -0.8785
  276TIP3   OH2  791   1.242   5.027   2.790 -0.4632 -0.3608 -0.2064
  276TIP3    H1  792   1.318   4.972   2.771  1.2007  0.9523  2.1213
  276TIP3    H2  793   1.204   5.047   2.704  1.1217 -1.9844 -1.3525
  277TIP3   OH2  794   0.796   1.675   5.122  0.1020  0.0912 -0.0030
  277TIP3    H1  795   0.789   1.719   5.037  0.4459  1.3619  0.6002
  277TIP3    H2  796   0.706   1.673   5.155 -0.7530 -3.8590 -1.9813
  278TIP3   OH2  797   4.552   1.790   2.110  0.0551  0.0790  0.7390
  278TIP3    H1  798   4.568   1.713   2.056  0.6773  1.2855 -0.8717
  278TIP3    H2  799   4.514   1.854   2.049  0.2619  1.3018  1.8592
  279TIP3   OH2  800   1.382   2.722   3.077  0.7484 -0.2546 -0.5775
  279TIP3    H1  801   1.350   2.805   3.110  0.0898 -0.2578 -1.1871
  279TIP3    H2  802   1.390   2.666   3.154 -1.0331 -0.3497 -0.4228
  280TIP3   OH2  803   0.397   3.275   3.360 -0.3762 -0.1563 -0.1977
  280TIP3    H1  804   0.445   3.352   3.389 -0.1469 -0.5700  0.5493
  280TIP3    H2  805   0.450   3.239   3.289  0.1924 -0.3557  0.3218
  281TIP3   OH2  806   3.676   3.324   4.881  0.4405 -0.4715 -0.0253
  281TIP3    H1  807   3.616   3.254   4.907 -0.4510  0.2605 -0.0604
  281TIP3    H2  808   3.636   3.362   4.802  2.4610 -1.8616 -1.8310
  282TIP3   OH2  809   6.735   2.613   4.199 -0.3733 -0.7627  0.1950
  282TIP3    H1  810   6.655   2.648   4.237  0.0739  0.2130  0.2531
  282TIP3    H2  811   6.704   2.555   4.129 -1.1708 -1.7907  1.3465
  283TIP3   OH2  812   0.759   4.681   4.387  0.0745  1.0241  0.2605
  283TIP3    H1  813   0.689   4.724   4.437  0.2130  2.8729 -1.0423
  283TIP3    H2  814   0.734   4.692   4.296  1.4281  0.5869 -0.1869
  284TIP3   OH2  815   4.863   4.324   2.033 -0.0281  0.4164  0.1504
  284TIP3    H1  816   4.777   4.363   2.017  0.0092 -0.1359 -1.5618
  284TIP3    H2  817   4.895   4.368   2.112 -1.5685  1.1388  0.4010
  285TIP3   OH2  818   0.111   4.627   4.040 -0.1454  0.2906 -0.3030
  285TIP3    H1  819   0.196   4.663   4.067 -0.5446  0.9690  0.0581
  285TIP3    H2  820   0.099   4.550   4.095 -0.5274  1.1415  0.8324
  286TIP3   OH2  821   5.390   5.758   5.455  0.1746 -0.5340 -0.0552
  286TIP3    H1  822   5.307   5.805   5.444  0.3936 -0.2418 -0.5006
  286TIP3    H2  823   5.369   5.667   5.434 -0.3103 -0.6952  1.0600
  287TIP3   OH2  824   1.800   3.205   5.756 -0.2244 -0.1598  0.2997
  287TIP3    H1  825   1.843   3.283   5.791  0.6647 -0.6274  0.2868
  287TIP3    H2  826   1.847   3.132   5.796  0.5719 -0.7152 -1.5286
  288TIP3   OH2  827   4.515   0.089   2.205 -0.2288 -0.8348 -0.8335
  288TIP3    H1  828   4.552   0.132   2.283  0.8662 -3.3853  0.1732
  288TIP3    H2  829   4.524   0.154   2.135  0.5898  0.8331  0.7383
  289TIP3   OH2  830   6.464   6.040   1.625 -0.7840  0.1389  0.6719
  289TIP3    H1  831   6.426   6.126   1.645 -0.3182  0.6512 -0.5075
  289TIP3    H2  832   6.401   5.977   1.659 -1.6828  0.9521  0.5608
  290TIP3   OH2  833   5.084   0.003   3.947  0.0873  0.0064  0.1698
  290TIP3    H1  834   5.168  -0.001   3.991  0.0688  1.1586  0.3351
  290TIP3    H2  835   5.106   0.014   3.854  0.1271 -2.5019 -0.1823
  291TIP3   OH2  836   5.016   5.633   3.106 -0.6815 -0.2357 -0.5525
  291TIP3    H1  837   5.033   5.713   3.057 -1.3026  0.1675 -0.1235
  291TIP3    H2  838   5.024   5.660   3.198 -0.1799 -0.8316 -0.4151
  292TIP3   OH2  839   3.360   1.053   3.197 -0.4908  0.6005 -0.0380
  292TIP3    H1  840   3.370   0.961   3.172  2.1229  0.6744  0.4022
  292TIP3    H2  841   3.341   1.051   3.291 -1.0559  0.5040 -0.1535
  293TIP3   OH2  842   2.770   2.524   5.160 -0.0033  0.0087  0.1094
  293TIP3    H1  843   2.844   2.464   5.153 -0.1296 -0.0990 -0.3976
  293TIP3    H2  844   2.790   2.595   5.099 -0.9277 -0.6964 -1.0612
  294TIP3   OH2  845   1.694   1.462   4.160  0.1661  0.4296 -0.5038
  294TIP3    H1  846   1.638   1.474   4.084 -0.2420 -0.8945 -0.4484
  294TIP3    H2  847   1.673   1.373   4.191  0.1493  1.0131  1.2784
  295TIP3   OH2  848   4.728   0.407   4.623 -0.3934 -0.5719  0.6863
  295TIP3    H1  849   4.735   0.437   4.714  1.7558  0.6356  0.1865
  295TIP3    H2  850   4.790   0.334   4.617 -0.7387 -0.8337  0.2380
  296TIP3   OH2  851   1.514   0.602   3.803  1.5246  0.2573  0.0303
  296TIP3    H1  852   1.569   0.524   3.805 -0.2951 -1.0778  0.5753
  296TIP3    H2  853   1.486   0.610   3.712  0.3557 -0.7597  0.2798
  297TIP3   OH2  854   5.557   2.768   2.890  0.2520 -0.4504  0.1610
  297TIP3    H1  855   5.480   2.784   2.944  0.9997 -1.4907  1.5870
  297TIP3    H2  856   5.575   2.675   2.901  2.1996 -0.0634  0.5381
  298TIP3   OH2  857   5.403   4.232   2.673 -0.6416 -0.3972  0.0812
  298TIP3    H1  858   5.460   4.306   2.653 -1.0792 -0.4748 -1.5596
  298TIP3    H2  859   5.380   4.243   2.766 -0.8310  1.5904 -0.1694
  299TIP3   OH2  860   3.402   5.045   3.375 -0.3539 -0.5551  0.4321
  299TIP3    H1  861   3.307   5.045   3.389 -0.3984  2.7035  0.9373
  299TIP3    H2  862   3.437   5.093   3.450  1.2007  1.9565 -1.7459
  300TIP3   OH2  863   0.624   5.599   4.999  0.0656 -0.0888 -0.4712
  300TIP3    H1  864   0.635   5.542   5.075 -0.0032 -1.4061 -1.4020
  300TIP3    H2  865   0.710   5.600   4.958  0.0036  0.2979 -0.5937
  301TIP3   OH2  866   0.298   6.168   0.275  0.0406  0.4977  0.5356
  301TIP3    H1  867   0.308   6.121   0.358 -0.3783 -3.5735 -1.5258
  301TIP3    H2  868   0.204   6.168   0.259  0.0016  2.3620  0.5400
  302TIP3   OH2  869   6.713   4.020   3.209 -0.4256 -0.2206  0.0390
  302TIP3    H1  870   6.706   4.113   3.229 -0.4974 -0.0355 -0.7861
  302TIP3    H2  871   6.718   3.977   3.294  2.1444  0.7296  0.4657
  303TIP3   OH2  872   2.289   6.150   3.739 -1.0088 -0.4085  0.0564
  303TIP3    H1  873   2.261   6.193   3.820  0.1665 -0.1842  0.3486
  303TIP3    H2  874   2.246   6.201   3.670  0.0135  1.0117  0.4178
  304TIP3   OH2  875   1.403   4.453   4.093 -0.2596  0.3435  0.3813
  304TIP3    H1  876   1.352   4.384   4.135 -0.6893  0.0657 -0.5645
  304TIP3    H2  877   1.434   4.414   4.011  1.1474  0.6447  0.7392
  305TIP3   OH2  878   3.486   0.184   3.825  0.6813 -0.0198 -0.2327
  305TIP3    H1  879   3.514   0.199   3.915  1.4677  1.3348 -0.6684
  305TIP3    H2  880   3.416   0.120   3.832  0.0060  0.8349  1.4526
  306TIP3   OH2  881   6.267   0.524   1.626 -0.1220  0.2047 -0.3713
  306TIP3    H1  882   6.244   0.581   1.700  0.8238  1.2029 -0.8175
  306TIP3    H2  883   6.220   0.562   1.552 -0.9897 -0.7398 -0.3277
  307TIP3   OH2  884   6.441   5.061   2.213 -0.3493  0.1813 -0.3472
  307TIP3    H1  885   6.506   5.037   2.146  1.3826  0.6179  1.0978
  307TIP3    H2  886   6.388   5.129   2.171  0.6378  0.3750 -1.3236
  308TIP3   OH2  887   4.968   1.580   0.276 -0.4158 -0.2802  0.2008
  308TIP3    H1  888   5.029   1.606   0.208 -1.1672  0.6148 -0.1615
  308TIP3    H2  889   4.882   1.578   0.232 -1.1861  1.9699  1.4235
  309TIP3   OH2  890   4.947   5.928   0.358 -0.1909  0.3259 -0.1553
  309TIP3    H1  891   5.016   5.973   0.405  0.5998  0.3372 -1.2988
  309TIP3    H2  892   4.977   5.838   0.351 -0.8973  0.0316  0.4732
  310TIP3   OH2  893   1.140   4.873   1.888 -0.5269  0.6784  0.0374
  310TIP3    H1  894   1.057   4.920   1.885 -0.4255  0.9162  0.7838
  310TIP3    H2  895   1.116   4.780   1.892 -0.7335  0.6878 -0.7342
  311TIP3   OH2  896   2.224   2.583   1.495 -0.4815 -0.3480  0.9101
  311TIP3    H1  897   2.220   2.554   1.404  1.6717  0.9706  0.3198
  311TIP3    H2  898   2.174   2.665   1.495 -2.1751 -1.3355  1.4152
  312TIP3   OH2  899   6.207   1.175   5.263  0.2185 -0.1488 -0.0892
  312TIP3    H1  900   6.147   1.208   5.330  0.8413  0.3119  0.2530
  312TIP3    H2  901   6.295   1.195   5.297  0.5482 -0.0584 -0.9619
  313TIP3   OH2  902   0.405   1.568   4.542  0.0800  0.0274  0.3201
  313TIP3    H1  903   0.485   1.551   4.491 -0.3675  0.6002 -0.6003
  313TIP3    H2  904   0.334   1.560   4.479 -0.3419  3.0171  0.2595
  314TIP3   OH2  905   4.727   1.607   0.036  0.0870  1.3937  0.2103
  314TIP3    H1  906   4.648   1.616  -0.017 -1.0041  1.9691  1.8662
  314TIP3    H2  907   4.726   1.682   0.095  2.0240  1.5532  0.0967
  315TIP3   OH2  908   1.642   0.574   0.108  0.2468 -0.7894  0.6120
  315TIP3    H1  909   1.613   0.647   0.163 -2.0206  0.0626 -1.5706
  315TIP3    H2  910   1.593   0.583   0.026  0.9148 -3.9691 -0.3013
  316TIP3   OH2  911   5.135   4.940   5.559  0.5469 -0.2516  0.6584
  316TIP3    H1  912   5.120   4.895   5.643  0.0110  0.4585  0.9547
  316TIP3    H2  913   5.057   4.994   5.547  1.4694  1.1434  0.6731
  317TIP3   OH2  914   2.760   6.290   3.034  0.1925 -0.1531  0.2744
  317TIP3    H1  915   2.776   6.384   3.024 -0.3808 -0.0979 -0.1930
  317TIP3    H2  916   2.794   6.268   3.121  0.1058  0.5350  0.4857
  318TIP3   OH2  917   6.318   3.608   2.270 -1.0944 -0.4016 -0.0723
  318TIP3    H1  918   6.270   3.528   2.251 -3.0881  0.2632  1.8404
  318TIP3    H2  919   6.261   3.658   2.328  0.8417  1.6280  0.2288
  319TIP3   OH2  920   0.840   3.504   1.516 -0.0673 -0.4680 -0.2104
  319TIP3    H1  921   0.910   3.516   1.453 -0.5552 -0.6852 -0.7984
  319TIP3    H2  922   0.806   3.416   1.499 -1.3213  0.1070 -0.8018
  320TIP3   OH2  923   5.371   1.942   4.259  0.6004  0.5083 -0.1493
  320TIP3    H1  924   5.346   1.948   4.351 -0.5120 -0.8418 -0.3373
  320TIP3    H2  925   5.434   2.013   4.247  0.2157  1.1640  1.4630
  321TIP3   OH2  926   5.384   6.741   4.293  0.2548  0.1736 -0.1491
  321TIP3    H1  927   5.465   6.791   4.305 -0.1246  0.9197 -0.5770
  321TIP3    H2  928   5.321   6.806   4.260  0.4365 -1.0382 -3.2967
  322TIP3   OH2  929   0.757   0.187   0.412 -0.4612  0.3759 -0.0404
  322TIP3    H1  930   0.713   0.150   0.335  0.9530 -1.4455 -0.0411
  322TIP3    H2  931   0.752   0.282   0.399 -1.5629  0.1444 -1.6169
  323TIP3   OH2  932   2.312   1.424   5.399  0.6118  0.5065 -0.0547
  323TIP3    H1  933   2.403   1.393   5.404  0.7958  0.7659 -1.3978
  323TIP3    H2  934   2.299   1.472   5.481  1.3444 -0.3971  0.6223
  324TIP3   OH2  935   1.774   0.882   5.816 -0.3194  0.3725  0.8451
  324TIP3    H1  936   1.751   0.793   5.841  4.6358 -1.0492  1.4706
  324TIP3    H2  937   1.832   0.913   5.886 -0.5811  3.5079 -0.1560
  325TIP3   OH2  938   5.796   2.852   0.153 -0.1393  1.1975 -0.0268
  325TIP3    H1  939   5.736   2.843   0.227  0.1810  0.2433  0.1267
  325TIP3    H2  940   5.758   2.798   0.084  0.9939 -0.1708  0.3764
  326TIP3   OH2  941   5.068   2.538   4.742  0.6012  0.2613  0.1450
  326TIP3    H1  942   5.046   2.624   4.780  1.0216  0.3585  0.1748
  326TIP3    H2  943   5.158   2.547   4.713  0.6373 -0.1653  0.1170
  327TIP3   OH2  944   3.672   4.745   0.563 -0.1778  0.4540  0.0503
  327TIP3    H1  945   3.765   4.723   0.570 -0.0716  0.8168 -0.2001
  327TIP3    H2  946   3.626   4.669   0.600  0.2668  1.2624  2.4506
  328TIP3   OH2  947   1.105   2.938   4.912 -0.0602 -0.0719 -0.4635
  328TIP3    H1  948   1.031   2.965   4.966  1.5756  0.8741  1.4115
  328TIP3    H2  949   1.100   2.994   4.834 -1.7132 -0.5732 -0.7675
  329TIP3   OH2  950   1.911   2.045   4.208  0.0326  0.1603 -0.8847
  329TIP3    H1  951   1.899   1.991   4.286  1.1189 -0.1776 -0.9361
  329TIP3    H2  952   1.823   2.050   4.169 -0.8940  1.8297  1.2729
  330TIP3   OH2  953   2.833   6.406   1.570 -0.0123  0.6243  0.4613
  330TIP3    H1  954   2.750   6.403   1.521  0.7002 -2.9625 -0.8172
  330TIP3    H2  955   2.835   6.324   1.618  3.0093  0.3892  0.0827
  331TIP3   OH2  956   4.135   0.998   1.858  0.0354 -0.2480  0.5187
  331TIP3    H1  957   4.182   0.944   1.921 -1.1344 -0.3763  1.3098
  331TIP3    H2  958   4.104   1.072   1.909  0.9289  0.7897 -0.3879
  332TIP3   OH2  959   1.478   5.798   4.264  0.8474  0.0621 -0.0363
  332TIP3    H1  960   1.462   5.751   4.346 -1.1640 -1.1743 -1.0389
  332TIP3    H2  961   1.538   5.742   4.215  1.4188  0.4067  0.2669
  333TIP3   OH2  962   3.045   6.437   1.372  0.1408 -0.0868  0.2299
  333TIP3    H1  963   2.992   6.406   1.445  0.3609  0.7867  0.7762
  333TIP3    H2  964   3.135   6.434   1.405  0.2242  0.5065  0.0731
  334TIP3   OH2  965   0.626   5.172   3.364 -0.3384 -0.5048  0.1705
  334TIP3    H1  966   0.629   5.130   3.450 -1.5328 -1.0263 -0.0205
  334TIP3    H2  967   0.690   5.124   3.311  0.9314  0.2752  0.9290
  335TIP3   OH2  968   1.958   1.546   4.233  0.2332 -0.2501 -0.0290
  335TIP3    H1  969   1.996   1.459   4.239 -0.9060 -0.6636  2.3460
  335TIP3    H2  970   1.863   1.531   4.231  0.0458  0.9011 -0.7103
  336TIP3   OH2  971   4.776   2.911   3.797 -0.1875  0.1678  0.3814
  336TIP3    H1  972   4.809   2.892   3.709  0.0424  0.4802  0.3994
  336TIP3    H2  973   4.725   2.991   3.786  1.0035  1.0127  0.7839
  337TIP3   OH2  974   2.083   5.391   2.011  0.0201  0.0514 -0.4274
  337TIP3    H1  975   2.000   5.361   1.974  0.6435 -1.4292 -0.7024
  337TIP3    H2  976   2.137   5.411   1.935  0.3902 -0.3841 -0.2862
  338TIP3   OH2  977   4.286   3.415   4.721 -0.3305  0.0772 -0.5879
  338TIP3    H1  978   4.213   3.354   4.712 -0.6614  0.6208 -1.6892
  338TIP3    H2  979   4.281   3.445   4.812 -1.7018  0.3748 -0.7419
  339TIP3   OH2  980   4.389   4.766   5.055  0.0257 -0.6907 -0.4911
  339TIP3    H1  981   4.319   4.801   5.000  1.2693 -0.0928 -1.7469
  339TIP3    H2  982   4.361   4.786   5.145 -1.2895 -0.2583 -0.9721
  340TIP3   OH2  983   0.089   4.769   5.283  0.5414  0.0632 -0.6064
  340TIP3    H1  984   0.088   4.841   5.347 -1.1966  1.4113 -2.0286
  340TIP3    H2  985   0.156   4.794   5.220 -0.7706  1.0724 -1.6774
  341TIP3   OH2  986   5.455   3.458   2.747 -0.0548 -0.3802  0.0023
  341TIP3    H1  987   5.542   3.482   2.714 -0.0019 -1.9616 -1.1720
  341TIP3    H2  988   5.458   3.363   2.754 -1.9924 -0.5785 -1.0484
  342TIP3   OH2  989   5.691   5.802   4.516 -0.6159  0.0274  0.2376
  342TIP3    H1  990   5.603   5.793   4.552 -1.3102  5.0420  0.5632
  342TIP3    H2  991   5.743   5.838   4.588  0.9075 -0.0473 -0.7789
  343TIP3   OH2  992   0.793   3.414   3.224 -0.0443  0.5508  0.6828
  343TIP3    H1  993   0.789   3.413   3.320 -0.3658 -0.0666  0.6670
  343TIP3    H2  994   0.761   3.501   3.200  0.9457  1.0740  1.1664
  344TIP3   OH2  995   6.827   1.444   4.468 -0.1638 -0.1500 -0.0705
  344TIP3    H1  996   6.748   1.391   4.455  1.5140 -2.6956 -0.7724
  344TIP3    H2  997   6.897   1.391   4.430  2.2258  1.0049  2.3968
  345TIP3   OH2  998   5.847   3.300   1.428 -0.0225 -0.1883  0.5228
  345TIP3    H1  999   5.829   3.340   1.513  0.3526  1.8209 -0.2913
  345TIP3    H2 1000   5.762   3.300   1.383 -0.5295 -2.5569  1.3619
  346TIP3   OH2 1001   4.301   2.839   4.970 -0.0954  0.1314 -0.1740
  346TIP3    H1 1002   4.383   2.837   5.018 -0.1290 -1.2521 -0.1330
  346TIP3    H2 1003   4.237   2.873   5.032  0.3485  0.7369 -0.0481
  347TIP3   OH2 1004   2.341   1.897   4.162 -0.4717 -0.0812 -0.4381
  347TIP3    H1 1005   2.286   1.969   4.133 -1.0536  0.1072  1.0309
  347TIP3    H2 1006   2.324   1.827   4.099 -1.4319  0.3952 -0.7255
  348TIP3   OH2 1007   6.514   4.066   1.064 -0.2563 -0.7653 -0.5067
  348TIP3    H1 1008   6.511   4.077   1.159 -0.3908  2.3003 -0.7684
  348TIP3    H2 1009   6.424   4.082   1.036  0.1344  0.1944 -1.2643
  349TIP3   OH2 1010   0.542   4.532   5.818  0.0347  0.3463  0.3044
  349TIP3    H1 1011   0.454   4.567   5.803  1.2426  2.7502 -2.0678
  349TIP3    H2 1012   0.595   4.609   5.839  1.6104 -1.0381  1.6743
  350TIP3   OH2 1013   7.164   2.409   0.120 -0.3930 -0.3808 -0.4273
  350TIP3    H1 1014   7.120   2.326   0.107 -1.6827  0.1076  0.5775
  350TIP3    H2 1015   7.215   2.398   0.200  1.0870 -0.8207 -1.3804
  351TIP3   OH2 1016   0.829   4.377   4.236  0.1995  0.0024 -0.4532
  351TIP3    H1 1017   0.773   4.400   4.310  1.7545 -0.8725  1.0683
  351TIP3    H2 1018   0.844   4.283   4.246  2.7303  0.3774 -0.1766
  352TIP3   OH2 1019   5.606   5.908   0.238 -0.1321 -0.0303  0.4513
  352TIP3    H1 1020   5.535   5.941   0.293 -0.6714 -2.2319  1.1674
  352TIP3    H2 1021   5.573   5.914   0.149 -1.5376 -1.6163  0.8152
  353TIP3   OH2 1022   6.588   2.485   3.579 -0.1331 -0.1187  0.1058
  353TIP3    H1 1023   6.540   2.538   3.642  0.8075  0.6062  0.2487
  353TIP3    H2 1024   6.652   2.436   3.632  1.1058  0.9842 -0.3065
  354TIP3   OH2 1025   1.219   5.707   3.520 -0.4510  0.6830  0.1541
  354TIP3    H1 1026   1.213   5.791   3.475 -0.3773  0.9969  0.7257
  354TIP3    H2 1027   1.304   5.672   3.493 -1.4622 -0.3004 -1.9432
  355TIP3   OH2 1028   6.149   1.045   5.016  0.4068  0.1820  0.2479
  355TIP3    H1 1029   6.235   1.033   4.977  0.1818 -0.8637  0.0491
  355TIP3    H2 1030   6.167   1.079   5.104  1.0405 -0.4296  0.3611
  356TIP3   OH2 1031   3.432   6.681   0.071 -0.1923 -0.3423 -0.1937
  356TIP3    H1 1032   3.427   6.680  -0.024 -0.5290 -0.9012 -0.1717
  356TIP3    H2 1033   3.377   6.608   0.099  0.8685 -0.9357  0.3878
  357TIP3   OH2 1034   5.400   0.645   4.023  0.6820 -0.6255  0.1471
  357TIP3    H1 1035   5.321   0.686   4.056  1.9687  0.5249  1.9910
  357TIP3    H2 1036   5.377   0.552   4.014 -0.1462 -0.8302  3.2809
  358TIP3   OH2 1037   0.618   0.858   2.364 -0.0637 -0.0162 -0.2017
  358TIP3    H1 1038   0.667   0.910   2.300 -0.0114  0.3608  0.1348
  358TIP3    H2 1039   0.672   0.861   2.443 -0.5176  0.2134  0.1058
  359TIP3   OH2 1040   2.170   6.740   5.340  0.1087  0.6189 -0.5356
  359TIP3    H1 1041   2.148   6.832   5.322  0.5381  1.0085  0.8071
  359TIP3    H2 1042   2.254   6.744   5.387 -0.1756 -0.4050  0.0947
  360TIP3   OH2 1043   1.762   3.086   0.084  0.2746  0.0948 -0.0551
  360TIP3    H1 1044   1.833   3.038   0.126 -1.3526 -0.4233  2.2633
  360TIP3    H2 1045   1.749   3.164   0.138  0.5146  1.3748 -1.7431
  361TIP3   OH2 1046   0.173   3.213   5.217 -0.1119  0.3630  0.3824
  361TIP3    H1 1047   0.182   3.188   5.309 -0.7942  0.4342  0.4710
  361TIP3    H2 1048   0.214   3.142   5.169 -0.1900  0.0863  0.7228
  362TIP3   OH2 1049   0.678   6.116   5.189 -0.3996  0.1771  0.5902
  362TIP3    H1 1050   0.612   6.053   5.220  0.3941 -0.2457  1.4786
  362TIP3    H2 1051   0.689   6.095   5.096 -0.1229 -1.0328  0.8803
  363TIP3   OH2 1052   4.845   2.306   2.841  0.0764  0.6107  0.0215
  363TIP3    H1 1053   4.760   2.345   2.820 -0.5714 -0.8895 -0.2902
  363TIP3    H2 1054   4.828   2.253   2.918  0.9542  0.9847  0.4838
  364TIP3   OH2 1055   6.222   6.167   1.139 -0.7975  0.6820  0.6652
  364TIP3    H1 1056   6.133   6.199   1.156 -0.5813  2.2879 -0.9224
  364TIP3    H2 1057   6.218   6.074   1.160 -3.3523  0.3207 -0.9190
  365TIP3   OH2 1058   0.831   0.073   1.212  0.0291  0.3159 -0.4405
  365TIP3    H1 1059   0.763   0.125   1.255 -0.3276  0.3638 -1.0508
  365TIP3    H2 1060   0.895   0.056   1.281 -0.1821  0.9866 -0.0668
  366TIP3   OH2 1061   1.597   4.293   4.360 -0.5444 -0.0745 -0.1829
  366TIP3    H1 1062   1.502   4.297   4.352 -0.4580  0.9578 -1.1008
  366TIP3    H2 1063   1.623   4.219   4.306 -0.9818 -2.1348  2.2756
  367TIP3   OH2 1064   2.487   0.255   2.420 -0.1462  0.0336 -0.5082
  367TIP3    H1 1065   2.466   0.313   2.493 -0.4899 -2.0892  1.1689
  367TIP3    H2 1066   2.449   0.170   2.445  1.2221 -1.2006 -2.3690
  368TIP3   OH2 1067   5.286   2.085   2.459 -0.1287  0.3028  0.1657
  368TIP3    H1 1068   5.206   2.068   2.411 -0.3181 -0.6918  0.7974
  368TIP3    H2 1069   5.297   2.180   2.456  0.0399  0.2641 -2.0723
  369TIP3   OH2 1070   6.310   6.777   5.129 -0.3630  0.4457  0.0307
  369TIP3    H1 1071   6.221   6.778   5.164 -0.0734  0.5430  0.7972
  369TIP3    H2 1072   6.334   6.685   5.127 -0.6197  0.3899 -0.5477
  370TIP3   OH2 1073   2.807   3.885   0.331  0.2661  0.5407 -0.1831
  370TIP3    H1 1074   2.879   3.941   0.303 -0.0257  0.4414 -1.1641
  370TIP3    H2 1075   2.831   3.858   0.420  0.7390  1.6619  0.0549
  371TIP3   OH2 1076   2.478   3.638   0.129  0.4525 -0.2954 -0.3642
  371TIP3    H1 1077   2.458   3.676   0.043 -1.3654  0.6725  0.4117
  371TIP3    H2 1078   2.498   3.714   0.184  0.3487 -0.7797  0.3513
  372TIP3   OH2 1079   0.129   5.013   0.952  0.4161 -0.0031 -0.0797
  372TIP3    H1 1080   0.127   4.934   0.898  1.1054  0.4142 -0.7412
  372TIP3    H2 1081   0.051   5.006   1.007 -1.7827  0.7492 -2.8619
  373TIP3   OH2 1082   2.564   0.640   1.645  0.3371  0.8446 -0.4511
  373TIP3    H1 1083   2.479   0.681   1.659 -0.3113 -0.5286 -0.1286
  373TIP3    H2 1084   2.574   0.580   1.719  0.3064 -1.0050 -1.8558
  374TIP3   OH2 1085   6.559   0.905   1.283 -0.3587 -0.1354  0.2037
  374TIP3    H1 1086   6.577   0.815   1.256  1.1541  0.2290 -0.0780
  374TIP3    H2 1087   6.559   0.955   1.202 -1.1194  0.1451  0.3659
  375TIP3   OH2 1088   3.392   3.956   1.143 -0.1754 -0.2984  0.4043
  375TIP3    H1 1089   3.352   3.913   1.067  0.9818 -0.4918 -0.1227
  375TIP3    H2 1090   3.380   3.894   1.215  1.4279 -1.5414 -0.3331
  376TIP3   OH2 1091   3.645   4.458   3.638 -0.2189 -0.4847  0.7593
  376TIP3    H1 1092   3.661   4.539   3.686  0.5154 -0.3223  0.2602
  376TIP3    H2 1093   3.732   4.429   3.611 -0.6824  0.3757 -2.0071
  377TIP3   OH2 1094   0.918   6.764   1.372 -0.2799  0.1025 -0.0157
  377TIP3    H1 1095   0.989   6.729   1.318  0.1218  0.5838  0.1962
  377TIP3    H2 1096   0.948   6.751   1.462 -0.7437 -0.2728  0.0915
  378TIP3   OH2 1097   3.342   1.554   3.563 -0.0066 -0.0985 -0.2328
  378TIP3    H1 1098   3.434   1.576   3.554 -0.1397  0.9398  0.7822
  378TIP3    H2 1099   3.342   1.460   3.581  0.9094  0.0578  0.6560
  379TIP3   OH2 1100   6.150   5.751   3.982  0.1444  0.3213 -0.1546
  379TIP3    H1 1101   6.097   5.712   4.052 -0.3231 -0.1450 -0.7650
  379TIP3    H2 1102   6.212   5.807   4.029 -0.1711  0.0310  0.6385
  380TIP3   OH2 1103   6.470   2.511   0.627 -0.6492  0.0909 -0.1965
  380TIP3    H1 1104   6.476   2.456   0.549 -0.6731 -0.5442  0.2410
  380TIP3    H2 1105   6.560   2.518   0.659 -0.7764 -0.5011  0.2957
  381TIP3   OH2 1106   5.702   5.533   3.400 -0.5493  0.1545 -0.1287
  381TIP3    H1 1107   5.736   5.459   3.350  0.3247  0.4245  0.0491
  381TIP3    H2 1108   5.659   5.493   3.476 -1.8925 -0.2588 -1.0631
  382TIP3   OH2 1109   6.592   2.136   1.462 -0.3515  0.5324 -0.0361
  382TIP3    H1 1110   6.519   2.193   1.439 -0.7573  0.4539  0.9929
  382TIP3    H2 1111   6.651   2.191   1.513 -0.2115  0.3259  0.0284
  383TIP3   OH2 1112   2.925   5.313   5.709  0.0444  0.7514 -0.3429
  383TIP3    H1 1113   2.872   5.391   5.694  1.0327  1.3596 -0.7448
  383TIP3    H2 1114   2.902   5.254   5.637 -0.6284  0.6991 -0.0947
  384TIP3   OH2 1115   0.795   3.466   0.147  0.4919 -0.2843 -0.8239
  384TIP3    H1 1116   0.731   3.502   0.208  1.0341  2.2300 -1.6241
  384TIP3    H2 1117   0.743   3.427   0.077 -0.1712  0.0320 -0.5112
  385TIP3   OH2 1118   4.853   4.536   4.791  0.5149 -0.6173 -0.4843
  385TIP3    H1 1119   4.907   4.562   4.866  0.1799 -1.9030  0.2259
  385TIP3    H2 1120   4.766   4.569   4.812  0.7611  0.4902 -1.1171
  386TIP3   OH2 1121   1.085   4.784   5.747 -0.0477  0.3091  0.4380
  386TIP3    H1 1122   1.104   4.860   5.692  0.4770  0.7272  1.1861
  386TIP3    H2 1123   1.170   4.757   5.782 -0.2508 -0.5183  0.3326
  387TIP3   OH2 1124   3.108   0.756   0.904 -0.5690  0.5266  0.9234
  387TIP3    H1 1125   3.024   0.771   0.861 -0.1527 -0.9169 -0.5004
  387TIP3    H2 1126   3.086   0.707   0.984 -1.1123  0.4861  0.7520
  388TIP3   OH2 1127   6.386   0.126   0.703  0.1805 -0.3204 -0.7293
  388TIP3    H1 1128   6.371   0.034   0.722 -0.9473 -0.3174 -1.5250
  388TIP3    H2 1129   6.443   0.157   0.774 -1.2187 -1.0897  0.7640
  389TIP3   OH2 1130   0.677   6.177   0.782  0.2413 -0.6495  0.1833
  389TIP3    H1 1131   0.624   6.115   0.731  1.8576 -2.1206  0.1973
  389TIP3    H2 1132   0.623   6.198   0.858 -0.6813 -1.3767 -0.2458
  390TIP3   OH2 1133   2.754   1.220   0.409  0.1534  0.0376 -0.0325
  390TIP3    H1 1134   2.807   1.149   0.445 -1.9487 -0.8118  1.6040
  390TIP3    H2 1135   2.723   1.185   0.325  0.9458 -0.0279 -0.3133
  391TIP3   OH2 1136   2.101   5.751   3.470  0.0058 -0.4616 -0.6279
  391TIP3    H1 1137   2.065   5.693   3.402 -1.1872  0.0795 -0.4883
  391TIP3    H2 1138   2.026   5.770   3.526  0.5551  0.6373 -0.2513
  392TIP3   OH2 1139   4.071   3.172   2.287 -0.8015 -0.2760  0.7982
  392TIP3    H1 1140   4.146   3.230   2.273 -2.3090  1.6166  0.0435
  392TIP3    H2 1141   4.064   3.122   2.206 -0.0999 -0.7877  1.0491
  393TIP3   OH2 1142   0.509   0.583   4.337 -0.2599 -0.5678 -0.5339
  393TIP3    H1 1143   0.520   0.549   4.426 -2.1777  1.2309  0.4883
  393TIP3    H2 1144   0.583   0.643   4.324 -1.2959  1.1343  0.9386
  394TIP3   OH2 1145   4.328   4.254   2.037 -0.1753  0.0795 -0.5739
  394TIP3    H1 1146   4.272   4.217   2.104 -0.0304  1.2397  0.2145
  394TIP3    H2 1147   4.365   4.178   1.992 -1.2492 -0.7012 -0.1727
  395TIP3   OH2 1148   6.780   5.523   1.542  0.1131  0.0707 -0.0385
  395TIP3    H1 1149   6.790   5.443   1.492  1.8016  0.2817 -0.1068
  395TIP3    H2 1150   6.841   5.513   1.616 -1.0758  0.4825  1.0409
  396TIP3   OH2 1151   5.866   0.861   4.316  0.1590  0.3631  0.2356
  396TIP3    H1 1152   5.838   0.769   4.314 -2.5936  1.1275 -1.9082
  396TIP3    H2 1153   5.812   0.901   4.384  0.7391  0.5954  0.5673
  397TIP3   OH2 1154   2.929   4.104   4.206 -0.4356 -0.2050 -0.0212
  397TIP3    H1 1155   3.015   4.126   4.171 -0.7255 -0.1262 -0.7040
  397TIP3    H2 1156   2.945   4.029   4.264  0.0370 -0.4398 -0.4481
  398TIP3   OH2 1157   6.018   1.633   4.817  0.3971  0.5051 -0.3125
  398TIP3    H1 1158   6.038   1.668   4.903  0.0115  2.2781 -0.8978
  398TIP3    H2 1159   6.096   1.584   4.791  0.7905  0.5749  0.7269
  399TIP3   OH2 1160   0.095   0.457   4.801 -0.0856 -0.7356 -0.0006
  399TIP3    H1 1161   0.183   0.476   4.767 -0.2733  0.1166 -0.0429
  399TIP3    H2 1162   0.097   0.364   4.823  0.2235 -1.2069 -1.8293
  400TIP3   OH2 1163   5.577   2.572   5.370 -0.0387 -0.2118  0.1946
  400TIP3    H1 1164   5.666   2.537   5.365  0.8228  1.4577  2.2429
  400TIP3    H2 1165   5.535   2.519   5.438  0.2270  0.5370  0.9711
  401TIP3   OH2 1166   4.985   3.148   1.724 -0.0149 -0.2045 -0.5350
  401TIP3    H1 1167   4.958   3.212   1.790  0.5330 -0.0142 -0.4969
  401TIP3    H2 1168   4.948   3.065   1.755  0.8850 -0.2669  0.4270
  402TIP3   OH2 1169   5.294   1.671   3.442  0.5546  0.4533  0.1254
  402TIP3    H1 1170   5.300   1.580   3.414 -1.0223  0.1052  0.8282
  402TIP3    H2 1171   5.288   1.721   3.360 -1.4193 -0.3415 -0.2634
  403TIP3   OH2 1172   1.628   1.869   0.608 -0.4707 -0.2158 -0.4275
  403TIP3    H1 1173   1.567   1.941   0.595 -0.1761  0.2576  0.7071
  403TIP3    H2 1174   1.611   1.839   0.697  1.4833  0.4600  0.2120
  404TIP3   OH2 1175   6.834   6.169   0.299  0.3737  0.4181  0.0111
  404TIP3    H1 1176   6.879   6.145   0.218  0.2958  0.9067 -0.1845
  404TIP3    H2 1177   6.741   6.170   0.276  0.3789  0.9595 -0.0075
  405TIP3   OH2 1178   3.847   0.331   3.298  0.0885 -0.0446  0.1356
  405TIP3    H1 1179   3.879   0.293   3.217  0.3365 -0.8442  0.5914
  405TIP3    H2 1180   3.913   0.395   3.324 -0.1374  0.4256 -0.4370
  406TIP3   OH2 1181   6.955   1.845   2.468  0.2089 -0.0741 -0.0812
  406TIP3    H1 1182   6.912   1.830   2.384 -0.2619 -0.8278  0.2891
  406TIP3    H2 1183   7.024   1.909   2.449  0.2733 -0.4379 -1.0896
  407TIP3   OH2 1184   2.274   4.569   0.795 -0.7502  0.2889  0.4512
  407TIP3    H1 1185   2.346   4.626   0.767  1.7654 -2.9120 -0.1802
  407TIP3    H2 1186   2.303   4.535   0.879 -2.1768 -0.0889  0.8009
  408TIP3   OH2 1187   3.615   0.644   4.520 -0.4655 -0.1946  0.2259
  408TIP3    H1 1188   3.700   0.674   4.553 -0.0494 -1.0594 -0.0421
  408TIP3    H2 1189   3.574   0.723   4.485  0.1562  0.2628  0.5050
  409TIP3   OH2 1190   2.479   5.933   5.777 -0.5520 -0.1144  0.4665
  409TIP3    H1 1191   2.427   5.875   5.833 -1.2788 -1.8369 -1.8139
  409TIP3    H2 1192   2.562   5.888   5.766 -0.5392  0.0314 -0.0836
  410TIP3   OH2 1193   5.416   0.919   1.694  0.4656 -0.1216 -0.5315
  410TIP3    H1 1194   5.458   0.868   1.625  2.2727  1.4657 -0.6796
  410TIP3    H2 1195   5.488   0.951   1.748 -0.5011  2.4788 -0.6191
  411TIP3   OH2 1196   4.787   2.963   0.073 -0.3114 -0.0132 -0.4183
  411TIP3    H1 1197   4.775   2.882   0.122 -0.7869 -0.1909 -0.8205
  411TIP3    H2 1198   4.854   2.942   0.009  1.0671  0.5132  0.7847
  412TIP3   OH2 1199   2.578   5.372   4.798  0.1446 -0.7843  0.3582
  412TIP3    H1 1200   2.557   5.349   4.708 -3.3761  0.4839  0.7047
  412TIP3    H2 1201   2.584   5.288   4.844 -0.3172 -1.3659 -0.6211
  413TIP3   OH2 1202   5.980   1.641   1.627  0.1965 -0.4358 -0.2104
  413TIP3    H1 1203   5.927   1.641   1.547  1.6694 -1.1827 -1.2402
  413TIP3    H2 1204   5.918   1.658   1.697 -1.5247 -1.8744 -1.2938
  414TIP3   OH2 1205   5.195   5.030   3.224 -0.1361 -0.1836  0.1284
  414TIP3    H1 1206   5.139   5.107   3.217 -1.2236 -0.9015  0.8294
  414TIP3    H2 1207   5.182   4.983   3.141  0.1375  0.1084 -0.0849
  415TIP3   OH2 1208   6.707   2.974   4.315  0.4176  0.1975  0.0692
  415TIP3    H1 1209   6.647   2.911   4.354  1.1283 -1.1542 -0.9404
  415TIP3    H2 1210   6.784   2.972   4.373 -0.0756  1.1513  0.7781
  416TIP3   OH2 1211   0.326   5.629   5.189 -0.1121 -0.2549  0.0447
  416TIP3    H1 1212   0.334   5.551   5.135 -0.3972 -0.8399  0.8284
  416TIP3    H2 1213   0.335   5.598   5.279 -2.1304  0.2931  0.5099
  417TIP3   OH2 1214   2.176   2.810   1.799 -0.2086  0.4093  0.0431
  417TIP3    H1 1215   2.087   2.843   1.815 -1.2498 -1.3303 -1.6525
  417TIP3    H2 1216   2.223   2.884   1.762 -0.9884  1.3038  0.7808
  418TIP3   OH2 1217   6.241   5.039   3.218 -0.1295 -0.2887 -0.0515
  418TIP3    H1 1218   6.224   4.962   3.163  0.1573 -0.2584 -0.1846
  418TIP3    H2 1219   6.245   5.111   3.156 -1.3356 -0.0116  0.1591
  419TIP3   OH2 1220   4.303   0.528   0.607  0.2062  0.2174 -0.3629
  419TIP3    H1 1221   4.378   0.560   0.557  1.6862 -0.9652  1.0012
  419TIP3    H2 1222   4.293   0.437   0.580 -0.1955  0.1246  0.0812
  420TIP3   OH2 1223   5.607   1.268   4.295  0.2037 -0.3027 -0.6338
  420TIP3    H1 1224   5.531   1.273   4.237 -0.4147  0.1218  0.1775
  420TIP3    H2 1225   5.609   1.177   4.324 -1.1840  0.0622  0.8163
  421TIP3   OH2 1226   2.062   5.012   2.347  0.3898 -0.3333  0.1480
  421TIP3    H1 1227   2.120   4.989   2.274 -0.9851  0.9899 -1.4514
  421TIP3    H2 1228   2.110   5.080   2.395  0.6073  0.0019 -0.5333
  422TIP3   OH2 1229   2.511   1.998   4.814 -0.0342 -0.0177  0.0604
  422TIP3    H1 1230   2.455   2.066   4.777 -2.1895 -0.4394  2.3227
  422TIP3    H2 1231   2.488   1.919   4.765 -0.1317  0.1583 -0.1795
  423TIP3   OH2 1232   3.478   5.668   3.494  0.7292  0.6863 -0.2140
  423TIP3    H1 1233   3.442   5.692   3.409 -0.6245  0.9474  0.4085
  423TIP3    H2 1234   3.490   5.573   3.488 -0.8175  0.4655 -0.1941
  424TIP3   OH2 1235   4.563   5.766   4.937 -0.0648 -0.4777  0.1891
  424TIP3    H1 1236   4.654   5.788   4.954 -0.1941 -0.2595  0.5974
  424TIP3    H2 1237   4.541   5.814   4.857 -0.5081  1.3428  1.3575
  425TIP3   OH2 1238   3.160   3.880   4.868 -0.6789  0.0268  0.3740
  425TIP3    H1 1239   3.103   3.812   4.829  0.4417 -0.6819 -0.0822
  425TIP3    H2 1240   3.234   3.831   4.903  1.9723  1.1790 -3.0828
  426TIP3   OH2 1241   2.377   5.837   5.214  0.0717  0.7991 -0.2576
  426TIP3    H1 1242   2.398   5.921   5.175  0.7215  1.2564  1.0046
  426TIP3    H2 1243   2.409   5.772   5.151  1.7474  1.4993 -0.1838
  427TIP3   OH2 1244   3.591   6.587   1.908  0.0389  0.1778 -0.5099
  427TIP3    H1 1245   3.598   6.626   1.995 -0.5864  0.6458 -0.6601
  427TIP3    H2 1246   3.563   6.659   1.852 -1.9544 -0.6369 -0.6419
  428TIP3   OH2 1247   4.707   6.467   2.928 -0.3923 -0.0067 -0.2704
  428TIP3    H1 1248   4.699   6.517   2.847 -0.7079 -0.1725 -0.3405
  428TIP3    H2 1249   4.624   6.422   2.937 -0.2698 -0.1756  0.0241
  429TIP3   OH2 1250   0.446   1.493   0.410 -0.3804  0.1367  0.0690
  429TIP3    H1 1251   0.447   1.589   0.412  2.1765  0.2642 -1.6116
  429TIP3    H2 1252   0.394   1.468   0.486  0.4993  2.8470  1.7416
  430TIP3   OH2 1253   6.102   0.632   2.750 -0.3431  0.4937 -0.0023
  430TIP3    H1 1254   6.150   0.713   2.730 -0.9865  0.8125 -0.3067
  430TIP3    H2 1255   6.014   0.647   2.713 -0.7871  0.0769  0.8516
  431TIP3   OH2 1256   1.113   2.624   0.122 -0.1385 -0.1117  0.4574
  431TIP3    H1 1257   1.114   2.561   0.194  1.7347  0.2349  0.7761
  431TIP3    H2 1258   1.027   2.666   0.129 -1.0334 -1.9061  0.8396
  432TIP3   OH2 1259   2.129   2.179   1.937  0.2915 -0.2156 -0.0548
  432TIP3    H1 1260   2.196   2.195   2.004 -0.4861 -0.8238  0.9120
  432TIP3    H2 1261   2.057   2.236   1.962 -0.5840 -1.5239  0.5376
  433TIP3   OH2 1262   3.720   2.566   4.442 -0.6523  0.2276  0.2421
  433TIP3    H1 1263   3.686   2.650   4.410 -0.8821  0.2931  0.6525
  433TIP3    H2 1264   3.706   2.569   4.537 -1.7423 -0.7595  0.1326
  434TIP3   OH2 1265   5.806   2.402   5.408 -0.2069  0.1073  0.0861
  434TIP3    H1 1266   5.865   2.462   5.455 -2.2003  1.4157  1.0481
  434TIP3    H2 1267   5.767   2.349   5.477 -0.1588 -0.7630 -0.5451
  435TIP3   OH2 1268   4.079   1.210   5.085 -0.2186 -0.4057  0.3787
  435TIP3    H1 1269   4.144   1.190   5.017 -1.1420 -0.7054 -0.4499
  435TIP3    H2 1270   4.112   1.288   5.128  1.9914 -1.9577  1.7003
  436TIP3   OH2 1271   1.446   1.901   1.505 -0.3778  0.0273 -0.0724
  436TIP3    H1 1272   1.483   1.977   1.460 -1.3046  0.5737  0.0641
  436TIP3    H2 1273   1.443   1.927   1.598  1.7044 -1.1633  0.3881
  437TIP3   OH2 1274   2.471   4.725   3.946 -0.9288  0.4640  0.6372
  437TIP3    H1 1275   2.446   4.772   3.867  0.0215 -2.7309 -1.7632
  437TIP3    H2 1276   2.390   4.681   3.974 -0.4339 -1.6926 -1.0987
  438TIP3   OH2 1277   6.253   6.015   4.986 -0.1723  0.2936 -0.1574
  438TIP3    H1 1278   6.206   6.027   4.904  0.0772  0.4842 -0.2743
  438TIP3    H2 1279   6.312   5.942   4.969  0.3051  0.7120 -0.3430
  439TIP3   OH2 1280   4.860   4.051   5.862  0.1668  0.2507  0.3667
  439TIP3    H1 1281   4.815   4.028   5.781 -2.3949  1.1282  1.4362
  439TIP3    H2 1282   4.898   3.969   5.893  0.6243 -0.2169 -1.3487
  440TIP3   OH2 1283   0.141   4.579   0.634  0.1692  0.2788  0.3123
  440TIP3    H1 1284   0.071   4.561   0.571 -0.1303  0.1965  0.6594
  440TIP3    H2 1285   0.213   4.614   0.582  0.7014 -1.6990 -0.3885
  441TIP3   OH2 1286   2.812   1.396   5.054 -0.0210  0.4219 -0.2208
  441TIP3    H1 1287   2.813   1.328   4.987  0.3310  1.1557 -0.9664
  441TIP3    H2 1288   2.837   1.350   5.135 -1.3981 -0.6699 -0.3702
  442TIP3   OH2 1289   6.275   4.736   1.351 -0.3148 -0.7617 -0.5870
  442TIP3    H1 1290   6.282   4.832   1.355 -0.8078 -0.6565 -1.8295
  442TIP3    H2 1291   6.245   4.711   1.438 -0.5308  0.2477 -0.3524
  443TIP3   OH2 1292   5.004   2.649   3.934 -0.1747 -0.3363  0.1223
  443TIP3    H1 1293   4.915   2.618   3.920 -0.5168  0.9669 -0.8401
  443TIP3    H2 1294   4.998   2.744   3.920  0.8144  0.2012  2.7948
  444TIP3   OH2 1295   5.249   1.240   5.913  0.3445 -0.3460 -0.3557
  444TIP3    H1 1296   5.298   1.206   5.838 -1.3182 -0.4349 -1.4562
  444TIP3    H2 1297   5.227   1.330   5.890 -1.1560 -0.7222 -0.5254
  445TIP3   OH2 1298   4.222   5.574   4.938  0.3774 -0.0377  0.1378
  445TIP3    H1 1299   4.136   5.560   4.976  0.2362 -0.2963 -0.2687
  445TIP3    H2 1300   4.212   5.548   4.846 -0.3564  4.0471 -1.1601
  446TIP3   OH2 1301   3.190   3.899   0.205  0.5579 -0.4152  0.8868
  446TIP3    H1 1302   3.224   3.810   0.197 -0.4890 -0.8122  0.6323
  446TIP3    H2 1303   3.257   3.954   0.165  2.0026 -0.8874  2.5776
  447TIP3   OH2 1304   2.582   5.832   3.315 -0.3071  0.5470 -0.4911
  447TIP3    H1 1305   2.509   5.842   3.377 -0.9292  0.8593 -1.2604
  447TIP3    H2 1306   2.645   5.778   3.362 -1.3257 -0.3096 -0.0622
  448TIP3   OH2 1307   6.346   2.141   0.407 -0.1212 -0.0039  0.2448
  448TIP3    H1 1308   6.254   2.118   0.395 -0.2846  0.9474 -0.5142
  448TIP3    H2 1309   6.369   2.187   0.326  0.5096  1.3241  1.1369
  449TIP3   OH2 1310   5.836   0.744   2.720 -0.0843 -0.0807  0.8616
  449TIP3    H1 1311   5.846   0.766   2.813  0.2462 -1.0747  1.0818
  449TIP3    H2 1312   5.758   0.688   2.718  0.2169 -0.4928  0.6233
  450TIP3   OH2 1313   4.001   2.502   4.448 -0.1783 -0.1998  0.1246
  450TIP3    H1 1314   3.943   2.574   4.422  0.2273  0.1407  0.1479
  450TIP3    H2 1315   3.955   2.458   4.519 -1.3064 -1.1433 -1.1594
  451TIP3   OH2 1316   2.468   0.085   5.814 -0.2983  0.3686 -0.0498
  451TIP3    H1 1317   2.399   0.108   5.752 -1.2435 -0.3291  0.7231
  451TIP3    H2 1318   2.540   0.053   5.759  0.1046  2.6409 -0.9868
  452TIP3   OH2 1319   4.823   0.555   1.679  0.2888 -0.2802 -0.4209
  452TIP3    H1 1320   4.851   0.469   1.650  2.6171  0.0521  0.5588
  452TIP3    H2 1321   4.824   0.609   1.600  1.8132 -0.4815 -0.5643
  453TIP3   OH2 1322   2.644   4.986   4.580 -0.5780  0.0667  0.0343
  453TIP3    H1 1323   2.702   4.931   4.527 -2.1186  0.2830 -1.9709
  453TIP3    H2 1324   2.703   5.050   4.622  0.7411 -0.3649 -1.0970
  454TIP3   OH2 1325   3.814   6.121   4.751 -0.6084 -0.2650 -0.0979
  454TIP3    H1 1326   3.853   6.073   4.824 -0.8157 -1.6420 -0.8534
  454TIP3    H2 1327   3.739   6.068   4.725  0.2246 -0.5522 -2.1557
  455TIP3   OH2 1328   3.562   3.247   2.105 -0.1769 -0.0269  0.0931
  455TIP3    H1 1329   3.585   3.224   2.014 -0.4809 -0.3916  0.1064
  455TIP3    H2 1330   3.598   3.176   2.157 -0.3247 -0.0051  0.2242
  456TIP3   OH2 1331   3.791   1.750   5.757 -0.5005 -0.3321  0.2325
  456TIP3    H1 1332   3.775   1.824   5.817 -0.3700 -0.2664  0.1855
  456TIP3    H2 1333   3.859   1.781   5.698 -0.5325 -0.4475  0.1348
  457TIP3   OH2 1334   2.688   6.492   0.072  0.3586  0.3449 -0.2534
  457TIP3    H1 1335   2.659   6.502   0.163  0.6134  0.6585 -0.2019
  457TIP3    H2 1336   2.620   6.440   0.030  0.5904 -0.4241  0.2998
  458TIP3   OH2 1337   4.877   3.056   1.465  0.4219 -0.6057  0.1374
  458TIP3    H1 1338   4.895   2.962   1.467 -1.0868 -0.9182  0.6599
  458TIP3    H2 1339   4.931   3.093   1.535  0.8266 -1.1059  0.0958
  459TIP3   OH2 1340   5.020   0.067   5.170 -0.1035 -0.5552 -0.1035
  459TIP3    H1 1341   4.967   0.147   5.174  0.9931  0.1626  0.3564
  459TIP3    H2 1342   5.036   0.044   5.261 -0.1549 -1.1314 -0.2384
  460TIP3   OH2 1343   5.448   3.655   4.484 -0.0576  0.0564  0.2831
  460TIP3    H1 1344   5.471   3.741   4.521 -1.0961  0.2450  0.5209
  460TIP3    H2 1345   5.466   3.593   4.554 -1.0580  0.3024  0.7832
  461TIP3   OH2 1346   4.723   4.984   1.918  0.6501  0.1143 -0.6558
  461TIP3    H1 1347   4.745   4.930   1.994  0.9332  2.5484  1.1198
  461TIP3    H2 1348   4.773   4.945   1.846  0.0207 -2.5587  0.2332
  462TIP3   OH2 1349   1.140   5.922   1.669 -0.6032  0.3915 -0.3234
  462TIP3    H1 1350   1.229   5.913   1.635 -0.4190 -0.1549  0.2808
  462TIP3    H2 1351   1.098   5.838   1.651 -0.7175  0.3391  0.1666
  463TIP3   OH2 1352   1.944   0.579   3.775 -0.1156 -0.1022 -0.1206
  463TIP3    H1 1353   1.880   0.542   3.836  0.0273  0.8481  0.6149
  463TIP3    H2 1354   2.015   0.610   3.830  0.6155 -0.3946 -0.8755
  464TIP3   OH2 1355   2.691   5.626   5.049  0.3201  0.7208 -0.4165
  464TIP3    H1 1356   2.702   5.544   5.097  2.7364  1.4721  0.4854
  464TIP3    H2 1357   2.611   5.614   4.998 -0.8449 -1.1944  1.6668
  465TIP3   OH2 1358   5.577   1.217   0.362 -0.6240  0.3423  0.1388
  465TIP3    H1 1359   5.561   1.149   0.296  2.2644 -1.0202  0.6922
  465TIP3    H2 1360   5.502   1.209   0.422 -1.1675 -1.2755 -0.6698
  466TIP3   OH2 1361   5.909   3.265   5.058  0.2339  0.0024 -0.0681
  466TIP3    H1 1362   5.842   3.290   4.994 -0.1691  1.1769  0.7689
  466TIP3    H2 1363   5.884   3.312   5.138  2.1440  0.6005  0.2238
  467TIP3   OH2 1364   2.670   0.283   5.455  0.0640  0.3737 -0.1161
  467TIP3    H1 1365   2.734   0.252   5.518 -1.3774  0.6480  1.5641
  467TIP3    H2 1366   2.634   0.203   5.416 -0.3292  0.1150  0.7629
  468TIP3   OH2 1367   5.377   2.356   2.051 -0.2223  0.1062 -0.6109
  468TIP3    H1 1368   5.411   2.416   2.118 -0.3956 -0.1115 -0.3285
  468TIP3    H2 1369   5.433   2.371   1.975 -0.1734  0.5266 -0.4957
  469TIP3   OH2 1370   4.088   2.133   4.654  0.0485  0.0746  0.3355
  469TIP3    H1 1371   4.129   2.203   4.604 -1.0303  0.5134  0.0360
  469TIP3    H2 1372   4.004   2.117   4.609 -1.0396  0.6017  2.0719
  470TIP3   OH2 1373   2.048   4.058   1.586  0.2689  0.1754 -0.5599
  470TIP3    H1 1374   2.050   3.988   1.520  1.0558 -0.4328  0.0889
  470TIP3    H2 1375   1.983   4.120   1.553  0.0027 -0.5580 -1.4600
  471TIP3   OH2 1376   3.245   4.049   3.683  0.3287  0.0293 -0.2695
  471TIP3    H1 1377   3.191   4.055   3.763  0.6077 -0.2743 -0.0542
  471TIP3    H2 1378   3.323   4.100   3.703 -0.3511  1.4185 -0.9953
  472TIP3   OH2 1379   2.920   2.869   2.636  0.1939  0.7127 -0.1588
  472TIP3    H1 1380   2.973   2.911   2.704 -0.8440  0.5877  0.7576
  472TIP3    H2 1381   2.864   2.939   2.603 -0.0756  0.5237 -0.1049
  473TIP3   OH2 1382   6.009   1.877   1.907  0.2645  0.4665  1.0049
  473TIP3    H1 1383   5.969   1.917   1.831  0.5887 -0.2156  0.4613
  473TIP3    H2 1384   5.945   1.888   1.977 -1.0926 -0.9455  0.0615
  474TIP3   OH2 1385   4.223   0.338   0.363 -0.0370  0.3575 -0.2787
  474TIP3    H1 1386   4.164   0.406   0.329 -0.3677  0.8952  1.2605
  474TIP3    H2 1387   4.308   0.359   0.324 -0.2313  1.4193 -0.1822
  475TIP3   OH2 1388   6.235   2.345   1.858  0.1654  0.1592  0.0425
  475TIP3    H1 1389   6.288   2.300   1.793 -0.6754  1.1992 -1.4056
  475TIP3    H2 1390   6.225   2.281   1.929  0.7525 -1.1587 -1.0185
  476TIP3   OH2 1391   2.229   2.934   2.212 -0.4067  0.1944  0.1259
  476TIP3    H1 1392   2.226   2.842   2.185 -1.8644  0.1337  0.3818
  476TIP3    H2 1393   2.239   2.983   2.131  4.7223 -0.2360  0.2005
  477TIP3   OH2 1394   1.396   2.705   0.261  0.0304  0.1402  0.1343
  477TIP3    H1 1395   1.307   2.721   0.231 -0.2679  0.0343  0.9279
  477TIP3    H2 1396   1.405   2.609   0.258 -0.1825  0.0929  0.8624
  478TIP3   OH2 1397   7.001   4.720   0.360  0.0147  0.2854  0.7873
  478TIP3    H1 1398   6.907   4.712   0.342 -0.1114  0.7426  1.1985
  478TIP3    H2 1399   7.030   4.792   0.303  0.0720  0.2756  0.8042
  479TIP3   OH2 1400   0.972   0.975   1.480 -0.5232  0.8021 -0.1781
  479TIP3    H1 1401   0.905   1.040   1.457  0.6662  1.2262 -2.7391
  479TIP3    H2 1402   0.980   0.920   1.403  0.2932 -0.8500  1.0304
  480TIP3   OH2 1403   6.020   0.408   1.037  0.3070  0.1492 -0.0487
  480TIP3    H1 1404   6.015   0.313   1.046  0.8232 -0.1169 -2.1720
  480TIP3    H2 1405   5.931   0.438   1.054  0.3052 -0.5958  1.4514
  481TIP3   OH2 1406   5.059   1.287   0.841  0.0198 -0.2908 -0.7337
  481TIP3    H1 1407   5.008   1.367   0.835  0.8510  0.2126 -1.1825
  481TIP3    H2 1408   5.115   1.299   0.917 -0.3036 -0.7097 -0.4274
  482TIP3   OH2 1409   3.656   0.754   2.415  0.3532  0.4756  0.4142
  482TIP3    H1 1410   3.656   0.675   2.360 -2.3268  0.9500 -0.4193
  482TIP3    H2 1411   3.745   0.789   2.406  1.2652 -1.7601 -0.1667
  483TIP3   OH2 1412   6.015   4.161   3.909  1.0411 -0.3080 -0.2294
  483TIP3    H1 1413   5.932   4.161   3.956  1.2179 -0.7012  0.0996
  483TIP3    H2 1414   6.009   4.086   3.849  0.5321  0.6239 -1.3680
  484TIP3   OH2 1415   6.510   1.453   4.661  0.4930  0.3444  0.1137
  484TIP3    H1 1416   6.579   1.388   4.677  0.3959  0.2140 -0.0029
  484TIP3    H2 1417   6.504   1.458   4.566 -0.2713 -0.2885  0.1185
  485TIP3   OH2 1418   5.704   5.549   1.843 -0.0851 -0.4279 -0.0427
  485TIP3    H1 1419   5.718   5.635   1.803  1.2908 -0.4384  0.3467
  485TIP3    H2 1420   5.681   5.491   1.770 -0.9161  0.2344 -0.3212
  486TIP3   OH2 1421   3.776   2.724   2.744  0.3916  0.6977  0.2691
  486TIP3    H1 1422   3.698   2.734   2.690 -0.5271 -1.6199  1.0116
  486TIP3    H2 1423   3.760   2.778   2.821 -0.2211  0.7178  0.1268
  487TIP3   OH2 1424   3.500   2.997   4.563  0.3146 -0.1374  0.1872
  487TIP3    H1 1425   3.422   3.043   4.595  0.7021  0.6105  0.0864
  487TIP3    H2 1426   3.469   2.946   4.488 -0.0616  0.2154  0.1010
  488TIP3   OH2 1427   0.056   5.567   3.006  0.2580  0.1715 -0.2799
  488TIP3    H1 1428   0.135   5.563   2.951  1.3213 -2.8550  1.2731
  488TIP3    H2 1429   0.089   5.565   3.096 -1.5505 -2.3079  0.4282
  489TIP3   OH2 1430   7.178   5.369   4.024  0.2957 -0.6668 -0.0480
  489TIP3    H1 1431   7.089   5.372   4.060 -0.9381 -1.5247 -2.7179
  489TIP3    H2 1432   7.214   5.286   4.056 -0.0011 -0.4998  0.7347
  490TIP3   OH2 1433   1.799   3.511   4.687 -0.1570  0.0167 -0.6440
  490TIP3    H1 1434   1.744   3.589   4.678  1.9189  1.6641  0.0508
  490TIP3    H2 1435   1.770   3.471   4.769  0.3396  1.4795  0.2887
  491TIP3   OH2 1436   4.766   6.340   2.009 -0.3611 -0.3427  0.2063
  491TIP3    H1 1437   4.827   6.369   2.076  0.6958 -0.7142 -0.5733
  491TIP3    H2 1438   4.821   6.298   1.943 -1.5909 -1.9278  0.1362
  492TIP3   OH2 1439   2.816   2.155   4.185  0.4863 -0.3780  0.0594
  492TIP3    H1 1440   2.806   2.073   4.137 -0.5562 -0.8802  1.0945
  492TIP3    H2 1441   2.760   2.145   4.261  0.4722  1.2386  0.2905
  493TIP3   OH2 1442   3.041   0.430   5.536 -0.9713  0.0147  0.8369
  493TIP3    H1 1443   3.122   0.440   5.587  0.3969 -1.8871 -0.7996
  493TIP3    H2 1444   3.016   0.338   5.549 -1.1190 -0.2522 -1.0590
  494TIP3   OH2 1445   4.597   3.541   5.256 -0.3088 -0.2616  0.6340
  494TIP3    H1 1446   4.507   3.551   5.226  0.0937  0.0115 -0.5335
  494TIP3    H2 1447   4.608   3.446   5.268 -0.5981 -0.3406  0.2875
  495TIP3   OH2 1448   2.693   1.104   0.153 -0.2271  0.0858  0.2625
  495TIP3    H1 1449   2.688   1.019   0.108 -0.5048  0.3572 -0.2254
  495TIP3    H2 1450   2.611   1.148   0.130  0.2797  0.8254 -0.1672
  496TIP3   OH2 1451   0.709   1.742   2.167 -0.0586  0.6817  0.7591
  496TIP3    H1 1452   0.709   1.658   2.212 -0.2249  0.3085  0.0791
  496TIP3    H2 1453   0.622   1.750   2.129  0.0218  1.0681  0.6473
  497TIP3   OH2 1454   6.752   1.833   2.651 -0.2274  0.2149  0.2072
  497TIP3    H1 1455   6.825   1.838   2.589 -0.7976 -0.6916 -0.5562
  497TIP3    H2 1456   6.689   1.774   2.610 -0.8211 -0.0576  1.4551
  498TIP3   OH2 1457   2.540   6.246   5.368  0.1257  0.2431  0.2290
  498TIP3    H1 1458   2.459   6.232   5.319 -1.0320  1.1240  1.8161
  498TIP3    H2 1459   2.587   6.163   5.360 -1.2296 -0.5175 -0.1931
  499TIP3   OH2 1460   4.285   5.827   3.276 -0.1752 -0.0702 -0.0604
  499TIP3    H1 1461   4.303   5.769   3.203 -1.7527 -0.4189 -0.2096
  499TIP3    H2 1462   4.341   5.795   3.347  0.1831 -0.7270 -0.6325
  500TIP3   OH2 1463   0.387   6.474   2.517  0.5827 -0.5069 -0.1166
  500TIP3    H1 1464   0.438   6.395   2.504 -1.4620 -1.6397 -1.9185
  500TIP3    H2 1465   0.414   6.532   2.446  1.7346  0.3046  0.9265
  501TIP3   OH2 1466   0.855   1.348   2.792  0.4131  0.0835  0.4281
  501TIP3    H1 1467   0.880   1.441   2.787  0.3865  0.0406 -0.5550
  501TIP3    H2 1468   0.806   1.332   2.712  2.0739 -1.2777 -0.3712
  502TIP3   OH2 1469   0.896   2.731   4.702  0.6059  0.0035  0.9523
  502TIP3    H1 1470   0.989   2.749   4.687  0.3167  1.3763  0.7082
  502TIP3    H2 1471   0.891   2.635   4.710  2.4593  0.0141  3.8430
  503TIP3   OH2 1472   7.092   0.546   4.334 -0.5035 -0.4899  0.0272
  503TIP3    H1 1473   7.074   0.620   4.392  0.5925 -1.5347  1.7834
  503TIP3    H2 1474   7.010   0.497   4.330  0.0720 -1.8997  3.0085
  504TIP3   OH2 1475   2.460   6.015   3.947  0.0252 -0.2810  0.1516
  504TIP3    H1 1476   2.488   5.929   3.916 -0.1035 -0.2732  0.0115
  504TIP3    H2 1477   2.434   6.062   3.867  2.6228  0.8323 -0.1281
  505TIP3   OH2 1478   7.166   6.225   0.573 -0.0496  0.1546  0.4666
  505TIP3    H1 1479   7.222   6.160   0.530 -1.2856  1.5209 -3.6197
  505TIP3    H2 1480   7.208   6.309   0.555 -1.4416  0.9171  0.6352
  506TIP3   OH2 1481   6.821   2.612   3.870  0.0615 -0.3560 -0.6325
  506TIP3    H1 1482   6.899   2.604   3.925 -1.0470 -0.3508  0.9886
  506TIP3    H2 1483   6.783   2.525   3.869 -0.2516 -0.2197 -0.9177
  507TIP3   OH2 1484   6.025   1.480   2.249  0.5409  0.4710  0.3851
  507TIP3    H1 1485   6.117   1.477   2.224  0.4932  0.8083  0.1694
  507TIP3    H2 1486   6.021   1.428   2.329  0.6917 -0.6407 -0.3049
  508TIP3   OH2 1487   0.105   0.639   1.730 -0.2757  0.1461  0.0435
  508TIP3    H1 1488   0.046   0.573   1.693  0.0531  0.6188 -1.3838
  508TIP3    H2 1489   0.062   0.666   1.811 -1.0642 -0.8873 -0.0044
  509TIP3   OH2 1490   6.229   2.806   2.860 -0.6926 -0.2321  0.0644
  509TIP3    H1 1491   6.160   2.822   2.795  0.3711  1.5732 -0.7001
  509TIP3    H2 1492   6.310   2.812   2.810  0.0922 -0.3664  1.2898
  510TIP3   OH2 1493   1.319   0.205   4.150  1.3521  0.4424  0.0057
  510TIP3    H1 1494   1.240   0.227   4.200  0.7062 -0.1384 -0.7319
  510TIP3    H2 1495   1.390   0.207   4.214  0.2880 -2.1900  1.3997
  511TIP3   OH2 1496   6.752   3.312   1.256  0.1334  0.0583  0.0892
  511TIP3    H1 1497   6.683   3.281   1.197 -0.4971 -1.1770  1.4264
  511TIP3    H2 1498   6.773   3.400   1.223 -1.5378  0.1718 -0.8175
  512TIP3   OH2 1499   6.669   2.610   1.207 -0.1080 -0.0304 -0.2636
  512TIP3    H1 1500   6.677   2.679   1.273 -1.1739 -0.2738  0.1389
  512TIP3    H2 1501   6.650   2.656   1.126  0.4403  0.2196 -0.2555
  513TIP3   OH2 1502   5.625   3.058   1.450 -0.1680 -0.1465 -0.4701
  513TIP3    H1 1503   5.621   3.096   1.538 -2.4674  1.2252 -1.0930
  513TIP3    H2 1504   5.601   2.966   1.462 -0.6179  0.0666  0.3153
  514TIP3   OH2 1505   6.556   0.306   0.828 -0.0595  0.6158 -0.5162
  514TIP3    H1 1506   6.520   0.373   0.769  1.6178  2.5078  0.5130
  514TIP3    H2 1507   6.649   0.326   0.834  0.4422 -1.6387  0.1168
  515TIP3   OH2 1508   0.087   6.701   5.509  0.4264  0.2860  0.1263
  515TIP3    H1 1509   0.143   6.720   5.434 -0.2130  0.0673 -0.4242
  515TIP3    H2 1510   0.054   6.612   5.493  1.7914 -0.5408  1.6414
  516TIP3   OH2 1511   0.087   3.328   4.363  0.0139  0.4433 -0.5726
  516TIP3    H1 1512   0.138   3.384   4.305 -2.4526  1.8883 -1.5134
  516TIP3    H2 1513  -0.003   3.339   4.333 -1.1210 -0.4233  2.2257
  517TIP3   OH2 1514   0.609   2.580   4.187 -0.2931 -0.0559  0.0133
  517TIP3    H1 1515   0.585   2.526   4.262 -0.5596 -1.3891 -1.0007
  517TIP3    H2 1516   0.686   2.538   4.150  1.9285  2.4768  1.4331
  518TIP3   OH2 1517   3.912   4.753   3.204 -0.1333  0.5732 -0.0512
  518TIP3    H1 1518   3.915   4.691   3.278 -0.0777  0.3761 -0.2187
  518TIP3    H2 1519   4.002   4.758   3.173 -0.2437  0.2624 -0.4311
  519TIP3   OH2 1520   2.719   2.123   2.703  0.1132  0.1464  0.0277
  519TIP3    H1 1521   2.705   2.196   2.762 -0.1879  1.8601 -2.0321
  519TIP3    H2 1522   2.634   2.111   2.660  0.1091 -1.5594  0.4306
  520TIP3   OH2 1523   6.744   6.370   1.681 -0.1386  0.6425 -0.0733
  520TIP3    H1 1524   6.702   6.362   1.767  0.9779  2.4451  0.6914
  520TIP3    H2 1525   6.835   6.345   1.695 -0.0251  0.5933 -0.8223
  521TIP3   OH2 1526   6.239   3.072   1.972 -0.8939 -0.4321  0.4548
  521TIP3    H1 1527   6.301   3.117   1.916 -0.5553 -0.2521  0.9704
  521TIP3    H2 1528   6.153   3.093   1.935 -0.7956  1.2167  1.0919
  522TIP3   OH2 1529   5.182   0.749   1.756 -0.2430 -0.2636  0.2535
  522TIP3    H1 1530   5.207   0.676   1.699  0.4767  0.8325 -0.8923
  522TIP3    H2 1531   5.260   0.806   1.757 -1.0061  0.7949  0.5957
  523TIP3   OH2 1532   5.513   3.713   2.019 -0.6771  0.4008  0.0281
  523TIP3    H1 1533   5.522   3.802   2.055 -0.1647  0.1559  0.5147
  523TIP3    H2 1534   5.477   3.662   2.092 -2.6297  0.5574 -0.7491
  524TIP3   OH2 1535   3.925   3.725   0.016 -0.3090  0.1322  0.1980
  524TIP3    H1 1536   3.974   3.659  -0.033 -1.6436  0.0239 -1.0698
  524TIP3    H2 1537   3.990   3.768   0.071  1.0446 -0.5499 -0.8129
  525TIP3   OH2 1538   1.763   2.624   5.804  0.0825 -0.4813  0.9016
  525TIP3    H1 1539   1.740   2.531   5.808  2.2158 -1.2624 -1.5928
  525TIP3    H2 1540   1.689   2.669   5.845 -0.5396 -3.2924  3.1801
  526TIP3   OH2 1541   0.692   4.369   2.460 -0.6815  0.4963  0.2679
  526TIP3    H1 1542   0.600   4.382   2.483 -1.0021  0.2855 -0.8396
  526TIP3    H2 1543   0.707   4.275   2.472 -0.4798  0.5996  0.8692
  527TIP3   OH2 1544   2.445   1.884   3.141  0.2563 -0.3088 -0.1087
  527TIP3    H1 1545   2.437   1.934   3.223 -0.8685  0.6669 -0.7660
  527TIP3    H2 1546   2.362   1.835   3.135 -0.0822  0.3473 -1.0930
  528TIP3   OH2 1547   4.463   5.667   0.419 -0.2233 -0.5767  0.2271
  528TIP3    H1 1548   4.384   5.699   0.376  0.1985 -0.1738 -0.2629
  528TIP3    H2 1549   4.527   5.658   0.349  0.2970 -0.4954  0.6819
  529TIP3   OH2 1550   5.574   0.493   1.617 -0.6404  0.7949 -0.1963
  529TIP3    H1 1551   5.594   0.404   1.587  1.7983  0.6756  1.4911
  529TIP3    H2 1552   5.493   0.483   1.667  0.3675 -0.8309  1.2360
  530TIP3   OH2 1553   1.463   6.015   3.347  0.7669 -0.0751  0.0652
  530TIP3    H1 1554   1.418   6.073   3.285 -1.0712 -2.0073 -0.5011
  530TIP3    H2 1555   1.476   5.934   3.298 -0.7401 -1.6694  2.1896
  531TIP3   OH2 1556   4.303   0.909   2.937 -0.4605  0.6381  0.0555
  531TIP3    H1 1557   4.349   0.915   3.022 -3.2296 -0.5977  1.7747
  531TIP3    H2 1558   4.362   0.856   2.883  0.2573 -0.8027  2.1006
  532TIP3   OH2 1559   1.647   1.150   4.586  0.0329 -0.1441 -0.3478
  532TIP3    H1 1560   1.565   1.100   4.585 -0.3260  0.4332 -1.4746
  532TIP3    H2 1561   1.621   1.237   4.616  0.4619 -0.3009  0.5092
  533TIP3   OH2 1562   7.201   1.020   1.788  0.2557 -0.4606 -0.1155
  533TIP3    H1 1563   7.122   0.985   1.829 -0.2559  0.2930 -0.4406
  533TIP3    H2 1564   7.180   1.026   1.695 -0.2279  2.0255  0.0828
  534TIP3   OH2 1565   3.953   5.936   5.300  0.3863  0.5269  0.1370
  534TIP3    H1 1566   3.962   5.866   5.365  0.3122 -1.1700 -1.5644
  534TIP3    H2 1567   3.872   5.914   5.253 -1.3487  3.5185  1.4684
  535TIP3   OH2 1568   2.087   1.864   5.400 -0.4135 -0.0405  0.8102
  535TIP3    H1 1569   2.179   1.887   5.406 -0.2886 -0.8297  2.9560
  535TIP3    H2 1570   2.049   1.928   5.340  0.8675  2.4639  2.5039
  536TIP3   OH2 1571   3.589   2.617   4.719 -0.2009 -0.0295 -0.4341
  536TIP3    H1 1572   3.517   2.558   4.740  0.2571 -1.2491 -2.0951
  536TIP3    H2 1573   3.554   2.705   4.735 -1.2061 -0.6863  1.1621
  537TIP3   OH2 1574   6.516   1.237   2.184 -0.3688 -0.2608  0.6567
  537TIP3    H1 1575   6.450   1.303   2.164 -0.9166 -0.5024  1.5916
  537TIP3    H2 1576   6.600   1.282   2.174 -0.7071  0.3588  0.5667
  538TIP3   OH2 1577   1.386   3.283   5.507 -0.2834  0.7552 -0.9170
  538TIP3    H1 1578   1.347   3.207   5.464  0.2878  0.8241 -1.5742
  538TIP3    H2 1579   1.480   3.266   5.504 -0.2358  0.2071  1.3316
  539TIP3   OH2 1580   3.989   2.361   3.713  0.5221  0.2778  0.7023
  539TIP3    H1 1581   3.948   2.345   3.628 -0.1298 -0.8860  1.2159
  539TIP3    H2 1582   3.935   2.428   3.754  1.2372  1.3576 -0.0521
  540TIP3   OH2 1583   7.062   1.899   3.587  0.1179  0.4187 -0.5643
  540TIP3    H1 1584   6.974   1.886   3.554  0.0451 -3.6446  0.7751
  540TIP3    H2 1585   7.119   1.865   3.518  0.4020 -0.2469 -0.0154
  541TIP3   OH2 1586   4.363   0.727   3.863 -0.1589 -0.2643  0.2226
  541TIP3    H1 1587   4.308   0.672   3.808 -1.3276  1.0258  0.0346
  541TIP3    H2 1588   4.305   0.755   3.934  0.9591 -0.8434  1.3998
  542TIP3   OH2 1589   0.413   5.072   3.899  0.1236  0.4312  0.3537
  542TIP3    H1 1590   0.390   4.995   3.847 -0.3105  0.5041  0.4323
  542TIP3    H2 1591   0.376   5.146   3.851  1.5104  0.7176 -0.3138
  543TIP3   OH2 1592   4.793   2.536   1.901  0.2899  0.1868 -0.4765
  543TIP3    H1 1593   4.806   2.612   1.843  1.7529 -1.7192 -2.8269
  543TIP3    H2 1594   4.882   2.510   1.926 -0.2678  0.2390  1.7733
  544TIP3   OH2 1595   6.326   3.460   3.198 -0.0688  0.1668  0.6058
  544TIP3    H1 1596   6.394   3.519   3.229  1.2898 -0.2995 -1.2671
  544TIP3    H2 1597   6.336   3.381   3.252 -0.5402  0.8472  1.7278
  545TIP3   OH2 1598   4.630   4.253   4.517 -0.1569  0.1993 -0.3761
  545TIP3    H1 1599   4.707   4.209   4.482  0.6331  2.7826 -2.2528
  545TIP3    H2 1600   4.556   4.211   4.473  0.1196 -2.0766  1.1895
  546TIP3   OH2 1601   5.736   0.660   0.163 -0.7585  0.2111  0.0371
  546TIP3    H1 1602   5.709   0.627   0.078 -0.8894  0.5429 -0.0530
  546TIP3    H2 1603   5.701   0.596   0.226 -0.5228 -0.1165 -0.1641
  547TIP3   OH2 1604   5.388   2.531   5.149  0.8858  0.4296  0.5136
  547TIP3    H1 1605   5.471   2.555   5.190  2.5232 -0.8327 -1.8000
  547TIP3    H2 1606   5.396   2.436   5.133 -1.1177  0.2389  0.4410
  548TIP3   OH2 1607   1.946   6.552   4.644 -0.6243 -0.4373  0.1081
  548TIP3    H1 1608   1.890   6.604   4.701 -0.6150 -0.0431 -0.2461
  548TIP3    H2 1609   1.889   6.484   4.609 -0.1084 -2.2936  2.5673
  549TIP3   OH2 1610   4.145   4.395   4.281 -0.0800  0.6911 -0.3381
  549TIP3    H1 1611   4.083   4.343   4.230  0.0968  0.0003  0.1484
  549TIP3    H2 1612   4.197   4.331   4.330  0.5337  1.2966 -0.1863
  550TIP3   OH2 1613   3.548   4.788   0.324 -0.8798 -0.3039  0.5835
  550TIP3    H1 1614   3.595   4.761   0.403 -1.0090  0.3464  0.8894
  550TIP3    H2 1615   3.455   4.773   0.344 -0.9729  0.6095  0.8579
  551TIP3   OH2 1616   6.573   0.443   0.159 -0.3748  0.0299  0.0768
  551TIP3    H1 1617   6.499   0.390   0.130 -0.6336 -0.9795  2.3881
  551TIP3    H2 1618   6.544   0.480   0.242  1.1227  0.9567  0.2087
  552TIP3   OH2 1619   4.582   3.858   4.993 -0.0429 -0.6887 -0.0511
  552TIP3    H1 1620   4.571   3.827   4.902 -0.6408  0.0270 -0.2281
  552TIP3    H2 1621   4.666   3.821   5.020  0.0046 -1.1601 -0.7939
  553TIP3   OH2 1622   1.818   0.017   3.205 -0.4801  0.2556  0.3181
  553TIP3    H1 1623   1.794   0.108   3.185  1.6050  0.6717 -0.5588
  553TIP3    H2 1624   1.845   0.019   3.297  1.1213  0.9191 -0.1341
  554TIP3   OH2 1625   5.429   6.626   1.110  0.3298 -0.1419 -0.4133
  554TIP3    H1 1626   5.365   6.580   1.166  1.4614  0.0159  1.0854
  554TIP3    H2 1627   5.512   6.583   1.130  1.2285  1.7686  0.1721
  555TIP3   OH2 1628   1.787   5.072   4.575  0.0190 -0.2243  0.0857
  555TIP3    H1 1629   1.741   5.150   4.605 -0.7500 -0.3208 -0.7979
  555TIP3    H2 1630   1.856   5.104   4.517 -0.9533 -0.2196 -1.1206
  556TIP3   OH2 1631   2.419   5.145   0.417 -0.0426  0.0666 -0.4662
  556TIP3    H1 1632   2.480   5.133   0.344 -0.3276 -0.3053 -0.6458
  556TIP3    H2 1633   2.376   5.229   0.399  2.5958  1.9267  1.2530
  557TIP3   OH2 1634   3.343   5.670   3.244  0.2776 -0.1377  0.0672
  557TIP3    H1 1635   3.294   5.620   3.178 -0.1410  0.0182  0.2592
  557TIP3    H2 1636   3.372   5.748   3.197 -0.9717  0.5236  0.3419
  558TIP3   OH2 1637   1.515   5.183   2.715  0.1604 -0.5939  0.0198
  558TIP3    H1 1638   1.540   5.133   2.637 -1.7009 -3.2910  0.9859
  558TIP3    H2 1639   1.426   5.213   2.697  0.7916  1.3849 -0.0155
  559TIP3   OH2 1640   6.141   4.389   2.161 -0.0253  0.5205 -0.0087
  559TIP3    H1 1641   6.053   4.396   2.199 -0.2174  1.9791 -0.6429
  559TIP3    H2 1642   6.179   4.311   2.201 -0.8137  1.0806  1.9255
  560TIP3   OH2 1643   6.306   2.653   1.174 -0.3277  0.2572  0.3152
  560TIP3    H1 1644   6.229   2.701   1.146  0.2019  0.6625 -0.4538
  560TIP3    H2 1645   6.331   2.693   1.257  0.6891  2.0105 -0.7817
  561TIP3   OH2 1646   2.297   0.707   4.164  0.4001  0.0654 -0.1821
  561TIP3    H1 1647   2.273   0.714   4.257  1.3059  0.8306  0.0115
  561TIP3    H2 1648   2.383   0.666   4.164  0.6333  0.5446 -0.6557
  562TIP3   OH2 1649   6.119   3.057   4.144  0.4539 -0.1014 -0.2800
  562TIP3    H1 1650   6.051   3.124   4.151  1.9597  1.5223 -0.5656
  562TIP3    H2 1651   6.200   3.106   4.131  1.5120 -2.0220 -1.3793
  563TIP3   OH2 1652   6.623   6.240   2.627 -0.1538 -0.5612  0.4572
  563TIP3    H1 1653   6.634   6.179   2.554  2.1186  0.0271  0.2377
  563TIP3    H2 1654   6.700   6.296   2.624 -0.2447 -0.1658  3.0212
  564TIP3   OH2 1655   5.353   3.774   5.357  0.0549 -0.8199  0.5275
  564TIP3    H1 1656   5.431   3.789   5.302 -0.5327  0.5223  0.0074
  564TIP3    H2 1657   5.352   3.849   5.416 -1.6508  0.0167 -0.4857
  565TIP3   OH2 1658   3.925   1.851   2.408 -0.3086  0.5231 -0.3686
  565TIP3    H1 1659   3.998   1.836   2.348 -0.4514  0.4540 -0.5262
  565TIP3    H2 1660   3.860   1.896   2.355 -0.5124  0.2906 -0.3182
  566TIP3   OH2 1661   2.465   0.858   3.219 -0.0570  0.4577 -0.6410
  566TIP3    H1 1662   2.532   0.921   3.245 -0.1409 -0.0958  1.0284
  566TIP3    H2 1663   2.487   0.836   3.129  2.3853 -0.1573  0.0337
  567TIP3   OH2 1664   3.253   4.211   4.394 -0.6501 -0.4023  0.3083
  567TIP3    H1 1665   3.221   4.298   4.417 -0.7616 -0.6750  1.2334
  567TIP3    H2 1666   3.202   4.151   4.449 -0.5296 -1.0526 -0.2639
  568TIP3   OH2 1667   2.318   5.910   5.492 -0.2077 -0.4191  0.6025
  568TIP3    H1 1668   2.407   5.916   5.527  0.4151  1.3006 -1.1089
  568TIP3    H2 1669   2.328   5.866   5.408 -0.5762  1.6702 -0.6204
  569TIP3   OH2 1670   5.615   3.902   2.361 -0.5406 -0.1227  0.4225
  569TIP3    H1 1671   5.562   3.824   2.345 -0.8338  0.2483 -0.4981
  569TIP3    H2 1672   5.599   3.924   2.453 -0.2375 -1.2959  0.7613
  570TIP3   OH2 1673   5.089   3.658   4.087  0.6437  0.4520  0.2821
  570TIP3    H1 1674   5.048   3.638   4.171  1.6040 -0.4828  0.5607
  570TIP3    H2 1675   5.183   3.644   4.103  0.7100 -1.2959 -1.3390
  571TIP3   OH2 1676   0.770   6.332   3.602  0.2061 -0.3087  0.0744
  571TIP3    H1 1677   0.796   6.284   3.524  2.0238  1.2819 -0.3970
  571TIP3    H2 1678   0.792   6.274   3.675  0.4002 -1.0112 -0.5358
  572TIP3   OH2 1679   0.329   6.711   0.942 -0.2050  0.2127  0.1253
  572TIP3    H1 1680   0.338   6.800   0.977 -1.8523  0.6214 -0.3810
  572TIP3    H2 1681   0.331   6.722   0.847  0.5063 -0.4202  0.0595
  573TIP3   OH2 1682   1.352   4.849   0.150  0.4662 -0.2215  0.3336
  573TIP3    H1 1683   1.385   4.921   0.204 -0.7419  0.1972  0.5305
  573TIP3    H2 1684   1.380   4.770   0.196  2.5151  0.0727 -0.3061
  574TIP3   OH2 1685   6.461   3.969   0.641 -0.1142  0.6932 -0.2867
  574TIP3    H1 1686   6.482   3.959   0.548  0.4360  1.7918 -0.3094
  574TIP3    H2 1687   6.545   3.957   0.685 -0.4365 -0.1673  0.1111
  575TIP3   OH2 1688   0.804   5.830   5.683 -0.3121  0.0238  0.3239
  575TIP3    H1 1689   0.822   5.759   5.746 -0.9984 -0.0475  0.4428
  575TIP3    H2 1690   0.890   5.868   5.666 -0.1798  0.4936  1.8367
  576TIP3   OH2 1691   5.556   6.465   1.988 -0.4286 -0.5182  0.8937
  576TIP3    H1 1692   5.547   6.370   1.975  2.4079 -0.8248  0.5476
  576TIP3    H2 1693   5.557   6.476   2.083  1.9675 -1.2880  1.0452
  577TIP3   OH2 1694   4.650   0.589   3.699  0.3342 -0.1197  0.6162
  577TIP3    H1 1695   4.733   0.580   3.654  0.0337 -1.3209  0.2664
  577TIP3    H2 1696   4.586   0.548   3.641 -0.1129 -1.3857  1.9579
  578TIP3   OH2 1697   1.657   0.513   2.656  0.0635  0.5050  0.0081
  578TIP3    H1 1698   1.701   0.573   2.597 -1.0170 -0.6543 -2.0777
  578TIP3    H2 1699   1.581   0.561   2.688  0.4394  0.9966  0.1779
  579TIP3   OH2 1700   0.489   4.467   0.590 -0.7112  0.1643  0.0545
  579TIP3    H1 1701   0.441   4.528   0.534 -0.9727  0.8453  0.9970
  579TIP3    H2 1702   0.442   4.384   0.580  0.1799 -0.1602 -1.9253
  580TIP3   OH2 1703   4.624   5.851   3.995  0.3044 -0.1775  0.4674
  580TIP3    H1 1704   4.553   5.847   4.060  0.0207  1.0393  0.2727
  580TIP3    H2 1705   4.630   5.944   3.973 -1.2669 -0.7493 -3.0539
  581TIP3   OH2 1706   6.524   3.078   5.470  0.6149 -0.2404 -0.2792
  581TIP3    H1 1707   6.428   3.083   5.478  0.6846 -0.0813  0.5238
  581TIP3    H2 1708   6.539   3.002   5.413  0.0308 -0.7523  0.2347
  582TIP3   OH2 1709   5.468   4.744   1.095 -0.0250 -0.0587 -0.7580
  582TIP3    H1 1710   5.422   4.808   1.149 -1.0330 -1.9676  0.7814
  582TIP3    H2 1711   5.423   4.747   1.011 -2.4443 -1.1391  0.3791
  583TIP3   OH2 1712   7.068   0.001   2.416 -0.1573 -0.7353 -0.0665
  583TIP3    H1 1713   7.065   0.032   2.325 -0.4005  0.3150  0.2865
  583TIP3    H2 1714   7.123   0.064   2.461 -1.9856  0.1643  1.0207
  584TIP3   OH2 1715   0.750   1.549   2.986 -0.0126  0.2320  0.2847
  584TIP3    H1 1716   0.726   1.467   3.029  2.1005 -0.0161  1.0630
  584TIP3    H2 1717   0.695   1.551   2.908 -0.0263 -1.9985  0.1717
  585TIP3   OH2 1718   3.366   3.053   3.110 -0.0253 -0.2891 -0.4567
  585TIP3    H1 1719   3.382   2.960   3.094 -0.8219 -0.4082 -0.5898
  585TIP3    H2 1720   3.314   3.055   3.190  0.8974  0.1122  0.1557
  586TIP3   OH2 1721   6.351   5.192   1.035  0.7232  0.4897 -0.4041
  586TIP3    H1 1722   6.308   5.122   0.986  0.8820  0.4519 -0.4918
  586TIP3    H2 1723   6.283   5.227   1.092  0.7162  0.0708 -0.1471
  587TIP3   OH2 1724   3.951   2.117   1.588  0.0913 -0.0548 -0.0036
  587TIP3    H1 1725   3.896   2.157   1.521  0.2812  1.5316  0.7387
  587TIP3    H2 1726   4.029   2.172   1.591  1.5105 -1.9126 -0.6149
  588TIP3   OH2 1727   6.474   2.200   4.786 -0.1915 -0.1682 -0.3177
  588TIP3    H1 1728   6.530   2.149   4.727 -0.4834  0.2425 -0.9518
  588TIP3    H2 1729   6.494   2.291   4.765 -0.8813 -0.0191 -0.3445
  589TIP3   OH2 1730   3.788   1.455   4.281 -0.3415 -0.6172  0.3422
  589TIP3    H1 1731   3.827   1.372   4.254  1.0306 -0.7335  2.4857
  589TIP3    H2 1732   3.830   1.521   4.226  0.2312 -1.1156  0.1826
  590TIP3   OH2 1733   3.284   3.937   0.477 -0.0098 -0.0728 -0.9210
  590TIP3    H1 1734   3.258   3.902   0.391  2.1510 -1.5807 -1.0297
  590TIP3    H2 1735   3.336   3.867   0.516 -0.1720  0.9556  1.2605
  591TIP3   OH2 1736   2.655   3.389   2.684 -0.1685 -0.2768 -0.1717
  591TIP3    H1 1737   2.741   3.348   2.691 -0.3283 -0.6135 -0.1543
  591TIP3    H2 1738   2.648   3.415   2.592  0.2541  0.4313 -0.0127
  592TIP3   OH2 1739   5.264   3.184   3.876  0.5404 -0.3171  0.2030
  592TIP3    H1 1740   5.357   3.177   3.852  0.8759  0.6272  1.1870
  592TIP3    H2 1741   5.263   3.182   3.971 -0.2771  1.5128  0.2690
  593TIP3   OH2 1742   2.062   4.308   0.103  0.1049 -0.0802  0.4028
  593TIP3    H1 1743   1.972   4.340   0.116 -0.3391 -1.5683  1.2693
  593TIP3    H2 1744   2.079   4.253   0.180  1.6855 -0.0004  0.1387
  594TIP3   OH2 1745   5.471   1.742   2.189  0.0484 -0.1329  0.3063
  594TIP3    H1 1746   5.458   1.820   2.136 -2.0222  0.9652  2.2737
  594TIP3    H2 1747   5.472   1.670   2.125 -2.0620  1.1258 -1.2771
  595TIP3   OH2 1748   6.933   4.293   5.453  0.2654 -0.7887 -0.1898
  595TIP3    H1 1749   7.029   4.287   5.454  0.2020 -1.9416 -0.1136
  595TIP3    H2 1750   6.915   4.386   5.439  1.4080 -0.1861  1.9049
  596TIP3   OH2 1751   5.511   4.880   0.608 -0.2604  0.1597  0.7619
  596TIP3    H1 1752   5.440   4.862   0.669 -0.8854  1.7063  0.5426
  596TIP3    H2 1753   5.533   4.795   0.570 -0.7220 -0.6170  2.1943
  597TIP3   OH2 1754   0.249   4.364   5.720 -0.0937  0.2568 -0.5575
  597TIP3    H1 1755   0.259   4.459   5.725  3.9442 -0.0108 -0.7775
  597TIP3    H2 1756   0.247   4.345   5.626 -0.0913  0.0471 -0.5160
  598TIP3   OH2 1757   3.907   5.766   5.840  0.3941 -0.6111  0.0875
  598TIP3    H1 1758   3.818   5.746   5.813  0.3254  0.2305 -0.3590
  598TIP3    H2 1759   3.896   5.813   5.923  0.3234  0.5499 -0.5507
  599TIP3   OH2 1760   4.708   4.819   5.573 -0.1965  0.1069 -0.1368
  599TIP3    H1 1761   4.776   4.751   5.582  3.2754  3.1912 -0.5668
  599TIP3    H2 1762   4.671   4.804   5.486  0.0608 -1.5247  0.0058
  600TIP3   OH2 1763   5.011   6.079   2.627 -0.7556  0.1219 -0.7390
  600TIP3    H1 1764   5.065   6.159   2.626  1.0979 -1.0722 -1.1958
  600TIP3    H2 1765   5.057   6.019   2.568 -0.9467 -1.9935  1.1346
  601TIP3   OH2 1766   5.516   0.588   1.321 -0.3582  0.5146 -0.0136
  601TIP3    H1 1767   5.550   0.594   1.231 -0.9360  1.5531 -0.1769
  601TIP3    H2 1768   5.561   0.512   1.358 -1.9395 -1.5115 -1.9701
  602TIP3   OH2 1769   3.155   6.782   0.749  0.4081  0.0273 -0.0102
  602TIP3    H1 1770   3.123   6.698   0.783 -0.3665 -0.2362 -1.3366
  602TIP3    H2 1771   3.077   6.835   0.738  0.6542  0.1580 -1.2076
  603TIP3   OH2 1772   3.033   3.216   3.947  0.5889 -0.0640  0.3999
  603TIP3    H1 1773   3.040   3.228   3.852  0.3892 -1.3779  0.1993
  603TIP3    H2 1774   2.953   3.165   3.958  0.8015 -0.2241  1.2479
  604TIP3   OH2 1775   1.514   3.183   1.021 -0.8019  0.4011 -0.0492
  604TIP3    H1 1776   1.523   3.089   1.005 -1.7604 -0.0254  1.6874
  604TIP3    H2 1777   1.462   3.215   0.948 -1.1499 -0.5680 -0.2379
  605TIP3   OH2 1778   1.598   4.638   0.055 -0.0823  0.5596  0.2718
  605TIP3    H1 1779   1.652   4.694  -0.001 -1.3051  2.1147  0.5729
  605TIP3    H2 1780   1.538   4.594  -0.006 -0.0849  0.7072  0.1665
  606TIP3   OH2 1781   6.896   5.273   5.633  0.0248  0.3212 -0.0368
  606TIP3    H1 1782   6.898   5.198   5.692  0.0262  0.1455 -0.2595
  606TIP3    H2 1783   6.893   5.235   5.545 -1.9278  0.5397 -0.1242
  607TIP3   OH2 1784   4.357   3.461   3.736  0.0753  0.3890  0.0567
  607TIP3    H1 1785   4.429   3.409   3.772 -1.0746 -1.2513  0.1259
  607TIP3    H2 1786   4.279   3.410   3.757 -0.9347  1.1149 -1.7617
  608TIP3   OH2 1787   5.406   4.902   3.368 -0.4034  0.2883 -0.2579
  608TIP3    H1 1788   5.329   4.931   3.319 -1.9951 -2.3561  0.4664
  608TIP3    H2 1789   5.466   4.977   3.365 -3.0931  2.6014 -0.5935
  609TIP3   OH2 1790   3.920   1.142   1.430 -0.1735 -0.4004 -0.4365
  609TIP3    H1 1791   3.912   1.098   1.345 -2.3437 -0.6432 -0.1717
  609TIP3    H2 1792   3.872   1.085   1.491  1.6547 -0.4155  1.0635
  610TIP3   OH2 1793   1.567   0.706   0.359 -0.0810 -0.4174 -0.1081
  610TIP3    H1 1794   1.537   0.622   0.323 -0.4324  0.3240 -1.6352
  610TIP3    H2 1795   1.489   0.762   0.359  0.0663 -0.1759  1.2391
  611TIP3   OH2 1796   5.566   3.503   4.906 -0.5964 -0.2677 -0.1073
  611TIP3    H1 1797   5.546   3.593   4.933  0.9932 -0.1588  0.8817
  611TIP3    H2 1798   5.506   3.485   4.834 -0.8845  1.6239 -0.3889
  612TIP3   OH2 1799   6.775   5.817   1.430 -0.1224  0.3526  0.4330
  612TIP3    H1 1800   6.791   5.737   1.480  1.5581  0.1442 -0.3687
  612TIP3    H2 1801   6.786   5.887   1.493 -1.6609 -0.0233  1.1583
  613TIP3   OH2 1802   1.380   2.088   3.146  0.2305  0.1588  0.1990
  613TIP3    H1 1803   1.292   2.068   3.115  0.0663  0.2495  0.5972
  613TIP3    H2 1804   1.416   2.147   3.080 -0.8557  2.0055  1.1705
  614TIP3   OH2 1805   5.362   1.282   5.239 -0.2672 -0.0506  0.1653
  614TIP3    H1 1806   5.340   1.201   5.193  0.5965 -0.0752 -0.2150
  614TIP3    H2 1807   5.456   1.276   5.255 -0.2447  0.7529  0.3872
  615TIP3   OH2 1808   6.749   0.508   4.326 -0.6679 -0.4942 -0.1020
  615TIP3    H1 1809   6.817   0.442   4.329 -1.2745 -1.1915 -1.0560
  615TIP3    H2 1810   6.727   0.525   4.418  0.0663 -1.0044  0.1718
  616TIP3   OH2 1811   0.680   1.590   5.714 -0.0902 -0.3599  0.0398
  616TIP3    H1 1812   0.767   1.586   5.674  0.1675  1.5236  0.3070
  616TIP3    H2 1813   0.694   1.565   5.805  0.1083 -0.3960 -0.0008
  617TIP3   OH2 1814   6.021   3.980   3.697  0.4116 -0.3459 -0.3446
  617TIP3    H1 1815   6.090   3.926   3.736  0.6258 -0.0771 -0.3504
  617TIP3    H2 1816   6.043   3.983   3.603  0.8698  0.4312 -0.2226
  618TIP3   OH2 1817   5.140   2.498   0.680 -0.6944  0.8650  0.4809
  618TIP3    H1 1818   5.193   2.566   0.637  0.6444  0.9683  2.1941
  618TIP3    H2 1819   5.202   2.450   0.735 -1.6880 -1.5175 -0.3489
  619TIP3   OH2 1820   5.753   4.066   5.729 -0.2108  0.1124  0.2843
  619TIP3    H1 1821   5.778   4.003   5.796 -1.7201 -1.3869 -0.4936
  619TIP3    H2 1822   5.659   4.079   5.742  0.1184  2.5616  0.6658
  620TIP3   OH2 1823   3.671   2.890   1.236 -0.5344 -0.3252  0.1953
  620TIP3    H1 1824   3.676   2.851   1.323 -1.1065  1.9852  1.3413
  620TIP3    H2 1825   3.581   2.922   1.229 -0.3032  0.1314 -0.9672
  621TIP3   OH2 1826   4.284   0.336   1.051 -0.3453 -0.1198 -0.0918
  621TIP3    H1 1827   4.275   0.424   1.014  0.0843 -0.6689 -1.5973
  621TIP3    H2 1828   4.200   0.294   1.032 -0.0990 -0.4279 -0.5061
  622TIP3   OH2 1829   4.753   0.048   4.411 -0.4037 -0.1806 -0.6131
  622TIP3    H1 1830   4.698  -0.014   4.458 -0.2327 -0.4075 -0.7155
  622TIP3    H2 1831   4.711   0.057   4.325 -0.4021 -0.1847 -0.6141
  623TIP3   OH2 1832   4.297   4.655   0.176  0.1755 -0.4705 -0.1716
  623TIP3    H1 1833   4.270   4.690   0.091 -0.1532  0.6136  0.3660
  623TIP3    H2 1834   4.257   4.568   0.179 -2.7667  0.7633  0.2655
  624TIP3   OH2 1835   1.947   3.646   2.131 -0.1195 -0.1802 -0.5648
  624TIP3    H1 1836   1.895   3.685   2.061 -1.0710  1.2964  0.8907
  624TIP3    H2 1837   2.035   3.683   2.120 -1.3302  4.0549  1.7508
  625TIP3   OH2 1838   4.060   5.103   0.265 -0.1319 -0.1913  0.3304
  625TIP3    H1 1839   4.114   5.165   0.216  2.4468 -1.6289  1.2090
  625TIP3    H2 1840   3.985   5.087   0.208  0.8096  1.1697 -1.3911
  626TIP3   OH2 1841   5.762   5.440   3.911 -0.3340  0.3597  0.0544
  626TIP3    H1 1842   5.731   5.503   3.976  2.7581  1.8288  0.3014
  626TIP3    H2 1843   5.710   5.361   3.927 -1.4186  1.4766  2.6004
  627TIP3   OH2 1844   2.010   3.775   5.130 -0.0050 -0.1139 -0.7379
  627TIP3    H1 1845   2.046   3.850   5.177  0.7966 -0.8259 -0.1939
  627TIP3    H2 1846   1.954   3.731   5.193  1.2021 -1.1638 -0.3539
  628TIP3   OH2 1847   5.650   2.265   0.976 -0.2328  0.0856  0.0271
  628TIP3    H1 1848   5.659   2.227   1.064 -0.3955  0.5147  0.2326
  628TIP3    H2 1849   5.737   2.298   0.955 -0.1273 -0.2632 -0.0895
  629TIP3   OH2 1850   3.884   0.856   1.921  0.3668 -0.1349  0.0462
  629TIP3    H1 1851   3.962   0.899   1.885  0.4515 -0.5052 -0.2196
  629TIP3    H2 1852   3.874   0.894   2.009  1.4679 -0.8473  0.5054
  630TIP3   OH2 1853   0.599   0.742   0.035 -0.0283  0.3357 -0.2517
  630TIP3    H1 1854   0.593   0.814   0.097  0.1288  0.5917 -0.5301
  630TIP3    H2 1855   0.524   0.756  -0.024  0.1400  0.4108 -0.4493
  631TIP3   OH2 1856   3.089   2.226   4.182  0.5905 -0.3426 -0.2391
  631TIP3    H1 1857   3.031   2.250   4.109 -0.1873 -0.5435  0.3051
  631TIP3    H2 1858   3.030   2.212   4.256  1.4480  0.9694  0.7355
  632TIP3   OH2 1859   3.638   4.353   1.683 -0.0241 -0.1971 -1.0177
  632TIP3    H1 1860   3.685   4.352   1.599 -1.2309 -0.1245 -1.7248
  632TIP3    H2 1861   3.585   4.433   1.679  0.2343  0.0311  0.0150
  633TIP3   OH2 1862   5.777   5.710   2.309  0.2995 -0.3097 -0.2410
  633TIP3    H1 1863   5.823   5.754   2.380 -0.8085 -1.5075  1.3140
  633TIP3    H2 1864   5.687   5.701   2.341 -0.1664 -1.1629 -1.6723
  634TIP3   OH2 1865   4.073   5.378   5.322  0.3848  0.0111 -0.0759
  634TIP3    H1 1866   4.083   5.312   5.253 -2.3526 -1.7660  1.0600
  634TIP3    H2 1867   4.011   5.441   5.286 -0.1982 -0.3221  0.3301
  635TIP3   OH2 1868   2.887   3.579   2.147  0.2141  0.4588  0.0678
  635TIP3    H1 1869   2.852   3.522   2.216 -1.6712  1.5257  0.0656
  635TIP3    H2 1870   2.820   3.646   2.135  1.0502  1.0088 -1.9752
  636TIP3   OH2 1871   3.046   3.004   4.850  0.1264 -0.3243 -0.1986
  636TIP3    H1 1872   3.017   2.955   4.927 -1.4309  0.3071 -0.3490
  636TIP3    H2 1873   2.983   2.981   4.782  0.3606  0.5881 -0.7387
  637TIP3   OH2 1874   7.041   5.205   1.309 -0.0497 -0.3254 -0.6436
  637TIP3    H1 1875   7.041   5.180   1.217  0.0588  0.2957 -0.8176
  637TIP3    H2 1876   6.974   5.149   1.349 -2.4099  1.5439 -1.7238
  638TIP3   OH2 1877   4.348   2.768   0.229  0.5117  0.1835 -0.0670
  638TIP3    H1 1878   4.382   2.703   0.167  0.3425 -0.2663  0.3145
  638TIP3    H2 1879   4.368   2.852   0.187  0.3301 -0.1142 -0.7757
  639TIP3   OH2 1880   2.155   5.660   5.707  0.3071  0.0689 -0.7056
  639TIP3    H1 1881   2.108   5.647   5.789  1.3496 -0.9376 -0.2307
  639TIP3    H2 1882   2.151   5.754   5.692 -0.9249  0.1327 -0.1399
  640TIP3   OH2 1883   3.778   5.130   3.797  0.2159  0.5183  0.0091
  640TIP3    H1 1884   3.792   5.188   3.872 -1.6872  0.1426  0.7037
  640TIP3    H2 1885   3.751   5.189   3.726  0.7538  0.7360 -0.0176
  641TIP3   OH2 1886   3.225   6.308   5.378 -0.0366 -0.1892  0.3559
  641TIP3    H1 1887   3.132   6.288   5.373 -0.4331  0.9787  2.0553
  641TIP3    H2 1888   3.268   6.236   5.332 -1.7627 -0.6991 -0.5368
  642TIP3   OH2 1889   6.781   5.980   5.603  0.1354  0.0627  0.0849
  642TIP3    H1 1890   6.705   5.932   5.572  0.5350 -0.3872 -0.2104
  642TIP3    H2 1891   6.852   5.916   5.601  0.6588  0.6473 -0.2498
  643TIP3   OH2 1892   7.099   6.084   2.969  0.2003  0.6112 -0.2619
  643TIP3    H1 1893   7.015   6.065   2.928  0.2155  2.6834 -1.4252
  643TIP3    H2 1894   7.085   6.168   3.014  1.4218  0.6055  0.1706
  644TIP3   OH2 1895   6.752   4.291   3.303  0.4735 -0.2018  0.1876
  644TIP3    H1 1896   6.702   4.356   3.353 -0.3997 -1.1175  0.5298
  644TIP3    H2 1897   6.822   4.264   3.362  1.2802  0.9112 -0.2080
  645TIP3   OH2 1898   3.447   3.324   3.186 -0.4525 -0.2158 -0.2403
  645TIP3    H1 1899   3.477   3.413   3.165 -0.1927  0.1379  1.4916
  645TIP3    H2 1900   3.500   3.298   3.260 -0.3289 -1.9671 -0.9002
  646TIP3   OH2 1901   3.276   4.735   5.042 -0.2830  0.4059  0.0220
  646TIP3    H1 1902   3.348   4.760   5.100 -0.1961 -0.6551  0.3824
  646TIP3    H2 1903   3.225   4.672   5.093 -0.0088 -0.8231 -1.1760
  647TIP3   OH2 1904   3.310   3.522   2.560 -0.1316 -0.0537  0.4243
  647TIP3    H1 1905   3.370   3.564   2.498  0.9661  0.3541  1.7162
  647TIP3    H2 1906   3.235   3.581   2.564 -0.5756 -0.4520 -1.0321
  648TIP3   OH2 1907   4.557   1.866   2.787 -0.0315 -0.2918  0.6753
  648TIP3    H1 1908   4.492   1.849   2.856  0.3552  0.0658  1.1399
  648TIP3    H2 1909   4.604   1.783   2.777 -0.1383 -0.3663  0.7980
  649TIP3   OH2 1910   2.870   3.686   3.543  0.1873 -0.1433  0.4316
  649TIP3    H1 1911   2.900   3.773   3.514  0.9688 -0.2287  0.9646
  649TIP3    H2 1912   2.934   3.625   3.506 -0.6312 -0.5585 -0.3564
  650TIP3   OH2 1913   6.780   4.646   3.487 -0.2146  0.6300  0.1871
  650TIP3    H1 1914   6.833   4.607   3.557  2.7520  0.8243 -1.7500
  650TIP3    H2 1915   6.779   4.739   3.506 -1.2973  0.4407  1.1036
  651TIP3   OH2 1916   1.153   1.112   2.169  0.1289  0.1381 -0.4121
  651TIP3    H1 1917   1.184   1.158   2.247 -1.5343 -0.6560  0.7738
  651TIP3    H2 1918   1.161   1.176   2.098 -0.2133  1.5576  0.7968
  652TIP3   OH2 1919   6.975   3.654   0.275 -0.1069  0.0694  0.2022
  652TIP3    H1 1920   6.996   3.660   0.368  1.7947  2.5769 -0.2859
  652TIP3    H2 1921   7.048   3.607   0.236  0.6354  1.6358 -0.3812
  653TIP3   OH2 1922   0.831   3.682   1.179  0.1470 -0.2758 -0.4287
  653TIP3    H1 1923   0.829   3.747   1.109 -0.0581  0.2863  0.0934
  653TIP3    H2 1924   0.832   3.733   1.260 -1.1359 -0.9169  0.0212
  654TIP3   OH2 1925   6.330   4.187   2.828 -0.4107 -0.6120  0.2887
  654TIP3    H1 1926   6.423   4.204   2.842 -0.4703 -0.9826  1.2846
  654TIP3    H2 1927   6.324   4.091   2.826 -0.7152 -0.5823 -0.1931
  655TIP3   OH2 1928   5.923   4.151   3.401  0.2123  0.2403 -0.0487
  655TIP3    H1 1929   5.945   4.202   3.478  0.1584 -0.1774  0.2480
  655TIP3    H2 1930   5.828   4.156   3.395  0.2365  0.4895 -0.2415
  656TIP3   OH2 1931   5.173   5.114   1.021  0.5307 -0.1545 -0.3611
  656TIP3    H1 1932   5.238   5.110   0.950  0.5168  0.6710 -0.4378
  656TIP3    H2 1933   5.121   5.192   1.000  0.6682  0.2296  0.6682
  657TIP3   OH2 1934   1.915   0.649   2.486 -0.4680 -0.4966  0.3096
  657TIP3    H1 1935   1.870   0.686   2.410 -0.0337  0.2090  0.3837
  657TIP3    H2 1936   1.918   0.555   2.469  2.2805 -0.1212 -2.0464
  658TIP3   OH2 1937   5.134   6.310   2.285  0.4103  0.2596 -0.1988
  658TIP3    H1 1938   5.183   6.285   2.364 -1.4967  1.9964  1.6917
  658TIP3    H2 1939   5.055   6.255   2.288  0.9316 -0.6004 -1.6834
  659TIP3   OH2 1940   3.620   1.518   1.670 -0.6299  0.0768  0.1668
  659TIP3    H1 1941   3.634   1.572   1.592  0.0841 -0.2484  0.0636
  659TIP3    H2 1942   3.567   1.444   1.639  0.2519 -0.4260 -0.1784
  660TIP3   OH2 1943   5.750   0.226   0.041  0.0977 -0.5597  0.0669
  660TIP3    H1 1944   5.731   0.178  -0.040 -2.3986 -0.2524  0.3946
  660TIP3    H2 1945   5.739   0.162   0.111 -0.8674 -0.1213  0.3416
  661TIP3   OH2 1946   5.926   0.518   5.710 -0.0591 -0.0073  0.7099
  661TIP3    H1 1947   5.994   0.575   5.746 -1.6487  1.9928  0.7232
  661TIP3    H2 1948   5.973   0.458   5.652  1.9119  0.0736  2.1236
  662TIP3   OH2 1949   0.733   4.162   0.363 -0.0029  0.1283 -0.1771
  662TIP3    H1 1950   0.770   4.143   0.449  0.5012 -0.8693 -0.6062
  662TIP3    H2 1951   0.646   4.123   0.364  0.6914 -1.5313 -0.7394
  663TIP3   OH2 1952   3.327   0.067   2.750  0.5544 -0.3768  0.5244
  663TIP3    H1 1953   3.407   0.095   2.706  1.3796 -1.4207  1.2958
  663TIP3    H2 1954   3.312   0.133   2.818  2.0485 -1.2984  1.8302
  664TIP3   OH2 1955   0.848   4.145   2.918 -0.2019  0.2839  0.5125
  664TIP3    H1 1956   0.906   4.181   2.985 -0.2551 -0.5247  1.0057
  664TIP3    H2 1957   0.808   4.068   2.960  0.9854 -1.2020 -0.9647
  665TIP3   OH2 1958   4.465   1.303   3.168  0.6395 -0.6317  0.0035
  665TIP3    H1 1959   4.412   1.382   3.158  1.3555 -0.0577  0.6454
  665TIP3    H2 1960   4.424   1.256   3.240  0.2003 -0.8764 -0.3919
  666TIP3   OH2 1961   6.437   3.274   5.798  0.2446 -0.3786  0.4391
  666TIP3    H1 1962   6.484   3.316   5.871  1.6695  0.0797 -0.6873
  666TIP3    H2 1963   6.427   3.344   5.733 -0.8707 -0.8166  0.1308
  667TIP3   OH2 1964   5.125   6.069   1.510 -0.0410 -0.1348 -0.4233
  667TIP3    H1 1965   5.111   6.164   1.511  1.5572  0.1341  0.5220
  667TIP3    H2 1966   5.064   6.035   1.576 -3.0433 -0.2458 -3.0344
  668TIP3   OH2 1967   6.598   4.168   5.776  0.2441  0.2256  0.2888
  668TIP3    H1 1968   6.643   4.170   5.691 -0.1357 -1.9950 -0.0099
  668TIP3    H2 1969   6.506   4.185   5.755  0.2186  0.1413  0.3342
  669TIP3   OH2 1970   0.355   4.831   4.100 -0.3462  0.2554  0.2843
  669TIP3    H1 1971   0.310   4.848   4.017 -0.8717 -1.2839  0.2127
  669TIP3    H2 1972   0.440   4.873   4.090  0.4900 -1.7352 -1.9874
  670TIP3   OH2 1973   1.440   2.703   5.369  0.1675 -0.6456 -0.0458
  670TIP3    H1 1974   1.387   2.717   5.447 -0.1655 -0.2126 -0.3433
  670TIP3    H2 1975   1.522   2.750   5.387  0.7015 -1.8128  0.6596
  671TIP3   OH2 1976   2.200   2.381   0.512 -0.4596 -0.5113 -0.0507
  671TIP3    H1 1977   2.173   2.339   0.430  1.4500 -0.2925 -0.8481
  671TIP3    H2 1978   2.218   2.308   0.571 -0.1094 -0.7477 -0.4373
  672TIP3   OH2 1979   4.435   4.919   2.529  0.4678  0.0852  0.0673
  672TIP3    H1 1980   4.464   4.858   2.597 -2.3937  0.4758  1.8026
  672TIP3    H2 1981   4.380   4.866   2.471  1.4262  0.1509 -0.9265
  673TIP3   OH2 1982   1.831   5.504   0.051 -0.6057  0.2817 -0.2575
  673TIP3    H1 1983   1.838   5.415   0.085  1.3668  0.7548  0.7234
  673TIP3    H2 1984   1.764   5.545   0.105 -0.7835 -0.2972 -0.0252
  674TIP3   OH2 1985   5.878   3.316   0.798  0.0619  0.0384  0.0612
  674TIP3    H1 1986   5.963   3.330   0.840  0.4511 -0.5983 -0.4818
  674TIP3    H2 1987   5.822   3.281   0.867  0.3664  0.0588  0.3187
  675TIP3   OH2 1988   3.069   4.415   1.696  0.7214  0.2264  0.0704
  675TIP3    H1 1989   3.145   4.465   1.726  1.3017 -0.9303  0.6056
  675TIP3    H2 1990   3.094   4.324   1.710 -1.9738 -0.1688  3.3135
  676TIP3   OH2 1991   5.871   0.966   1.652  0.4194 -0.3625  0.0354
  676TIP3    H1 1992   5.926   0.928   1.720  0.7797 -0.8314 -0.5121
  676TIP3    H2 1993   5.784   0.974   1.693  1.0089  0.9725  1.1109
  677TIP3   OH2 1994   4.389   6.667   1.443  0.0845 -0.2814  0.0691
  677TIP3    H1 1995   4.436   6.735   1.491  2.9839 -2.2083  0.2154
  677TIP3    H2 1996   4.308   6.654   1.492 -1.2856  3.8317 -0.7028
  678TIP3   OH2 1997   0.085   4.430   4.789 -0.3025  0.2171  0.1032
  678TIP3    H1 1998  -0.008   4.427   4.811 -0.0474 -1.8748  1.1659
  678TIP3    H2 1999   0.087   4.424   4.694 -1.2457 -0.6501  0.1216
  679TIP3   OH2 2000   4.125   3.687   3.116  0.2390  0.1566 -0.0425
  679TIP3    H1 2001   4.112   3.643   3.032 -0.8025 -0.8466  0.6139
  679TIP3    H2 2002   4.056   3.652   3.172  1.0640  0.6257  1.3146
  680TIP3   OH2 2003   5.898   6.523   3.903 -0.0270  0.0680 -0.1837
  680TIP3    H1 2004   5.885   6.528   3.808 -1.0635  2.2393  0.0054
  680TIP3    H2 2005   5.981   6.568   3.918 -0.7170  1.3096  0.0516
  681TIP3   OH2 2006   3.074   3.557   5.791  0.2994  0.1595  0.2016
  681TIP3    H1 2007   3.153   3.610   5.798  0.6296 -0.3990  0.8396
  681TIP3    H2 2008   3.088   3.503   5.713 -0.8279  2.2436 -1.5575
  682TIP3   OH2 2009   3.218   3.935   2.737  0.3324 -0.3291  0.0448
  682TIP3    H1 2010   3.204   3.858   2.681 -1.3902 -0.1805  0.2240
  682TIP3    H2 2011   3.213   3.900   2.826 -0.4165 -0.0217  0.1257
  683TIP3   OH2 2012   4.332   2.452   4.803 -0.2081  0.5998  0.2008
  683TIP3    H1 2013   4.417   2.453   4.849  0.3922  0.8891 -0.8739
  683TIP3    H2 2014   4.278   2.513   4.853 -0.3539 -0.8709  1.8997
  684TIP3   OH2 2015   3.026   0.343   1.309  0.0892  0.7423 -0.5910
  684TIP3    H1 2016   3.047   0.252   1.333 -1.8155 -0.0715 -1.7711
  684TIP3    H2 2017   3.030   0.344   1.214  1.4152  2.2901 -0.5440
  685TIP3   OH2 2018   1.068   6.175   1.617 -0.2719 -0.0419  0.7321
  685TIP3    H1 2019   1.126   6.165   1.693  2.2944  0.4529 -1.0273
  685TIP3    H2 2020   1.049   6.085   1.590 -0.7253 -0.2157  1.5986
  686TIP3   OH2 2021   2.864   4.615   4.721 -0.3605  0.8208  0.1131
  686TIP3    H1 2022   2.941   4.668   4.703 -1.0754  1.5540 -0.9318
  686TIP3    H2 2023   2.849   4.625   4.815  0.9011  0.5298  0.3527
  687TIP3   OH2 2024   5.701   0.104   4.709 -0.2906  0.0943 -0.1607
  687TIP3    H1 2025   5.679   0.011   4.716 -1.7586  0.4221 -0.0465
  687TIP3    H2 2026   5.620   0.145   4.677  0.8605  1.0890 -1.9938
  688TIP3   OH2 2027   1.513   1.773   1.095  0.0834 -0.0195  0.2292
  688TIP3    H1 2028   1.536   1.698   1.149 -0.2533 -0.1787  0.1520
  688TIP3    H2 2029   1.589   1.785   1.038 -0.3092 -1.0000 -0.5236
  689TIP3   OH2 2030   4.470   0.295   2.018 -0.6276 -0.3515 -0.0511
  689TIP3    H1 2031   4.397   0.330   1.966  0.8603  0.9141 -1.3791
  689TIP3    H2 2032   4.506   0.225   1.964  0.8363  0.8695 -0.7199
  690TIP3   OH2 2033   0.688   4.646   3.275 -0.1924 -0.3303  0.2711
  690TIP3    H1 2034   0.625   4.635   3.204  0.5944 -0.9755 -0.3370
  690TIP3    H2 2035   0.664   4.579   3.339 -0.7158  0.0579  0.4888
  691TIP3   OH2 2036   3.480   5.370   5.700  0.0679  0.1661  0.5800
  691TIP3    H1 2037   3.484   5.350   5.793  0.0703 -1.0665  0.3335
  691TIP3    H2 2038   3.386   5.384   5.683 -0.0433 -0.5233  0.5977
  692TIP3   OH2 2039   7.162   3.506   3.244 -0.6416  0.7943  0.4554
  692TIP3    H1 2040   7.179   3.473   3.155 -1.9547  0.1548  0.4327
  692TIP3    H2 2041   7.242   3.486   3.292 -0.0256  0.8714 -0.5000
  693TIP3   OH2 2042   2.030   5.327   5.260 -0.0782  0.1005  0.4221
  693TIP3    H1 2043   1.963   5.284   5.207 -0.2601  2.2826 -1.2804
  693TIP3    H2 2044   1.987   5.406   5.293  1.3254  1.0363  0.1204
  694TIP3   OH2 2045   3.115   1.498   2.535  0.3490  0.1107 -0.6815
  694TIP3    H1 2046   3.079   1.420   2.493  0.2659 -0.8184  1.0198
  694TIP3    H2 2047   3.039   1.542   2.572  0.6709 -0.9702  1.4689
  695TIP3   OH2 2048   1.982   5.481   1.595  0.0585 -0.5157  0.3642
  695TIP3    H1 2049   1.926   5.457   1.522  0.0767  1.4240 -0.3354
  695TIP3    H2 2050   2.065   5.506   1.555  0.1015  0.5008  1.0441
  696TIP3   OH2 2051   2.430   0.226   5.244  0.3478 -0.6065  0.3487
  696TIP3    H1 2052   2.503   0.197   5.191  0.0007  0.8256 -0.9701
  696TIP3    H2 2053   2.435   0.321   5.243 -1.3906 -0.4736  0.4011
  697TIP3   OH2 2054   1.049   4.582   1.741  0.2139 -0.5440  0.7572
  697TIP3    H1 2055   1.000   4.606   1.819  2.3266  1.3262  1.6282
  697TIP3    H2 2056   1.132   4.547   1.775  1.5957  1.2685 -0.5698
  698TIP3   OH2 2057   1.613   3.993   1.136 -0.0375 -0.2633  0.1563
  698TIP3    H1 2058   1.686   4.051   1.111  0.0076  0.3609  1.6509
  698TIP3    H2 2059   1.617   3.989   1.231 -1.1315 -1.3451  0.1802
  699TIP3   OH2 2060   5.341   0.924   4.787 -0.3237  0.0586  0.5575
  699TIP3    H1 2061   5.329   0.918   4.692  1.3133 -1.9935  0.4195
  699TIP3    H2 2062   5.384   1.008   4.800 -0.1457  0.1640 -0.5824
  700TIP3   OH2 2063   7.129   4.110   2.423 -0.1940 -0.2034  0.2628
  700TIP3    H1 2064   7.223   4.121   2.440  0.2075 -1.1572 -1.1177
  700TIP3    H2 2065   7.126   4.059   2.342 -1.9175 -0.0186  0.1817
  701TIP3   OH2 2066   4.190   5.970   1.333  0.6064  0.2136  0.1708
  701TIP3    H1 2067   4.263   6.018   1.294  2.4295 -0.5048  2.4546
  701TIP3    H2 2068   4.132   6.037   1.368  0.5336  0.7954 -1.0502
  702TIP3   OH2 2069   3.790   6.777   4.668 -0.0727 -0.2434  0.3543
  702TIP3    H1 2070   3.849   6.844   4.703 -0.6036  1.6690 -2.1487
  702TIP3    H2 2071   3.830   6.751   4.585 -0.0174 -2.9170  1.1545
  703TIP3   OH2 2072   0.541   4.176   4.251  0.1768 -0.7217  0.2229
  703TIP3    H1 2073   0.610   4.156   4.189  0.5627  0.9949  0.0338
  703TIP3    H2 2074   0.489   4.245   4.208 -0.3100 -0.4063  1.2679
  704TIP3   OH2 2075   5.318   5.337   5.737  0.0323  0.3993  0.7918
  704TIP3    H1 2076   5.354   5.425   5.744 -0.0287  0.6633 -1.3594
  704TIP3    H2 2077   5.259   5.328   5.812 -1.2559  2.8347  0.1677
  705TIP3   OH2 2078   2.170   3.894   2.448 -0.1845 -0.2228 -0.1912
  705TIP3    H1 2079   2.192   3.858   2.362  2.5823 -0.9250  0.7212
  705TIP3    H2 2080   2.241   3.955   2.467 -0.9178  0.1474  1.4836
  706TIP3   OH2 2081   5.336   4.196   2.286  0.5368  1.1425  0.0478
  706TIP3    H1 2082   5.363   4.105   2.294  2.0916  1.5865  0.3144
  706TIP3    H2 2083   5.281   4.212   2.363 -3.4944 -0.6826 -2.1481
  707TIP3   OH2 2084   6.990   3.836   0.982 -0.0905 -0.7129 -0.2126
  707TIP3    H1 2085   6.935   3.771   0.938 -0.0025 -1.0608  0.1827
  707TIP3    H2 2086   7.061   3.784   1.021  0.8765 -0.2095 -1.2478
  708TIP3   OH2 2087   4.816   6.049   4.566 -0.0101  0.3816  0.7413
  708TIP3    H1 2088   4.878   5.989   4.607 -0.9698  0.0445  1.7742
  708TIP3    H2 2089   4.730   6.016   4.593 -0.5748  2.5911  1.9570
  709TIP3   OH2 2090   4.349   3.793   0.138 -0.1291  0.0879  0.0053
  709TIP3    H1 2091   4.340   3.770   0.045  0.5249 -1.2079  0.2263
  709TIP3    H2 2092   4.413   3.730   0.171 -1.7584 -0.7386  1.7672
  710TIP3   OH2 2093   4.816   5.649   3.646 -0.1616 -0.1537 -0.9026
  710TIP3    H1 2094   4.820   5.745   3.647  0.0048 -0.1544  0.5654
  710TIP3    H2 2095   4.903   5.622   3.616  0.4666  0.1583  0.5617
  711TIP3   OH2 2096   6.134   4.374   2.877 -0.3339 -0.2936  0.5944
  711TIP3    H1 2097   6.127   4.432   2.801  0.0605 -0.2235  0.6142
  711TIP3    H2 2098   6.211   4.320   2.859 -0.8344 -0.9775  0.4582
  712TIP3   OH2 2099   5.533   0.685   0.588  0.0149 -0.4233  0.5144
  712TIP3    H1 2100   5.478   0.639   0.525 -0.0300  0.5463 -0.1777
  712TIP3    H2 2101   5.471   0.720   0.653 -0.0893 -0.1911  0.2917
  713TIP3   OH2 2102   3.498   0.881   0.542 -0.1398  0.3093 -0.1278
  713TIP3    H1 2103   3.557   0.953   0.520 -0.5117 -0.0295 -2.4851
  713TIP3    H2 2104   3.420   0.924   0.576  0.9863  0.7992  2.0109
  714TIP3   OH2 2105   5.057   0.673   5.140  0.3521  0.1268 -0.3123
  714TIP3    H1 2106   5.061   0.578   5.157 -0.5311  0.1680  0.1668
  714TIP3    H2 2107   5.134   0.690   5.086  1.1052 -0.6899  0.4462
  715TIP3   OH2 2108   5.157   5.187   0.698 -0.2594 -0.3252 -0.4580
  715TIP3    H1 2109   5.119   5.238   0.627 -2.0911 -1.3249 -0.2396
  715TIP3    H2 2110   5.121   5.100   0.688  0.4318 -0.8125  0.9656
  716TIP3   OH2 2111   4.897   6.538   0.751 -0.3671  0.2445 -0.4569
  716TIP3    H1 2112   4.985   6.572   0.768  0.3734 -1.0806 -1.4824
  716TIP3    H2 2113   4.870   6.584   0.671  0.7567 -1.6503 -2.0185
  717TIP3   OH2 2114   1.538   5.809   1.209  0.4589 -0.1045  0.2465
  717TIP3    H1 2115   1.550   5.819   1.115  0.3894  1.1384  0.3563
  717TIP3    H2 2116   1.460   5.861   1.230  1.1263  0.5724  1.1481
  718TIP3   OH2 2117   0.418   3.506   3.985 -0.7001  0.7534  0.4721
  718TIP3    H1 2118   0.323   3.519   3.991 -0.7986  0.4366 -0.3333
  718TIP3    H2 2119   0.455   3.582   4.030 -1.3480 -0.4753  3.3818
  719TIP3   OH2 2120   4.396   1.778   0.800 -0.5176 -0.1591 -0.0906
  719TIP3    H1 2121   4.435   1.850   0.750 -0.1342 -0.3857 -0.1202
  719TIP3    H2 2122   4.457   1.705   0.788 -0.9913 -0.5370 -0.1997
  720TIP3   OH2 2123   7.097   6.161   0.830  0.2177 -0.3390  0.3995
  720TIP3    H1 2124   7.119   6.169   0.737 -1.5629 -1.4703 -0.1753
  720TIP3    H2 2125   7.005   6.134   0.830  0.2276 -0.4956  2.5025
  721TIP3   OH2 2126   1.725   3.399   2.298 -0.4384 -0.3293 -0.2483
  721TIP3    H1 2127   1.659   3.354   2.352  0.4165  0.3812  1.4661
  721TIP3    H2 2128   1.805   3.349   2.312  0.1357  0.7263  0.3296
  722TIP3   OH2 2129   4.354   2.194   4.344 -0.3788 -0.0080  0.3372
  722TIP3    H1 2130   4.443   2.161   4.347  0.2650  1.5208 -0.7148
  722TIP3    H2 2131   4.337   2.224   4.433  0.0876 -0.4846  0.5910
  723TIP3   OH2 2132   3.274   6.812   5.485  0.2716 -0.0979 -0.0537
  723TIP3    H1 2133   3.285   6.717   5.488  1.5083  0.0247 -0.3695
  723TIP3    H2 2134   3.320   6.844   5.563 -1.7141  0.1343  1.0903
  724TIP3   OH2 2135   1.224   1.803   2.494 -0.4071  0.2256  0.1609
  724TIP3    H1 2136   1.296   1.858   2.463 -1.5275  1.4741 -0.3133
  724TIP3    H2 2137   1.267   1.726   2.530  1.2009  1.2283  0.4887
  725TIP3   OH2 2138   3.104   1.098   2.223 -0.1904 -0.2131 -0.4590
  725TIP3    H1 2139   3.102   1.003   2.213 -1.1876 -0.1774 -0.6095
  725TIP3    H2 2140   3.014   1.123   2.243 -0.4384  0.9528 -2.7795
  726TIP3   OH2 2141   1.068   0.510   1.789  0.0573 -0.0178 -0.7299
  726TIP3    H1 2142   1.152   0.463   1.784  0.0844  0.0236 -0.6577
  726TIP3    H2 2143   1.002   0.442   1.777  0.0266 -0.3589  1.0857
  727TIP3   OH2 2144   2.164   3.100   1.436 -0.1391 -0.3087  0.3110
  727TIP3    H1 2145   2.086   3.152   1.455 -0.6854 -0.8250 -0.4702
  727TIP3    H2 2146   2.213   3.153   1.373  0.3021  0.1516  1.0281
  728TIP3   OH2 2147   0.324   4.863   3.727 -0.1265  0.3462 -0.2330
  728TIP3    H1 2148   0.352   4.771   3.725 -0.3901  0.2709 -0.4200
  728TIP3    H2 2149   0.247   4.863   3.784 -0.0875  0.4636 -0.1798
  729TIP3   OH2 2150   1.102   0.484   4.829 -0.7595  0.3916  0.0635
  729TIP3    H1 2151   1.177   0.521   4.783  1.7205 -2.0214  1.8482
  729TIP3    H2 2152   1.107   0.390   4.813 -1.4905 -0.2024  2.7444
  730TIP3   OH2 2153   0.532   0.710   3.770 -0.1585 -0.3285  0.0108
  730TIP3    H1 2154   0.448   0.752   3.789 -0.6920 -0.3164 -2.0812
  730TIP3    H2 2155   0.579   0.775   3.718  0.1700 -1.2146 -0.8189
  731TIP3   OH2 2156   6.723   2.455   4.546 -0.2739 -0.4147 -0.2870
  731TIP3    H1 2157   6.771   2.528   4.505 -0.9944  0.0570 -0.3041
  731TIP3    H2 2158   6.791   2.392   4.568  0.1994 -0.4406 -1.7059
  732TIP3   OH2 2159   1.994   0.865   0.311 -0.3751  0.8515  0.3718
  732TIP3    H1 2160   2.081   0.869   0.351  0.1538 -1.5285 -0.3735
  732TIP3    H2 2161   1.938   0.826   0.379 -0.7700  1.9579  0.6921
  733TIP3   OH2 2162   4.523   2.456   0.268 -0.1481 -0.8851 -0.0440
  733TIP3    H1 2163   4.527   2.534   0.212  0.3766  0.4462  1.7509
  733TIP3    H2 2164   4.541   2.383   0.209  0.6851  0.4818 -1.5569
  734TIP3   OH2 2165   3.353   2.630   4.489 -0.3462  0.1618  0.3666
  734TIP3    H1 2166   3.263   2.664   4.480 -0.1117  0.6605 -0.1507
  734TIP3    H2 2167   3.404   2.680   4.425 -0.2071 -1.9723 -1.2849
  735TIP3   OH2 2168   1.377   2.365   4.751  0.1826  0.8772  0.2008
  735TIP3    H1 2169   1.397   2.356   4.845  0.7946 -1.4338 -0.0782
  735TIP3    H2 2170   1.448   2.419   4.717  0.7339  0.6027  0.8660
  736TIP3   OH2 2171   6.303   6.023   3.751 -0.0952 -0.1093  0.3139
  736TIP3    H1 2172   6.253   6.046   3.830 -0.6181  0.3253 -0.1433
  736TIP3    H2 2173   6.297   6.099   3.695  0.3247 -0.4001 -0.1322
  737TIP3   OH2 2174   5.781   4.277   1.504 -0.2023  0.3820  0.4740
  737TIP3    H1 2175   5.776   4.255   1.597  0.3939  1.2137  0.7107
  737TIP3    H2 2176   5.722   4.352   1.494  1.7539  2.0516  0.7563
  738TIP3   OH2 2177   6.413   5.282   2.894 -0.5205 -0.4533 -0.0220
  738TIP3    H1 2178   6.387   5.237   2.813 -3.2651  0.3921  0.3047
  738TIP3    H2 2179   6.413   5.375   2.871  0.7153 -0.3033  0.4722
  739TIP3   OH2 2180   4.186   1.930   1.592  0.1530  0.1430 -1.0546
  739TIP3    H1 2181   4.096   1.962   1.590  0.3138  0.6897 -0.2267
  739TIP3    H2 2182   4.210   1.918   1.500 -1.1865 -1.2568 -1.2577
  740TIP3   OH2 2183   6.067   3.502   3.769  0.7871  0.2551  0.2223
  740TIP3    H1 2184   6.075   3.529   3.677  1.9321  0.6334  0.4273
  740TIP3    H2 2185   6.009   3.426   3.765 -1.0384  1.6026 -0.5550
  741TIP3   OH2 2186   6.838   5.675   3.305  0.1142  0.0688 -0.0866
  741TIP3    H1 2187   6.853   5.761   3.265 -0.9495 -0.9295 -2.8910
  741TIP3    H2 2188   6.868   5.613   3.239 -0.2799 -1.7408  1.3667
  742TIP3   OH2 2189   4.273   5.138   2.241  0.1058  0.5584  0.0523
  742TIP3    H1 2190   4.181   5.119   2.223  0.1550  0.5078 -0.1491
  742TIP3    H2 2191   4.317   5.122   2.157  0.3359  0.3213  0.2163
  743TIP3   OH2 2192   7.026   5.097   1.987  0.0001  0.2181 -0.8216
  743TIP3    H1 2193   6.984   5.054   2.062  0.5856 -0.1559 -0.7063
  743TIP3    H2 2194   7.099   5.145   2.025 -0.0094  0.4417 -1.0878
  744TIP3   OH2 2195   3.597   3.064   3.468  0.1056  0.2660 -0.2528
  744TIP3    H1 2196   3.530   3.127   3.495 -0.9298 -0.4345 -1.1120
  744TIP3    H2 2197   3.549   2.982   3.455  1.4315 -0.7417  0.9033
  745TIP3   OH2 2198   0.472   2.011   5.171 -0.0959  0.7179  0.0285
  745TIP3    H1 2199   0.523   2.092   5.168  0.5649  0.4023  1.5283
  745TIP3    H2 2200   0.384   2.039   5.197  0.5820  0.8248  2.3922
  746TIP3   OH2 2201   3.150   5.370   3.388 -0.0782  0.0110 -0.3061
  746TIP3    H1 2202   3.106   5.454   3.404 -2.1357 -0.9085 -0.7581
  746TIP3    H2 2203   3.242   5.388   3.403  0.0091  3.1558 -3.4226
  747TIP3   OH2 2204   5.956   0.943   5.650  0.0079  0.2536  0.0861
  747TIP3    H1 2205   5.895   0.882   5.690 -0.4892  0.7735  0.1451
  747TIP3    H2 2206   5.940   1.026   5.696  2.6040 -0.1667  1.9974
  748TIP3   OH2 2207   1.600   1.400   3.422 -0.2751 -0.0224  0.3064
  748TIP3    H1 2208   1.571   1.311   3.443  0.1490 -0.7662 -1.9303
  748TIP3    H2 2209   1.565   1.416   3.334 -0.0374  1.9087  0.5157
  749TIP3   OH2 2210   2.542   0.602   2.864  0.4192 -0.5244  0.7325
  749TIP3    H1 2211   2.580   0.521   2.828  1.0834  0.5065 -1.0347
  749TIP3    H2 2212   2.598   0.624   2.938  1.3821 -0.7205  0.0913
  750TIP3   OH2 2213   6.119   1.354   5.062 -0.3681 -0.4725 -0.1807
  750TIP3    H1 2214   6.086   1.336   4.973 -0.9069 -2.3897  0.3641
  750TIP3    H2 2215   6.162   1.273   5.088  2.1898  0.9687  0.3306
  751TIP3   OH2 2216   1.848   2.171   3.407  0.1165 -0.4414  0.1527
  751TIP3    H1 2217   1.940   2.152   3.424  1.0239 -0.8026 -4.1598
  751TIP3    H2 2218   1.810   2.086   3.384 -0.1003  0.2605 -2.3862
  752TIP3   OH2 2219   4.949   0.871   3.145 -0.2210 -0.4720 -0.2856
  752TIP3    H1 2220   4.895   0.914   3.078 -1.6896 -1.5356  0.1547
  752TIP3    H2 2221   4.932   0.920   3.225  1.2035  0.5361 -0.5735
  753TIP3   OH2 2222   7.125   0.985   1.527  0.0886 -0.4375 -0.4008
  753TIP3    H1 2223   7.118   1.076   1.500 -0.5088 -0.2658  0.2780
  753TIP3    H2 2224   7.083   0.936   1.457  0.2102 -0.1673 -0.6622
  754TIP3   OH2 2225   0.350   2.407   0.925 -0.0353 -0.2279  0.3608
  754TIP3    H1 2226   0.343   2.366   1.011  1.0356  1.4379  1.2879
  754TIP3    H2 2227   0.270   2.380   0.879  0.0988 -2.3966  1.2859
  755TIP3   OH2 2228   4.528   1.517   0.406  0.2285  0.6389 -0.1904
  755TIP3    H1 2229   4.612   1.541   0.446  1.1941 -0.6771 -1.3351
  755TIP3    H2 2230   4.497   1.443   0.459  1.1815 -0.6684 -1.3806
  756TIP3   OH2 2231   6.456   5.503   1.560 -0.0682 -0.0283 -0.0515
  756TIP3    H1 2232   6.540   5.549   1.554 -0.9164  1.5631 -0.4766
  756TIP3    H2 2233   6.395   5.570   1.590 -0.7688 -1.7291  2.6100
  757TIP3   OH2 2234   1.103   4.988   3.896 -0.0480  0.1721 -0.3070
  757TIP3    H1 2235   1.095   4.893   3.898 -1.0314  0.2526  0.6198
  757TIP3    H2 2236   1.096   5.011   3.804  0.8267 -0.6886 -0.6084
  758TIP3   OH2 2237   6.491   1.698   0.060  0.1387 -0.4377 -0.3019
  758TIP3    H1 2238   6.454   1.630   0.117 -1.3888  0.6163  0.0407
  758TIP3    H2 2239   6.530   1.761   0.120  2.5869 -1.5026 -0.6597
  759TIP3   OH2 2240   2.716   3.025   4.225  0.2992 -0.0031 -0.0244
  759TIP3    H1 2241   2.759   3.048   4.143  0.0920 -0.7197 -0.3429
  759TIP3    H2 2242   2.623   3.029   4.206  0.2466  0.0350  0.2323
  760TIP3   OH2 2243   2.489   5.811   2.450  0.1681 -0.5105  0.6091
  760TIP3    H1 2244   2.506   5.774   2.537  0.0577 -0.9462  0.4496
  760TIP3    H2 2245   2.397   5.792   2.433  0.3102 -0.8492  0.1998
  761TIP3   OH2 2246   2.789   6.083   2.164  0.0109 -0.7819 -0.0114
  761TIP3    H1 2247   2.792   6.131   2.246  2.0611  0.1196 -0.5415
  761TIP3    H2 2248   2.753   5.998   2.186 -0.6119 -0.1389  1.5667
  762TIP3   OH2 2249   0.678   4.380   2.165 -0.0257 -0.2079 -0.6302
  762TIP3    H1 2250   0.693   4.352   2.075 -1.0206 -3.2761  0.0112
  762TIP3    H2 2251   0.753   4.346   2.214 -1.1536 -1.7527  0.1536
  763TIP3   OH2 2252   5.286   5.428   3.292  0.0211 -0.0155 -0.2450
  763TIP3    H1 2253   5.255   5.515   3.318  3.5951  0.7606  1.9887
  763TIP3    H2 2254   5.309   5.385   3.374  1.3360 -1.8346 -1.5062
  764TIP3   OH2 2255   0.139   1.086   3.153  0.4461  0.0951 -0.4851
  764TIP3    H1 2256   0.227   1.115   3.178  1.0526 -2.6120  0.9609
  764TIP3    H2 2257   0.151   1.045   3.067  0.3937  0.5030 -0.6910
  765TIP3   OH2 2258   0.843   2.165   2.434  0.0194 -0.4861 -0.1563
  765TIP3    H1 2259   0.851   2.099   2.366  0.9109  0.5258 -1.0733
  765TIP3    H2 2260   0.931   2.202   2.443 -0.8099  1.9275 -1.1032
  766TIP3   OH2 2261   0.396   1.530   3.595  0.2378 -0.0833 -0.0543
  766TIP3    H1 2262   0.302   1.525   3.578  0.0823  0.1912  0.7064
  766TIP3    H2 2263   0.436   1.491   3.517 -0.5455 -1.3209  0.1252
  767TIP3   OH2 2264   3.240   2.093   4.594  0.7611 -0.4370 -0.4677
  767TIP3    H1 2265   3.211   2.008   4.628 -0.6081 -0.5265 -1.7944
  767TIP3    H2 2266   3.288   2.072   4.514  1.8340 -0.0531  0.0557
  768TIP3   OH2 2267   6.974   1.049   0.658  0.4605  0.5305 -0.0608
  768TIP3    H1 2268   6.957   0.958   0.683 -0.5073  0.6646 -0.2146
  768TIP3    H2 2269   7.044   1.043   0.593  1.9447  0.0651  1.5012
  769TIP3   OH2 2270   3.260   4.150   2.586 -0.5410 -0.1616 -0.0728
  769TIP3    H1 2271   3.352   4.166   2.568 -0.5359 -0.3492 -0.2168
  769TIP3    H2 2272   3.257   4.063   2.627 -0.6605 -0.1929 -0.1443
  770TIP3   OH2 2273   7.064   2.909   4.737  0.2014 -0.4895  0.1634
  770TIP3    H1 2274   7.044   2.857   4.815 -1.1756  1.7404  1.4059
  770TIP3    H2 2275   7.153   2.941   4.751  1.4703 -3.1258 -1.0835
  771TIP3   OH2 2276   3.493   6.245   3.431  0.3540  0.2008  0.0343
  771TIP3    H1 2277   3.447   6.226   3.349 -2.0796  1.4280  0.9889
  771TIP3    H2 2278   3.477   6.168   3.486 -0.0092  0.3311  0.1179
  772TIP3   OH2 2279   6.260   4.783   3.106  0.1639 -0.0014 -0.3947
  772TIP3    H1 2280   6.264   4.726   3.183 -0.2288 -0.3399 -0.6156
  772TIP3    H2 2281   6.349   4.816   3.095  0.5194 -0.9576 -0.5400
  773TIP3   OH2 2282   4.413   6.107   1.921  0.1550 -0.0414 -0.2585
  773TIP3    H1 2283   4.344   6.052   1.958 -0.5316  0.5326 -0.6566
  773TIP3    H2 2284   4.406   6.093   1.826  1.8110 -1.4035 -0.2338
  774TIP3   OH2 2285   3.032   3.798   3.114 -0.1680  0.2235 -0.4705
  774TIP3    H1 2286   2.983   3.743   3.052 -2.0261  2.1727 -0.8252
  774TIP3    H2 2287   3.106   3.832   3.063 -0.6360  0.3323 -1.0898
  775TIP3   OH2 2288   6.975   0.941   2.395 -0.3808  0.1307 -0.0822
  775TIP3    H1 2289   6.936   0.965   2.479 -1.3162 -2.3938  0.2787
  775TIP3    H2 2290   7.055   0.893   2.417 -0.5250 -0.3797 -0.6284
  776TIP3   OH2 2291   7.151   3.006   0.945 -0.0554 -0.5050 -0.1484
  776TIP3    H1 2292   7.101   3.082   0.978  1.7884  0.7809 -0.1703
  776TIP3    H2 2293   7.095   2.969   0.877 -2.1765 -0.8174  1.6472
  777TIP3   OH2 2294   1.766   2.234   1.854 -0.4431  0.1481  0.0133
  777TIP3    H1 2295   1.771   2.139   1.855 -1.2996  0.0985  0.5693
  777TIP3    H2 2296   1.829   2.261   1.786  0.4259 -0.7604  0.4323
  778TIP3   OH2 2297   4.863   5.314   4.721 -0.1621 -0.3071  0.4197
  778TIP3    H1 2298   4.846   5.310   4.815  1.8541 -0.8343  0.8023
  778TIP3    H2 2299   4.848   5.224   4.690  0.8463 -0.5352  0.5712
  779TIP3   OH2 2300   3.358   2.083   4.347  0.0612  0.1478 -0.2663
  779TIP3    H1 2301   3.332   2.050   4.262 -0.5809  0.1826 -0.0866
  779TIP3    H2 2302   3.330   2.174   4.348 -0.8893 -0.1408  0.3753
  780TIP3   OH2 2303   5.668   1.557   5.359  0.5117 -0.1139 -0.9625
  780TIP3    H1 2304   5.575   1.575   5.346  0.4606  0.6747  0.2810
  780TIP3    H2 2305   5.711   1.641   5.343  0.9187 -0.2839 -0.7699
  781TIP3   OH2 2306   2.021   3.870   0.437  0.0698  0.8050 -0.0921
  781TIP3    H1 2307   2.110   3.836   0.426  0.3696  1.4659  0.2028
  781TIP3    H2 2308   2.031   3.943   0.499 -0.8602  0.0955  0.9382
  782TIP3   OH2 2309   2.872   0.769   0.755  0.3895 -0.0832  0.4731
  782TIP3    H1 2310   2.785   0.750   0.722  1.0358 -0.9273 -0.8399
  782TIP3    H2 2311   2.927   0.772   0.677  2.0589 -2.5604  1.4101
  783TIP3   OH2 2312   6.636   5.371   0.460 -0.7125 -0.1339 -0.5068
  783TIP3    H1 2313   6.626   5.458   0.421 -2.6765 -0.9342 -2.0176
  783TIP3    H2 2314   6.613   5.382   0.552  1.2147  1.3034 -0.1502
  784TIP3   OH2 2315   3.035   0.249   5.779 -0.1872 -0.5604  0.2445
  784TIP3    H1 2316   2.942   0.270   5.787 -0.6105 -0.9007 -2.8536
  784TIP3    H2 2317   3.044   0.163   5.820 -0.6955  0.4511  2.6696
  785TIP3   OH2 2318   0.860   1.264   2.298  0.1940 -0.0195  0.1814
  785TIP3    H1 2319   0.855   1.297   2.208  2.0079  1.0840  0.4344
  785TIP3    H2 2320   0.896   1.337   2.348 -1.7152 -0.2638  2.0382
  786TIP3   OH2 2321   6.444   0.734   2.086  0.2870 -0.3189  0.2603
  786TIP3    H1 2322   6.424   0.646   2.118  0.2448 -0.6825 -0.7490
  786TIP3    H2 2323   6.465   0.722   1.994 -2.3947  1.0478 -0.6310
  787TIP3   OH2 2324   1.880   3.646   1.101  0.0112 -0.3022  0.3971
  787TIP3    H1 2325   1.800   3.628   1.052 -1.6189  0.1753  2.7144
  787TIP3    H2 2326   1.853   3.705   1.171  2.5181  0.2790  0.9998
  788TIP3   OH2 2327   0.154   1.803   2.464  0.4653 -0.3373 -0.0221
  788TIP3    H1 2328   0.091   1.832   2.530 -0.3645  0.5003 -1.1408
  788TIP3    H2 2329   0.168   1.880   2.408  0.0457 -1.3929 -1.6643
  789TIP3   OH2 2330   5.013   5.396   4.323 -0.6467  0.0770  0.0941
  789TIP3    H1 2331   5.067   5.414   4.247 -1.9690  1.0863 -0.6513
  789TIP3    H2 2332   4.935   5.451   4.311 -1.0501 -0.0051  1.9862
  790TIP3   OH2 2333   6.556   6.223   3.209  0.0292  0.1897  0.4242
  790TIP3    H1 2334   6.579   6.143   3.163  2.9745  1.0251  0.2293
  790TIP3    H2 2335   6.480   6.199   3.262 -0.5825 -2.0612 -1.2912
  791TIP3   OH2 2336   0.789   0.631   2.560 -0.5870  0.2606 -0.6613
  791TIP3    H1 2337   0.751   0.550   2.524  2.2550 -1.9189  0.8492
  791TIP3    H2 2338   0.767   0.628   2.653  0.3604  0.7176 -0.4137
  792TIP3   OH2 2339  -0.000   4.284   5.391  0.1040 -0.2335  0.3090
  792TIP3    H1 2340  -0.011   4.363   5.338 -0.1166 -0.0447  0.6277
  792TIP3    H2 2341   0.051   4.225   5.337 -0.1149 -0.0410 -0.1107
  793TIP3   OH2 2342   5.273   3.841   1.152  0.1026 -0.6962  0.2257
  793TIP3    H1 2343   5.228   3.758   1.131 -2.1800  0.2241  1.1545
  793TIP3    H2 2344   5.342   3.847   1.086 -0.6903 -2.5535 -0.8888
  794TIP3   OH2 2345   4.005   6.663   3.826  0.1866  0.1633  0.4787
  794TIP3    H1 2346   3.993   6.664   3.731  1.9178  0.8446  0.2286
  794TIP3    H2 2347   3.917   6.675   3.862 -0.3958  0.6497 -1.0451
  795TIP3   OH2 2348   2.815   1.708   1.255 -0.1058  0.0857 -0.6912
  795TIP3    H1 2349   2.869   1.635   1.226  0.5838  0.1540  0.3840
  795TIP3    H2 2350   2.756   1.670   1.320 -0.5987  0.2501 -1.0284
  796TIP3   OH2 2351   2.991   5.203   4.832  0.0937  0.4259 -0.0543
  796TIP3    H1 2352   3.039   5.133   4.876  0.8516  1.1632  0.3237
  796TIP3    H2 2353   3.059   5.264   4.803 -0.6441  2.2685  1.8252
  797TIP3   OH2 2354   2.080   2.213   3.024  0.6677 -0.5010  0.0333
  797TIP3    H1 2355   2.085   2.148   2.954  0.6192 -1.6169  1.0470
  797TIP3    H2 2356   1.998   2.260   3.006  1.3323  0.1716 -1.4297
  798TIP3   OH2 2357   0.502   3.385   2.613 -0.6082  0.1363  0.1175
  798TIP3    H1 2358   0.539   3.301   2.588 -0.5799 -0.8791  3.1689
  798TIP3    H2 2359   0.407   3.371   2.611 -0.5971 -0.0697  0.9012
  799TIP3   OH2 2360   4.310   5.812   0.873  0.6790  0.0616  0.5427
  799TIP3    H1 2361   4.392   5.834   0.829  0.3664 -0.1131 -0.1437
  799TIP3    H2 2362   4.337   5.769   0.954  1.2658  0.6354  0.6611
  800TIP3   OH2 2363   1.399   6.554   1.450 -0.3857 -0.2935 -0.0652
  800TIP3    H1 2364   1.442   6.543   1.365 -0.3768  0.0900 -0.1126
  800TIP3    H2 2365   1.352   6.637   1.442  0.0397 -0.0019  0.4877
  801TIP3   OH2 2366   6.492   1.802   2.096  0.5398  0.5080 -0.2559
  801TIP3    H1 2367   6.434   1.847   2.035  0.4773 -0.2912 -0.7949
  801TIP3    H2 2368   6.477   1.709   2.081  0.8926  0.2888  0.6273
  802TIP3   OH2 2369   0.875   2.117   1.197 -0.0960  0.3910  0.2812
  802TIP3    H1 2370   0.921   2.179   1.252  1.4770 -1.1222  0.7530
  802TIP3    H2 2371   0.805   2.082   1.253 -0.6411  1.2832  0.1851
  803TIP3   OH2 2372   4.276   4.649   2.918  0.0758  0.8209 -0.0907
  803TIP3    H1 2373   4.351   4.603   2.880  0.6130  1.3523  0.2999
  803TIP3    H2 2374   4.208   4.582   2.927  0.3376  0.4368 -0.8964
  804TIP3   OH2 2375   2.941   3.395   1.458 -0.6631  0.0066 -0.2485
  804TIP3    H1 2376   2.946   3.490   1.474 -0.4427 -0.0934  0.2864
  804TIP3    H2 2377   3.032   3.369   1.443 -0.4447 -0.4486  1.5849
  805TIP3   OH2 2378   6.591   4.420   5.665 -0.0584 -0.0159 -0.0281
  805TIP3    H1 2379   6.598   4.354   5.734  1.5808  0.8797  0.7395
  805TIP3    H2 2380   6.607   4.372   5.584 -0.4805 -0.8243  0.3530
  806TIP3   OH2 2381   3.808   1.920   3.547 -0.3327 -0.1356 -0.1651
  806TIP3    H1 2382   3.790   1.845   3.604  0.5976 -0.8495 -0.7789
  806TIP3    H2 2383   3.846   1.985   3.605 -0.6401 -0.3411  0.2767
  807TIP3   OH2 2384   6.702   3.943   0.760 -0.5930 -0.5629  0.4322
  807TIP3    H1 2385   6.680   4.034   0.778 -1.3430 -0.7055  0.2614
  807TIP3    H2 2386   6.797   3.940   0.766 -0.5946  0.1199  0.9653
  808TIP3   OH2 2387   5.404   5.595   1.728 -0.1095  0.4583 -0.2396
  808TIP3    H1 2388   5.343   5.633   1.792 -0.1185  0.9150 -0.5099
  808TIP3    H2 2389   5.395   5.501   1.739 -2.8864  0.3867 -2.0952
  809TIP3   OH2 2390   1.489   0.966   1.595 -0.0052  0.2099 -0.3282
  809TIP3    H1 2391   1.477   0.911   1.517 -1.5369 -1.0228  0.7290
  809TIP3    H2 2392   1.401   0.995   1.619  0.1623 -0.9281  1.9509
  810TIP3   OH2 2393   1.295   1.508   0.347 -0.2678 -0.6084 -0.3569
  810TIP3    H1 2394   1.360   1.577   0.358 -0.7581 -0.4792  2.2909
  810TIP3    H2 2395   1.227   1.546   0.291  0.3325  0.3959 -0.4092
  811TIP3   OH2 2396   6.711   4.263   4.188  0.4574  0.0826  1.0508
  811TIP3    H1 2397   6.700   4.321   4.263 -1.1599  1.3271 -0.0827
  811TIP3    H2 2398   6.633   4.208   4.188  1.7635 -1.8675  1.8527
  812TIP3   OH2 2399   6.374   2.979   3.810  0.4624 -0.7312  1.1812
  812TIP3    H1 2400   6.335   3.000   3.725 -1.4913 -2.0059  1.6899
  812TIP3    H2 2401   6.430   3.054   3.830 -0.6843  0.5748 -0.2577
  813TIP3   OH2 2402   2.976   4.062   0.183  0.1919  0.0560 -0.1540
  813TIP3    H1 2403   2.940   4.046   0.096 -2.1553 -1.5444  0.9831
  813TIP3    H2 2404   3.054   4.008   0.187 -0.5452 -1.1026 -0.7779
  814TIP3   OH2 2405   2.176   2.068   2.243  0.5947 -0.3494 -0.0251
  814TIP3    H1 2406   2.150   2.018   2.165 -0.2765 -0.5096  0.3652
  814TIP3    H2 2407   2.207   2.001   2.305  0.5232 -0.2913  0.0716
  815TIP3   OH2 2408   6.761   4.942   1.658 -0.0889  0.0580  0.1696
  815TIP3    H1 2409   6.789   5.027   1.692 -2.0107  1.1654 -0.8564
  815TIP3    H2 2410   6.708   4.905   1.729 -1.7526  1.1096 -0.4633
  816TIP3   OH2 2411   4.026   2.115   3.391  0.0055 -0.1545  0.2893
  816TIP3    H1 2412   4.013   2.116   3.486 -0.4062  1.8638  0.2482
  816TIP3    H2 2413   4.091   2.184   3.376  0.5583 -0.8985 -0.8552
  817TIP3   OH2 2414   5.667   0.463   5.492 -0.2555 -0.5413  0.3473
  817TIP3    H1 2415   5.644   0.422   5.409 -0.3166 -0.4730  0.3312
  817TIP3    H2 2416   5.751   0.507   5.475 -0.3714 -0.3511  0.2650
  818TIP3   OH2 2417   2.038   6.313   0.835  0.0721  0.6606 -0.4553
  818TIP3    H1 2418   2.021   6.407   0.835 -1.3711  0.5516  2.9581
  818TIP3    H2 2419   2.123   6.303   0.878  0.1430  0.3870 -0.6549
  819TIP3   OH2 2420   4.256   1.315   2.604  0.1532  0.2654 -0.1077
  819TIP3    H1 2421   4.235   1.225   2.626 -0.3207  0.7344  1.5746
  819TIP3    H2 2422   4.191   1.341   2.539 -0.7172 -0.1445  0.5777
  820TIP3   OH2 2423   6.888   6.208   2.485 -0.0434 -0.1362  0.3025
  820TIP3    H1 2424   6.853   6.169   2.405  0.8508  2.4363 -1.4610
  820TIP3    H2 2425   6.975   6.171   2.494  0.7764  1.2590 -1.3235
  821TIP3   OH2 2426   5.267   0.684   3.540 -0.3123 -0.0373 -0.0474
  821TIP3    H1 2427   5.353   0.725   3.535 -0.8023  0.9907 -0.2911
  821TIP3    H2 2428   5.252   0.649   3.452 -0.1410 -0.2372  0.0013
  822TIP3   OH2 2429   5.596   6.795   0.926 -0.2774 -0.2652 -0.2664
  822TIP3    H1 2430   5.549   6.711   0.926 -2.1138  0.6980 -0.0121
  822TIP3    H2 2431   5.625   6.807   1.016 -0.5930 -0.3350 -0.1543
  823TIP3   OH2 2432   6.016   6.257   4.539  0.3810  0.5310  0.2501
  823TIP3    H1 2433   5.972   6.341   4.555 -0.7107 -0.0137  0.2186
  823TIP3    H2 2434   5.951   6.205   4.492  0.4122 -0.9283  1.7453
  824TIP3   OH2 2435   6.560   0.518   3.861  0.2103  0.2505  0.0736
  824TIP3    H1 2436   6.490   0.454   3.869  0.9892 -0.5034  1.0944
  824TIP3    H2 2437   6.606   0.494   3.780 -0.3913  0.4472 -0.3330
  825TIP3   OH2 2438   4.599   0.242   2.485  0.2276 -0.5707 -0.8351
  825TIP3    H1 2439   4.677   0.269   2.437  1.3637 -1.1699  0.6001
  825TIP3    H2 2440   4.569   0.321   2.529  0.8957 -0.6281 -0.2502
  826TIP3   OH2 2441   4.669   6.266   3.404  0.2209 -0.2702  0.0069
  826TIP3    H1 2442   4.692   6.350   3.365 -0.4135 -0.2429 -0.3129
  826TIP3    H2 2443   4.753   6.222   3.418  0.7951  1.3446  2.3495
  827TIP3   OH2 2444   5.505   6.190   1.205  0.0643 -0.3383 -0.6080
  827TIP3    H1 2445   5.474   6.128   1.138 -1.3180 -0.3546  0.0135
  827TIP3    H2 2446   5.500   6.141   1.287 -0.0968  0.2876 -0.2407
  828TIP3   OH2 2447   6.589   3.930   5.400  0.1345 -0.5179  0.0789
  828TIP3    H1 2448   6.599   3.972   5.315  2.2381 -3.3229 -1.2244
  828TIP3    H2 2449   6.638   3.986   5.460  0.9699  0.0769 -1.1100
  829TIP3   OH2 2450   4.687   2.394   5.436 -0.5538 -0.6527 -0.3518
  829TIP3    H1 2451   4.778   2.370   5.453 -0.6234  0.1438  1.3492
  829TIP3    H2 2452   4.636   2.318   5.462 -0.5661  0.0984  2.0544
  830TIP3   OH2 2453   1.651   3.432   4.889  0.5248 -0.0602  0.6615
  830TIP3    H1 2454   1.589   3.401   4.823  0.5959  1.3103 -0.0974
  830TIP3    H2 2455   1.598   3.485   4.949  0.5145 -1.0523  1.5596
  831TIP3   OH2 2456   2.906   4.897   3.663  0.1019  0.0081 -0.2740
  831TIP3    H1 2457   2.999   4.898   3.640 -0.2247  1.2462 -1.6975
  831TIP3    H2 2458   2.866   4.840   3.598 -0.3333  0.6876 -0.6172
  832TIP3   OH2 2459   2.986   4.457   5.794 -0.3706 -0.4835 -0.2048
  832TIP3    H1 2460   3.010   4.541   5.755  0.7637  0.2339  1.9043
  832TIP3    H2 2461   2.990   4.395   5.721  1.9687  0.7076 -1.2022
  833TIP3   OH2 2462   6.032   3.770   2.775  0.4627  0.2121  0.3348
  833TIP3    H1 2463   6.057   3.686   2.736  1.4279  1.4371 -1.9020
  833TIP3    H2 2464   6.061   3.835   2.711 -0.8531  2.2274  1.6820
  834TIP3   OH2 2465   7.146   2.093   3.770 -0.2259 -0.4401  0.2066
  834TIP3    H1 2466   7.071   2.153   3.764  0.0491 -0.2026 -1.1700
  834TIP3    H2 2467   7.131   2.029   3.701  1.1730  0.0096 -0.5517
  835TIP3   OH2 2468   2.241   3.120   2.027 -0.4301 -0.2410  0.2909
  835TIP3    H1 2469   2.209   3.203   1.994 -0.0963 -0.2927 -0.1671
  835TIP3    H2 2470   2.329   3.139   2.059  0.3113 -0.7491 -1.3355
  836TIP3   OH2 2471   1.181   6.636   3.242  0.0913  0.2539 -0.1379
  836TIP3    H1 2472   1.111   6.579   3.273 -0.1911  1.3084  1.2066
  836TIP3    H2 2473   1.259   6.580   3.243 -0.1892 -0.1332  1.1037
  837TIP3   OH2 2474   0.218   2.377   3.127  0.0755 -0.5991  0.1261
  837TIP3    H1 2475   0.156   2.409   3.192  0.7047 -0.1955  0.5439
  837TIP3    H2 2476   0.169   2.314   3.074 -0.5827 -0.5353  0.6602
  838TIP3   OH2 2477   3.822   0.351   2.211  0.0305  0.1619 -0.2834
  838TIP3    H1 2478   3.751   0.404   2.249 -0.4231 -1.0150  0.5400
  838TIP3    H2 2479   3.900   0.405   2.222 -0.7789  1.7937 -1.8044
  839TIP3   OH2 2480   6.217   3.503   2.757 -0.6858 -0.3755 -0.7272
  839TIP3    H1 2481   6.283   3.449   2.712 -0.5600 -0.0169 -0.9708
  839TIP3    H2 2482   6.264   3.582   2.783 -0.6284 -0.7826  0.4700
  840TIP3   OH2 2483   4.832   2.304   0.823 -0.0980 -0.0333 -0.2150
  840TIP3    H1 2484   4.913   2.291   0.874 -0.0928  1.6967  0.3102
  840TIP3    H2 2485   4.763   2.310   0.889 -0.2890  0.8516 -0.4707
  841TIP3   OH2 2486   6.773   1.249   5.861 -1.1480 -0.3137 -0.3403
  841TIP3    H1 2487   6.779   1.334   5.905 -0.8765  1.0853 -2.9060
  841TIP3    H2 2488   6.864   1.222   5.850 -1.1537 -0.0510 -1.0917
  842TIP3   OH2 2489   7.178   5.739   2.445 -1.1247 -0.4211 -0.6540
  842TIP3    H1 2490   7.137   5.743   2.359 -1.8966 -0.0387 -0.2753
  842TIP3    H2 2491   7.134   5.807   2.496  0.4944  0.5204 -0.4420
  843TIP3   OH2 2492   0.906   4.746   4.007  0.8603 -0.1155 -0.1385
  843TIP3    H1 2493   0.828   4.692   4.024  0.4554  0.8109  1.1161
  843TIP3    H2 2494   0.972   4.684   3.977 -0.1447 -1.0353 -0.5135
  844TIP3   OH2 2495   2.203   5.350   0.673 -0.0599 -0.9895  0.1529
  844TIP3    H1 2496   2.275   5.323   0.729 -0.7406  0.7534  2.0026
  844TIP3    H2 2497   2.244   5.384   0.594  1.2606  0.6991  1.4817
  845TIP3   OH2 2498   2.806   0.898   0.361  0.0186 -0.0875  0.3660
  845TIP3    H1 2499   2.817   0.882   0.267 -2.1975 -1.7659  0.3192
  845TIP3    H2 2500   2.721   0.943   0.368 -1.1817 -2.4067  1.6872
  846TIP3   OH2 2501   1.908   3.898   0.779  0.3276 -0.2784 -0.3502
  846TIP3    H1 2502   1.897   3.933   0.691  0.3549  1.0202  0.1401
  846TIP3    H2 2503   1.998   3.864   0.780 -0.4477 -2.5907 -1.5471
  847TIP3   OH2 2504   6.860   6.441   5.554 -0.3506 -0.1514 -0.3789
  847TIP3    H1 2505   6.904   6.480   5.629 -0.7100  0.8022 -0.6512
  847TIP3    H2 2506   6.899   6.354   5.546  0.4068  0.1155  0.2930
  848TIP3   OH2 2507   2.132   0.245   1.407  0.1670 -0.1725 -0.1830
  848TIP3    H1 2508   2.160   0.330   1.440  0.3473 -0.1118 -0.4849
  848TIP3    H2 2509   2.120   0.191   1.485 -0.7446  0.3643  0.0659
  849TIP3   OH2 2510   1.400   3.095   2.568 -0.0910 -0.1421 -0.0082
  849TIP3    H1 2511   1.434   3.021   2.619 -0.2993  0.4101  0.9318
  849TIP3    H2 2512   1.305   3.084   2.570 -0.0671 -1.2682 -2.0235
  850TIP3   OH2 2513   3.598   3.816   1.685  0.4057 -0.0710 -0.2337
  850TIP3    H1 2514   3.617   3.882   1.618 -1.7534 -1.0695 -1.9512
  850TIP3    H2 2515   3.646   3.739   1.656  0.3904 -0.1786  0.0277
  851TIP3   OH2 2516   4.180   4.136   1.055  0.0282 -0.1897 -0.6081
  851TIP3    H1 2517   4.088   4.164   1.058  0.2368  0.4811 -0.3678
  851TIP3    H2 2518   4.201   4.134   0.961  0.5423  2.3126 -0.6219
  852TIP3   OH2 2519   1.563   6.090   0.462  0.4842 -0.0967 -0.3390
  852TIP3    H1 2520   1.528   6.001   0.457 -0.4199  0.0949  1.7512
  852TIP3    H2 2521   1.489   6.147   0.445 -0.1784  0.2849  3.0930
  853TIP3   OH2 2522   5.787   3.674   3.521  0.4373 -0.1717  0.1773
  853TIP3    H1 2523   5.808   3.767   3.530  1.1731 -0.4969  2.5388
  853TIP3    H2 2524   5.872   3.630   3.525 -0.0558 -1.0589  1.9017
  854TIP3   OH2 2525   0.505   2.122   4.539  0.5358  0.0578 -0.1777
  854TIP3    H1 2526   0.535   2.032   4.523  0.1708 -0.6969  2.7814
  854TIP3    H2 2527   0.455   2.144   4.460  0.2688 -2.5098 -0.8447
  855TIP3   OH2 2528   0.852   4.457   3.059  0.0958 -0.2316 -0.1142
  855TIP3    H1 2529   0.785   4.419   3.116  0.3588 -0.7467 -0.1363
  855TIP3    H2 2530   0.816   4.446   2.971  0.4048 -0.9219 -0.1583
  856TIP3   OH2 2531   5.106   2.324   1.453  0.4256  0.5828 -0.3837
  856TIP3    H1 2532   5.200   2.338   1.453  0.4486  0.4895  0.6120
  856TIP3    H2 2533   5.093   2.248   1.510 -0.1770 -0.0239 -1.2872
  857TIP3   OH2 2534   4.070   4.035   4.602 -0.7731 -0.3260 -0.0662
  857TIP3    H1 2535   4.152   4.050   4.649 -1.1586  0.5683  0.3308
  857TIP3    H2 2536   4.092   4.053   4.510 -0.7321  0.7563  0.1496
  858TIP3   OH2 2537   6.012   2.619   1.538  0.0878 -0.7120  0.2454
  858TIP3    H1 2538   5.935   2.581   1.496  0.0734 -1.2491  0.7351
  858TIP3    H2 2539   5.979   2.695   1.586 -0.4574 -1.9035  1.8372
  859TIP3   OH2 2540   4.053   5.463   0.554  0.6226 -0.1219 -0.4522
  859TIP3    H1 2541   3.975   5.436   0.601 -0.0312  0.7032 -1.0358
  859TIP3    H2 2542   4.034   5.444   0.462  1.3186 -0.4011 -0.5487
  860TIP3   OH2 2543   1.309   3.705   3.259  0.4989 -0.2147  0.1134
  860TIP3    H1 2544   1.236   3.678   3.316  0.1990  1.7439  0.7410
  860TIP3    H2 2545   1.323   3.797   3.282  3.6167 -0.6944  0.4836
  861TIP3   OH2 2546   3.166   3.678   2.150 -0.2777 -0.1227 -0.2398
  861TIP3    H1 2547   3.181   3.761   2.105 -0.2524  1.3207  2.1946
  861TIP3    H2 2548   3.084   3.645   2.114 -0.1853  0.8532 -1.4021
  862TIP3   OH2 2549   0.705   3.151   4.820  0.7207 -0.2259  0.4600
  862TIP3    H1 2550   0.714   3.058   4.844  1.1060 -0.4774 -0.6122
  862TIP3    H2 2551   0.612   3.161   4.797  0.9068 -0.6348 -0.5273
  863TIP3   OH2 2552   4.535   3.207   1.106  0.7071 -0.0282 -0.3640
  863TIP3    H1 2553   4.476   3.280   1.123 -0.4904 -0.9391 -0.4530
  863TIP3    H2 2554   4.498   3.134   1.158  2.1411 -0.4466  0.1079
  864TIP3   OH2 2555   5.662   2.481   2.464  0.4442  0.1397  0.3883
  864TIP3    H1 2556   5.663   2.405   2.406  1.1098 -0.7587  1.5328
  864TIP3    H2 2557   5.752   2.512   2.464  0.0328  1.4270 -0.6604
  865TIP3   OH2 2558   1.056   4.143   0.834 -0.0388 -0.6648  0.3107
  865TIP3    H1 2559   1.043   4.234   0.808  0.7099 -0.0377  1.9724
  865TIP3    H2 2560   1.140   4.118   0.797  0.4343 -0.1919  1.0485
  866TIP3   OH2 2561   1.627   0.688   1.779  0.0329  0.2633 -0.2032
  866TIP3    H1 2562   1.686   0.614   1.795  0.4878  0.4552 -0.9822
  866TIP3    H2 2563   1.684   0.761   1.756 -0.5104  0.4184 -1.1095
  867TIP3   OH2 2564   4.167   0.522   1.670 -0.5858 -0.5398 -0.1425
  867TIP3    H1 2565   4.207   0.602   1.634  0.2393 -0.1362  1.5709
  867TIP3    H2 2566   4.074   0.543   1.676 -0.1951  0.9719  1.7748
  868TIP3   OH2 2567   2.736   3.060   1.776 -0.1067  0.0144  0.1478
  868TIP3    H1 2568   2.757   3.034   1.686  0.4482 -1.8438  0.7749
  868TIP3    H2 2569   2.811   3.113   1.803 -0.2337  0.5104 -0.4406
  869TIP3   OH2 2570   1.502   6.282   2.453 -0.2805  0.3987  0.2943
  869TIP3    H1 2571   1.538   6.286   2.364  2.5121  1.5788  1.3901
  869TIP3    H2 2572   1.563   6.332   2.507 -1.1223 -1.4093  3.1563
  870TIP3   OH2 2573   1.646   0.153   5.727 -0.7424  0.0118 -0.3920
  870TIP3    H1 2574   1.733   0.122   5.702 -0.4690  1.9204 -2.0611
  870TIP3    H2 2575   1.586   0.086   5.692 -0.1844  1.2301 -4.0626
  871TIP3   OH2 2576   5.429   1.579   0.631  0.1724  0.4989 -0.1717
  871TIP3    H1 2577   5.401   1.662   0.591 -0.2581  0.6451  0.4217
  871TIP3    H2 2578   5.514   1.561   0.591 -0.1379  0.7621 -0.9753
  872TIP3   OH2 2579   7.180   2.699   0.784  0.6615  0.3337 -0.2461
  872TIP3    H1 2580   7.195   2.782   0.741 -1.9701  0.8995 -0.2677
  872TIP3    H2 2581   7.170   2.636   0.713  0.6184  0.4222 -0.3183
  873TIP3   OH2 2582   6.902   3.904   4.066  0.3346  0.1729  0.3086
  873TIP3    H1 2583   6.980   3.906   4.121  0.8909  1.4368 -0.4674
  873TIP3    H2 2584   6.831   3.882   4.126  1.0307  0.7296  1.3761
  874TIP3   OH2 2585   3.826   6.692   4.410 -0.3200 -0.0199 -0.0546
  874TIP3    H1 2586   3.862   6.635   4.341 -2.8071 -1.2457 -0.4796
  874TIP3    H2 2587   3.780   6.761   4.362 -1.4236 -0.4529  0.3396
  875TIP3   OH2 2588   0.154   4.428   3.099 -0.0158 -0.5921  0.3327
  875TIP3    H1 2589   0.175   4.462   3.186  0.2526 -0.7650  0.3372
  875TIP3    H2 2590   0.236   4.433   3.050 -0.0960 -0.7568  0.1776
  876TIP3   OH2 2591   2.291   4.074   1.280  0.1460 -0.2766 -0.2347
  876TIP3    H1 2592   2.377   4.112   1.300  0.1599 -1.4753  2.4053
  876TIP3    H2 2593   2.312   3.991   1.236  0.2173  0.6185 -1.9687
  877TIP3   OH2 2594   0.101   3.057   1.420 -0.3534 -0.4246  0.0736
  877TIP3    H1 2595   0.042   3.104   1.478  0.2539  0.7125 -0.2095
  877TIP3    H2 2596   0.043   3.003   1.366 -1.1767  0.9069 -0.4124
  878TIP3   OH2 2597   6.527   4.690   5.790  0.5581  0.3083  0.6807
  878TIP3    H1 2598   6.590   4.744   5.741 -0.0350  1.5176  1.1908
  878TIP3    H2 2599   6.572   4.607   5.803  0.8382  0.0022 -1.6869
  879TIP3   OH2 2600   2.922   6.472   0.305 -0.3864 -0.1589 -0.2254
  879TIP3    H1 2601   2.938   6.506   0.393  0.3687  0.1440 -0.4675
  879TIP3    H2 2602   2.827   6.474   0.295 -0.4372  0.5312  0.2959
  880TIP3   OH2 2603   3.197   0.128   4.673  0.2116 -0.2710 -0.2505
  880TIP3    H1 2604   3.193   0.083   4.588 -1.8584 -2.0469  0.6982
  880TIP3    H2 2605   3.116   0.179   4.677  0.2769 -0.2207  0.6632
  881TIP3   OH2 2606   4.938   2.346   0.578 -0.1173  0.2953 -0.5276
  881TIP3    H1 2607   4.903   2.343   0.668  0.7935  0.4055 -0.1612
  881TIP3    H2 2608   5.023   2.389   0.587  0.0170  0.2324 -1.4404
  882TIP3   OH2 2609   6.024   6.046   4.133 -0.3725  0.3235  0.0393
  882TIP3    H1 2610   5.973   5.965   4.136 -0.4662  0.4072  2.3006
  882TIP3    H2 2611   5.974   6.103   4.075 -1.8000 -0.2887  0.6126
  883TIP3   OH2 2612   0.716   3.437   0.585 -0.0947  0.2851 -0.3027
  883TIP3    H1 2613   0.668   3.475   0.659 -0.6977  0.4798 -0.7952
  883TIP3    H2 2614   0.786   3.500   0.568  0.6918 -0.2612  0.7657
  884TIP3   OH2 2615   5.763   5.796   1.746 -0.3345  0.4670  0.0879
  884TIP3    H1 2616   5.801   5.861   1.806  0.0486  1.9943 -1.7108
  884TIP3    H2 2617   5.675   5.830   1.727 -0.7625 -0.4379  0.3687
  885TIP3   OH2 2618   6.459   1.101   4.581  0.2466  0.4804 -0.5119
  885TIP3    H1 2619   6.464   1.016   4.626  0.9883  0.7079 -0.1480
  885TIP3    H2 2620   6.518   1.157   4.631 -0.4849  1.3048 -0.5603
  886TIP3   OH2 2621   0.094   6.143   1.177  0.0471 -0.2052  0.0360
  886TIP3    H1 2622   0.187   6.158   1.165  0.1823 -1.6254 -0.9597
  886TIP3    H2 2623   0.068   6.090   1.102 -1.1716 -1.3447  1.1808
  887TIP3   OH2 2624   6.467   2.211   2.599 -0.1390  0.0153  0.1877
  887TIP3    H1 2625   6.412   2.136   2.620 -0.6556  0.3494  0.0595
  887TIP3    H2 2626   6.529   2.179   2.535 -0.1325 -0.3908  0.3946
  888TIP3   OH2 2627   3.437   2.281   1.101 -0.3812 -0.3502 -0.4821
  888TIP3    H1 2628   3.345   2.288   1.127 -0.8270 -1.4818 -1.6364
  888TIP3    H2 2629   3.486   2.289   1.183 -1.4821  0.5902  0.1065
  889TIP3   OH2 2630   5.058   2.490   0.040  0.9394 -0.3681 -0.2077
  889TIP3    H1 2631   5.056   2.395   0.044 -0.4631 -0.3787 -0.5887
  889TIP3    H2 2632   5.083   2.518   0.128  1.0239 -1.0733 -0.0040
  890TIP3   OH2 2633   6.122   3.689   2.413  0.0038 -0.7321  0.0256
  890TIP3    H1 2634   6.034   3.651   2.406 -0.4241  0.2826 -0.2407
  890TIP3    H2 2635   6.117   3.747   2.489  0.2516 -0.1824 -0.3751
  891TIP3   OH2 2636   3.156   5.373   2.128  0.2226 -0.1504  0.3369
  891TIP3    H1 2637   3.136   5.324   2.048 -2.0893 -0.1340  0.8363
  891TIP3    H2 2638   3.175   5.462   2.097 -0.1154 -0.2716 -0.2389
  892TIP3   OH2 2639   7.076   1.021   0.344 -0.1215 -0.0056  0.0228
  892TIP3    H1 2640   7.158   1.043   0.388  0.4566 -1.7322 -0.1178
  892TIP3    H2 2641   7.064   0.928   0.359 -0.7368 -0.3340 -2.1017
  893TIP3   OH2 2642   6.223   0.545   3.482  0.2281  0.2561  0.0720
  893TIP3    H1 2643   6.147   0.586   3.522 -0.3000  2.0085 -2.5068
  893TIP3    H2 2644   6.209   0.554   3.388  3.1060 -0.3650 -0.5182
  894TIP3   OH2 2645   4.441   1.955   1.886 -0.0495 -0.1323 -0.8527
  894TIP3    H1 2646   4.532   1.938   1.859  0.3802  0.2102  0.3196
  894TIP3    H2 2647   4.412   2.025   1.828  0.9235  0.7344 -0.3397
  895TIP3   OH2 2648   3.053   0.545   0.090 -0.0488  0.1675  0.1891
  895TIP3    H1 2649   3.006   0.617   0.046  0.1222  0.3033  0.2275
  895TIP3    H2 2650   3.016   0.542   0.178  0.0710  0.3282  0.2455
  896TIP3   OH2 2651   4.742   4.809   4.126  0.7061  0.2396 -0.2990
  896TIP3    H1 2652   4.726   4.740   4.062  1.0842 -0.2449  0.1227
  896TIP3    H2 2653   4.829   4.790   4.161 -1.1270 -2.1851  3.6352
  897TIP3   OH2 2654   5.384   3.866   4.014 -0.1825 -0.2105 -0.4002
  897TIP3    H1 2655   5.338   3.830   3.938 -2.2507 -2.5422  1.7738
  897TIP3    H2 2656   5.402   3.790   4.070  2.9701  1.1465  0.6685
  898TIP3   OH2 2657   2.906   2.925   5.568  0.3873  0.1463 -0.5318
  898TIP3    H1 2658   2.895   3.010   5.526  0.1546  0.5400  0.3032
  898TIP3    H2 2659   2.818   2.888   5.570 -0.2157  1.4673  2.3362
  899TIP3   OH2 2660   5.155   0.197   2.820 -0.6484  0.3409 -0.2131
  899TIP3    H1 2661   5.194   0.173   2.736 -0.3153  3.5054 -1.1170
  899TIP3    H2 2662   5.063   0.213   2.801 -0.5824  1.0359  0.0190
  900TIP3   OH2 2663   4.621   2.886   1.555 -0.8278 -0.0664  0.9358
  900TIP3    H1 2664   4.693   2.852   1.502 -1.6413  0.5434 -0.6412
  900TIP3    H2 2665   4.543   2.846   1.518 -1.5082  1.0777  1.0787
  901TIP3   OH2 2666   0.285   6.610   3.214  0.1462 -0.5432  0.0310
  901TIP3    H1 2667   0.357   6.578   3.159 -0.1184 -1.2336  0.0855
  901TIP3    H2 2668   0.208   6.563   3.182  0.0486 -1.2184  1.2198
  902TIP3   OH2 2669   6.073   2.701   2.275  0.6917 -0.0253  0.2986
  902TIP3    H1 2670   6.110   2.769   2.330 -0.2436  0.5760  0.1944
  902TIP3    H2 2671   6.113   2.716   2.189 -0.2696  1.0555  0.0093
  903TIP3   OH2 2672   6.243   4.747   1.674 -0.3151 -0.6190  0.2227
  903TIP3    H1 2673   6.177   4.769   1.740 -1.2290  0.8058 -1.1134
  903TIP3    H2 2674   6.286   4.669   1.709 -1.1216 -0.2274  2.2384
  904TIP3   OH2 2675   4.989   5.537   5.280 -0.5585 -0.5539 -0.2919
  904TIP3    H1 2676   5.011   5.619   5.236 -1.6722 -0.2384 -0.3003
  904TIP3    H2 2677   4.946   5.564   5.361 -0.8014 -1.1268 -0.2261
  905TIP3   OH2 2678   1.822   0.853   1.022  0.0098  0.7860 -0.2399
  905TIP3    H1 2679   1.917   0.864   1.026  0.0919 -0.1263  1.9703
  905TIP3    H2 2680   1.786   0.936   1.053  0.1439  0.6486  0.2942
  906TIP3   OH2 2681   2.163   5.036   2.667 -0.7852  0.6708  0.4414
  906TIP3    H1 2682   2.160   5.128   2.692 -3.0857  1.0477 -0.8635
  906TIP3    H2 2683   2.222   5.033   2.591 -0.9879  1.1415  0.2653
  907TIP3   OH2 2684   5.990   5.767   4.623 -0.7213 -0.3892  0.0368
  907TIP3    H1 2685   5.933   5.844   4.625  0.2444  0.3739 -0.6298
  907TIP3    H2 2686   6.077   5.802   4.604 -0.3285 -1.6889 -0.6904
  908TIP3   OH2 2687   0.659   0.186   5.832 -0.0481  0.0599  0.1429
  908TIP3    H1 2688   0.646   0.255   5.897  0.9122  0.7915 -0.4130
  908TIP3    H2 2689   0.706   0.117   5.879 -3.4410 -1.5480  1.4964
  909TIP3   OH2 2690   0.981   4.538   2.503  0.1994  0.1656  0.6452
  909TIP3    H1 2691   0.971   4.478   2.577  2.2068  0.1584  0.9624
  909TIP3    H2 2692   0.912   4.512   2.441  0.0819 -1.4898  1.4217
  910TIP3   OH2 2693   0.860   6.332   2.276 -0.1974  0.7599  0.1597
  910TIP3    H1 2694   0.932   6.356   2.217  0.6704  0.1986  0.9519
  910TIP3    H2 2695   0.894   6.353   2.363 -0.8523  0.1263  0.5750
  911TIP3   OH2 2696   5.268   4.180   4.215 -0.5900  0.1820  0.2882
  911TIP3    H1 2697   5.177   4.152   4.226 -1.2644  1.1103 -2.2929
  911TIP3    H2 2698   5.289   4.157   4.125  0.8532  2.3220  0.0216
  912TIP3   OH2 2699   2.090   2.892   5.352 -0.2061  0.2187 -0.1764
  912TIP3    H1 2700   2.085   2.986   5.333 -1.6879 -0.0643 -1.4491
  912TIP3    H2 2701   2.055   2.883   5.441 -2.0333  0.7106 -0.7919
  913TIP3   OH2 2702   6.515   6.101   4.052 -0.0037 -0.4087 -0.4077
  913TIP3    H1 2703   6.551   6.098   3.963  0.9610  0.8843 -0.0888
  913TIP3    H2 2704   6.592   6.112   4.109 -0.6114 -1.1165  0.5841
  914TIP3   OH2 2705   0.458   6.604   5.227 -0.2468 -0.0715 -0.2260
  914TIP3    H1 2706   0.396   6.534   5.248  0.5422 -0.4745  0.8807
  914TIP3    H2 2707   0.544   6.566   5.247  0.3240  0.6453 -1.2408
  915TIP3   OH2 2708   1.009   1.976   1.482 -0.1669 -0.0066  0.2189
  915TIP3    H1 2709   0.957   1.918   1.427  1.6951 -1.8259  0.2577
  915TIP3    H2 2710   1.097   1.974   1.443  0.6650  0.4039  1.9798
  916TIP3   OH2 2711   4.952   2.434   3.677  0.6571  0.1216  0.0450
  916TIP3    H1 2712   5.026   2.379   3.649  0.8334  0.6774 -0.6010
  916TIP3    H2 2713   4.984   2.524   3.667  0.2919  0.3587  0.8870
  917TIP3   OH2 2714   3.471   4.319   1.397 -0.3373  0.0740  0.2681
  917TIP3    H1 2715   3.547   4.327   1.339  0.6549 -3.1731  0.9019
  917TIP3    H2 2716   3.496   4.370   1.475  0.5049  0.3550 -0.1700
  918TIP3   OH2 2717   1.066   3.526   0.377  0.0448  0.1390  0.0031
  918TIP3    H1 2718   1.013   3.585   0.430 -2.0747 -1.8789  0.2480
  918TIP3    H2 2719   1.060   3.441   0.420  1.9709 -0.5929 -1.0282
  919TIP3   OH2 2720   4.373   2.980   5.350 -0.0458 -0.6136 -0.0512
  919TIP3    H1 2721   4.432   2.940   5.287 -0.1770 -0.0137 -0.5690
  919TIP3    H2 2722   4.410   3.067   5.365  0.2013 -0.8877  1.0017
  920TIP3   OH2 2723   7.001   2.708   1.752 -0.2014 -0.7627 -0.4752
  920TIP3    H1 2724   6.993   2.613   1.752 -0.6907 -0.7211 -0.6284
  920TIP3    H2 2725   6.916   2.740   1.782  0.0275 -0.3765 -0.2179
  921TIP3   OH2 2726   6.690   5.462   3.186  0.0518  0.0291  0.4919
  921TIP3    H1 2727   6.736   5.397   3.239  1.3718 -1.2166 -2.0154
  921TIP3    H2 2728   6.710   5.546   3.227  0.6679 -0.8804  2.1473
  922TIP3   OH2 2729   1.583   5.209   5.246  0.4098  0.1743 -0.0720
  922TIP3    H1 2730   1.499   5.201   5.201  0.2823  0.1360  0.1683
  922TIP3    H2 2731   1.560   5.202   5.339  0.5676  1.0922  0.0390
  923TIP3   OH2 2732   5.688   0.782   3.184 -0.3018  0.3431  0.3624
  923TIP3    H1 2733   5.660   0.692   3.201 -0.2427  0.5857  1.9305
  923TIP3    H2 2734   5.607   0.828   3.160 -0.3544 -0.0800 -0.2902
  924TIP3   OH2 2735   3.637   1.323   0.124 -0.0092 -0.3875  0.0946
  924TIP3    H1 2736   3.662   1.270   0.199  1.9222  0.4573  0.1296
  924TIP3    H2 2737   3.689   1.289   0.052  0.0865  0.4304 -0.2407
  925TIP3   OH2 2738   6.189   3.399   4.045  0.4407  0.1050 -0.1172
  925TIP3    H1 2739   6.192   3.379   3.952  2.1432 -1.3947  0.2172
  925TIP3    H2 2740   6.209   3.493   4.050 -4.1848  1.4488 -1.4648
  926TIP3   OH2 2741   6.451   3.366   2.696  0.1206 -0.3469 -0.7681
  926TIP3    H1 2742   6.538   3.337   2.723  1.0142  1.5777 -1.4067
  926TIP3    H2 2743   6.390   3.308   2.742  1.6920 -0.6787  0.9687
  927TIP3   OH2 2744   1.436   0.928   0.258  0.5745 -0.3163  0.0263
  927TIP3    H1 2745   1.526   0.958   0.247  1.1210 -1.7198  0.3778
  927TIP3    H2 2746   1.401   0.981   0.329  1.0652  0.3714 -0.2396
  928TIP3   OH2 2747   3.367   0.102   0.947 -0.0355 -0.4692  0.4449
  928TIP3    H1 2748   3.443   0.065   0.902 -0.6957 -1.2713 -0.0379
  928TIP3    H2 2749   3.293   0.048   0.919 -0.7658  0.1852  1.0392
  929TIP3   OH2 2750   5.151   1.768   0.451 -0.6345  0.3107  0.2907
  929TIP3    H1 2751   5.133   1.681   0.415  3.6600 -0.9102  0.5383
  929TIP3    H2 2752   5.126   1.829   0.382 -0.0516 -1.4146 -1.5201
  930TIP3   OH2 2753   5.272   1.472   0.389  0.6164  0.3199 -0.0656
  930TIP3    H1 2754   5.361   1.480   0.355  0.6218 -0.1941 -0.1820
  930TIP3    H2 2755   5.276   1.510   0.477  0.5770  1.7686 -0.6703
  931TIP3   OH2 2756   3.818   2.490   3.324  0.2240  0.1308  0.0324
  931TIP3    H1 2757   3.767   2.555   3.372 -0.2352  1.0317 -1.5907
  931TIP3    H2 2758   3.790   2.406   3.360  0.5927  0.7871  1.9453
  932TIP3   OH2 2759   2.775   4.398   1.835 -0.4003 -0.3642 -0.6336
  932TIP3    H1 2760   2.778   4.309   1.871 -3.0203 -0.5848 -0.7457
  932TIP3    H2 2761   2.765   4.385   1.741 -1.7346 -0.0197 -0.5610
  933TIP3   OH2 2762   6.752   2.679   5.113  0.4609  0.6123  0.2262
  933TIP3    H1 2763   6.801   2.708   5.190 -4.0961  0.0678  3.7217
  933TIP3    H2 2764   6.710   2.758   5.079 -1.4312  0.2110  1.4991
  934TIP3   OH2 2765   6.527   5.578   4.041  0.6553  0.0395  1.1160
  934TIP3    H1 2766   6.469   5.576   3.965  1.6875  1.0188  0.2750
  934TIP3    H2 2767   6.470   5.556   4.115 -0.8981  1.3973  0.3863
  935TIP3   OH2 2768   6.673   6.314   1.398 -0.0197  0.3323 -0.0039
  935TIP3    H1 2769   6.702   6.334   1.487 -0.0447  0.9051 -0.1188
  935TIP3    H2 2770   6.602   6.252   1.409  0.6640 -0.4047  0.3272
  936TIP3   OH2 2771   1.756   3.108   2.043 -0.0659 -0.4739  0.0341
  936TIP3    H1 2772   1.750   3.033   1.984  1.4349 -1.0798  0.5951
  936TIP3    H2 2773   1.668   3.147   2.041 -0.4828 -1.3879 -1.3641
  937TIP3   OH2 2774   1.464   4.153   0.921 -0.2922  0.1261  0.5667
  937TIP3    H1 2775   1.400   4.132   0.990 -0.2199 -0.3294  0.4978
  937TIP3    H2 2776   1.529   4.083   0.927  0.8614  1.2128  1.4185
  938TIP3   OH2 2777   7.106   5.833   4.252 -0.1053  0.0116  0.0048
  938TIP3    H1 2778   7.163   5.808   4.180  0.1329 -0.1043  0.2346
  938TIP3    H2 2779   7.025   5.863   4.209  0.4050  0.9084 -0.3514
  939TIP3   OH2 2780   2.488   4.010   5.463  0.1353 -0.0584 -0.5752
  939TIP3    H1 2781   2.457   4.100   5.452  2.1624  0.5266 -2.1680
  939TIP3    H2 2782   2.459   3.965   5.383 -1.0879 -0.9332  0.3264
  940TIP3   OH2 2783   1.216   5.411   0.152 -0.1575 -0.4177 -0.1498
  940TIP3    H1 2784   1.195   5.350   0.223 -0.4200 -0.2278 -0.0581
  940TIP3    H2 2785   1.311   5.406   0.142 -0.2725 -1.6208 -0.8567
  941TIP3   OH2 2786   2.822   6.549   3.012 -0.2811  0.2518  0.2239
  941TIP3    H1 2787   2.738   6.577   2.975 -0.6276 -1.0751 -0.0352
  941TIP3    H2 2788   2.833   6.603   3.090  0.4404  3.1244 -1.6595
  942TIP3   OH2 2789   1.733   0.404   5.630  0.2784 -0.1026  0.4170
  942TIP3    H1 2790   1.669   0.468   5.661  2.2079  1.6650  0.9113
  942TIP3    H2 2791   1.697   0.319   5.658 -2.4323  0.6705 -0.4157
  943TIP3   OH2 2792   6.583   1.353   0.149 -0.1049  0.3348  0.3425
  943TIP3    H1 2793   6.614   1.276   0.197 -1.2749  0.0633  0.7080
  943TIP3    H2 2794   6.653   1.417   0.159  0.9407 -0.7119 -0.0650
  944TIP3   OH2 2795   6.947   1.184   4.665 -0.6770 -0.0068 -0.2787
  944TIP3    H1 2796   6.968   1.204   4.755  0.1139  1.5911 -0.7930
  944TIP3    H2 2797   7.031   1.185   4.619 -1.3112  2.2119 -1.5566
  945TIP3   OH2 2798   6.806   4.007   1.838 -0.0106 -0.0191  0.2703
  945TIP3    H1 2799   6.876   3.960   1.793  1.8071  0.7590  2.1200
  945TIP3    H2 2800   6.776   4.072   1.775 -0.3219 -1.4731 -1.1650
  946TIP3   OH2 2801   3.344   0.663   2.208 -0.0179 -0.1562 -0.1657
  946TIP3    H1 2802   3.340   0.667   2.113  0.9310 -1.6305 -0.3002
  946TIP3    H2 2803   3.337   0.569   2.228  4.1337 -0.4401  0.9147
  947TIP3   OH2 2804   6.256   3.988   4.126  0.1819  0.3842 -0.2281
  947TIP3    H1 2805   6.312   3.930   4.074 -0.9162  0.2671 -1.3189
  947TIP3    H2 2806   6.199   3.928   4.175 -1.4703  0.4891 -1.9299
  948TIP3   OH2 2807   0.548   2.915   5.568 -0.2822  0.4816 -0.3364
  948TIP3    H1 2808   0.533   2.983   5.502 -0.9937  2.5206  1.8229
  948TIP3    H2 2809   0.502   2.945   5.645  0.7825 -1.6716  1.2446
  949TIP3   OH2 2810   3.654   1.882   5.191  0.3075  0.9759  0.4695
  949TIP3    H1 2811   3.610   1.817   5.136  2.0405  0.9439 -0.9862
  949TIP3    H2 2812   3.607   1.963   5.175 -0.2987  0.5969  0.3094
  950TIP3   OH2 2813   3.563   2.435   1.750  0.0205 -0.1710  0.3138
  950TIP3    H1 2814   3.481   2.386   1.758  0.5803 -1.0222  1.1713
  950TIP3    H2 2815   3.631   2.370   1.770  0.9306  0.4283 -0.7298
  951TIP3   OH2 2816   5.776   2.413   4.082 -0.5100 -0.5857 -0.0857
  951TIP3    H1 2817   5.836   2.357   4.131  1.2142  1.6100  0.4984
  951TIP3    H2 2818   5.691   2.400   4.124  0.8629  1.1324  3.6591
  952TIP3   OH2 2819   4.859   5.470   1.276  0.7872 -0.2839 -0.7169
  952TIP3    H1 2820   4.950   5.442   1.274  0.8249 -0.3647  0.9572
  952TIP3    H2 2821   4.812   5.396   1.314  0.0382 -0.1649 -1.3728
  953TIP3   OH2 2822   0.375   5.662   4.883  0.5524 -0.1567  0.3121
  953TIP3    H1 2823   0.451   5.631   4.932  0.2511 -0.5005  0.5753
  953TIP3    H2 2824   0.322   5.583   4.869 -0.0134  0.1618  0.6031
  954TIP3   OH2 2825   3.334   3.236   0.312  0.7642 -0.5167  0.3132
  954TIP3    H1 2826   3.338   3.300   0.384  1.4998 -0.8012  0.5232
  954TIP3    H2 2827   3.395   3.269   0.246 -1.2902  0.7988 -1.0784
  955TIP3   OH2 2828   5.446   3.101   0.213  0.0954  0.1021 -0.7350
  955TIP3    H1 2829   5.483   3.022   0.174  1.4608 -0.6193  1.8087
  955TIP3    H2 2830   5.353   3.095   0.195  0.2601 -1.7258 -1.2220
  956TIP3   OH2 2831   6.919   3.961   2.489  0.3578 -0.8758 -0.6316
  956TIP3    H1 2832   6.849   4.026   2.480  0.7447 -0.3535  0.0759
  956TIP3    H2 2833   6.998   4.008   2.463  0.5581 -1.2364 -0.6712
  957TIP3   OH2 2834   1.944   4.024   4.596 -0.7324 -0.5267 -1.0560
  957TIP3    H1 2835   2.035   3.996   4.603 -0.7375 -0.2345  0.5365
  957TIP3    H2 2836   1.937   4.061   4.507  0.9048  0.1492 -0.9394
  958TIP3   OH2 2837   0.636   5.019   4.331  0.1143 -0.0511 -0.0169
  958TIP3    H1 2838   0.731   5.027   4.333  0.1850 -0.6963 -0.6165
  958TIP3    H2 2839   0.617   4.947   4.391 -0.2805  2.1963  2.7851
  959TIP3   OH2 2840   4.792   2.495   0.322 -0.6236  1.0947  0.7067
  959TIP3    H1 2841   4.713   2.441   0.323 -0.5796  0.9769 -0.8144
  959TIP3    H2 2842   4.842   2.465   0.398  0.7512 -3.1156 -1.5295
  960TIP3   OH2 2843   6.275   4.701   3.697  0.0663 -0.0499  0.1816
  960TIP3    H1 2844   6.309   4.790   3.687  1.4473 -0.6879 -1.2579
  960TIP3    H2 2845   6.343   4.655   3.746  0.8933 -1.0748 -1.8080
  961TIP3   OH2 2846   2.259   3.358   3.578 -0.2568  0.1941 -0.3101
  961TIP3    H1 2847   2.193   3.425   3.592  0.4935  1.1586 -1.1936
  961TIP3    H2 2848   2.293   3.338   3.665 -1.8507 -0.5106  0.1939
  962TIP3   OH2 2849   6.913   2.066   3.190 -0.3065 -0.5686 -1.0603
  962TIP3    H1 2850   6.824   2.078   3.223  0.5341  0.8770  0.8086
  962TIP3    H2 2851   6.919   1.972   3.172 -1.9919 -0.8019 -0.5545
  963TIP3   OH2 2852   4.355   5.785   5.369  0.1834  0.0032 -0.0397
  963TIP3    H1 2853   4.363   5.719   5.300 -0.1167 -0.0033 -0.0725
  963TIP3    H2 2854   4.305   5.741   5.438 -1.9522  0.8473 -0.9474
  964TIP3   OH2 2855   3.437   0.498   2.824 -0.4324 -0.8769 -0.2979
  964TIP3    H1 2856   3.414   0.431   2.889 -1.8758 -0.3708 -0.2386
  964TIP3    H2 2857   3.379   0.571   2.843 -0.3548 -0.4170 -1.6717
  965TIP3   OH2 2858   4.876   1.247   5.264  0.1140 -0.4035  0.1983
  965TIP3    H1 2859   4.851   1.157   5.243 -0.6687 -0.7377  2.3216
  965TIP3    H2 2860   4.918   1.241   5.350 -1.3611  1.4017  1.1291
  966TIP3   OH2 2861   7.106   2.908   1.316 -0.4119 -0.3230  0.3594
  966TIP3    H1 2862   7.078   2.831   1.266 -0.4562  1.6029 -2.9025
  966TIP3    H2 2863   7.024   2.948   1.346 -0.4301 -1.0499  1.3154
  967TIP3   OH2 2864   3.802   2.684   2.079 -0.5058  0.1646  0.4034
  967TIP3    H1 2865   3.819   2.778   2.079  0.0945  0.1197 -1.7447
  967TIP3    H2 2866   3.782   2.662   2.170  2.7419  1.7656  1.6324
  968TIP3   OH2 2867   0.031   1.111   4.641 -0.2221  0.6022 -0.7010
  968TIP3    H1 2868   0.053   1.077   4.728  0.7669  1.7543 -0.4792
  968TIP3    H2 2869   0.070   1.198   4.639 -1.0202  0.9539 -1.9755
  969TIP3   OH2 2870   5.744   5.618   4.891  0.2938  0.1672  0.0600
  969TIP3    H1 2871   5.818   5.665   4.929 -0.8105  1.6852  0.4332
  969TIP3    H2 2872   5.711   5.676   4.822 -0.0085 -0.8815 -0.7015
  970TIP3   OH2 2873   1.708   3.865   2.597 -0.2289 -0.2154  0.7263
  970TIP3    H1 2874   1.649   3.810   2.648 -1.1816 -0.4760 -0.6047
  970TIP3    H2 2875   1.789   3.813   2.590 -0.9492 -1.2695 -0.1173
  971TIP3   OH2 2876   5.581   0.779   4.656  0.4415 -0.4528 -0.7020
  971TIP3    H1 2877   5.557   0.859   4.610  0.2931  0.4991  0.9581
  971TIP3    H2 2878   5.594   0.806   4.747  2.3896 -1.9559 -0.4728
  972TIP3   OH2 2879   3.382   0.770   2.449 -0.3793  0.1302  0.3876
  972TIP3    H1 2880   3.475   0.760   2.469 -0.2681  2.0636  1.0216
  972TIP3    H2 2881   3.375   0.748   2.356  0.7142 -0.0619  0.3412
  973TIP3   OH2 2882   2.418   1.028   4.167  0.2700 -0.3022  0.0040
  973TIP3    H1 2883   2.458   0.945   4.193  2.4416  0.3981 -0.8104
  973TIP3    H2 2884   2.462   1.094   4.221 -2.2032  0.2887  1.4379
  974TIP3   OH2 2885   3.924   2.425   0.416 -0.4446  0.0550 -0.2613
  974TIP3    H1 2886   3.966   2.339   0.408  0.8739  0.3242  2.6774
  974TIP3    H2 2887   3.952   2.472   0.338  1.2416 -1.2267 -0.4958
  975TIP3   OH2 2888   4.585   1.607   5.180  0.4005 -0.2118  0.6125
  975TIP3    H1 2889   4.504   1.567   5.211  0.1387  0.2071  0.4800
  975TIP3    H2 2890   4.573   1.615   5.086  1.1464 -1.3786  0.3903
  976TIP3   OH2 2891   0.962   5.917   0.694  0.0980 -0.3244  0.2686
  976TIP3    H1 2892   0.876   5.880   0.678  0.7389 -2.3424  1.1963
  976TIP3    H2 2893   0.971   5.987   0.628 -2.1135 -0.2156  0.0142
  977TIP3   OH2 2894   4.686   4.355   1.732  0.3565  0.0592 -0.3330
  977TIP3    H1 2895   4.712   4.271   1.770 -1.1626 -1.3802 -2.2536
  977TIP3    H2 2896   4.764   4.388   1.689  1.4408  0.5471  1.8491
  978TIP3   OH2 2897   3.254   0.744   1.396 -0.0596 -0.5101  0.4325
  978TIP3    H1 2898   3.314   0.684   1.440  0.7252 -0.2636 -0.2819
  978TIP3    H2 2899   3.310   0.796   1.339 -0.9150 -0.0390  0.0115
  979TIP3   OH2 2900   4.333   5.950   2.429  0.3037  0.2675  0.3271
  979TIP3    H1 2901   4.425   5.955   2.456  0.1258  0.8545  0.8804
  979TIP3    H2 2902   4.294   6.030   2.465 -0.2566  0.4076 -0.5658
  980TIP3   OH2 2903   6.567   6.353   4.608 -0.0971  0.4687  0.1839
  980TIP3    H1 2904   6.586   6.443   4.583 -1.4441 -0.1937 -4.0408
  980TIP3    H2 2905   6.643   6.303   4.577 -0.2141 -0.0903  0.7606
  981TIP3   OH2 2906   4.341   5.522   4.452  0.1584 -0.5092  0.3536
  981TIP3    H1 2907   4.427   5.503   4.489 -0.0393 -1.7939  0.2066
  981TIP3    H2 2908   4.345   5.487   4.363 -0.8022 -1.4220  0.6472
  982TIP3   OH2 2909   3.163   5.395   1.017  0.2966 -0.2283 -0.3187
  982TIP3    H1 2910   3.102   5.464   1.042 -0.0082 -1.6269  3.5009
  982TIP3    H2 2911   3.248   5.438   1.013 -0.1089  0.6521  0.2974
  983TIP3   OH2 2912   1.738   5.390   1.869 -0.0683  0.0377 -0.4078
  983TIP3    H1 2913   1.771   5.414   1.955  1.9537 -1.0668 -0.8192
  983TIP3    H2 2914   1.716   5.474   1.828  0.4022  0.6779  0.6063
  984TIP3   OH2 2915   4.177   6.211   2.190 -0.0060 -0.4553 -0.5848
  984TIP3    H1 2916   4.213   6.262   2.262  2.8581 -3.0065  0.0313
  984TIP3    H2 2917   4.088   6.189   2.218 -0.4560  2.0647  0.1704
  985TIP3   OH2 2918   6.709   6.552   0.385  0.0181 -0.6513  0.5881
  985TIP3    H1 2919   6.615   6.561   0.369  0.2051  1.1014  0.3321
  985TIP3    H2 2920   6.717   6.468   0.430 -1.5486 -1.3255 -0.2985
  986TIP3   OH2 2921   6.029   1.242   5.451  0.4729 -0.0739 -0.0567
  986TIP3    H1 2922   5.970   1.209   5.518 -0.8319 -0.3505 -1.2911
  986TIP3    H2 2923   5.972   1.270   5.380  1.6713  2.4859 -0.1222
  987TIP3   OH2 2924   2.397   1.321   1.307  0.0626 -0.8246  0.9332
  987TIP3    H1 2925   2.419   1.234   1.340 -2.9926 -2.9207 -1.8984
  987TIP3    H2 2926   2.452   1.330   1.228 -1.7201 -1.6431 -0.4727
  988TIP3   OH2 2927   3.592   0.271   1.399  0.3345  0.3084 -0.5005
  988TIP3    H1 2928   3.605   0.178   1.418 -2.0108  0.3740  2.1675
  988TIP3    H2 2929   3.677   0.302   1.370  1.2549 -2.5997 -1.2697
  989TIP3   OH2 2930   0.664   0.881   0.572  0.1492  0.6742  0.0502
  989TIP3    H1 2931   0.589   0.935   0.599  0.2870  0.7104  0.3633
  989TIP3    H2 2932   0.657   0.802   0.626  0.3176  0.6644  0.0583
  990TIP3   OH2 2933   3.571   4.443   1.079 -0.2353 -0.3258 -0.7024
  990TIP3    H1 2934   3.586   4.420   0.987 -1.1073  1.1798 -1.2610
  990TIP3    H2 2935   3.476   4.456   1.085 -0.3727 -1.6618  0.7508
  991TIP3   OH2 2936   0.434   2.866   1.110 -0.1010  0.8310  0.2654
  991TIP3    H1 2937   0.353   2.917   1.112 -1.0072 -0.5383 -0.3985
  991TIP3    H2 2938   0.454   2.857   1.017 -0.0718 -0.1971  0.3646
  992TIP3   OH2 2939   3.101   0.220   4.020  0.6412 -0.3222  0.2015
  992TIP3    H1 2940   3.023   0.200   4.072 -1.2834  1.5295 -1.7633
  992TIP3    H2 2941   3.150   0.284   4.071  0.4674 -0.9016  1.1045
  993TIP3   OH2 2942   1.096   6.425   2.992  0.2119  0.1119 -0.5164
  993TIP3    H1 2943   1.189   6.406   3.001 -0.1305 -1.8406 -0.7006
  993TIP3    H2 2944   1.092   6.503   2.936  1.7542  1.3145  0.9622
  994TIP3   OH2 2945   6.839   1.174   5.479 -0.0976  0.1455 -0.2722
  994TIP3    H1 2946   6.762   1.225   5.501 -1.4720 -0.4260 -3.2600
  994TIP3    H2 2947   6.912   1.236   5.484 -1.2791  1.6323 -0.9479
  995TIP3   OH2 2948   2.430   1.337   3.987 -0.2176  0.3734  0.3725
  995TIP3    H1 2949   2.389   1.414   4.024  0.3790  0.8089  0.1511
  995TIP3    H2 2950   2.514   1.330   4.033 -0.5156 -0.4862  0.8043
  996TIP3   OH2 2951   6.254   2.916  -0.001 -0.0150  0.5550  0.2052
  996TIP3    H1 2952   6.185   2.973   0.033 -1.0514 -0.8720  0.5497
  996TIP3    H2 2953   6.329   2.975  -0.014 -1.2014  2.0970  0.0254
  997TIP3   OH2 2954   2.053   2.086   3.789 -0.2910 -0.1347  0.1962
  997TIP3    H1 2955   2.057   2.049   3.701  1.6105 -1.4195  0.7742
  997TIP3    H2 2956   2.019   2.015   3.843  0.0019  0.1405  0.7518
  998TIP3   OH2 2957   2.795   1.113   1.860  0.0764  0.1890  0.2040
  998TIP3    H1 2958   2.768   1.168   1.933  0.5643  1.2662 -0.4071
  998TIP3    H2 2959   2.856   1.051   1.897 -0.7300 -0.1702  0.9698
  999TIP3   OH2 2960   1.547   6.644   1.688  0.2104  0.4289  0.1561
  999TIP3    H1 2961   1.498   6.618   1.610 -0.3907 -1.1611  1.0159
  999TIP3    H2 2962   1.616   6.702   1.655  1.1792 -1.7121 -1.8751
 1000TIP3   OH2 2963   4.945   3.718   5.114 -0.1643  0.0422 -0.4158
 1000TIP3    H1 2964   5.015   3.684   5.168 -1.3980 -1.6200  0.2100
 1000TIP3    H2 2965   4.980   3.799   5.076  2.3567 -1.1412 -0.7753
 1001TIP3   OH2 2966   5.224   2.643   2.771 -0.2897  0.1728  0.1543
 1001TIP3    H1 2967   5.140   2.599   2.761 -0.8425  1.0092  0.9199
 1001TIP3    H2 2968   5.282   2.577   2.808 -0.4357 -0.5693 -0.8749
 1002TIP3   OH2 2969   5.400   6.454   0.779  0.0096  0.4525 -0.1196
 1002TIP3    H1 2970   5.456   6.400   0.835  0.2462  2.2116  1.4853
 1002TIP3    H2 2971   5.458   6.523   0.748 -1.1404  2.2550  1.4808
 1003TIP3   OH2 2972   5.804   2.277   1.543 -0.0577 -0.0053  0.3470
 1003TIP3    H1 2973   5.868   2.273   1.614 -0.6027  0.4728  0.8731
 1003TIP3    H2 2974   5.728   2.228   1.575 -1.5867  2.8665  1.4737
 1004TIP3   OH2 2975   5.108   6.386   5.865  0.6497 -0.3607  0.2756
 1004TIP3    H1 2976   5.165   6.319   5.827  0.7916 -1.3073  2.0740
 1004TIP3    H2 2977   5.045   6.337   5.917 -1.4612  0.7161 -1.1413
 1005TIP3   OH2 2978   6.407   3.357   0.890  0.6428 -0.4334 -0.7603
 1005TIP3    H1 2979   6.386   3.433   0.836 -0.4718  0.2331  0.5450
 1005TIP3    H2 2980   6.326   3.306   0.893  0.3449  0.0660  1.0521
 1006TIP3   OH2 2981   4.286   5.717   2.577  0.2624 -0.4317 -0.2644
 1006TIP3    H1 2982   4.335   5.635   2.567 -0.1486 -0.7627  0.3858
 1006TIP3    H2 2983   4.328   5.777   2.515  0.5354 -1.1434 -0.7884
 1007TIP3   OH2 2984   3.381   3.777   5.068  0.6152 -0.7949 -0.2694
 1007TIP3    H1 2985   3.325   3.773   5.145  0.1113  1.3649 -0.4423
 1007TIP3    H2 2986   3.449   3.711   5.083  1.9307  1.0977  3.2119
 1008TIP3   OH2 2987   4.093   6.424   2.733  0.2350  0.4352 -0.3450
 1008TIP3    H1 2988   4.015   6.468   2.700 -0.5648 -0.8029 -0.1651
 1008TIP3    H2 2989   4.068   6.391   2.819  1.1176  0.4438 -0.0744
 1009TIP3   OH2 2990   1.321   2.594   3.745 -0.1065 -0.0543 -0.4102
 1009TIP3    H1 2991   1.374   2.517   3.726 -1.6310 -1.1062 -0.5868
 1009TIP3    H2 2992   1.231   2.565   3.734 -0.8919  0.9357  2.4178
 1010TIP3   OH2 2993   7.079   2.701   3.971  0.7397  0.1953  0.1223
 1010TIP3    H1 2994   7.042   2.780   3.932 -2.0501 -1.4723 -0.9155
 1010TIP3    H2 2995   7.063   2.711   4.065 -2.1603 -0.2130 -0.2320
 1011TIP3   OH2 2996   0.545   5.465   2.581 -0.5564  0.1635 -0.0090
 1011TIP3    H1 2997   0.522   5.516   2.503 -1.3130  0.3647  0.3305
 1011TIP3    H2 2998   0.517   5.520   2.654 -0.0434 -0.1153  0.4047
 1012TIP3   OH2 2999   4.722   3.996   0.430 -0.7254 -0.1395 -0.2433
 1012TIP3    H1 3000   4.758   3.932   0.368 -0.5548 -0.2896  0.0048
 1012TIP3    H2 3001   4.699   4.071   0.377 -1.6883 -0.7119 -0.6550
 1013TIP3   OH2 3002   0.849   4.898   5.388 -0.1521  0.0190  0.0047
 1013TIP3    H1 3003   0.889   4.850   5.461  0.9229  0.5071 -0.2473
 1013TIP3    H2 3004   0.763   4.924   5.421  0.3087  0.2230  1.1062
 1014TIP3   OH2 3005   5.247   2.142   4.551 -0.5409 -0.1542 -0.7148
 1014TIP3    H1 3006   5.195   2.062   4.553 -0.1067 -0.4443  1.5164
 1014TIP3    H2 3007   5.288   2.146   4.638 -0.6536  2.5478 -0.7117
 1015TIP3   OH2 3008   0.199   5.481   4.790  0.1393 -0.2085 -0.2142
 1015TIP3    H1 3009   0.143   5.432   4.849  0.2994  0.7354  0.7444
 1015TIP3    H2 3010   0.188   5.438   4.705 -0.6025 -1.1668  0.3536
 1016TIP3   OH2 3011   6.959   0.618   5.396 -0.3886 -0.1777 -0.4689
 1016TIP3    H1 3012   7.009   0.648   5.321  0.9741  1.7645  1.0986
 1016TIP3    H2 3013   6.990   0.530   5.413  0.9087  0.1843 -0.8866
 1017TIP3   OH2 3014   0.783   1.745   0.614  0.3010  0.1896 -0.5742
 1017TIP3    H1 3015   0.853   1.720   0.554 -0.5793 -1.0093 -1.1462
 1017TIP3    H2 3016   0.789   1.841   0.621  0.9788  0.2548 -1.8772
 1018TIP3   OH2 3017   1.095   5.981   5.795 -0.2527  0.1213  0.2899
 1018TIP3    H1 3018   1.117   6.070   5.765  1.2200 -0.5100 -0.6178
 1018TIP3    H2 3019   1.127   5.979   5.886 -0.5769  0.5989  0.4234
 1019TIP3   OH2 3020   3.101   5.399   4.165 -0.4819 -0.2661  0.7575
 1019TIP3    H1 3021   3.059   5.448   4.094  0.9048 -0.2150 -0.0746
 1019TIP3    H2 3022   3.029   5.374   4.223 -1.5675  0.3073 -0.2927
 1020TIP3   OH2 3023   2.193   0.730   4.418  0.0659  0.3102  0.5270
 1020TIP3    H1 3024   2.176   0.824   4.417  0.6135  0.4232  1.2143
 1020TIP3    H2 3025   2.118   0.693   4.465 -0.5759  0.2978 -0.4697
 1021TIP3   OH2 3026   3.406   6.703   3.302  0.4671  0.3934  0.6171
 1021TIP3    H1 3027   3.432   6.654   3.381  1.2211  1.6134  1.1432
 1021TIP3    H2 3028   3.328   6.657   3.271  2.6556 -2.9130 -0.5380
 1022TIP3   OH2 3029   3.399   0.607   1.595  0.0766 -0.3191 -0.1550
 1022TIP3    H1 3030   3.316   0.561   1.587 -0.1318  0.3190 -2.0495
 1022TIP3    H2 3031   3.459   0.542   1.632 -0.5407 -1.7134 -1.4987
 1023TIP3   OH2 3032   7.072   0.676   5.823  0.1264 -0.4278  0.1516
 1023TIP3    H1 3033   7.127   0.665   5.746  0.7169  1.7515  0.1812
 1023TIP3    H2 3034   6.983   0.680   5.789  0.2393 -0.9921 -0.2297
 1024TIP3   OH2 3035   7.030   0.621   1.054  0.3546 -0.0633 -0.2195
 1024TIP3    H1 3036   6.934   0.619   1.049  0.4311 -0.3643 -2.3500
 1024TIP3    H2 3037   7.054   0.709   1.025  0.7681 -0.5102 -1.2737
 1025TIP3   OH2 3038   3.140   1.887   1.648  0.2117  0.2260 -0.3125
 1025TIP3    H1 3039   3.089   1.967   1.664  1.6390  0.9316  0.9028
 1025TIP3    H2 3040   3.105   1.852   1.566 -0.7162  1.8705 -0.6504
 1026TIP3   OH2 3041   1.848   4.610   3.052 -0.1866  0.1295 -0.3136
 1026TIP3    H1 3042   1.884   4.535   3.099 -1.3882  0.2993  0.9444
 1026TIP3    H2 3043   1.874   4.596   2.961  0.6759 -1.1523  0.1028
 1027TIP3   OH2 3044   0.649   2.400   2.105 -0.0133  0.3957 -0.2582
 1027TIP3    H1 3045   0.576   2.368   2.159 -0.2734  0.3852 -0.6080
 1027TIP3    H2 3046   0.609   2.419   2.020  0.0264  2.1139  0.0684
 1028TIP3   OH2 3047   2.090   1.815   2.922  0.5465 -0.2309  0.7352
 1028TIP3    H1 3048   2.114   1.897   2.878 -0.4131  0.2315  1.0511
 1028TIP3    H2 3049   2.018   1.780   2.870  0.2010 -0.2924  1.2452
 1029TIP3   OH2 3050   0.324   3.037   2.973 -0.1344  0.3509 -0.1324
 1029TIP3    H1 3051   0.384   3.089   2.921  1.3149 -2.0691 -1.0161
 1029TIP3    H2 3052   0.357   2.948   2.967 -1.7278 -0.5248  2.3961
 1030TIP3   OH2 3053   5.463   5.289   3.130  0.5072  0.4507  0.0420
 1030TIP3    H1 3054   5.472   5.195   3.147 -0.6802 -0.0845 -1.9257
 1030TIP3    H2 3055   5.404   5.320   3.198  0.2455 -0.4152  0.2282
 1031TIP3   OH2 3056   3.196   0.395   5.069 -0.1891 -0.2307 -0.3518
 1031TIP3    H1 3057   3.154   0.427   4.989 -0.3837 -1.3622 -0.7122
 1031TIP3    H2 3058   3.180   0.301   5.070  0.1608 -0.3048  0.8179
 1032TIP3   OH2 3059   3.572   0.967   3.707  0.4094  0.5616  0.2328
 1032TIP3    H1 3060   3.631   0.950   3.634  0.0407  0.6230 -0.0822
 1032TIP3    H2 3061   3.628   1.001   3.776  0.8366  0.0466  0.1474
 1033TIP3   OH2 3062   3.876   4.878   3.852  0.5766  0.4165  0.1123
 1033TIP3    H1 3063   3.934   4.856   3.779  2.5126  1.1241  1.3508
 1033TIP3    H2 3064   3.852   4.969   3.837 -1.5326 -0.2807 -1.1850
 1034TIP3   OH2 3065   2.965   1.538   0.219 -0.7926 -0.4994  0.6075
 1034TIP3    H1 3066   2.994   1.629   0.228 -0.3557 -0.4993 -0.5788
 1034TIP3    H2 3067   2.870   1.542   0.233 -0.8429  0.2153  0.1278
 1035TIP3   OH2 3068   1.389   2.345   4.336  0.3947  0.0263  0.1933
 1035TIP3    H1 3069   1.326   2.386   4.396  0.2369  0.2484 -0.1174
 1035TIP3    H2 3070   1.429   2.274   4.387  0.5065  0.4247  0.6632
 1036TIP3   OH2 3071   5.617   5.820   2.824  0.3568  0.1781 -0.6428
 1036TIP3    H1 3072   5.639   5.769   2.746 -0.1432 -1.3300  0.1633
 1036TIP3    H2 3073   5.672   5.782   2.893  0.7179  1.4258 -0.2210
 1037TIP3   OH2 3074   5.088   4.530   4.027 -0.0193 -0.3156 -0.0064
 1037TIP3    H1 3075   5.000   4.516   4.062 -0.5215  0.8700 -0.7552
 1037TIP3    H2 3076   5.100   4.459   3.964 -0.4570 -0.4473  0.0537
 1038TIP3   OH2 3077   5.987   4.410   4.323 -0.6377  0.5234 -0.3823
 1038TIP3    H1 3078   5.909   4.354   4.327  0.0404 -0.4786 -0.8301
 1038TIP3    H2 3079   6.047   4.363   4.266 -0.2129  1.9439 -1.1454
 1039TIP3   OH2 3080   6.042   0.816   0.080 -0.8822  0.2753 -0.4657
 1039TIP3    H1 3081   6.014   0.739   0.130  0.3876  0.2502  0.2362
 1039TIP3    H2 3082   6.062   0.881   0.147  2.2264 -0.2125 -0.8066
 1040TIP3   OH2 3083   0.736   6.780   0.811  0.0666  0.2437 -0.2885
 1040TIP3    H1 3084   0.707   6.689   0.821 -1.2486  0.6171 -0.4957
 1040TIP3    H2 3085   0.778   6.783   0.725  2.8171 -0.8058  0.8991
 1041TIP3   OH2 3086   4.018   5.245   4.712  0.2226 -0.0122 -0.0301
 1041TIP3    H1 3087   4.108   5.215   4.721 -0.0131 -1.0280 -0.8303
 1041TIP3    H2 3088   4.023   5.340   4.722  1.3944 -0.0466 -0.1639
 1042TIP3   OH2 3089   1.728   3.536   2.703  0.3033 -0.5494  0.1701
 1042TIP3    H1 3090   1.657   3.585   2.662 -0.2311 -1.1067  0.4319
 1042TIP3    H2 3091   1.689   3.494   2.779  0.8813 -0.9565  0.2514
 1043TIP3   OH2 3092   5.204   3.343   1.263 -0.6889  0.6610 -0.0880
 1043TIP3    H1 3093   5.155   3.405   1.316 -1.1608  0.7311 -0.6048
 1043TIP3    H2 3094   5.155   3.337   1.181 -1.1106 -1.0172  0.2542
 1044TIP3   OH2 3095   4.737   4.078   5.122 -0.2203 -0.6273  0.0597
 1044TIP3    H1 3096   4.751   4.058   5.214  0.8019  0.5490  0.1719
 1044TIP3    H2 3097   4.674   4.011   5.093 -0.3479 -1.1797  1.5204
 1045TIP3   OH2 3098   2.916   6.673   4.602  0.8827  0.0800  0.4946
 1045TIP3    H1 3099   2.898   6.714   4.517 -2.0973 -1.2635  0.3351
 1045TIP3    H2 3100   2.974   6.600   4.582 -0.2645 -0.5941 -0.5648
 1046TIP3   OH2 3101   1.872   5.571   4.044 -0.0573 -0.5246  0.1042
 1046TIP3    H1 3102   1.886   5.565   3.949 -1.5581  0.1864 -0.1992
 1046TIP3    H2 3103   1.959   5.563   4.082  0.4657 -1.8559 -1.2794
 1047TIP3   OH2 3104   4.518   3.567   1.398 -0.3834  0.5515  1.0696
 1047TIP3    H1 3105   4.580   3.510   1.443 -1.4367  0.2437  2.2024
 1047TIP3    H2 3106   4.492   3.632   1.464  0.0322  1.7485  0.1037
 1048TIP3   OH2 3107   4.847   2.724   1.706  0.2072  0.1788 -0.0999
 1048TIP3    H1 3108   4.772   2.765   1.662 -1.1375  0.4587  2.3107
 1048TIP3    H2 3109   4.920   2.783   1.687 -0.8093  1.4981 -0.0966
 1049TIP3   OH2 3110   3.633   5.684   1.229  0.1895  0.2007  0.1869
 1049TIP3    H1 3111   3.637   5.776   1.257 -0.5043 -0.2295  1.8526
 1049TIP3    H2 3112   3.617   5.636   1.310  0.7666 -1.4241 -0.6286
 1050TIP3   OH2 3113   7.050   3.854   3.812 -0.1368 -0.3608 -0.7196
 1050TIP3    H1 3114   7.044   3.889   3.723 -1.6956  0.1983 -0.4261
 1050TIP3    H2 3115   6.991   3.909   3.864 -0.8553 -1.9517  0.2383
 1051TIP3   OH2 3116   4.559   2.265   0.035 -0.2958  0.3161  0.4738
 1051TIP3    H1 3117   4.651   2.251   0.011  0.3397  0.1331  2.7589
 1051TIP3    H2 3118   4.531   2.181   0.071 -0.4946  1.1162  2.2946
 1052TIP3   OH2 3119   5.731   3.509   2.685  0.0929  0.5844  0.0613
 1052TIP3    H1 3120   5.698   3.597   2.707 -0.4866  0.3346  0.2205
 1052TIP3    H2 3121   5.801   3.494   2.748 -0.5522  0.4858  0.7666
 1053TIP3   OH2 3122   5.641   3.392   1.939 -0.3156  0.1169 -0.1994
 1053TIP3    H1 3123   5.731   3.395   1.973 -0.3591 -0.1059 -0.0561
 1053TIP3    H2 3124   5.590   3.445   2.000  0.0766  2.0774 -1.4836
 1054TIP3   OH2 3125   0.009   5.874   1.666  0.0585  0.2650  0.1073
 1054TIP3    H1 3126   0.049   5.898   1.582  1.7524  2.1226  1.3364
 1054TIP3    H2 3127  -0.049   5.947   1.686 -0.4732 -0.2558  0.4933
 1055TIP3   OH2 3128   4.568   6.610   4.680  0.0810 -0.4583 -0.1034
 1055TIP3    H1 3129   4.581   6.535   4.737  0.6097  0.5405  1.1453
 1055TIP3    H2 3130   4.474   6.608   4.658  0.2133 -1.8109 -0.6044
 1056TIP3   OH2 3131   4.944   6.622   2.791  0.0821 -0.0336  0.7871
 1056TIP3    H1 3132   4.869   6.680   2.801 -0.0870  0.1052 -0.9452
 1056TIP3    H2 3133   4.952   6.577   2.875 -0.6948  1.4012  1.6579
 1057TIP3   OH2 3134   3.141   2.594   1.973 -0.0383 -0.0125  0.3642
 1057TIP3    H1 3135   3.138   2.528   1.905  1.0953  0.2656  0.0273
 1057TIP3    H2 3136   3.226   2.636   1.962  0.3399 -0.2303  2.2017
 1058TIP3   OH2 3137   6.597   3.632   1.442  0.0417  0.5642  0.1266
 1058TIP3    H1 3138   6.620   3.688   1.368 -0.8366  1.1649  0.2815
 1058TIP3    H2 3139   6.525   3.578   1.410  1.0879 -0.7365 -0.1194
 1059TIP3   OH2 3140   3.479   1.660   2.486  0.0756 -0.5273  0.4964
 1059TIP3    H1 3141   3.473   1.755   2.497 -0.7013 -0.6085  0.8979
 1059TIP3    H2 3142   3.568   1.638   2.513  0.8921  0.2911 -1.3728
 1060TIP3   OH2 3143   0.546   0.095   1.208 -1.0704  0.7684  0.0613
 1060TIP3    H1 3144   0.524   0.051   1.291 -0.0661  2.3180  1.2168
 1060TIP3    H2 3145   0.583   0.027   1.153  0.0825  0.0606  1.6499
 1061TIP3   OH2 3146   4.990   5.550   0.590 -0.1340 -0.1464  0.7294
 1061TIP3    H1 3147   4.900   5.579   0.576  0.3113  0.3770 -1.3418
 1061TIP3    H2 3148   5.034   5.625   0.630 -0.5247 -0.3008  1.4685
 1062TIP3   OH2 3149   1.291   1.706   1.739  0.3367  0.7980  0.2743
 1062TIP3    H1 3150   1.346   1.688   1.663 -0.0493 -1.1668  0.4128
 1062TIP3    H2 3151   1.201   1.703   1.706  0.2027  0.9954  0.6078
 1063TIP3   OH2 3152   5.066   4.602   2.040 -0.0520  0.6298 -0.3634
 1063TIP3    H1 3153   5.142   4.648   2.075  0.0514 -0.2684  0.6379
 1063TIP3    H2 3154   5.096   4.564   1.957  0.4598  0.6630 -0.1929
 1064TIP3   OH2 3155   5.302   0.329   3.112 -0.3566 -0.1554  0.0555
 1064TIP3    H1 3156   5.379   0.376   3.080 -0.9386  0.1457 -0.9483
 1064TIP3    H2 3157   5.253   0.307   3.033 -1.7586  0.4597  0.7288
 1065TIP3   OH2 3158   0.247   0.964   2.324  0.0725  0.3880 -0.6461
 1065TIP3    H1 3159   0.289   0.997   2.403 -0.5290  0.1726 -0.2231
 1065TIP3    H2 3160   0.307   0.897   2.291 -0.2247 -0.3855  0.3185
 1066TIP3   OH2 3161   0.561   3.536   0.288  0.4737 -0.3992  0.2091
 1066TIP3    H1 3162   0.570   3.471   0.358  1.3921 -2.0610 -1.3592
 1066TIP3    H2 3163   0.466   3.546   0.277  0.2896  0.4397  2.1010
 1067TIP3   OH2 3164   0.256   6.129   2.282 -0.0890 -0.4557  0.1107
 1067TIP3    H1 3165   0.261   6.205   2.223  1.6021 -1.2159 -0.8304
 1067TIP3    H2 3166   0.178   6.082   2.254 -1.8887  1.5216  1.5340
 1068TIP3   OH2 3167   4.950   1.290   2.173  0.6218  0.8198  0.3293
 1068TIP3    H1 3168   4.882   1.321   2.113 -0.4088 -1.0115  0.4818
 1068TIP3    H2 3169   4.922   1.321   2.259 -0.1413 -0.0540  0.4141
 1069TIP3   OH2 3170   0.094   4.664   1.210 -0.1115  0.0516 -0.0361
 1069TIP3    H1 3171   0.162   4.669   1.144  0.5021 -0.3449  0.5562
 1069TIP3    H2 3172   0.135   4.695   1.290 -0.2127 -1.4238  0.6284
 1070TIP3   OH2 3173   1.416   2.139   4.492  0.5490  0.3203  0.2189
 1070TIP3    H1 3174   1.362   2.170   4.565  1.3225  2.6147 -0.0920
 1070TIP3    H2 3175   1.494   2.103   4.534  1.0082  1.6620  0.5769
 1071TIP3   OH2 3176   4.782   4.593   5.157  0.0023  0.0395  0.1827
 1071TIP3    H1 3177   4.795   4.510   5.110 -0.0522  0.0117  0.2162
 1071TIP3    H2 3178   4.798   4.660   5.091 -3.4070  0.0029 -0.8690
 1072TIP3   OH2 3179   3.426   5.852   5.458 -0.4441 -0.3561  0.6365
 1072TIP3    H1 3180   3.497   5.878   5.400 -0.7253 -1.5320 -0.2686
 1072TIP3    H2 3181   3.367   5.801   5.402 -1.3710 -0.4357  1.6615
 1073TIP3   OH2 3182   0.260   0.208   1.079 -0.1196  0.4167 -0.4364
 1073TIP3    H1 3183   0.215   0.168   1.004  0.8738  2.0420 -1.9853
 1073TIP3    H2 3184   0.339   0.156   1.091  0.0478  0.5426 -0.9671
 1074TIP3   OH2 3185   1.014   5.318   2.116  0.2393 -0.3253  0.2109
 1074TIP3    H1 3186   1.014   5.302   2.211  0.1574  2.2623  0.7391
 1074TIP3    H2 3187   0.921   5.328   2.094  0.3477  0.9943  0.2828
 1075TIP3   OH2 3188   0.115   2.892   5.806 -0.0928 -0.0249 -0.1560
 1075TIP3    H1 3189   0.155   2.816   5.849 -0.0861 -0.1190 -0.3266
 1075TIP3    H2 3190   0.021   2.877   5.814 -0.1168 -0.8784 -1.6024
 1076TIP3   OH2 3191   5.745   4.140   2.638 -0.2661  0.3490  0.1006
 1076TIP3    H1 3192   5.812   4.143   2.706  0.3404  0.4251 -0.4852
 1076TIP3    H2 3193   5.723   4.231   2.622 -0.8828  0.3019  0.6423
 1077TIP3   OH2 3194   6.266   6.185   0.337  0.4244 -0.6335  0.4436
 1077TIP3    H1 3195   6.250   6.243   0.411 -2.5358 -3.2413  2.1000
 1077TIP3    H2 3196   6.259   6.242   0.260  0.7351  1.6667  2.0111
 1078TIP3   OH2 3197   2.577   1.201   1.692  0.3812 -0.0966 -0.2297
 1078TIP3    H1 3198   2.657   1.179   1.738  0.9916  0.6391 -0.9145
 1078TIP3    H2 3199   2.550   1.285   1.728  0.8004  0.4299 -1.1085
 1079TIP3   OH2 3200   1.359   3.924   1.052 -0.3523  0.0154 -0.2613
 1079TIP3    H1 3201   1.450   3.910   1.080  0.3128  0.9243 -1.8183
 1079TIP3    H2 3202   1.316   3.964   1.128  0.5141 -0.5166  0.5355
 1080TIP3   OH2 3203   2.140   1.799   3.279  0.4147  0.3712 -0.0762
 1080TIP3    H1 3204   2.200   1.773   3.209  1.4590 -0.3817  1.0492
 1080TIP3    H2 3205   2.196   1.846   3.341  0.0031 -0.9029  1.3117
 1081TIP3   OH2 3206   4.075   0.090   1.932 -0.7986  0.3736 -0.0296
 1081TIP3    H1 3207   3.983   0.065   1.932 -0.9376  0.8801  0.3474
 1081TIP3    H2 3208   4.080   0.164   1.872 -0.5447  0.0132 -0.4546
 1082TIP3   OH2 3209   2.565   6.195   5.686 -0.0937  0.2770  0.3096
 1082TIP3    H1 3210   2.531   6.196   5.596 -2.2190 -0.0019  1.0673
 1082TIP3    H2 3211   2.556   6.104   5.713 -1.4488  0.7522  1.5123
 1083TIP3   OH2 3212   6.685   5.485   1.834 -0.4629  0.0226 -0.1189
 1083TIP3    H1 3213   6.658   5.551   1.771 -0.3843 -1.2762 -1.5935
 1083TIP3    H2 3214   6.623   5.413   1.822  1.3946 -1.5253 -1.0031
 1084TIP3   OH2 3215   0.756   5.576   3.498  0.0079  0.1777 -0.2534
 1084TIP3    H1 3216   0.760   5.671   3.487  0.3450  0.1090 -0.7610
 1084TIP3    H2 3217   0.776   5.541   3.411 -0.8219 -0.3502 -0.2386
 1085TIP3   OH2 3218   2.866   0.062   0.372  0.1461  0.1955  0.1589
 1085TIP3    H1 3219   2.896  -0.027   0.390 -0.4085 -0.1231 -0.4711
 1085TIP3    H2 3220   2.783   0.070   0.419 -1.2441 -0.5946 -2.0146
 1086TIP3   OH2 3221   0.926   6.597   3.550  0.0481  0.1049  0.8608
 1086TIP3    H1 3222   0.844   6.559   3.581 -0.8478  0.2449 -1.1892
 1086TIP3    H2 3223   0.960   6.534   3.487 -1.1322  2.1897 -2.1035
 1087TIP3   OH2 3224   0.556   5.004   4.870 -0.1390 -0.4191 -0.2794
 1087TIP3    H1 3225   0.527   5.090   4.839 -0.1707 -0.5013 -0.4839
 1087TIP3    H2 3226   0.643   5.019   4.905  0.1318 -0.4300 -0.9402
 1088TIP3   OH2 3227   6.054   1.043   4.270  0.2549 -0.1106  0.3096
 1088TIP3    H1 3228   5.984   0.978   4.277 -0.4147  0.7362  1.7939
 1088TIP3    H2 3229   6.114   1.021   4.342  0.9753 -0.1752 -0.2985
 1089TIP3   OH2 3230   0.900   2.691   3.246 -0.4540 -0.0611  0.0194
 1089TIP3    H1 3231   0.889   2.610   3.296 -0.6779 -0.5506 -0.8082
 1089TIP3    H2 3232   0.897   2.664   3.154  1.8761  0.5355 -0.3066
 1090TIP3   OH2 3233   4.561   4.693   3.082 -0.3739 -0.2500  0.0438
 1090TIP3    H1 3234   4.512   4.771   3.058 -0.7219 -0.4234  0.1736
 1090TIP3    H2 3235   4.569   4.643   3.001  1.5351  0.8051 -0.4811
 1091TIP3   OH2 3236   0.508   2.783   4.574 -0.2830  0.8291  0.2478
 1091TIP3    H1 3237   0.444   2.727   4.532 -1.1191  2.1654 -0.3438
 1091TIP3    H2 3238   0.460   2.826   4.645 -0.2977  2.3842 -0.6484
 1092TIP3   OH2 3239   6.747   2.580   0.263 -0.0139 -0.1020 -0.2779
 1092TIP3    H1 3240   6.801   2.550   0.335  0.9053 -0.2847 -1.0270
 1092TIP3    H2 3241   6.805   2.635   0.210 -0.3062 -0.9748 -1.5501
 1093TIP3   OH2 3242   5.131   3.717   0.775  0.1265  0.4380  0.6471
 1093TIP3    H1 3243   5.146   3.810   0.757 -0.9640  0.7232  1.1016
 1093TIP3    H2 3244   5.038   3.712   0.797 -0.4579 -1.1376 -1.7832
 1094TIP3   OH2 3245   3.554   3.963   0.844  0.2721  0.2922 -0.2108
 1094TIP3    H1 3246   3.509   3.935   0.764  1.2391 -2.5286  0.1271
 1094TIP3    H2 3247   3.632   4.009   0.814  1.1482 -1.6073 -0.9834
 1095TIP3   OH2 3248   3.086   0.111   4.369 -0.7588 -0.0092 -0.0078
 1095TIP3    H1 3249   3.034   0.043   4.411 -0.5916 -1.1411 -1.5389
 1095TIP3    H2 3250   3.158   0.063   4.326 -0.4635  1.1557 -0.8753
 1096TIP3   OH2 3251   5.205   0.054   1.974 -0.4345 -0.3128 -0.6941
 1096TIP3    H1 3252   5.256  -0.001   2.035  3.1289  0.4949 -2.6756
 1096TIP3    H2 3253   5.150  -0.008   1.927 -0.0447 -1.5396  0.4055
 1097TIP3   OH2 3254   1.257   3.779   1.581 -0.3225 -0.2965 -0.6497
 1097TIP3    H1 3255   1.172   3.822   1.594  0.6643  1.5565 -0.1462
 1097TIP3    H2 3256   1.264   3.717   1.653 -0.8138  0.2423 -0.1333
 1098TIP3   OH2 3257   1.302   6.166   2.775  0.5262 -0.1770 -0.2882
 1098TIP3    H1 3258   1.338   6.100   2.834  0.9944 -0.4493 -0.8656
 1098TIP3    H2 3259   1.319   6.131   2.687 -1.2284 -0.3631 -0.5930
 1099TIP3   OH2 3260   4.614   0.665   3.311  0.0457  0.2479 -0.2173
 1099TIP3    H1 3261   4.557   0.618   3.371  0.0216 -0.5841 -0.8751
 1099TIP3    H2 3262   4.627   0.605   3.238  1.8759  0.3374 -0.0248
 1100TIP3   OH2 3263   1.581   5.068   0.749  0.1044  0.0746  0.5334
 1100TIP3    H1 3264   1.645   5.005   0.715  0.1719 -0.0541  0.8957
 1100TIP3    H2 3265   1.511   5.013   0.785  0.9787  0.1518  2.4649
 1101TIP3   OH2 3266   3.462   3.664   2.163  0.0857 -0.3416  0.4536
 1101TIP3    H1 3267   3.490   3.698   2.078  0.7769 -2.0368 -0.0479
 1101TIP3    H2 3268   3.366   3.662   2.158  0.0795  0.4670  0.0967
 1102TIP3   OH2 3269   2.864   6.099   3.818  0.3416 -0.5424 -1.0130
 1102TIP3    H1 3270   2.799   6.161   3.851 -0.9672 -0.9086 -2.7568
 1102TIP3    H2 3271   2.894   6.137   3.735  1.3081 -1.0966 -0.9400
 1103TIP3   OH2 3272   0.912   2.478   2.996 -0.1609 -0.5268 -0.1004
 1103TIP3    H1 3273   0.989   2.534   2.987 -0.8125  0.2892 -0.7045
 1103TIP3    H2 3274   0.943   2.404   3.049  1.0289 -0.2066 -0.3104
 1104TIP3   OH2 3275   2.023   0.169   2.607 -0.3301  0.8008 -0.2803
 1104TIP3    H1 3276   1.940   0.139   2.642 -0.1956  0.6190 -0.1199
 1104TIP3    H2 3277   2.062   0.092   2.567  0.9136  0.2546  1.8290
 1105TIP3   OH2 3278   2.642   0.973   2.535  0.1994  0.3426 -0.4333
 1105TIP3    H1 3279   2.600   0.896   2.574  0.2927 -0.1559 -1.2817
 1105TIP3    H2 3280   2.573   1.017   2.487  0.4936 -0.1240 -1.3012
 1106TIP3   OH2 3281   7.039   1.357   2.366  0.2404  0.3953 -0.5412
 1106TIP3    H1 3282   7.126   1.318   2.362  0.3873  0.6955 -0.2941
 1106TIP3    H2 3283   7.055   1.449   2.385 -0.1985  0.1136  1.3979
 1107TIP3   OH2 3284   5.993   3.989   2.106  0.0536 -0.1833  0.0601
 1107TIP3    H1 3285   5.982   4.005   2.200 -0.8291 -1.1992  0.1552
 1107TIP3    H2 3286   6.009   4.075   2.068  0.3863  0.2428  1.1421
 1108TIP3   OH2 3287   5.495   5.779   1.242 -0.2273 -0.0808 -0.2328
 1108TIP3    H1 3288   5.539   5.694   1.251 -1.6901 -0.9950 -1.2479
 1108TIP3    H2 3289   5.510   5.804   1.151  1.1584  1.3484  0.3470
 1109TIP3   OH2 3290   1.887   2.673   4.711  0.0518  0.5539 -0.3446
 1109TIP3    H1 3291   1.855   2.625   4.634 -1.0928  0.5460  0.1178
 1109TIP3    H2 3292   1.977   2.698   4.688  1.0026 -2.4869 -0.2924
 1110TIP3   OH2 3293   3.754   1.508   3.015  0.3730  0.1686  0.0666
 1110TIP3    H1 3294   3.704   1.427   3.008 -0.9612  0.9509  0.3334
 1110TIP3    H2 3295   3.810   1.509   2.937 -0.0519 -0.6996 -0.2536
 1111TIP3   OH2 3296   5.213   6.014   1.238 -0.0838 -0.2691 -0.1043
 1111TIP3    H1 3297   5.193   6.014   1.332 -1.2058  0.1826 -0.3306
 1111TIP3    H2 3298   5.173   5.933   1.206  0.0846 -0.2996 -0.2345
 1112TIP3   OH2 3299   6.747   6.261   3.485  0.5725 -0.3808 -0.5958
 1112TIP3    H1 3300   6.663   6.232   3.521  0.5799  1.2326  0.8441
 1112TIP3    H2 3301   6.726   6.341   3.437  1.3865  0.5674  0.5700
 1113TIP3   OH2 3302   6.452   0.261   3.844 -0.4282 -0.5584 -0.4215
 1113TIP3    H1 3303   6.482   0.209   3.770 -1.2579 -3.0635  0.8899
 1113TIP3    H2 3304   6.408   0.198   3.902 -0.1720  1.3477  2.0189
 1114TIP3   OH2 3305   6.965   1.080   3.968 -0.2758  0.4789  0.2590
 1114TIP3    H1 3306   6.870   1.073   3.975 -0.2693  1.5222  1.7120
 1114TIP3    H2 3307   6.986   1.032   3.888 -1.7223 -2.2818  1.3855
 1115TIP3   OH2 3308   4.651   0.932   4.378 -0.0038 -0.1666  0.4046
 1115TIP3    H1 3309   4.668   1.027   4.378  0.4331 -0.2316  1.5260
 1115TIP3    H2 3310   4.739   0.893   4.376 -0.1859 -0.5640 -0.3469
 1116TIP3   OH2 3311   3.465   4.560   1.560 -0.4555 -0.1965 -0.5229
 1116TIP3    H1 3312   3.532   4.586   1.496  0.7056  0.4204  0.8937
 1116TIP3    H2 3313   3.382   4.570   1.513  0.3388  0.6036 -1.8147
 1117TIP3   OH2 3314   5.723   4.777   0.088  0.2621  0.4060  0.0905
 1117TIP3    H1 3315   5.668   4.768   0.166  0.3120 -0.0251  0.0781
 1117TIP3    H2 3316   5.661   4.791   0.017  0.0246 -1.7097 -0.1917
 1118TIP3   OH2 3317   5.781   0.121   0.855  0.2608  1.3308 -0.5187
 1118TIP3    H1 3318   5.805   0.132   0.763  1.3088 -2.6554 -0.8973
 1118TIP3    H2 3319   5.695   0.080   0.853  0.2616  1.2747  0.2841
 1119TIP3   OH2 3320   0.756   1.787   3.142 -0.3709 -0.2379 -0.7280
 1119TIP3    H1 3321   0.728   1.863   3.091  0.3181 -0.6174 -1.6922
 1119TIP3    H2 3322   0.720   1.712   3.096  0.8974 -0.6327 -1.1326
 1120TIP3   OH2 3323   0.985   2.450   1.087  0.6233 -0.0428 -0.7362
 1120TIP3    H1 3324   0.891   2.469   1.079  0.4639 -1.0794 -1.4704
 1120TIP3    H2 3325   0.994   2.410   1.174 -0.1908 -2.9333 -1.8557
 1121TIP3   OH2 3326   0.536   2.276   0.559  0.1713 -1.2336 -0.5616
 1121TIP3    H1 3327   0.593   2.266   0.634  0.0655 -0.2730 -0.3361
 1121TIP3    H2 3328   0.571   2.216   0.493  2.1133  0.0768 -0.8133
 1122TIP3   OH2 3329   0.389   2.685   1.735 -0.0762  0.1691  0.2209
 1122TIP3    H1 3330   0.300   2.655   1.755 -1.1304  1.9145 -1.4950
 1122TIP3    H2 3331   0.421   2.721   1.818 -1.3658  0.4004  0.6431
 1123TIP3   OH2 3332   0.279   0.064   1.734 -0.3538  0.1513 -0.2392
 1123TIP3    H1 3333   0.321   0.150   1.727  0.0390 -0.0799 -0.7758
 1123TIP3    H2 3334   0.315   0.026   1.815  1.1371 -0.3907 -1.1235
 1124TIP3   OH2 3335   6.734   1.426   2.198  0.0617  0.0004 -0.4735
 1124TIP3    H1 3336   6.819   1.420   2.154 -0.3177  2.6524 -1.7375
 1124TIP3    H2 3337   6.752   1.394   2.287  1.9426 -1.1168 -1.1762
 1125TIP3   OH2 3338   2.338   1.967   3.789 -0.1332 -0.6972 -0.3006
 1125TIP3    H1 3339   2.342   2.046   3.842  0.6431 -0.8333 -0.1458
 1125TIP3    H2 3340   2.390   1.987   3.711 -0.3124 -0.8941 -0.4725
 1126TIP3   OH2 3341   4.010   1.748   1.488  0.0890 -0.3278  0.2200
 1126TIP3    H1 3342   4.053   1.667   1.462 -0.6601 -0.8706  0.6373
 1126TIP3    H2 3343   4.030   1.757   1.581 -0.4468 -0.4223  0.3446
 1127TIP3   OH2 3344   6.210   5.917   1.258 -0.1157  0.7975 -0.0570
 1127TIP3    H1 3345   6.238   5.864   1.333 -3.1132  0.8608  1.2583
 1127TIP3    H2 3346   6.140   5.866   1.217 -1.1605  2.4398 -0.4397
 1128TIP3   OH2 3347   6.165   3.213   1.161 -0.2966 -0.6875  0.3189
 1128TIP3    H1 3348   6.151   3.131   1.113 -1.7197  0.2355 -0.9223
 1128TIP3    H2 3349   6.149   3.282   1.097 -0.9307  0.5837  1.7774
 1129TIP3   OH2 3350   3.319   6.433   2.554 -0.1144  0.6151 -0.4435
 1129TIP3    H1 3351   3.361   6.519   2.561 -0.2769  0.7017 -0.5131
 1129TIP3    H2 3352   3.342   6.403   2.466 -0.5788  0.8678 -0.6557
 1130TIP3   OH2 3353   5.714   4.496   0.159 -0.3242  0.2345 -0.0713
 1130TIP3    H1 3354   5.778   4.432   0.127  0.4487  1.1265 -0.3582
 1130TIP3    H2 3355   5.767   4.562   0.205 -1.0710  0.8051 -0.0114
 1131TIP3   OH2 3356   6.174   3.292   4.959  0.1206 -0.2565  0.0333
 1131TIP3    H1 3357   6.160   3.325   4.870 -0.6463 -0.9161 -0.0963
 1131TIP3    H2 3358   6.086   3.284   4.995  0.3355 -1.4851  0.3060
 1132TIP3   OH2 3359   4.824   5.606   4.348  0.6753 -0.1133  0.3668
 1132TIP3    H1 3360   4.827   5.651   4.263 -1.9196 -0.7819 -0.1420
 1132TIP3    H2 3361   4.896   5.646   4.398  1.1854  1.5164 -1.5340
 1133TIP3   OH2 3362   2.330   2.315   5.490  0.0779  0.0449  0.1272
 1133TIP3    H1 3363   2.269   2.281   5.425  0.2613 -2.1055  0.9907
 1133TIP3    H2 3364   2.410   2.335   5.441 -0.8217  1.6605 -0.7948
 1134TIP3   OH2 3365   0.287  -0.007   4.528 -0.2433 -0.5751 -0.0886
 1134TIP3    H1 3366   0.228   0.053   4.482 -1.1726  0.2941  2.0972
 1134TIP3    H2 3367   0.375   0.025   4.506 -0.6996  1.7960  1.1568
 1135TIP3   OH2 3368   4.653   3.102   1.747 -0.4267  0.3559  0.2849
 1135TIP3    H1 3369   4.674   3.059   1.830  0.1831  0.3671  0.1347
 1135TIP3    H2 3370   4.653   3.032   1.682  0.6886  0.5917  0.0182
 1136TIP3   OH2 3371   6.624   5.844   1.200 -0.5183  0.3483 -0.4765
 1136TIP3    H1 3372   6.631   5.756   1.163 -3.2915 -0.8568  1.4987
 1136TIP3    H2 3373   6.674   5.840   1.282 -2.2748 -0.1328  0.6353
 1137TIP3   OH2 3374   1.539   0.863   5.367 -0.1831 -0.2779  0.0603
 1137TIP3    H1 3375   1.489   0.942   5.383  1.0985  0.6330 -0.2715
 1137TIP3    H2 3376   1.575   0.874   5.279  0.7409 -0.8077  0.3512
 1138TIP3   OH2 3377   7.057   0.975   5.423  0.3136 -0.8046  0.2696
 1138TIP3    H1 3378   6.977   0.943   5.382 -0.8892  0.2652  1.6559
 1138TIP3    H2 3379   7.029   1.051   5.474  2.3166 -0.0721  0.3890
 1139TIP3   OH2 3380   4.420   3.361   4.114  0.4742 -0.5000 -0.2946
 1139TIP3    H1 3381   4.441   3.269   4.097 -2.7490 -1.4307  0.0502
 1139TIP3    H2 3382   4.406   3.365   4.209  1.0043  0.4572 -0.2478
 1140TIP3   OH2 3383   6.947   3.377   2.914  0.1183  0.1397 -0.0333
 1140TIP3    H1 3384   7.011   3.434   2.872  0.4293  1.8207  2.4793
 1140TIP3    H2 3385   6.862   3.409   2.884  0.3445 -0.5262 -1.4784
 1141TIP3   OH2 3386   3.577   2.618   3.878 -0.0364 -0.7379  0.1747
 1141TIP3    H1 3387   3.545   2.557   3.944  0.3517  0.8111  1.8716
 1141TIP3    H2 3388   3.500   2.641   3.826 -0.7272 -0.6338  1.2239
 1142TIP3   OH2 3389   4.698   0.992   0.068 -0.0918  0.3090 -0.2560
 1142TIP3    H1 3390   4.666   0.996   0.158  1.7869 -0.4021  0.4869
 1142TIP3    H2 3391   4.704   0.899   0.048  0.8670  0.4410 -0.6018
 1143TIP3   OH2 3392   3.303   5.314   5.260  0.2924 -0.4641 -0.0682
 1143TIP3    H1 3393   3.270   5.342   5.175  0.8391 -0.9240 -0.4392
 1143TIP3    H2 3394   3.236   5.343   5.323 -0.7419 -1.2264 -0.7785
 1144TIP3   OH2 3395   6.870   1.061   2.665  0.0311 -0.1859 -0.2796
 1144TIP3    H1 3396   6.788   1.110   2.671  0.7122  0.8522  0.9861
 1144TIP3    H2 3397   6.935   1.117   2.707  1.3915 -1.0251 -1.1704
 1145TIP3   OH2 3398   5.163   3.891   1.717 -0.2122  0.5940  0.5538
 1145TIP3    H1 3399   5.158   3.922   1.808 -0.9457  1.3742  0.2590
 1145TIP3    H2 3400   5.090   3.829   1.710 -0.5442  1.0125  0.3186
 1146TIP3   OH2 3401   0.776   6.011   1.780  0.3266 -0.8987  0.2301
 1146TIP3    H1 3402   0.870   5.999   1.794  0.6709 -0.0355 -1.1519
 1146TIP3    H2 3403   0.762   5.991   1.688 -1.0694 -2.1294  0.6673
 1147TIP3   OH2 3404   0.333   4.867   5.437 -0.0881  0.1979  0.1289
 1147TIP3    H1 3405   0.308   4.910   5.356 -0.1340 -0.1784 -0.0611
 1147TIP3    H2 3406   0.353   4.777   5.411  1.2565  0.4200  0.3042
 1148TIP3   OH2 3407   1.508   3.482   4.482 -0.3671 -0.5461  0.5058
 1148TIP3    H1 3408   1.443   3.453   4.419  0.9739 -0.2436 -1.0979
 1148TIP3    H2 3409   1.551   3.402   4.512 -0.0319 -0.5981 -0.0976
 1149TIP3   OH2 3410   7.142   1.142   5.129 -0.2240  0.0754  0.7621
 1149TIP3    H1 3411   7.166   1.064   5.178  0.5418 -0.4508 -0.4084
 1149TIP3    H2 3412   7.052   1.126   5.100 -0.6021  0.2969  1.7798
 1150TIP3   OH2 3413   3.230   2.869   0.923 -0.1915 -0.5020  0.1444
 1150TIP3    H1 3414   3.168   2.859   0.850 -0.6229 -0.8389  0.5497
 1150TIP3    H2 3415   3.177   2.906   0.994  0.3510  0.3565  0.1218
 1151TIP3   OH2 3416   7.008   4.682   0.970 -0.0082 -0.4056 -0.3504
 1151TIP3    H1 3417   7.052   4.619   0.913  2.1267  1.7951 -1.3432
 1151TIP3    H2 3418   6.923   4.698   0.929  0.0980 -1.3996 -0.9677
 1152TIP3   OH2 3419   6.440   4.412   2.569  0.3740  0.2987 -0.4686
 1152TIP3    H1 3420   6.510   4.475   2.553 -0.2604  0.9917 -0.5679
 1152TIP3    H2 3421   6.475   4.328   2.538  1.0312  0.6943 -0.8161
 1153TIP3   OH2 3422   4.785  -0.002   5.499 -0.0411 -0.4939 -0.3332
 1153TIP3    H1 3423   4.773   0.077   5.553  1.3947 -2.1860  2.7382
 1153TIP3    H2 3424   4.876   0.004   5.469 -0.3132 -0.4043 -1.1571
 1154TIP3   OH2 3425   0.548   1.271   5.753  0.0271 -0.4276 -0.1764
 1154TIP3    H1 3426   0.543   1.261   5.848  1.0342  0.7528  0.0354
 1154TIP3    H2 3427   0.468   1.320   5.730 -0.3023 -0.8631  0.0284
 1155TIP3   OH2 3428   3.675   3.721   4.798  0.3866  0.0004 -0.2970
 1155TIP3    H1 3429   3.727   3.718   4.878 -1.8742  0.4958  1.2652
 1155TIP3    H2 3430   3.710   3.797   4.750  1.4012  0.0260  0.4438
 1156TIP3   OH2 3431   2.724   0.175   1.065  0.3260  0.1070  0.1390
 1156TIP3    H1 3432   2.646   0.202   1.017 -0.8044 -1.4042  1.0756
 1156TIP3    H2 3433   2.796   0.220   1.020 -0.6782 -1.0322 -2.8472
 1157TIP3   OH2 3434   2.227   6.012   0.550 -0.2126  0.1027 -0.4159
 1157TIP3    H1 3435   2.243   5.997   0.456 -0.3489 -3.1633 -0.0251
 1157TIP3    H2 3436   2.307   6.054   0.581  1.0416 -1.3561 -1.5209
 1158TIP3   OH2 3437   3.170   5.802   5.054 -0.1739 -0.6406  0.1215
 1158TIP3    H1 3438   3.247   5.807   4.997 -0.2739  1.3176  0.0801
 1158TIP3    H2 3439   3.105   5.754   5.002  0.0227  0.3595 -1.1218
 1159TIP3   OH2 3440   6.524   6.678   1.080  0.1869 -0.2129  0.0245
 1159TIP3    H1 3441   6.456   6.612   1.093  0.6728 -0.4949  1.2719
 1159TIP3    H2 3442   6.604   6.637   1.114  0.1369  1.7391  2.8962
 1160TIP3   OH2 3443   4.719   4.100   1.373 -0.2836 -0.6156  0.5970
 1160TIP3    H1 3444   4.767   4.044   1.434 -0.0700 -0.5978  0.4471
 1160TIP3    H2 3445   4.645   4.133   1.423 -0.1410 -0.6472  0.8269
 1161TIP3   OH2 3446   2.133   3.232   4.078 -0.2356 -0.3905  0.2876
 1161TIP3    H1 3447   2.112   3.164   4.142 -0.6433 -1.2305 -0.7204
 1161TIP3    H2 3448   2.180   3.187   4.008  0.6043  0.5973  0.1839
 1162TIP3   OH2 3449   0.060   2.059   0.323  0.0136  0.0708 -0.0671
 1162TIP3    H1 3450   0.111   1.993   0.370  0.1531 -0.5388 -1.0563
 1162TIP3    H2 3451  -0.031   2.041   0.348  0.0458 -0.5304 -0.3758
 1163TIP3   OH2 3452   0.567   0.370   5.310 -0.1050  0.0386  0.0851
 1163TIP3    H1 3453   0.558   0.290   5.257  0.0054  0.9409 -1.3641
 1163TIP3    H2 3454   0.495   0.365   5.372  0.3213 -1.5264  0.5226
 1164TIP3   OH2 3455   2.571   4.911   1.725 -0.6968  0.3626  0.0364
 1164TIP3    H1 3456   2.612   4.942   1.806  1.1270 -0.7544 -0.4272
 1164TIP3    H2 3457   2.565   4.989   1.670 -0.2271  0.7600  0.5372
 1165TIP3   OH2 3458   4.867   0.299   5.153 -0.0231  0.1565 -0.4870
 1165TIP3    H1 3459   4.938   0.351   5.189  0.6984 -1.5842  0.7155
 1165TIP3    H2 3460   4.802   0.363   5.125  1.0656  1.7040  0.4076
 1166TIP3   OH2 3461   3.640   0.148   1.073 -0.3784 -0.2846  0.8491
 1166TIP3    H1 3462   3.569   0.211   1.076 -0.7093 -0.6947  2.6650
 1166TIP3    H2 3463   3.604   0.069   1.113  0.2001 -1.4820 -0.8625
 1167TIP3   OH2 3464   3.186   5.901   3.074  0.7739 -0.0125 -0.1782
 1167TIP3    H1 3465   3.168   5.834   3.007 -2.7114 -1.4950  1.9174
 1167TIP3    H2 3466   3.200   5.981   3.025  2.7768 -1.7767 -2.7528
 1168TIP3   OH2 3467   3.843   1.874   4.303  0.0219  0.3296  0.0844
 1168TIP3    H1 3468   3.826   1.804   4.239 -2.4778  0.8880  0.0345
 1168TIP3    H2 3469   3.776   1.861   4.370  1.7107  0.6282  1.8971
 1169TIP3   OH2 3470   1.186   5.295   2.939 -0.4435 -0.0774  0.3121
 1169TIP3    H1 3471   1.210   5.341   2.859  2.2352  0.8323  1.5068
 1169TIP3    H2 3472   1.216   5.205   2.924 -1.5969 -0.3662 -0.3478
 1170TIP3   OH2 3473   2.049   5.068   3.021  0.2526  0.4321 -0.3420
 1170TIP3    H1 3474   2.101   5.134   2.975 -1.1189  1.6342 -0.2441
 1170TIP3    H2 3475   1.959   5.087   2.996 -0.4210  0.2339  1.7552
 1171TIP3   OH2 3476   2.027   5.299   0.875  0.0626  0.4546 -0.1086
 1171TIP3    H1 3477   2.085   5.312   0.800  0.0494  1.4579  0.0432
 1171TIP3    H2 3478   1.939   5.318   0.842 -0.1413 -0.6520 -0.2309
 1172TIP3   OH2 3479   0.770   0.687   3.031 -0.9873  0.0738  0.2369
 1172TIP3    H1 3480   0.803   0.612   2.980  0.0717  0.2029  0.7232
 1172TIP3    H2 3481   0.744   0.751   2.964 -1.5901 -0.5873 -0.1786
 1173TIP3   OH2 3482   0.410   0.971   0.587 -0.2375  0.1935  0.1831
 1173TIP3    H1 3483   0.369   1.050   0.551 -1.3248 -1.0155 -1.3444
 1173TIP3    H2 3484   0.336   0.917   0.616  0.4393 -0.7053  0.2743
 1174TIP3   OH2 3485   6.563   5.017   4.582 -0.2304  0.0198 -0.4262
 1174TIP3    H1 3486   6.575   5.109   4.557  0.5938 -0.1361 -0.6443
 1174TIP3    H2 3487   6.468   5.005   4.587 -0.3528  1.1947  0.7596
 1175TIP3   OH2 3488   1.743   1.093   4.040 -0.3032  0.3565 -0.5097
 1175TIP3    H1 3489   1.764   1.007   4.004  0.8643  0.5996 -0.4736
 1175TIP3    H2 3490   1.684   1.076   4.112 -2.1900 -0.1921 -2.1098
 1176TIP3   OH2 3491   3.427   2.769   3.043  0.1263  0.5686 -0.8397
 1176TIP3    H1 3492   3.352   2.709   3.041 -0.2962  1.0977 -1.8899
 1176TIP3    H2 3493   3.491   2.726   3.100 -1.2685  0.4592  0.7266
 1177TIP3   OH2 3494   3.759   2.456   1.533  0.0313 -0.2266 -0.4188
 1177TIP3    H1 3495   3.827   2.507   1.577  0.9873 -1.5630 -0.2761
 1177TIP3    H2 3496   3.687   2.454   1.596  0.7782 -0.7698  0.4500
 1178TIP3   OH2 3497   0.482   3.828   2.254 -0.2525  0.0754  0.1813
 1178TIP3    H1 3498   0.474   3.763   2.323 -0.8741 -0.5685 -0.4790
 1178TIP3    H2 3499   0.489   3.777   2.174  0.1019  0.8176 -0.2669
 1179TIP3   OH2 3500   0.856   0.758   3.544  0.0860 -0.1653 -0.6741
 1179TIP3    H1 3501   0.873   0.669   3.576  0.6714 -0.5736 -2.0601
 1179TIP3    H2 3502   0.771   0.753   3.501 -0.3600  0.2052  0.1500
 1180TIP3   OH2 3503   1.752   0.507   3.498 -0.5994  0.9995 -0.4119
 1180TIP3    H1 3504   1.844   0.531   3.509 -1.2877  3.2235  1.5118
 1180TIP3    H2 3505   1.735   0.447   3.570 -0.4121 -0.3554 -1.4683
 1181TIP3   OH2 3506   2.139   2.542   0.731  0.3480 -0.4896 -0.2397
 1181TIP3    H1 3507   2.209   2.606   0.719  1.0697 -1.1910  0.1372
 1181TIP3    H2 3508   2.149   2.481   0.658  0.5118 -0.9343  0.1506
 1182TIP3   OH2 3509   1.550   5.852   1.916 -0.3680 -0.1457  0.2189
 1182TIP3    H1 3510   1.469   5.885   1.955 -0.3799 -1.7081  1.6276
 1182TIP3    H2 3511   1.611   5.926   1.922 -2.0672  1.6574 -2.4177
 1183TIP3   OH2 3512   1.309   1.207   3.850 -0.3037 -0.2832 -0.2656
 1183TIP3    H1 3513   1.401   1.182   3.844 -0.1548  0.3136 -0.4758
 1183TIP3    H2 3514   1.284   1.229   3.761 -0.4377  0.2951 -0.0916
 1184TIP3   OH2 3515   1.750   0.808   3.983 -0.1297 -0.5383 -0.2359
 1184TIP3    H1 3516   1.658   0.831   3.975 -0.0391 -0.3693 -0.8124
 1184TIP3    H2 3517   1.751   0.713   3.984 -0.2615 -0.5526 -0.9041
 1185TIP3   OH2 3518   6.575   5.445   0.709 -0.3594 -0.4338  1.0480
 1185TIP3    H1 3519   6.597   5.409   0.795 -2.9105 -1.3155  1.4065
 1185TIP3    H2 3520   6.498   5.500   0.725  0.5494  1.3335 -0.3215
 1186TIP3   OH2 3521   5.347   3.250   0.467 -0.3618 -0.1913 -0.7034
 1186TIP3    H1 3522   5.418   3.227   0.406  1.2515 -1.8320  1.6183
 1186TIP3    H2 3523   5.286   3.177   0.462 -0.6354  0.0470 -0.8904
 1187TIP3   OH2 3524   0.792   3.179   1.804  0.4072 -0.5519 -0.5468
 1187TIP3    H1 3525   0.791   3.105   1.744  0.2444 -1.2913  0.3402
 1187TIP3    H2 3526   0.788   3.139   1.891  2.0715  0.4089  0.0170
 1188TIP3   OH2 3527   1.250   4.598   2.877  0.0135  0.0485 -0.4670
 1188TIP3    H1 3528   1.215   4.509   2.886  1.6213 -0.4772  1.2873
 1188TIP3    H2 3529   1.287   4.617   2.963  0.5286  2.0815 -1.0927
 1189TIP3   OH2 3530   4.050   1.455   2.435 -0.2627 -0.7138 -0.8142
 1189TIP3    H1 3531   4.067   1.472   2.342 -1.7657  0.3579 -0.9292
 1189TIP3    H2 3532   4.049   1.542   2.475 -2.0289 -0.9569 -0.2629
 1190TIP3   OH2 3533   3.902   4.621   0.456  0.1023 -0.4443  0.0257
 1190TIP3    H1 3534   3.974   4.678   0.429 -1.4432  1.3759 -0.4638
 1190TIP3    H2 3535   3.856   4.600   0.375 -1.4405  0.6171  0.5874
 1191TIP3   OH2 3536   2.608   6.254   0.531  0.2758 -0.3249 -0.5273
 1191TIP3    H1 3537   2.533   6.269   0.589  0.6445 -0.0274 -0.1239
 1191TIP3    H2 3538   2.573   6.200   0.461 -0.5685  0.6365 -0.8691
 1192TIP3   OH2 3539   3.523   5.247   4.320 -0.2924  0.0111 -0.4297
 1192TIP3    H1 3540   3.615   5.251   4.296 -0.2616 -1.1154 -0.5188
 1192TIP3    H2 3541   3.484   5.325   4.279  0.3153 -0.3464 -1.7182
 1193TIP3   OH2 3542   1.963   4.145   4.356  0.3086 -0.6422 -0.3636
 1193TIP3    H1 3543   1.916   4.132   4.274  2.0553 -1.2203 -1.3208
 1193TIP3    H2 3544   2.051   4.114   4.338  0.7216 -0.8516  1.7701
 1194TIP3   OH2 3545   6.334   0.249   1.375  0.0337 -0.5451  0.6812
 1194TIP3    H1 3546   6.264   0.311   1.354  0.6530  0.0534  0.3184
 1194TIP3    H2 3547   6.336   0.189   1.300  0.4469 -0.0573  0.2912
 1195TIP3   OH2 3548   6.431   3.002   1.202  0.1391 -0.2139  0.1376
 1195TIP3    H1 3549   6.454   3.043   1.285 -0.9689 -0.4174  0.5624
 1195TIP3    H2 3550   6.430   2.908   1.221 -0.9639 -0.2145  0.1279
 1196TIP3   OH2 3551   5.047   4.281   1.775  0.1518 -0.1408  0.3449
 1196TIP3    H1 3552   5.101   4.354   1.746 -0.7961  0.5151  0.1724
 1196TIP3    H2 3553   5.021   4.305   1.864 -0.8098  0.1253  0.0040
 1197TIP3   OH2 3554   0.999   4.239   5.754 -0.1719  0.3201 -0.0217
 1197TIP3    H1 3555   1.045   4.279   5.828  1.1026 -0.5911 -0.2739
 1197TIP3    H2 3556   0.919   4.289   5.745  0.0323  0.9626  1.4684
 1198TIP3   OH2 3557   7.156   5.528   1.363  0.3932  0.5522  0.1776
 1198TIP3    H1 3558   7.189   5.446   1.324 -0.1299 -0.1202  1.1000
 1198TIP3    H2 3559   7.193   5.597   1.308 -0.1040 -0.3371 -1.3414
 1199TIP3   OH2 3560   1.048   4.356   0.623  0.1113  0.1427  0.2526
 1199TIP3    H1 3561   1.139   4.325   0.620  0.2906  0.6720 -2.0703
 1199TIP3    H2 3562   1.033   4.393   0.536 -1.7366  1.8340  1.2125
 1200TIP3   OH2 3563   0.431   0.670   0.773  0.5897  0.1243  0.2919
 1200TIP3    H1 3564   0.411   0.646   0.683 -0.8190 -1.5791  1.0096
 1200TIP3    H2 3565   0.426   0.588   0.822 -0.4114  1.2522  2.2017
 1201TIP3   OH2 3566   0.644   6.292   4.635  0.3633  0.0232 -0.3822
 1201TIP3    H1 3567   0.633   6.198   4.642  0.7735 -0.0648 -0.8659
 1201TIP3    H2 3568   0.555   6.327   4.643  0.1936 -0.4111 -0.3445
 1202TIP3   OH2 3569   4.313   4.938   3.870 -0.1709 -0.1990  0.0057
 1202TIP3    H1 3570   4.279   5.016   3.826  1.4102  0.7574  0.3868
 1202TIP3    H2 3571   4.277   4.864   3.821 -2.3474  0.7379  0.1157
 1203TIP3   OH2 3572   5.601   5.677   1.512 -0.6310 -0.2796  0.1673
 1203TIP3    H1 3573   5.668   5.668   1.444  1.3623  1.2882  1.7869
 1203TIP3    H2 3574   5.601   5.593   1.557 -0.0532 -0.4426 -0.1282
 1204TIP3   OH2 3575   6.961   4.305   0.260 -0.0547 -0.3994  0.1311
 1204TIP3    H1 3576   6.950   4.348   0.175 -0.1444  1.6795  1.1147
 1204TIP3    H2 3577   6.997   4.219   0.239 -0.8752 -0.2881 -2.0448
 1205TIP3   OH2 3578   1.586   1.549   3.912 -0.0043  0.0914  0.6012
 1205TIP3    H1 3579   1.673   1.587   3.901  0.3980 -0.5525  1.3917
 1205TIP3    H2 3580   1.555   1.532   3.823  0.7880  0.0979  0.3167
 1206TIP3   OH2 3581   3.133   0.747   5.140  0.1024  0.2515 -0.2806
 1206TIP3    H1 3582   3.122   0.721   5.231  0.4571 -0.7364 -0.5144
 1206TIP3    H2 3583   3.070   0.819   5.128  0.1038  0.4395  0.7498
 1207TIP3   OH2 3584   5.737   4.371   5.282 -0.1817 -0.2240 -0.3073
 1207TIP3    H1 3585   5.765   4.347   5.371  0.8199 -1.4363 -0.9200
 1207TIP3    H2 3586   5.786   4.451   5.263  0.6850 -0.7197 -0.2580
 1208TIP3   OH2 3587   6.319   4.191   0.291 -0.1923 -0.4288  0.2449
 1208TIP3    H1 3588   6.332   4.173   0.384  0.5686 -0.6159  0.1050
 1208TIP3    H2 3589   6.264   4.270   0.289  0.5255  0.0947  0.8548
 1209TIP3   OH2 3590   0.864   6.638   5.066  0.3145 -0.1911  0.0442
 1209TIP3    H1 3591   0.802   6.634   4.993  1.6788 -0.6538 -1.1248
 1209TIP3    H2 3592   0.897   6.728   5.064 -0.0906 -0.0326  0.4716
 1210TIP3   OH2 3593   1.020   3.805   4.134 -0.3130 -0.6532 -0.0323
 1210TIP3    H1 3594   1.012   3.736   4.200  1.3784  0.8461  1.8702
 1210TIP3    H2 3595   0.932   3.813   4.096 -1.3060 -1.6754  1.9358
 1211TIP3   OH2 3596   2.140   3.202   0.378 -0.6343  0.1426  0.0732
 1211TIP3    H1 3597   2.085   3.254   0.320  1.3294  2.1348 -0.1402
 1211TIP3    H2 3598   2.179   3.266   0.438 -0.3752 -1.4892  1.7323
 1212TIP3   OH2 3599   2.318   5.681   0.561 -0.1171 -0.2253 -0.5401
 1212TIP3    H1 3600   2.403   5.725   0.564  1.0557 -2.2693 -1.8006
 1212TIP3    H2 3601   2.305   5.659   0.469 -1.8935 -0.2118 -0.3232
 1213TIP3   OH2 3602   1.431   4.905   3.073 -0.1033  0.1094 -0.2126
 1213TIP3    H1 3603   1.353   4.849   3.068  0.3906 -0.7976  1.4769
 1213TIP3    H2 3604   1.499   4.857   3.026 -0.5039  0.8888 -1.6635
 1214TIP3   OH2 3605   3.327   1.617   0.540 -0.0446 -0.2044 -0.0228
 1214TIP3    H1 3606   3.400   1.676   0.518  0.6698 -0.5876  1.1823
 1214TIP3    H2 3607   3.351   1.581   0.626  1.0552 -4.5934 -1.9003
 1215TIP3   OH2 3608   3.669   4.671   4.768 -0.4555 -0.2272  0.8685
 1215TIP3    H1 3609   3.659   4.580   4.798 -0.2603 -0.4173  0.3565
 1215TIP3    H2 3610   3.648   4.723   4.845 -1.7906 -0.6864  0.8395
 1216TIP3   OH2 3611   5.735   1.019   1.002 -0.1391 -0.6577 -0.3829
 1216TIP3    H1 3612   5.679   0.953   0.962 -0.3587 -0.2897 -0.6947
 1216TIP3    H2 3613   5.699   1.102   0.972 -1.2746 -0.2729  1.8176
 1217TIP3   OH2 3614   4.802   1.677   1.390 -0.2500 -0.0480  0.2307
 1217TIP3    H1 3615   4.816   1.717   1.304 -0.1752  0.7450  0.6076
 1217TIP3    H2 3616   4.873   1.614   1.399  0.3005  0.5509  0.1099
 1218TIP3   OH2 3617   2.098   6.769   3.465  0.1277  0.4072 -0.0031
 1218TIP3    H1 3618   2.169   6.775   3.528  1.5388  0.3509 -1.5134
 1218TIP3    H2 3619   2.130   6.707   3.399 -1.1422  0.7109 -0.9473
 1219TIP3   OH2 3620   2.351   2.652   3.290  0.2775 -0.0688  0.2335
 1219TIP3    H1 3621   2.314   2.679   3.374  0.7993  0.2223  0.3766
 1219TIP3    H2 3622   2.307   2.570   3.269 -0.7861  0.5031  0.1704
 1220TIP3   OH2 3623   1.064   0.409   0.449 -0.4539 -0.1460  0.2003
 1220TIP3    H1 3624   1.018   0.492   0.457 -0.1428  0.1333 -0.7328
 1220TIP3    H2 3625   1.115   0.402   0.530  0.7669  1.3687 -0.3867
 1221TIP3   OH2 3626   0.198   1.346   1.691 -0.5801 -0.3379 -0.1982
 1221TIP3    H1 3627   0.111   1.317   1.719 -0.9173 -1.2842 -2.1093
 1221TIP3    H2 3628   0.221   1.288   1.619  0.3997  1.7300 -1.6565
 1222TIP3   OH2 3629   4.510   3.102   5.628 -0.1222 -0.7346 -0.3082
 1222TIP3    H1 3630   4.415   3.114   5.627  0.1279  2.8530  1.8998
 1222TIP3    H2 3631   4.543   3.162   5.561  0.6511 -0.0415  0.6645
 1223TIP3   OH2 3632   5.206   6.216   0.688 -0.8920 -0.1882  1.0230
 1223TIP3    H1 3633   5.255   6.295   0.709  1.2826 -0.5200 -2.0728
 1223TIP3    H2 3634   5.114   6.240   0.701 -0.4628  3.4722 -1.2637
 1224TIP3   OH2 3635   6.701   5.906   5.202 -0.8174 -0.1662  0.1356
 1224TIP3    H1 3636   6.671   5.880   5.115 -1.1719 -0.2469  0.2810
 1224TIP3    H2 3637   6.748   5.829   5.235  1.3545  0.6202 -0.8944
 1225TIP3   OH2 3638   3.703   1.167   3.860  0.4165  0.7410 -0.0326
 1225TIP3    H1 3639   3.751   1.197   3.783 -1.3203  2.0126 -0.6955
 1225TIP3    H2 3640   3.644   1.240   3.880  0.4780  0.2421  2.2265
 1226TIP3   OH2 3641   2.403   4.653   3.667 -0.6593 -0.1081 -0.1282
 1226TIP3    H1 3642   2.343   4.634   3.739 -0.5766  0.5528  0.1249
 1226TIP3    H2 3643   2.346   4.673   3.593 -0.7730  1.0156  0.2449
 1227TIP3   OH2 3644   3.260   5.126   3.003  0.3715  0.2095 -0.3171
 1227TIP3    H1 3645   3.299   5.080   3.078 -0.9536 -1.2714 -0.4730
 1227TIP3    H2 3646   3.196   5.185   3.042  1.1621  0.9949 -0.1854
 1228TIP3   OH2 3647   6.339   2.410   5.594 -0.2642 -0.5791 -0.3789
 1228TIP3    H1 3648   6.273   2.345   5.619 -1.2938  0.6898  0.2895
 1228TIP3    H2 3649   6.414   2.390   5.649 -0.8702 -0.6899  0.4188
 1229TIP3   OH2 3650   6.734   5.807   0.509 -0.2627  0.2199 -0.1027
 1229TIP3    H1 3651   6.717   5.899   0.530 -0.4924 -0.0625  1.0126
 1229TIP3    H2 3652   6.654   5.762   0.537 -0.6950 -0.1664 -1.8644
 1230TIP3   OH2 3653   2.208   3.609   0.968 -0.0326  1.3299  0.2782
 1230TIP3    H1 3654   2.187   3.517   0.957 -0.9685  1.6177 -0.3928
 1230TIP3    H2 3655   2.259   3.612   1.050 -1.6829  0.4702  1.3893
 1231TIP3   OH2 3656   0.692   4.719   1.626  0.2899 -0.0014  0.5726
 1231TIP3    H1 3657   0.624   4.756   1.682  0.1395  1.6910 -0.6358
 1231TIP3    H2 3658   0.772   4.764   1.653  0.4029  0.0605  0.1442
 1232TIP3   OH2 3659   2.541   1.390   1.085 -0.0707  0.0770  0.0200
 1232TIP3    H1 3660   2.626   1.353   1.062  0.9197  0.9915  1.9917
 1232TIP3    H2 3661   2.549   1.483   1.067 -0.6954  0.1646  0.1589
 1233TIP3   OH2 3662   5.925   3.996   0.080  0.3180  0.3408  0.2088
 1233TIP3    H1 3663   5.873   4.018   0.003  0.9502 -0.0996 -0.3533
 1233TIP3    H2 3664   5.927   4.078   0.131 -0.3126  0.5635 -0.1058
 1234TIP3   OH2 3665   2.783   4.775   2.853 -0.2386  0.2156  0.5295
 1234TIP3    H1 3666   2.852   4.708   2.848 -0.1101  0.4157 -0.6005
 1234TIP3    H2 3667   2.727   4.746   2.926 -0.0130 -0.9550  0.2653
 1235TIP3   OH2 3668   5.044   4.484   0.182  0.2065 -0.1765 -0.1196
 1235TIP3    H1 3669   5.094   4.450   0.256  0.7792 -0.8752 -0.8069
 1235TIP3    H2 3670   4.955   4.495   0.216  1.1688  3.0230  1.6919
 1236TIP3   OH2 3671   2.225   4.585   5.656 -0.5355 -0.3000  0.0035
 1236TIP3    H1 3672   2.208   4.588   5.562  1.3012 -2.4744 -0.4899
 1236TIP3    H2 3673   2.180   4.507   5.687  0.2039 -0.5190  0.5801
 1237TIP3   OH2 3674   0.731   6.431   1.401  0.0699 -0.8097  0.1691
 1237TIP3    H1 3675   0.808   6.450   1.455  0.4830  2.1899 -1.2514
 1237TIP3    H2 3676   0.668   6.499   1.425 -0.1661 -0.0904 -2.1809
 1238TIP3   OH2 3677   1.907   6.294   5.539 -0.0852 -0.9763  0.0848
 1238TIP3    H1 3678   1.877   6.213   5.579 -1.4650 -0.5801 -0.0811
 1238TIP3    H2 3679   1.889   6.283   5.445  1.9025 -1.3807 -0.3018
 1239TIP3   OH2 3680   2.717   2.080   5.576 -0.1445 -0.3098  0.6794
 1239TIP3    H1 3681   2.719   2.092   5.481  1.6469  1.7892  0.8750
 1239TIP3    H2 3682   2.630   2.046   5.594 -1.3726  1.3143 -1.5402
 1240TIP3   OH2 3683   3.650   4.906   5.217  0.4209 -0.1179  0.2051
 1240TIP3    H1 3684   3.643   4.970   5.147 -2.2663 -0.1162  0.3898
 1240TIP3    H2 3685   3.675   4.825   5.174 -0.8563 -0.0356 -0.7442
 1241TIP3   OH2 3686   2.665   4.776   5.123  0.3106 -0.5583 -0.7194
 1241TIP3    H1 3687   2.639   4.765   5.215 -1.4604 -0.2802 -1.1689
 1241TIP3    H2 3688   2.625   4.702   5.077 -0.2137  0.2118 -1.5294
 1242TIP3   OH2 3689   2.487   2.239   0.950  0.2024  0.1098 -0.1290
 1242TIP3    H1 3690   2.449   2.195   1.026 -1.4528  0.6416 -0.6199
 1242TIP3    H2 3691   2.483   2.333   0.972  2.7415  0.1441  0.4708
 1243TIP3   OH2 3692   7.155   6.414   3.894  0.3351 -0.0888 -0.2317
 1243TIP3    H1 3693   7.162   6.320   3.880  0.4688  0.1027 -1.6045
 1243TIP3    H2 3694   7.172   6.452   3.807  0.8147  1.2142  0.4097
 1244TIP3   OH2 3695   2.601   3.201   3.304 -0.1331  0.4136 -0.5942
 1244TIP3    H1 3696   2.508   3.224   3.298 -0.0076  0.7730 -1.1745
 1244TIP3    H2 3697   2.635   3.216   3.216  0.6487  0.9979 -0.1974
 1245TIP3   OH2 3698   5.733   0.448   1.062  0.0295 -0.4343  0.2419
 1245TIP3    H1 3699   5.694   0.503   0.994  0.8320  1.7166  1.4220
 1245TIP3    H2 3700   5.701   0.360   1.042  2.7102 -0.6241 -4.7829
 1246TIP3   OH2 3701   4.431   5.623   5.141  0.0249  0.6391 -0.0799
 1246TIP3    H1 3702   4.473   5.651   5.060  2.6153  0.0076  0.9503
 1246TIP3    H2 3703   4.346   5.589   5.114  0.2554  1.6934 -2.3396
 1247TIP3   OH2 3704   7.110   2.437   1.864 -0.2386 -0.2886  0.2204
 1247TIP3    H1 3705   7.031   2.396   1.828 -0.2686  0.0090 -0.0654
 1247TIP3    H2 3706   7.080   2.483   1.942 -0.6054  0.8509 -0.5542
 1248TIP3   OH2 3707   6.616   3.108   2.636  0.0861  0.0566  0.1583
 1248TIP3    H1 3708   6.632   3.114   2.542  0.5111 -2.8930 -0.0670
 1248TIP3    H2 3709   6.673   3.174   2.674  1.9783 -0.4757 -1.5495
 1249TIP3   OH2 3710   2.667   6.198   1.282  0.3087 -0.3462  0.0625
 1249TIP3    H1 3711   2.624   6.112   1.288  1.7790 -1.1582 -0.5777
 1249TIP3    H2 3712   2.621   6.252   1.346  0.1080 -1.9434  1.3365
 1250TIP3   OH2 3713   1.889   0.048   5.720 -0.1484 -0.4417  0.2893
 1250TIP3    H1 3714   1.905   0.033   5.626  0.3411 -0.0313  0.3027
 1250TIP3    H2 3715   1.977   0.061   5.757 -0.2445 -1.8115  1.0247
 1251TIP3   OH2 3716   7.117   1.271   5.493 -0.0452 -0.2531 -0.4625
 1251TIP3    H1 3717   7.191   1.211   5.486  0.3216  0.2452 -0.9049
 1251TIP3    H2 3718   7.154   1.353   5.524 -0.6801 -0.4889  0.9880
 1252TIP3   OH2 3719   5.587   0.830   5.243  1.0204  0.2693  0.0842
 1252TIP3    H1 3720   5.562   0.743   5.276 -0.5233  0.1924 -1.1659
 1252TIP3    H2 3721   5.677   0.819   5.212  1.7855 -0.1787  2.2551
 1253TIP3   OH2 3722   2.717   0.457   1.220  0.7765 -0.1039  0.0155
 1253TIP3    H1 3723   2.784   0.401   1.182  0.6571  0.5094 -1.1667
 1253TIP3    H2 3724   2.650   0.465   1.151 -0.3786 -0.4668  1.0515
 1254TIP3   OH2 3725   2.272   2.745   0.364  0.2407  0.0744 -0.2163
 1254TIP3    H1 3726   2.249   2.705   0.280  1.6298  1.7928 -1.4942
 1254TIP3    H2 3727   2.269   2.839   0.347  0.1438  0.4814  1.8018
 1255TIP3   OH2 3728   6.831   1.283   0.681  0.3691  0.2602 -0.1519
 1255TIP3    H1 3729   6.791   1.269   0.767  1.9792  0.3170  0.6232
 1255TIP3    H2 3730   6.885   1.205   0.666  1.0605  0.8095 -0.5609
 1256TIP3   OH2 3731   0.981   6.592   4.118 -0.1208  0.3774  0.3415
 1256TIP3    H1 3732   1.066   6.594   4.162  0.5894  0.9367 -0.9896
 1256TIP3    H2 3733   0.958   6.500   4.114 -0.7409  0.3561  2.7890
 1257TIP3   OH2 3734   6.904   3.742   5.384 -0.1871 -0.0305 -0.2893
 1257TIP3    H1 3735   6.914   3.835   5.363  2.4849 -0.1765 -0.0370
 1257TIP3    H2 3736   6.929   3.696   5.304  0.4240 -0.5313  0.1803
 1258TIP3   OH2 3737   3.587   0.259   0.756  0.6377 -0.2111 -0.3854
 1258TIP3    H1 3738   3.636   0.338   0.778 -1.2748  0.5496  1.5394
 1258TIP3    H2 3739   3.649   0.187   0.770  1.9885  0.8254 -0.7861
 1259TIP3   OH2 3740   5.217   0.329   3.429 -0.3343 -0.4614  0.3812
 1259TIP3    H1 3741   5.260   0.244   3.436 -1.2884 -0.9149  1.0506
 1259TIP3    H2 3742   5.215   0.348   3.336  0.9502 -0.6064  0.3101
 1260TIP3   OH2 3743   1.283   5.571   4.329 -0.4026 -0.5620  0.1417
 1260TIP3    H1 3744   1.346   5.500   4.339 -0.7720 -0.6014  3.1844
 1260TIP3    H2 3745   1.198   5.529   4.344 -0.9780 -0.0757 -1.5552
 1261TIP3   OH2 3746   3.975   1.605   3.140 -0.2575 -0.0994 -0.4679
 1261TIP3    H1 3747   3.882   1.588   3.126 -0.7442  2.6094 -1.0424
 1261TIP3    H2 3748   3.980   1.699   3.156  2.2481 -0.4003  1.0049
 1262TIP3   OH2 3749   3.231   1.222   4.081 -0.3296  0.4599  0.1586
 1262TIP3    H1 3750   3.139   1.241   4.098 -0.5053 -0.5661  0.4001
 1262TIP3    H2 3751   3.274   1.234   4.165 -0.1399  1.4506 -0.0658
 1263TIP3   OH2 3752   5.491   3.148   5.792 -0.1416 -0.4663 -0.5197
 1263TIP3    H1 3753   5.453   3.061   5.799 -0.1722 -0.3232  2.2163
 1263TIP3    H2 3754   5.439   3.192   5.724 -2.6449 -1.3667  0.6971
 1264TIP3   OH2 3755   6.076   2.348   0.638  0.2591 -0.0649  0.0410
 1264TIP3    H1 3756   6.042   2.364   0.725 -0.0321  0.8991 -0.2433
 1264TIP3    H2 3757   6.102   2.256   0.639  0.9557  0.1284  1.3713
 1265TIP3   OH2 3758   3.283   1.461   4.719 -0.1558  0.3602 -0.6714
 1265TIP3    H1 3759   3.372   1.487   4.696 -0.4598  0.1911 -2.1511
 1265TIP3    H2 3760   3.293   1.380   4.768  0.5363  0.6334 -0.3586
 1266TIP3   OH2 3761   4.008   0.949   3.236  0.0067 -0.6028 -0.4207
 1266TIP3    H1 3762   4.038   0.963   3.326 -2.3274  0.7216  0.2124
 1266TIP3    H2 3763   4.011   1.036   3.195  0.1724 -1.0322 -1.3608
 1267TIP3   OH2 3764   0.584   2.427   4.412  0.0027 -0.0161  0.5961
 1267TIP3    H1 3765   0.521   2.375   4.362 -0.7846  1.0332  0.4659
 1267TIP3    H2 3766   0.552   2.424   4.502  1.0077 -1.2840  0.9548
 1268TIP3   OH2 3767   6.518   6.160   3.600 -0.1648 -0.0726 -0.4069
 1268TIP3    H1 3768   6.469   6.078   3.608  0.0433 -0.0468  1.5315
 1268TIP3    H2 3769   6.452   6.228   3.612  0.3325 -0.0380  3.1271
 1269TIP3   OH2 3770   2.014   5.763   1.311 -0.4261 -0.0547 -0.2100
 1269TIP3    H1 3771   2.077   5.702   1.272 -0.3110  0.7078 -1.2679
 1269TIP3    H2 3772   1.947   5.775   1.244 -0.1094  1.4706 -0.3016
 1270TIP3   OH2 3773   5.109   2.480   2.473 -0.1915  0.3633 -0.2010
 1270TIP3    H1 3774   5.181   2.419   2.458 -2.4661 -2.2928 -1.1537
 1270TIP3    H2 3775   5.068   2.450   2.554 -0.9142  1.1020 -0.2762
 1271TIP3   OH2 3776   3.512   1.686   5.064 -0.1496  0.2971 -0.3800
 1271TIP3    H1 3777   3.470   1.723   4.987 -0.3888 -0.5915 -0.6972
 1271TIP3    H2 3778   3.528   1.594   5.041 -1.0165 -0.2167  0.9219
 1272TIP3   OH2 3779   1.813   6.163   0.387 -0.1826  0.3137 -0.4681
 1272TIP3    H1 3780   1.850   6.169   0.474  1.2759 -2.9622 -0.7054
 1272TIP3    H2 3781   1.723   6.133   0.402 -0.3110  0.8782 -0.0816
 1273TIP3   OH2 3782   6.946   4.447   5.162 -0.1641 -0.5510 -0.0761
 1273TIP3    H1 3783   7.036   4.455   5.195  0.0136  2.0055 -0.9375
 1273TIP3    H2 3784   6.892   4.470   5.237  0.0148  0.0646 -0.1282
 1274TIP3   OH2 3785   2.927   5.189   5.470 -0.1965  0.2480 -0.6703
 1274TIP3    H1 3786   2.932   5.108   5.420  1.2834 -0.2135  0.1643
 1274TIP3    H2 3787   2.836   5.219   5.458 -0.7311 -1.4356 -1.1044
 1275TIP3   OH2 3788   6.621   4.310   4.683 -0.8637  0.6438 -0.0571
 1275TIP3    H1 3789   6.600   4.319   4.776 -3.8908  1.9860 -0.7284
 1275TIP3    H2 3790   6.671   4.229   4.677 -0.8526  0.3580  2.6871
 1276TIP3   OH2 3791   3.130   0.171   0.354  0.0792 -0.4174  0.6486
 1276TIP3    H1 3792   3.037   0.153   0.370 -0.4158  0.0542 -1.3860
 1276TIP3    H2 3793   3.143   0.259   0.390 -1.0309  0.6803 -1.4393
 1277TIP3   OH2 3794   4.395   4.248   1.170  0.1759  0.0932 -0.0261
 1277TIP3    H1 3795   4.444   4.192   1.109  0.5862 -1.3207  1.5301
 1277TIP3    H2 3796   4.304   4.242   1.140  0.3227 -0.8630 -0.3208
 1278TIP3   OH2 3797   3.380   2.097   1.615 -0.0146 -0.1913  0.4796
 1278TIP3    H1 3798   3.296   2.124   1.578 -0.1746 -0.8589  0.3426
 1278TIP3    H2 3799   3.386   2.146   1.697  0.0675  0.8466 -0.1251
 1279TIP3   OH2 3800   1.907   0.787   1.980  0.4901 -0.2679 -0.3580
 1279TIP3    H1 3801   1.962   0.804   1.904 -0.0729  0.6510 -0.5727
 1279TIP3    H2 3802   1.880   0.696   1.969 -0.1054  0.0340 -1.6170
 1280TIP3   OH2 3803   4.277   0.630   5.425 -0.5116  0.3749 -0.5002
 1280TIP3    H1 3804   4.279   0.536   5.412  0.1252  0.2460  0.4495
 1280TIP3    H2 3805   4.212   0.644   5.494  0.7705  0.4378  0.7283
 1281TIP3   OH2 3806   1.709   4.171   1.967  0.1630  0.4489 -0.3032
 1281TIP3    H1 3807   1.666   4.144   1.886 -1.0689  1.0446  0.1343
 1281TIP3    H2 3808   1.647   4.229   2.010  1.0820  0.7001  0.7491
 1282TIP3   OH2 3809   6.090   3.681   5.485 -0.3965 -0.1644 -0.2669
 1282TIP3    H1 3810   6.023   3.747   5.502  0.0026  0.0424  0.5704
 1282TIP3    H2 3811   6.059   3.603   5.530 -1.1094 -0.7346 -1.6609
 1283TIP3   OH2 3812   1.067   2.911   3.293 -0.1657 -0.0188 -0.0732
 1283TIP3    H1 3813   0.998   2.851   3.264  0.2002 -0.1345 -0.7369
 1283TIP3    H2 3814   1.095   2.875   3.377  0.6132 -1.2902 -0.8365
 1284TIP3   OH2 3815   0.913   5.957   1.277  0.0893  0.5369  0.0051
 1284TIP3    H1 3816   0.933   5.865   1.294  0.2583  0.7232  0.8899
 1284TIP3    H2 3817   0.986   5.988   1.223  0.9459  0.5819  1.1532
 1285TIP3   OH2 3818   1.235   1.594   3.376  0.4969 -0.0181 -0.2861
 1285TIP3    H1 3819   1.283   1.625   3.300  1.6198 -2.6535 -0.7543
 1285TIP3    H2 3820   1.242   1.498   3.372  0.2852 -0.2766  2.9192
 1286TIP3   OH2 3821   0.667   0.566   1.716 -0.1665 -0.8459 -0.2299
 1286TIP3    H1 3822   0.650   0.582   1.623  2.1651 -0.5477 -0.6662
 1286TIP3    H2 3823   0.724   0.489   1.717 -0.0482 -0.7655  0.9576
 1287TIP3   OH2 3824   6.372   3.730   0.206  0.3376 -1.1096 -0.1822
 1287TIP3    H1 3825   6.310   3.747   0.135 -1.2807 -1.1887  1.1533
 1287TIP3    H2 3826   6.453   3.705   0.161  0.2560  1.4987 -2.0726
 1288TIP3   OH2 3827   4.388   5.052   5.444  0.4112  0.0287  0.1191
 1288TIP3    H1 3828   4.317   5.075   5.504  0.6734 -1.8922  1.2251
 1288TIP3    H2 3829   4.468   5.064   5.494  0.7327 -0.1078 -0.3516
 1289TIP3   OH2 3830   1.796   4.721   1.297 -0.2759 -0.2790  0.5429
 1289TIP3    H1 3831   1.737   4.773   1.242  0.6937  0.1225 -0.1537
 1289TIP3    H2 3832   1.797   4.767   1.381 -0.2726  0.2161  0.2747
 1290TIP3   OH2 3833   6.466   5.035   2.690  0.0087 -0.3174  0.1115
 1290TIP3    H1 3834   6.371   5.034   2.681  0.0558 -2.6069 -0.8764
 1290TIP3    H2 3835   6.499   5.023   2.601  1.1810 -0.4686  0.5388
 1291TIP3   OH2 3836   4.593   4.870   0.422  0.1444 -0.1135 -0.1392
 1291TIP3    H1 3837   4.511   4.919   0.412  1.1904  1.4217 -1.6137
 1291TIP3    H2 3838   4.659   4.937   0.441  1.4236 -1.0652 -1.0658
 1292TIP3   OH2 3839   7.196   6.298   5.059 -0.4096 -0.1852  0.7973
 1292TIP3    H1 3840   7.187   6.269   4.968 -0.8591  0.3770  0.6585
 1292TIP3    H2 3841   7.154   6.229   5.110 -0.2336 -0.4613  0.5707
 1293TIP3   OH2 3842   4.670   1.598   2.702  0.1962  0.1066  0.4586
 1293TIP3    H1 3843   4.749   1.546   2.685  0.0297  0.1395 -0.4335
 1293TIP3    H2 3844   4.598   1.541   2.677  0.0355  1.1011 -1.5830
 1294TIP3   OH2 3845   6.861   3.443   3.293  0.2966  0.1265 -0.4255
 1294TIP3    H1 3846   6.937   3.458   3.237  0.3006  1.0124 -0.2036
 1294TIP3    H2 3847   6.830   3.356   3.269  1.5607 -0.3825 -0.3073
 1295TIP3   OH2 3848   2.117   1.493   3.332 -0.0292  0.5386  0.6310
 1295TIP3    H1 3849   2.107   1.586   3.311 -0.7567  0.5089  0.8042
 1295TIP3    H2 3850   2.202   1.487   3.375  0.2877  1.0262  0.1025
 1296TIP3   OH2 3851   4.084   2.310   5.632  0.0181 -0.3714  0.6730
 1296TIP3    H1 3852   4.073   2.404   5.647  0.4384 -0.3141  0.6536
 1296TIP3    H2 3853   3.996   2.274   5.638 -0.1447  0.0215  0.7041
 1297TIP3   OH2 3854   2.712   3.729   1.788 -0.6315  0.4696 -0.0678
 1297TIP3    H1 3855   2.681   3.733   1.698 -2.4685  0.4133  0.5187
 1297TIP3    H2 3856   2.691   3.816   1.824  1.6690  1.1225 -0.1354
 1298TIP3   OH2 3857   4.841   4.334   4.274 -0.1207  0.6887 -0.1650
 1298TIP3    H1 3858   4.860   4.281   4.352 -2.7621  1.3493  1.0107
 1298TIP3    H2 3859   4.912   4.398   4.272  1.3014 -0.7717  0.2875
 1299TIP3   OH2 3860   0.807   5.411   3.708  0.1939 -0.1171 -0.1574
 1299TIP3    H1 3861   0.806   5.440   3.617 -1.6835  1.2992  0.2445
 1299TIP3    H2 3862   0.889   5.363   3.717  0.9536  0.6491 -2.3011
 1300TIP3   OH2 3863   4.055   4.793   5.300  0.1806 -0.5359  0.1971
 1300TIP3    H1 3864   3.990   4.781   5.369  0.7752  0.3959  0.9521
 1300TIP3    H2 3865   4.066   4.888   5.294 -0.5559 -0.5222 -1.8744
 1301TIP3   OH2 3866   1.261   0.290   5.809 -0.1934 -0.3347 -0.0462
 1301TIP3    H1 3867   1.346   0.312   5.846 -0.8020  0.8227  0.7363
 1301TIP3    H2 3868   1.278   0.277   5.716  0.7908  0.1705  0.0498
 1302TIP3   OH2 3869   3.261   1.652   0.905 -0.3480 -0.2306 -0.3037
 1302TIP3    H1 3870   3.309   1.569   0.898 -2.8940 -1.8537  0.3376
 1302TIP3    H2 3871   3.173   1.627   0.934 -0.5770  2.8779  2.2956
 1303TIP3   OH2 3872   4.878   6.014   0.830  0.0618 -0.2451  0.0431
 1303TIP3    H1 3873   4.903   6.078   0.764  1.6567 -1.8924 -1.0487
 1303TIP3    H2 3874   4.785   6.029   0.845  0.3406  2.1975 -0.2435
 1304TIP3   OH2 3875   2.505   6.643   2.028 -0.6392  0.7196  0.4179
 1304TIP3    H1 3876   2.469   6.605   2.108  1.0349 -0.7006  0.5636
 1304TIP3    H2 3877   2.554   6.720   2.058  0.4086 -0.1009  0.8526
 1305TIP3   OH2 3878   4.283   0.390   5.296  0.5969 -0.1594 -0.3737
 1305TIP3    H1 3879   4.272   0.409   5.203  0.5209  2.0271  0.0203
 1305TIP3    H2 3880   4.369   0.349   5.302  0.6040 -0.3196 -1.4022
 1306TIP3   OH2 3881   6.925   2.001   2.092 -0.6479  0.2772 -0.4925
 1306TIP3    H1 3882   6.932   2.097   2.097 -1.1298  0.3092 -0.4319
 1306TIP3    H2 3883   6.888   1.984   2.006  1.5047  0.0262 -1.4308
 1307TIP3   OH2 3884   5.773   0.044   2.228 -0.3834  0.0503 -0.1920
 1307TIP3    H1 3885   5.718   0.041   2.149 -1.0521  3.7337 -0.0140
 1307TIP3    H2 3886   5.862   0.052   2.195 -0.7539  2.8742 -0.7253
 1308TIP3   OH2 3887   2.682   1.821   0.493 -0.0184  0.2061 -0.2862
 1308TIP3    H1 3888   2.641   1.823   0.580 -0.5841 -0.5966 -0.5249
 1308TIP3    H2 3889   2.634   1.886   0.442 -1.3632 -1.0801 -0.7107
 1309TIP3   OH2 3890   2.731   3.824   2.105 -0.5918 -0.3197 -0.0385
 1309TIP3    H1 3891   2.744   3.864   2.019 -1.3457  1.9144  0.8072
 1309TIP3    H2 3892   2.643   3.851   2.131 -0.4619 -1.1148  1.3375
 1310TIP3   OH2 3893   3.067   6.510   2.604  0.4790  0.5426 -0.0950
 1310TIP3    H1 3894   3.155   6.492   2.571  0.4204 -0.8049  0.4103
 1310TIP3    H2 3895   3.073   6.492   2.698 -0.8592 -1.8139 -0.3882
 1311TIP3   OH2 3896   6.253   5.405   2.396  0.6669 -0.1899 -0.2305
 1311TIP3    H1 3897   6.339   5.364   2.399  0.6352 -0.2042  0.6851
 1311TIP3    H2 3898   6.214   5.386   2.481 -0.2615 -0.2242 -0.6504
 1312TIP3   OH2 3899   2.208   3.549   5.421 -0.1591  0.5004  0.1963
 1312TIP3    H1 3900   2.142   3.501   5.471  0.7512 -0.1183  0.8386
 1312TIP3    H2 3901   2.209   3.506   5.335  1.7054 -1.7533  1.2122
 1313TIP3   OH2 3902   4.821   4.965   0.203  0.4100  0.3644 -0.4667
 1313TIP3    H1 3903   4.757   5.008   0.260 -1.1954 -1.0752 -1.0704
 1313TIP3    H2 3904   4.905   4.974   0.248 -0.3626  1.5358  0.8086
 1314TIP3   OH2 3905   3.769   6.587   5.122 -0.0082 -0.1136 -0.0793
 1314TIP3    H1 3906   3.854   6.628   5.140 -0.2846  0.8144 -0.8114
 1314TIP3    H2 3907   3.708   6.660   5.115 -0.6891 -0.7150 -0.5282
 1315TIP3   OH2 3908   1.164   3.538   2.867  0.5202  0.0146 -0.5065
 1315TIP3    H1 3909   1.120   3.474   2.812 -1.9713  0.8125  0.4193
 1315TIP3    H2 3910   1.146   3.509   2.956  0.2972  1.3927 -0.0884
 1316TIP3   OH2 3911   5.024   4.051   1.140  0.1505  0.7560 -0.4725
 1316TIP3    H1 3912   5.083   3.976   1.143  4.0202  3.3997 -2.6186
 1316TIP3    H2 3913   4.938   4.014   1.163  2.5672 -3.2396  4.1578
 1317TIP3   OH2 3914   1.080   5.181   1.737 -1.1036 -0.3448 -0.1332
 1317TIP3    H1 3915   1.166   5.147   1.712 -0.4282  1.3574 -0.2167
 1317TIP3    H2 3916   1.054   5.126   1.811 -0.4122 -1.5328 -0.7331
 1318TIP3   OH2 3917   0.060   3.137   2.992 -0.5040  0.3029 -0.0264
 1318TIP3    H1 3918   0.016   3.126   3.076 -1.6006  2.2099 -0.2920
 1318TIP3    H2 3919   0.141   3.087   3.000 -1.9218 -2.0064  1.0730
 1319TIP3   OH2 3920   5.877   4.891   3.379  0.1404  0.0726  1.2928
 1319TIP3    H1 3921   5.827   4.836   3.440  2.7535 -2.0894  1.7103
 1319TIP3    H2 3922   5.891   4.835   3.303  0.9774  0.9899  0.7585
 1320TIP3   OH2 3923   6.941   2.271   3.730  0.0752 -0.4473 -0.0903
 1320TIP3    H1 3924   6.963   2.364   3.728  0.8009 -0.6068  0.1393
 1320TIP3    H2 3925   6.851   2.268   3.762  0.4458  0.1128  1.0434
 1321TIP3   OH2 3926   4.256   2.752   1.608 -0.1046 -0.0652  0.3891
 1321TIP3    H1 3927   4.289   2.821   1.666 -0.8022  0.9490 -0.3641
 1321TIP3    H2 3928   4.235   2.679   1.665  3.2010 -0.7099  0.9348
 1322TIP3   OH2 3929   0.319   3.774   3.617  0.4435  0.9090  0.4987
 1322TIP3    H1 3930   0.298   3.830   3.692  1.7592  0.9147  0.8779
 1322TIP3    H2 3931   0.349   3.692   3.656  3.9776  1.8756  0.1266
 1323TIP3   OH2 3932   5.415   5.411   2.093 -0.3436  0.1598  0.5860
 1323TIP3    H1 3933   5.344   5.438   2.035 -0.0095 -0.0332  0.0826
 1323TIP3    H2 3934   5.382   5.333   2.137  0.1448 -0.8699 -0.8277
 1324TIP3   OH2 3935   1.739   6.510   1.038  0.0655 -0.2472  0.6490
 1324TIP3    H1 3936   1.823   6.534   1.077  1.0083 -2.0891 -0.0775
 1324TIP3    H2 3937   1.763   6.455   0.963 -1.7905 -0.9664  0.5274
 1325TIP3   OH2 3938   4.774   1.319   0.688 -0.1828  0.2185  0.1271
 1325TIP3    H1 3939   4.783   1.350   0.778 -2.2418 -0.4695  0.6352
 1325TIP3    H2 3940   4.806   1.391   0.634  1.4995  0.4837  1.3895
 1326TIP3   OH2 3941   6.372   5.863   4.107 -0.1642 -0.0290 -0.0283
 1326TIP3    H1 3942   6.318   5.902   4.176 -1.7919  0.7605 -1.6716
 1326TIP3    H2 3943   6.426   5.935   4.075  0.0084 -0.1964 -0.1154
 1327TIP3   OH2 3944   5.466   1.391   1.359  0.1299 -0.2228  0.1007
 1327TIP3    H1 3945   5.528   1.351   1.298  0.1225 -0.3975  0.2066
 1327TIP3    H2 3946   5.417   1.316   1.395 -1.2879  0.0095 -1.2300
 1328TIP3   OH2 3947   5.204   5.961   0.153  0.0492 -0.5282 -0.1600
 1328TIP3    H1 3948   5.264   6.030   0.128  1.3234 -1.9408 -1.1803
 1328TIP3    H2 3949   5.246   5.918   0.228 -0.6034 -0.3745  0.3042
 1329TIP3   OH2 3950   6.068   0.013   3.530 -0.3086 -0.3328 -0.2427
 1329TIP3    H1 3951   6.064   0.095   3.579 -2.9387 -0.3078 -0.3728
 1329TIP3    H2 3952   6.105   0.038   3.445 -1.6167  0.8555 -0.4922
 1330TIP3   OH2 3953   2.067   1.613   0.521 -0.0407 -0.4717 -0.1991
 1330TIP3    H1 3954   2.058   1.664   0.441  0.4518 -0.4244 -0.2277
 1330TIP3    H2 3955   2.018   1.661   0.587  1.5491  0.8014  0.1195
 1331TIP3   OH2 3956   4.757   2.114   3.033 -0.4783  0.0865 -0.1232
 1331TIP3    H1 3957   4.832   2.119   3.092 -1.1231 -2.6257  1.0826
 1331TIP3    H2 3958   4.684   2.091   3.090 -0.8203 -4.4405 -1.9871
 1332TIP3   OH2 3959   1.734   6.110   4.522 -0.0522  0.5048 -0.6179
 1332TIP3    H1 3960   1.716   6.020   4.547  0.9415 -0.2009 -2.2773
 1332TIP3    H2 3961   1.799   6.140   4.586 -0.5915  0.1644  0.1057
 1333TIP3   OH2 3962   3.053   1.088   2.526 -0.0984 -0.3838 -0.0565
 1333TIP3    H1 3963   3.051   1.116   2.618 -0.8522 -1.4076  0.2435
 1333TIP3    H2 3964   3.010   1.159   2.479  0.2865  0.1468  0.3682
 1334TIP3   OH2 3965   0.207   3.760   5.351  0.0896  0.4126 -0.3354
 1334TIP3    H1 3966   0.293   3.755   5.309 -0.3683 -3.3785 -1.2082
 1334TIP3    H2 3967   0.151   3.804   5.287  0.7124  0.0438 -1.1455
 1335TIP3   OH2 3968   5.770   3.977   1.516  0.2488 -0.1863  0.8598
 1335TIP3    H1 3969   5.719   3.896   1.517  0.8269 -0.5591  0.6261
 1335TIP3    H2 3970   5.748   4.018   1.433 -1.8752  1.1057  1.9600
 1336TIP3   OH2 3971   2.969   4.894   0.798 -0.2583 -0.1929 -0.2750
 1336TIP3    H1 3972   2.900   4.832   0.819 -0.9058  0.3792 -0.6671
 1336TIP3    H2 3973   3.012   4.912   0.881 -1.1663  0.1349  0.1283
 1337TIP3   OH2 3974   4.529   0.288   5.475  0.0613 -0.2954 -0.2456
 1337TIP3    H1 3975   4.544   0.265   5.384  2.2595 -3.8732  0.8133
 1337TIP3    H2 3976   4.600   0.349   5.497  0.4062 -0.5802 -0.5678
 1338TIP3   OH2 3977   1.913   2.477   1.476  0.2959  0.2838  0.1920
 1338TIP3    H1 3978   1.998   2.440   1.499  1.2429  1.6161 -0.9982
 1338TIP3    H2 3979   1.865   2.478   1.559  1.4823 -0.3868  0.9185
 1339TIP3   OH2 3980   0.833   2.783   3.883 -0.2533 -0.2250 -0.1992
 1339TIP3    H1 3981   0.872   2.790   3.970 -0.9021  0.3403  0.0547
 1339TIP3    H2 3982   0.821   2.874   3.854  1.7431 -0.3805 -1.7104
 1340TIP3   OH2 3983   6.862   5.125   3.809  0.2618  0.2145 -0.2516
 1340TIP3    H1 3984   6.838   5.218   3.810  0.2656  0.2203 -0.5089
 1340TIP3    H2 3985   6.782   5.080   3.835  0.2429  0.2882 -0.1818
 1341TIP3   OH2 3986   3.553   5.257   3.019 -0.3417 -0.2797  0.7163
 1341TIP3    H1 3987   3.588   5.289   3.102  2.4069 -1.6037  0.1859
 1341TIP3    H2 3988   3.523   5.335   2.973  0.1362  0.7224  2.0570
 1342TIP3   OH2 3989   4.156   0.956   1.290  0.2632 -0.0354 -0.2275
 1342TIP3    H1 3990   4.086   0.998   1.240  1.4935  1.2941 -0.8960
 1342TIP3    H2 3991   4.144   0.986   1.380 -0.5313 -0.5189 -0.1631
 1343TIP3   OH2 3992   6.923   6.722   2.463 -0.1509 -0.0086  0.5914
 1343TIP3    H1 3993   7.007   6.764   2.443 -0.4762  1.1544  1.5886
 1343TIP3    H2 3994   6.921   6.645   2.406  2.0781 -0.6820  1.3212
 1344TIP3   OH2 3995   6.297   4.687   4.392  0.1774 -0.2825 -0.2040
 1344TIP3    H1 3996   6.220   4.712   4.341 -0.2235  0.5111  0.7748
 1344TIP3    H2 3997   6.268   4.686   4.483  1.2278 -0.3439  0.1538
 1345TIP3   OH2 3998   0.942   5.031   5.807 -0.2927 -0.1715 -0.4892
 1345TIP3    H1 3999   0.933   5.126   5.813 -0.9861 -0.2084 -0.8509
 1345TIP3    H2 4000   1.003   5.017   5.735 -0.8616 -0.0169 -1.0074
 1346TIP3   OH2 4001   3.933   4.922   0.677 -0.1272  0.0399 -0.2633
 1346TIP3    H1 4002   3.849   4.926   0.723 -0.1183 -0.9079 -0.1515
 1346TIP3    H2 4003   3.983   4.855   0.724  0.9310  1.0158  0.0529
 1347TIP3   OH2 4004   6.287   3.908   3.070 -0.1162  0.3267 -0.7162
 1347TIP3    H1 4005   6.261   3.998   3.087  0.9699  0.3033  1.3703
 1347TIP3    H2 4006   6.382   3.907   3.078 -0.0907 -0.9607 -0.8488
 1348TIP3   OH2 4007   0.149   0.161   0.020 -0.0911 -0.8246 -0.4768
 1348TIP3    H1 4008   0.073   0.218   0.030  0.4585 -0.3686  1.9734
 1348TIP3    H2 4009   0.223   0.221   0.017  0.3068 -1.3250 -0.7552
 1349TIP3   OH2 4010   6.815   1.756   4.467  0.1955 -0.4125  0.2347
 1349TIP3    H1 4011   6.725   1.724   4.460 -0.9285  2.2324  1.3782
 1349TIP3    H2 4012   6.859   1.692   4.523 -1.1292 -1.4486  0.1302
 1350TIP3   OH2 4013   7.031   0.946   3.737 -0.5484 -0.1768  0.2794
 1350TIP3    H1 4014   7.081   0.871   3.771 -1.5347 -1.3152 -0.7104
 1350TIP3    H2 4015   7.011   0.922   3.646  1.8196  2.6645 -1.1446
 1351TIP3   OH2 4016   0.788   6.473   3.091  0.0558  0.6438 -0.0769
 1351TIP3    H1 4017   0.790   6.567   3.074 -0.7077  1.0486  1.8636
 1351TIP3    H2 4018   0.876   6.443   3.070  0.2871  1.7713 -0.7894
 1352TIP3   OH2 4019   6.013   4.742   3.675  0.0050 -0.4805  0.0442
 1352TIP3    H1 4020   5.961   4.674   3.718  0.4857 -0.4287  0.7355
 1352TIP3    H2 4021   6.096   4.743   3.724 -0.1987  0.9776  0.4014
 1353TIP3   OH2 4022   3.479   2.884   1.484 -0.2782  0.0837 -0.1304
 1353TIP3    H1 4023   3.454   2.899   1.575 -1.2855 -0.5723 -0.2788
 1353TIP3    H2 4024   3.446   2.796   1.464  1.3206 -0.4217 -0.6668
 1354TIP3   OH2 4025   7.187   3.735   4.037  0.6188  0.2330 -0.4089
 1354TIP3    H1 4026   7.154   3.776   3.957  1.2856 -0.5103 -1.0844
 1354TIP3    H2 4027   7.157   3.792   4.108 -0.9227  0.3180 -1.0943
 1355TIP3   OH2 4028   6.479   5.423   4.551 -0.9245 -0.4384 -0.1617
 1355TIP3    H1 4029   6.560   5.451   4.595 -1.4136  0.1814  0.3672
 1355TIP3    H2 4030   6.504   5.343   4.504 -0.0232 -0.2995  0.0480
 1356TIP3   OH2 4031   1.848   3.587   0.113 -0.0590  0.2775 -0.7354
 1356TIP3    H1 4032   1.934   3.595   0.072  2.0320  2.3513  3.4442
 1356TIP3    H2 4033   1.858   3.627   0.199 -4.4953 -1.9696  1.1778
 1357TIP3   OH2 4034   3.558   6.088   0.155  0.0872  0.5182 -0.3204
 1357TIP3    H1 4035   3.479   6.139   0.176 -0.1701  0.2388 -0.5977
 1357TIP3    H2 4036   3.605   6.142   0.092 -0.8026 -0.1213 -1.5772
 1358TIP3   OH2 4037   2.152   5.249   4.757  0.0810 -0.2015 -0.7727
 1358TIP3    H1 4038   2.182   5.226   4.846 -0.8003 -0.7381 -0.6070
 1358TIP3    H2 4039   2.115   5.336   4.766 -0.9298 -0.6596 -0.3900
 1359TIP3   OH2 4040   5.168   1.845   4.541  0.6047  0.3978  0.0520
 1359TIP3    H1 4041   5.162   1.771   4.480  0.0981  0.9602 -0.5951
 1359TIP3    H2 4042   5.254   1.835   4.582  0.1340 -1.1391  0.7532
 1360TIP3   OH2 4043   2.486   0.036   1.531  0.1165 -0.0886  0.3264
 1360TIP3    H1 4044   2.510   0.024   1.439  1.1249 -1.7399  0.7532
 1360TIP3    H2 4045   2.486   0.131   1.544  1.4283  0.1283 -1.0137
 1361TIP3   OH2 4046   4.768   5.150   0.833 -0.1682 -0.3885 -0.4121
 1361TIP3    H1 4047   4.828   5.155   0.908 -1.3269 -0.0798  0.5214
 1361TIP3    H2 4048   4.682   5.167   0.870 -0.7155  0.2994 -1.9164
 1362TIP3   OH2 4049   5.280   2.846   4.945 -0.1197 -0.5115  0.3639
 1362TIP3    H1 4050   5.253   2.872   5.033 -0.3546 -0.6205  0.3245
 1362TIP3    H2 4051   5.371   2.819   4.955  1.0356  2.7384 -0.0409
 1363TIP3   OH2 4052   3.585   2.752   5.063 -0.0170  0.6649 -0.2502
 1363TIP3    H1 4053   3.630   2.817   5.117  1.3420  1.4585 -2.2058
 1363TIP3    H2 4054   3.572   2.796   4.979  2.4916 -2.0357 -2.2433
 1364TIP3   OH2 4055   1.930   5.343   2.412 -0.0428  0.5698  0.1676
 1364TIP3    H1 4056   1.919   5.248   2.406 -2.6687  0.7348  1.1074
 1364TIP3    H2 4057   2.015   5.360   2.371 -0.3021 -1.9824 -1.6847
 1365TIP3   OH2 4058   3.221   2.909   2.494  0.3332  0.2433  0.3298
 1365TIP3    H1 4059   3.196   2.886   2.584  0.1672  0.1750  0.2680
 1365TIP3    H2 4060   3.233   3.004   2.496  1.2272  0.1242  0.6338
 1366TIP3   OH2 4061   4.626   6.757   5.470  0.0709 -0.2028 -0.0655
 1366TIP3    H1 4062   4.651   6.849   5.474  0.2788 -0.2892  0.7766
 1366TIP3    H2 4063   4.656   6.720   5.553 -0.1997 -0.9840 -0.3036
 1367TIP3   OH2 4064   0.995   3.471   1.302 -0.0652 -0.2569 -0.1379
 1367TIP3    H1 4065   1.031   3.387   1.275  2.4918  0.8395 -0.4181
 1367TIP3    H2 4066   0.960   3.509   1.221 -1.5639 -1.1491  0.0550
 1368TIP3   OH2 4067   6.427   0.364   5.483  0.4310  0.5129 -1.2164
 1368TIP3    H1 4068   6.460   0.362   5.393  2.8380  3.1375 -0.5303
 1368TIP3    H2 4069   6.397   0.454   5.496 -0.6224 -0.0233  0.4085
 1369TIP3   OH2 4070   5.345   2.108   1.200 -0.0342 -0.2302  0.6543
 1369TIP3    H1 4071   5.269   2.165   1.215  0.5981  1.1710 -1.1566
 1369TIP3    H2 4072   5.311   2.038   1.144 -0.0676  0.2743  0.0282
 1370TIP3   OH2 4073   5.428   2.877   5.815 -0.4289  0.3240  0.1986
 1370TIP3    H1 4074   5.457   2.812   5.751 -0.2078 -1.1135  1.6968
 1370TIP3    H2 4075   5.363   2.831   5.868  0.0741  1.1790  1.5854
 1371TIP3   OH2 4076   6.670   3.922   4.244  0.1664 -0.1842  0.0170
 1371TIP3    H1 4077   6.650   3.998   4.298  0.5983  1.8258 -2.4609
 1371TIP3    H2 4078   6.693   3.853   4.307 -1.2567  1.3655  2.4034
 1372TIP3   OH2 4079   2.739   5.022   3.114  0.4232 -0.5872 -0.2365
 1372TIP3    H1 4080   2.833   5.025   3.134  0.1257  0.2437  1.1284
 1372TIP3    H2 4081   2.723   4.932   3.086  1.2773 -1.2638  1.3731
 1373TIP3   OH2 4082   6.753   3.601   5.003  0.0814 -0.0836  0.1610
 1373TIP3    H1 4083   6.747   3.537   5.073 -0.1012 -1.7920 -1.3318
 1373TIP3    H2 4084   6.814   3.562   4.940  1.7502  2.2528  0.1942
 1374TIP3   OH2 4085   0.416   4.453   4.237 -0.7214  0.0704 -0.4840
 1374TIP3    H1 4086   0.416   4.543   4.269 -0.6719  0.2132 -0.8887
 1374TIP3    H2 4087   0.415   4.461   4.142 -0.8887 -0.3573 -0.5187
 1375TIP3   OH2 4088   3.455   6.117   2.544  0.0706  0.3282 -0.3196
 1375TIP3    H1 4089   3.407   6.073   2.614  1.3592 -0.0227  0.3782
 1375TIP3    H2 4090   3.512   6.180   2.590  0.4131  0.5952 -1.0982
 1376TIP3   OH2 4091   1.121   0.670   2.917 -0.0231  0.3933 -0.5696
 1376TIP3    H1 4092   1.058   0.673   2.989  1.2130 -0.1738  0.5826
 1376TIP3    H2 4093   1.206   0.682   2.960  0.7907 -0.5690 -1.8517
 1377TIP3   OH2 4094   1.692   1.679   0.399  0.4007  0.0856  0.2463
 1377TIP3    H1 4095   1.762   1.728   0.356 -0.3001  0.3478 -0.6019
 1377TIP3    H2 4096   1.677   1.726   0.481  0.5789  0.5618  0.0077
 1378TIP3   OH2 4097   6.923   2.920   4.502 -0.1795  0.3392  0.5555
 1378TIP3    H1 4098   6.993   2.932   4.565 -0.5279 -1.0906  1.2681
 1378TIP3    H2 4099   6.939   2.833   4.465 -1.4058  0.0948  0.5415
 1379TIP3   OH2 4100   3.988   2.956   4.164  0.0669 -0.9503 -0.2328
 1379TIP3    H1 4101   4.038   2.876   4.179 -0.3223 -1.0194  0.7891
 1379TIP3    H2 4102   3.998   3.006   4.245  2.1712  1.1027 -1.6539
 1380TIP3   OH2 4103   4.703   1.484   5.413  0.2162 -0.2498  0.0831
 1380TIP3    H1 4104   4.709   1.411   5.474  1.3290 -1.3298 -1.2555
 1380TIP3    H2 4105   4.614   1.518   5.424 -0.2035 -1.5775  0.9671
 1381TIP3   OH2 4106   5.742   4.576   2.117 -0.3550  0.1116  0.1773
 1381TIP3    H1 4107   5.729   4.606   2.027 -0.7652  0.8581  0.4707
 1381TIP3    H2 4108   5.657   4.540   2.143 -0.2013 -0.2193  0.2270
 1382TIP3   OH2 4109   1.572   2.919   1.102  0.1728 -0.1918 -0.3597
 1382TIP3    H1 4110   1.665   2.895   1.097 -0.3349 -2.1165 -2.2962
 1382TIP3    H2 4111   1.534   2.882   1.022 -2.2072  0.9064  0.1793
 1383TIP3   OH2 4112   0.678   4.237   5.791 -0.4961  0.3429 -0.2476
 1383TIP3    H1 4113   0.646   4.327   5.784  0.5192  0.9207  1.9145
 1383TIP3    H2 4114   0.686   4.221   5.885  1.9490 -1.0471 -0.6086
 1384TIP3   OH2 4115   2.243   6.089   1.966  0.2186 -0.4558 -0.3633
 1384TIP3    H1 4116   2.221   6.033   1.892  0.6486 -0.4907 -0.4693
 1384TIP3    H2 4117   2.337   6.075   1.979 -0.1187 -1.5032  1.0712
 1385TIP3   OH2 4118   4.108   4.544   5.175 -0.1718 -0.0559  0.0044
 1385TIP3    H1 4119   4.122   4.613   5.241 -0.1199  0.9289 -1.0080
 1385TIP3    H2 4120   4.060   4.588   5.105 -2.4924 -1.7015  0.4494
 1386TIP3   OH2 4121   3.592   5.749   0.503 -0.2082 -0.2973 -0.0732
 1386TIP3    H1 4122   3.626   5.659   0.497  1.7848  0.4163 -0.1943
 1386TIP3    H2 4123   3.616   5.789   0.419  0.7343  0.9012  0.7330
 1387TIP3   OH2 4124   1.951   6.586   1.197 -0.2552  0.1538  0.4435
 1387TIP3    H1 4125   1.954   6.595   1.293  0.3003  0.9357  0.3573
 1387TIP3    H2 4126   2.039   6.558   1.172 -0.7702 -1.4230  0.2738
 1388TIP3   OH2 4127   0.771   3.985   2.210 -0.4875  0.2049 -0.0874
 1388TIP3    H1 4128   0.789   3.891   2.215  0.2890  0.3765  0.4990
 1388TIP3    H2 4129   0.676   3.992   2.219 -0.6508 -0.5811 -1.0644
 1389TIP3   OH2 4130   5.190   0.962   1.141 -0.0124 -0.1945  0.1152
 1389TIP3    H1 4131   5.230   0.876   1.156  0.1710 -0.5598 -2.0608
 1389TIP3    H2 4132   5.260   1.015   1.104 -0.9885 -0.3214 -2.1295
 1390TIP3   OH2 4133   0.492   5.394   0.868 -0.4053 -0.2477  0.4207
 1390TIP3    H1 4134   0.437   5.463   0.906 -0.9574 -0.6978  0.4425
 1390TIP3    H2 4135   0.468   5.315   0.917  0.7154 -0.3270  0.8636
 1391TIP3   OH2 4136   1.276   0.881   0.805  0.6915  0.3741  0.1471
 1391TIP3    H1 4137   1.243   0.958   0.850 -0.3375 -0.1404  0.3072
 1391TIP3    H2 4138   1.280   0.813   0.872 -1.9076 -0.7183 -0.6456
 1392TIP3   OH2 4139   6.173   4.068   1.317  0.3117  0.4028 -0.6861
 1392TIP3    H1 4140   6.262   4.095   1.295 -0.0323  1.2654 -1.0543
 1392TIP3    H2 4141   6.175   3.972   1.312  1.1084  0.4388 -1.1078
 1393TIP3   OH2 4142   2.214   3.569   2.330 -0.5718  0.0352  0.1710
 1393TIP3    H1 4143   2.123   3.552   2.350 -1.4308  1.2791 -2.2687
 1393TIP3    H2 4144   2.253   3.482   2.319 -1.1082 -0.5457  2.3040
 1394TIP3   OH2 4145   6.948   6.283   4.105 -0.3471  0.4043  0.0995
 1394TIP3    H1 4146   6.887   6.353   4.084 -0.1800  0.8691  1.0972
 1394TIP3    H2 4147   7.001   6.272   4.026  0.3324  2.1476  0.2761
 1395TIP3   OH2 4148   1.174   1.081   5.893  0.1005  0.4604  0.6983
 1395TIP3    H1 4149   1.199   0.990   5.875 -0.0380  0.7748 -1.3231
 1395TIP3    H2 4150   1.090   1.092   5.848  0.1562  1.6163  0.8601
 1396TIP3   OH2 4151   0.679   3.695   5.377  0.6817  0.0038 -0.2508
 1396TIP3    H1 4152   0.756   3.674   5.429  2.6586  1.3481 -2.4405
 1396TIP3    H2 4153   0.671   3.623   5.314  1.1796  0.6358 -1.0638
 1397TIP3   OH2 4154   2.006   3.216   3.137 -0.1091 -0.0769  0.2960
 1397TIP3    H1 4155   1.919   3.251   3.115 -0.2414  0.2600  1.2740
 1397TIP3    H2 4156   2.064   3.292   3.133  0.1153 -0.2703 -0.1930
 1398TIP3   OH2 4157   0.149   3.518   3.997 -0.0739  0.4279  0.1147
 1398TIP3    H1 4158   0.075   3.473   4.038  0.3112 -1.0424 -0.7299
 1398TIP3    H2 4159   0.118   3.607   3.983 -1.3982  0.0545  0.5235
 1399TIP3   OH2 4160   3.088   4.351   3.457 -0.4829  0.5490  0.0957
 1399TIP3    H1 4161   3.183   4.366   3.459 -0.4349  0.2708 -0.0149
 1399TIP3    H2 4162   3.077   4.283   3.391 -0.9171  1.6903 -1.0505
 1400TIP3   OH2 4163   4.570   4.600   4.784  0.1847  0.0589  0.0918
 1400TIP3    H1 4164   4.487   4.581   4.828  0.4691 -0.9077  0.2404
 1400TIP3    H2 4165   4.545   4.637   4.700 -0.4399 -1.1231 -0.2689
 1401TIP3   OH2 4166   6.232   0.648   1.884  0.1296  0.3432  0.1514
 1401TIP3    H1 4167   6.225   0.629   1.978 -0.1232  1.1637  0.3093
 1401TIP3    H2 4168   6.326   0.645   1.866  0.2323  0.8555  0.5813
 1402TIP3   OH2 4169   0.975   6.411   5.776 -0.1808  0.3763  0.2444
 1402TIP3    H1 4170   1.029   6.344   5.734  0.3232  1.4026 -0.8076
 1402TIP3    H2 4171   1.021   6.431   5.858 -1.5279 -2.1208  1.7333
 1403TIP3   OH2 4172   6.709   4.797   5.606 -0.6278 -0.1100  0.1048
 1403TIP3    H1 4173   6.656   4.870   5.576 -2.2981 -0.7728  1.2627
 1403TIP3    H2 4174   6.734   4.751   5.527  1.5195  2.3248 -0.7729
 1404TIP3   OH2 4175   3.847   6.460   4.562 -0.0013  0.1585 -0.1846
 1404TIP3    H1 4176   3.857   6.523   4.490 -0.1459  0.0396 -0.3104
 1404TIP3    H2 4177   3.827   6.513   4.639 -0.6148  0.2357 -0.3874
 1405TIP3   OH2 4178   0.025   2.647   2.663 -0.2179  0.9627 -0.1516
 1405TIP3    H1 4179   0.111   2.687   2.675 -0.8504  2.4446 -0.4391
 1405TIP3    H2 4180   0.038   2.584   2.592  0.7024  0.9239  0.0376
 1406TIP3   OH2 4181   1.012   6.130   3.198 -0.3468  0.6115  0.5678
 1406TIP3    H1 4182   1.003   6.139   3.103 -0.2192  2.4236  0.6905
 1406TIP3    H2 4183   1.095   6.172   3.218 -0.6518  0.7787  1.5430
 1407TIP3   OH2 4184   5.486   1.667   1.334 -0.1721 -0.2910  0.2836
 1407TIP3    H1 4185   5.524   1.683   1.420  1.6817 -1.6613 -0.2083
 1407TIP3    H2 4186   5.497   1.573   1.319  0.5122  0.0564 -1.8394
 1408TIP3   OH2 4187   6.847   4.944   3.252  0.1254 -0.0683 -0.3647
 1408TIP3    H1 4188   6.849   4.854   3.219 -0.2524 -0.0631 -0.4046
 1408TIP3    H2 4189   6.909   4.944   3.325  0.1247 -0.3626 -0.3647
 1409TIP3   OH2 4190   2.656   5.172   1.587  0.0911 -0.4926  0.1962
 1409TIP3    H1 4191   2.626   5.207   1.671  0.9151  0.4321  0.1137
 1409TIP3    H2 4192   2.602   5.216   1.521  1.0743  0.5995  0.0977
 1410TIP3   OH2 4193   0.733   5.252   4.064  0.2745  0.0501 -0.4757
 1410TIP3    H1 4194   0.775   5.338   4.062 -1.5120  0.9930 -2.2037
 1410TIP3    H2 4195   0.805   5.190   4.056  1.6326  1.3390  0.9351
 1411TIP3   OH2 4196   1.568   2.124   1.396 -0.5003 -0.0715  0.5773
 1411TIP3    H1 4197   1.584   2.212   1.363  0.4542  0.1329  1.5187
 1411TIP3    H2 4198   1.655   2.084   1.399 -0.7761 -0.6323  1.2830
 1412TIP3   OH2 4199   2.145   5.546   5.458  0.4275 -0.5685 -0.2833
 1412TIP3    H1 4200   2.090   5.478   5.496 -0.9994  1.4891  1.5403
 1412TIP3    H2 4201   2.159   5.609   5.528  2.8288  0.4044 -1.5020
 1413TIP3   OH2 4202   1.115   6.222   4.560 -0.3539  0.1782 -0.1750
 1413TIP3    H1 4203   1.069   6.289   4.510 -0.6266  0.5546  0.5562
 1413TIP3    H2 4204   1.062   6.212   4.640  0.3432 -0.0393  0.2644
 1414TIP3   OH2 4205   4.490   6.239   0.127 -0.4346 -0.4706  0.1834
 1414TIP3    H1 4206   4.506   6.145   0.120 -0.3426 -0.4181 -0.3195
 1414TIP3    H2 4207   4.577   6.278   0.124 -0.3578 -0.4389  1.7551
 1415TIP3   OH2 4208   7.137   0.042   4.601  0.3210  0.1242 -0.0288
 1415TIP3    H1 4209   7.169   0.084   4.681  1.2928 -0.8706  0.1313
 1415TIP3    H2 4210   7.081  -0.029   4.633  0.8882 -0.4159 -0.2048
 1416TIP3   OH2 4211   2.514   3.269   0.132 -0.2216 -0.0517 -0.1287
 1416TIP3    H1 4212   2.583   3.212   0.164 -0.6794  0.0057  0.9950
 1416TIP3    H2 4213   2.502   3.334   0.201 -0.7596  0.4824 -0.7152
 1417TIP3   OH2 4214   2.744   0.965   5.831  0.2669 -0.6258 -0.2520
 1417TIP3    H1 4215   2.711   1.028   5.894  0.1022  0.9669 -1.8381
 1417TIP3    H2 4216   2.723   0.879   5.868 -3.9721  0.2173 -0.2028
 1418TIP3   OH2 4217   0.245   1.546   3.968 -0.1472 -0.3866  0.2291
 1418TIP3    H1 4218   0.178   1.478   3.960  0.7382 -1.2988  0.2192
 1418TIP3    H2 4219   0.325   1.504   3.935  0.8420  0.0088  1.9497
 1419TIP3   OH2 4220   5.692   2.030   2.367 -0.1617 -0.1265 -0.3436
 1419TIP3    H1 4221   5.635   1.981   2.426  1.3267 -0.6104  0.7533
 1419TIP3    H2 4222   5.774   2.040   2.415  0.5723  0.8762 -1.7160
 1420TIP3   OH2 4223   3.030   1.258   1.290  0.3893 -0.2657  1.0426
 1420TIP3    H1 4224   3.096   1.202   1.330 -1.2915 -1.2346  2.6794
 1420TIP3    H2 4225   2.955   1.200   1.277 -0.4532  0.9858  0.1237
 1421TIP3   OH2 4226   1.369   1.105   2.837 -0.2107  0.1141  0.2387
 1421TIP3    H1 4227   1.286   1.061   2.855  0.0005 -1.1441 -1.6055
 1421TIP3    H2 4228   1.427   1.035   2.806  0.9336  1.2919 -0.3549
 1422TIP3   OH2 4229   4.286   1.082   3.294  0.1919 -0.3335 -0.1134
 1422TIP3    H1 4230   4.341   1.090   3.372 -2.0393 -1.7304  1.7512
 1422TIP3    H2 4231   4.308   0.995   3.259 -0.5300 -0.7448  0.4295
 1423TIP3   OH2 4232   6.661   0.528   2.875  0.3493  0.2158  0.2317
 1423TIP3    H1 4233   6.686   0.559   2.962  0.5541 -1.9354  1.0075
 1423TIP3    H2 4234   6.743   0.500   2.834  0.1301  0.2493 -0.2469
 1424TIP3   OH2 4235   6.521   0.837   5.045 -0.3254  0.4913  0.6342
 1424TIP3    H1 4236   6.523   0.913   5.103 -0.7007  0.9136  0.1056
 1424TIP3    H2 4237   6.463   0.775   5.087 -2.4366  1.6847 -0.3415
 1425TIP3   OH2 4238   2.835   6.063   0.178  0.1384  0.2759 -0.2394
 1425TIP3    H1 4239   2.761   6.071   0.118 -0.2049 -1.4325 -0.0904
 1425TIP3    H2 4240   2.796   6.071   0.265  0.2769  0.4043 -0.1903
 1426TIP3   OH2 4241   0.272   6.359   0.611  0.8079 -0.2743  0.1333
 1426TIP3    H1 4242   0.348   6.404   0.646  1.5096 -0.7572 -0.7272
 1426TIP3    H2 4243   0.204   6.426   0.605  0.8873 -0.0113  1.6701
 1427TIP3   OH2 4244   0.053   3.442   0.448  0.2254 -0.0546 -1.2007
 1427TIP3    H1 4245   0.058   3.416   0.357 -0.1937 -0.3768 -1.1320
 1427TIP3    H2 4246  -0.006   3.378   0.489  1.1900 -0.5140 -0.4930
 1428TIP3   OH2 4247   4.097   4.759   0.338  0.0840  0.3649 -0.5313
 1428TIP3    H1 4248   4.063   4.842   0.302 -0.6138 -0.1405 -1.0678
 1428TIP3    H2 4249   4.172   4.739   0.282  0.2733  0.6398 -0.3829
 1429TIP3   OH2 4250   2.183   4.044   2.936  0.8982  0.1763  0.2185
 1429TIP3    H1 4251   2.139   4.097   3.003 -2.1173 -2.4079  0.5201
 1429TIP3    H2 4252   2.256   4.003   2.982  1.9548  2.2751  0.5221
 1430TIP3   OH2 4253   7.063   2.892   0.530 -0.2154 -0.0682 -0.2650
 1430TIP3    H1 4254   7.013   2.933   0.600 -0.8263 -0.3561 -0.5270
 1430TIP3    H2 4255   7.155   2.905   0.555 -0.4046  0.7986  0.0292
 1431TIP3   OH2 4256   6.469   1.082   3.568  0.2265  0.1947 -0.4019
 1431TIP3    H1 4257   6.458   1.015   3.636  0.8675 -0.5902 -1.0572
 1431TIP3    H2 4258   6.487   1.162   3.616  1.1777 -0.4539  0.3509
 1432TIP3   OH2 4259   3.934   0.128   0.485 -0.3106  0.2144 -0.2049
 1432TIP3    H1 4260   3.872   0.072   0.438 -0.2986  0.8897 -1.0578
 1432TIP3    H2 4261   3.890   0.214   0.487  0.2367  0.4914 -0.0686
 1433TIP3   OH2 4262   6.608   2.065   2.150  0.7370  0.2434 -0.7181
 1433TIP3    H1 4263   6.621   2.126   2.077  0.1869  1.3005  0.0583
 1433TIP3    H2 4264   6.546   2.000   2.116  1.2900  0.1232 -1.5298
 1434TIP3   OH2 4265   5.721   6.112   5.667 -0.1859 -0.1293 -0.5158
 1434TIP3    H1 4266   5.783   6.080   5.732 -1.1052 -0.7455  0.0841
 1434TIP3    H2 4267   5.668   6.036   5.644  0.3331 -0.0161 -2.2690
 1435TIP3   OH2 4268   1.149   2.726   3.515 -0.2566 -0.1856  0.2788
 1435TIP3    H1 4269   1.070   2.685   3.551  0.8792 -1.8416  1.0095
 1435TIP3    H2 4270   1.219   2.664   3.535  1.4076  1.6983  0.5044
 1436TIP3   OH2 4271   0.571   5.883   4.358  0.2443 -0.8155  0.0617
 1436TIP3    H1 4272   0.493   5.830   4.342 -1.4800  1.5552  0.0393
 1436TIP3    H2 4273   0.621   5.877   4.276 -1.0409 -0.6453 -0.7755
 1437TIP3   OH2 4274   1.154   5.087   2.531 -0.3546 -0.8039 -0.3653
 1437TIP3    H1 4275   1.062   5.113   2.520  0.0317  1.4432  1.1517
 1437TIP3    H2 4276   1.198   5.123   2.455 -0.2683  0.8452  0.4250
 1438TIP3   OH2 4277   2.196   6.563   1.023 -0.0745 -0.1806  0.1528
 1438TIP3    H1 4278   2.152   6.534   0.943 -1.3357  3.4071 -0.6034
 1438TIP3    H2 4279   2.263   6.624   0.992  1.1795 -0.6704  1.7511
 1439TIP3   OH2 4280   0.978   5.820   3.173  0.2757  0.3639 -0.5025
 1439TIP3    H1 4281   1.062   5.821   3.220  0.5674 -1.6247 -0.8795
 1439TIP3    H2 4282   0.920   5.872   3.228  0.9453 -0.8300  1.4746
 1440TIP3   OH2 4283   3.033   6.099   2.049 -0.3018 -0.1418  0.2405
 1440TIP3    H1 4284   2.940   6.121   2.053 -0.8347 -2.0247 -0.5968
 1440TIP3    H2 4285   3.047   6.036   2.120  0.1293 -0.4814 -0.1337
 1441TIP3   OH2 4286   0.385   0.483   5.107  0.7651 -0.3818  0.3984
 1441TIP3    H1 4287   0.323   0.555   5.095  1.2876 -0.2017 -1.7338
 1441TIP3    H2 4288   0.452   0.518   5.166  0.5384  0.5778  0.1080
 1442TIP3   OH2 4289   4.266   2.221   1.841 -0.2599 -0.1787  0.3002
 1442TIP3    H1 4290   4.201   2.222   1.771  1.5294 -2.5215 -1.5944
 1442TIP3    H2 4291   4.217   2.201   1.920 -2.0708  0.1518 -0.7000
 1443TIP3   OH2 4292   0.826   4.826   2.817 -0.2565  0.5988  0.0139
 1443TIP3    H1 4293   0.784   4.764   2.758 -0.7465  0.9307  0.0124
 1443TIP3    H2 4294   0.759   4.892   2.835  1.0248  2.6228 -2.0598
 1444TIP3   OH2 4295   6.223   6.643   2.460  0.2469 -0.0819 -0.2864
 1444TIP3    H1 4296   6.246   6.718   2.405 -1.3297 -0.1051 -1.0250
 1444TIP3    H2 4297   6.233   6.675   2.550  0.3814  0.7594 -0.5918
 1445TIP3   OH2 4298   1.054   0.145   5.210  0.0645 -0.7634  0.0377
 1445TIP3    H1 4299   1.002   0.131   5.290 -2.9065  0.0340 -1.5948
 1445TIP3    H2 4300   0.989   0.169   5.144  2.1604 -2.7969 -3.0283
 1446TIP3   OH2 4301   0.144   5.043   0.359 -0.1297 -0.1098  0.2356
 1446TIP3    H1 4302   0.077   4.994   0.311  1.3529 -3.1300  0.9349
 1446TIP3    H2 4303   0.108   5.054   0.447 -0.8157  0.8749 -0.1539
 1447TIP3   OH2 4304   3.296   3.692   5.842 -0.0388 -0.3513 -0.5976
 1447TIP3    H1 4305   3.329   3.632   5.909 -0.4495 -1.5464 -1.4388
 1447TIP3    H2 4306   3.328   3.778   5.870  2.2720 -1.1897 -0.3848
 1448TIP3   OH2 4307   2.446   2.851   4.384 -0.1885  0.7049  0.5354
 1448TIP3    H1 4308   2.441   2.936   4.341 -0.3144 -0.3257 -1.6011
 1448TIP3    H2 4309   2.533   2.848   4.424  0.1058  1.5208 -0.0409
 1449TIP3   OH2 4310   0.910   2.069   2.709 -0.5046 -0.4270 -0.1468
 1449TIP3    H1 4311   0.973   2.007   2.747 -1.2172  0.4321  2.6457
 1449TIP3    H2 4312   0.943   2.085   2.621  1.5157 -2.2724  0.1885
 1450TIP3   OH2 4313   3.601   5.101   0.280 -0.5807 -0.0475  0.2631
 1450TIP3    H1 4314   3.554   5.025   0.246 -2.2722  1.4118 -0.8505
 1450TIP3    H2 4315   3.634   5.072   0.365  0.5382 -2.6217 -0.9394
 1451TIP3   OH2 4316   0.903   0.886   1.217  0.1418 -0.1098 -0.0205
 1451TIP3    H1 4317   0.954   0.921   1.144  0.0679  0.9635  0.4202
 1451TIP3    H2 4318   0.848   0.818   1.177  1.4065 -0.8162 -0.6188
 1452TIP3   OH2 4319   1.849   2.232   0.769  0.2239  0.1394  0.6531
 1452TIP3    H1 4320   1.764   2.252   0.810  0.1770  0.0246  0.6112
 1452TIP3    H2 4321   1.903   2.202   0.841 -0.0542 -0.6795  0.5252
 1453TIP3   OH2 4322   2.283   1.504   4.839  0.2202 -0.0980 -0.1655
 1453TIP3    H1 4323   2.216   1.570   4.821  0.3926  0.3589  0.7672
 1453TIP3    H2 4324   2.287   1.450   4.760 -1.7001 -0.5396  0.0014
 1454TIP3   OH2 4325   7.091   3.697   0.508 -0.0106  0.0550  0.1328
 1454TIP3    H1 4326   7.077   3.619   0.563 -0.0807  0.4040  0.6203
 1454TIP3    H2 4327   7.141   3.757   0.563 -1.2031  0.9361  0.3077
 1455TIP3   OH2 4328   4.517   1.160   3.837  0.2919  0.0464 -0.4670
 1455TIP3    H1 4329   4.518   1.073   3.877  2.6460 -1.0294 -2.5456
 1455TIP3    H2 4330   4.608   1.190   3.842 -0.0800  1.5144 -1.5292
 1456TIP3   OH2 4331   3.055   2.669   3.506 -0.4424  0.7870 -0.2821
 1456TIP3    H1 4332   3.111   2.746   3.492  0.4098  0.4669  1.1529
 1456TIP3    H2 4333   3.113   2.594   3.493 -0.7559  0.4277  0.3183
 1457TIP3   OH2 4334   1.444   1.862   3.368  0.2255 -0.3832 -0.4867
 1457TIP3    H1 4335   1.410   1.781   3.329  0.6120 -0.3979 -0.7974
 1457TIP3    H2 4336   1.447   1.843   3.462 -2.5504  0.3152 -0.1731
 1458TIP3   OH2 4337   3.977   5.224   5.549 -0.3922  0.3733 -0.0934
 1458TIP3    H1 4338   4.000   5.281   5.475  0.9844  0.2906  0.2328
 1458TIP3    H2 4339   3.950   5.142   5.509  0.6616  0.2169 -0.5243
 1459TIP3   OH2 4340   6.250   4.174   3.146  0.1483  0.2460 -0.1363
 1459TIP3    H1 4341   6.245   4.262   3.109  0.9712  0.5520  0.4541
 1459TIP3    H2 4342   6.273   4.188   3.238  2.3643 -0.6575 -0.4965
 1460TIP3   OH2 4343   3.984   5.532   5.044 -0.2175 -0.2978  0.2801
 1460TIP3    H1 4344   3.992   5.438   5.026  1.2695 -0.0121 -0.7124
 1460TIP3    H2 4345   3.933   5.537   5.125  0.0550 -1.9777  0.5879
 1461TIP3   OH2 4346   4.969   0.006   1.565  0.2429 -0.1966  0.3645
 1461TIP3    H1 4347   5.039   0.071   1.567 -0.4515  0.5864 -0.1664
 1461TIP3    H2 4348   4.945  -0.002   1.472  1.2658 -2.2703  0.2175
 1462TIP3   OH2 4349   0.112   2.235   2.560 -0.2657 -0.0759 -0.2724
 1462TIP3    H1 4350   0.186   2.179   2.587  1.0365  1.0534 -1.3434
 1462TIP3    H2 4351   0.055   2.238   2.637  1.6284  0.3504  1.2081
 1463TIP3   OH2 4352   6.936   4.935   4.693 -0.2682  0.2890 -0.0370
 1463TIP3    H1 4353   6.906   4.912   4.605 -1.5316  2.4682 -0.2259
 1463TIP3    H2 4354   6.859   4.925   4.748  0.8300 -2.4077  1.1879
 1464TIP3   OH2 4355   4.664   1.332   3.489  0.1092  0.4805  0.3250
 1464TIP3    H1 4356   4.571   1.355   3.498 -0.5881 -1.9395  0.0449
 1464TIP3    H2 4357   4.672   1.298   3.400  0.7053 -1.4376  1.0457
 1465TIP3   OH2 4358   3.267   4.906   4.813  0.1801  0.0219 -0.3670
 1465TIP3    H1 4359   3.272   4.845   4.887  2.3199 -1.0224 -1.2822
 1465TIP3    H2 4360   3.180   4.890   4.776  0.4987 -2.2232 -0.3121
 1466TIP3   OH2 4361   7.071   3.170   3.509 -0.5738 -0.0391  0.8430
 1466TIP3    H1 4362   7.121   3.102   3.554  0.6658  0.8486  0.8514
 1466TIP3    H2 4363   7.027   3.218   3.579 -0.7558 -0.2783  0.8971
 1467TIP3   OH2 4364   5.804   1.985   3.438  0.3291  0.2492  0.0472
 1467TIP3    H1 4365   5.711   2.009   3.442 -0.0746 -1.3138  0.8153
 1467TIP3    H2 4366   5.808   1.898   3.479  2.0196 -0.0403 -0.6660
 1468TIP3   OH2 4367   0.511   0.102   2.280 -0.1645  0.3225  0.1069
 1468TIP3    H1 4368   0.548   0.020   2.247 -0.0698  0.8334 -1.1034
 1468TIP3    H2 4369   0.452   0.074   2.351  0.6375 -0.6951  0.4022
 1469TIP3   OH2 4370   2.280   0.880   5.163  0.0018 -0.0620 -0.0881
 1469TIP3    H1 4371   2.262   0.826   5.240  0.1163  0.1069  0.0577
 1469TIP3    H2 4372   2.347   0.942   5.192 -0.4654  0.4638 -0.1153
 1470TIP3   OH2 4373   5.177   3.888   3.519 -0.6276 -0.5735  0.0217
 1470TIP3    H1 4374   5.204   3.978   3.503 -1.0654 -0.3935  0.2767
 1470TIP3    H2 4375   5.167   3.849   3.432  1.0007 -0.8161 -0.0776
 1471TIP3   OH2 4376   1.378   5.955   2.967  0.4747  0.6425  0.0314
 1471TIP3    H1 4377   1.294   5.913   2.980  0.2330  1.4923  1.3261
 1471TIP3    H2 4378   1.441   5.899   3.012  0.1792  1.5061  1.5886
 1472TIP3   OH2 4379   2.569   3.279   5.888  0.0007  0.1304 -0.3734
 1472TIP3    H1 4380   2.574   3.374   5.901  0.4751  0.2439 -1.3018
 1472TIP3    H2 4381   2.517   3.268   5.809  0.1933 -0.3672 -0.4381
 1473TIP3   OH2 4382   3.189   4.156   4.113  0.2504 -0.5130  0.3468
 1473TIP3    H1 4383   3.246   4.158   4.190  1.5239 -0.5728 -0.5555
 1473TIP3    H2 4384   3.181   4.247   4.087  0.4358 -0.5611  0.1187
 1474TIP3   OH2 4385   6.757   5.371   3.758  0.1368  0.1364 -0.9945
 1474TIP3    H1 4386   6.663   5.367   3.745 -0.0154  1.7566 -0.6910
 1474TIP3    H2 4387   6.794   5.383   3.670 -0.2528  2.8675 -0.8897
 1475TIP3   OH2 4388   3.880   6.325   0.730 -0.3253  0.7134  0.5064
 1475TIP3    H1 4389   3.870   6.235   0.759  0.0408  1.3742  2.8411
 1475TIP3    H2 4390   3.975   6.340   0.727 -0.3080  0.5521 -1.6117
 1476TIP3   OH2 4391   3.442   2.621   5.871 -0.0426  0.5814 -0.0876
 1476TIP3    H1 4392   3.401   2.628   5.786 -0.7223  1.9608  0.3361
 1476TIP3    H2 4393   3.420   2.532   5.901 -1.6429  0.8366 -0.4231
 1477TIP3   OH2 4394   3.077   0.532   2.099 -0.5163  0.2307  0.0143
 1477TIP3    H1 4395   3.139   0.489   2.158  0.7873  3.1285  0.9356
 1477TIP3    H2 4396   3.011   0.571   2.156 -1.4450 -0.1784 -0.7469
 1478TIP3   OH2 4397   3.244   5.795   4.294 -0.0313 -0.2941 -0.5131
 1478TIP3    H1 4398   3.216   5.724   4.351 -1.0477 -0.9889 -1.8432
 1478TIP3    H2 4399   3.322   5.762   4.250  0.1535 -0.1427 -0.3055
 1479TIP3   OH2 4400   6.340   0.918   0.727  0.1531  0.5336 -0.4990
 1479TIP3    H1 4401   6.315   0.840   0.777  3.2722 -0.7570 -0.7515
 1479TIP3    H2 4402   6.318   0.896   0.636  1.5654 -0.3656 -0.6519
 1480TIP3   OH2 4403   3.775   1.011   4.095  0.5131  0.8262  0.6021
 1480TIP3    H1 4404   3.692   0.982   4.132  1.3501 -0.3079  1.6769
 1480TIP3    H2 4405   3.751   1.059   4.016 -1.0584 -1.4796 -0.4007
 1481TIP3   OH2 4406   5.364   0.995   3.251 -0.5671 -0.2562  0.4435
 1481TIP3    H1 4407   5.334   0.954   3.170  1.7044 -0.5473 -0.3236
 1481TIP3    H2 4408   5.367   1.089   3.231 -0.1596 -0.3134  0.2117
 1482TIP3   OH2 4409   1.468   4.812   2.384  0.3321  0.3418  0.4423
 1482TIP3    H1 4410   1.520   4.817   2.305  1.3949  0.6081  1.1381
 1482TIP3    H2 4411   1.382   4.781   2.355  1.2877 -1.5527 -0.5592
 1483TIP3   OH2 4412   4.516   5.210   0.897  0.7078 -0.0710 -0.4670
 1483TIP3    H1 4413   4.489   5.218   0.988  1.3775 -0.5207 -0.2184
 1483TIP3    H2 4414   4.490   5.293   0.857  1.7665  0.7660  0.5027
 1484TIP3   OH2 4415   6.489   2.586   0.042  0.4748 -0.3168  0.1768
 1484TIP3    H1 4416   6.485   2.596   0.137  1.8463  0.4059  0.1860
 1484TIP3    H2 4417   6.398   2.592   0.013  0.2083  1.6932  1.2379
 1485TIP3   OH2 4418   5.022   0.234   4.654 -0.0141 -0.6338  0.3284
 1485TIP3    H1 4419   4.990   0.205   4.740  1.7082 -2.7417  0.3587
 1485TIP3    H2 4420   5.117   0.228   4.661  0.1587 -1.1627 -1.8091
 1486TIP3   OH2 4421   1.579   6.371   3.971 -0.2222  0.3076  0.2240
 1486TIP3    H1 4422   1.576   6.351   4.065  0.4677 -0.6324  0.0701
 1486TIP3    H2 4423   1.585   6.467   3.967  0.7999  0.3173  1.1922
 1487TIP3   OH2 4424   0.173   2.186   4.143 -0.5352  0.3994  0.4525
 1487TIP3    H1 4425   0.190   2.183   4.049  0.2741  0.2752  0.5946
 1487TIP3    H2 4426   0.151   2.096   4.166  2.1515 -0.2419  0.8701
 1488TIP3   OH2 4427   5.810   2.672   2.145  0.3020  0.0987 -0.3610
 1488TIP3    H1 4428   5.882   2.672   2.208 -1.2387 -2.4512  1.6023
 1488TIP3    H2 4429   5.782   2.764   2.141  0.2955  0.3910  2.9856
 1489TIP3   OH2 4430   5.022   4.485   0.757  0.6650 -0.1448  0.1611
 1489TIP3    H1 4431   5.039   4.533   0.838  1.7090  0.9816 -0.7019
 1489TIP3    H2 4432   5.026   4.551   0.688 -1.2731 -0.8788 -0.7455
 1490TIP3   OH2 4433   6.846   3.309   0.869 -0.0122  0.1454  0.3770
 1490TIP3    H1 4434   6.769   3.366   0.876 -0.1953 -0.0877  0.2807
 1490TIP3    H2 4435   6.828   3.254   0.793  0.5322  0.5097 -0.0315
 1491TIP3   OH2 4436   2.648   2.074   5.028  0.7429  0.4982  0.4114
 1491TIP3    H1 4437   2.593   2.060   4.951 -1.6762  0.7158  1.9866
 1491TIP3    H2 4438   2.709   2.000   5.028 -2.4042 -2.3395  0.8485
 1492TIP3   OH2 4439   0.942   6.183   2.937 -0.0601 -0.5452 -0.0512
 1492TIP3    H1 4440   0.912   6.147   2.854 -0.4077  0.6852 -0.4769
 1492TIP3    H2 4441   0.988   6.263   2.914 -0.4301 -0.0170  0.9603
 1493TIP3   OH2 4442   6.271   1.671   0.718 -0.0781  0.2826 -0.1156
 1493TIP3    H1 4443   6.255   1.715   0.635 -1.1074  0.4979  0.1840
 1493TIP3    H2 4444   6.267   1.578   0.697 -0.9877  0.3339 -0.2003
 1494TIP3   OH2 4445   4.775   3.402   2.979 -0.3332  0.2490  0.4981
 1494TIP3    H1 4446   4.851   3.413   2.922  0.4235 -2.3672  0.8935
 1494TIP3    H2 4447   4.702   3.438   2.927  0.7487  0.4843 -0.9406
 1495TIP3   OH2 4448   4.640   0.456   4.346 -0.2920 -0.5266 -0.4918
 1495TIP3    H1 4449   4.668   0.448   4.437 -2.2278 -1.0852  0.1116
 1495TIP3    H2 4450   4.721   0.467   4.296  0.7481  0.7406  1.3790
 1496TIP3   OH2 4451   0.100   6.403   3.401  0.2860 -0.3498 -0.1929
 1496TIP3    H1 4452   0.121   6.321   3.355  0.0541 -0.1385 -0.6769
 1496TIP3    H2 4453   0.185   6.447   3.411  0.1744  0.3046 -1.7691
 1497TIP3   OH2 4454   2.658   2.324   0.638  0.2129  0.0066 -0.2208
 1497TIP3    H1 4455   2.611   2.360   0.563  0.2182 -0.0288 -0.2416
 1497TIP3    H2 4456   2.723   2.266   0.599 -0.8912 -1.3512 -0.1450
 1498TIP3   OH2 4457   1.967   6.617   0.786  0.7281 -0.1745  0.3201
 1498TIP3    H1 4458   1.991   6.657   0.702 -0.7999  0.1986  0.0243
 1498TIP3    H2 4459   1.952   6.692   0.844  2.1482 -0.4370  1.0654
 1499TIP3   OH2 4460   2.314   4.214   5.693 -0.1804 -0.3005 -0.5454
 1499TIP3    H1 4461   2.246   4.228   5.627 -1.2018 -1.8181  0.1477
 1499TIP3    H2 4462   2.298   4.280   5.760 -0.7365 -0.4171 -0.5656
 1500TIP3   OH2 4463   4.825   0.467   0.576  0.3380  0.1281 -0.1645
 1500TIP3    H1 4464   4.841   0.516   0.496  0.2335 -1.6387 -1.3208
 1500TIP3    H2 4465   4.730   0.470   0.587  0.1794 -0.9048 -1.0147
 1501TIP3   OH2 4466   2.168   0.837   2.870  0.2494 -0.1182  0.0887
 1501TIP3    H1 4467   2.192   0.750   2.838  0.2211 -0.6771  1.5254
 1501TIP3    H2 4468   2.132   0.822   2.957  1.8781  1.5045  1.1066
 1502TIP3   OH2 4469   1.679   4.546   4.269 -0.2093 -1.1752 -0.0008
 1502TIP3    H1 4470   1.633   4.466   4.292 -1.1165 -1.0011 -1.0922
 1502TIP3    H2 4471   1.609   4.607   4.243  0.3722  0.2881  1.6791
 1503TIP3   OH2 4472   0.547   6.603   1.541 -0.3184 -0.2862 -0.7991
 1503TIP3    H1 4473   0.486   6.658   1.591  0.1823  1.0642 -1.6135
 1503TIP3    H2 4474   0.492   6.554   1.481 -0.7261 -0.2429 -0.4663
 1504TIP3   OH2 4475   4.751   5.312   3.253 -0.0519 -0.1799 -0.1606
 1504TIP3    H1 4476   4.780   5.336   3.340  0.6366 -0.8664 -0.1917
 1504TIP3    H2 4477   4.719   5.394   3.214  0.9585  0.3983  0.2183
 1505TIP3   OH2 4478   5.736   2.840   2.686 -0.2032 -0.9627 -0.0985
 1505TIP3    H1 4479   5.683   2.921   2.685 -0.0479 -0.8460 -1.2254
 1505TIP3    H2 4480   5.694   2.784   2.751 -0.4829 -0.0789  0.4972
 1506TIP3   OH2 4481   1.561   1.108   2.223  0.6910 -0.6753  0.2492
 1506TIP3    H1 4482   1.531   1.073   2.307 -0.2173  0.3343  0.3528
 1506TIP3    H2 4483   1.565   1.031   2.166 -0.6584 -1.0753  0.6536
 1507TIP3   OH2 4484   3.230   1.159   3.814  0.1591 -0.2430  0.2816
 1507TIP3    H1 4485   3.252   1.066   3.807 -1.6502 -0.6586 -0.2278
 1507TIP3    H2 4486   3.243   1.179   3.907 -2.4182 -1.8530  1.0856
 1508TIP3   OH2 4487   4.343   6.316   2.376  0.3008 -0.0574  0.5680
 1508TIP3    H1 4488   4.379   6.391   2.424 -0.2655 -0.1288  1.1199
 1508TIP3    H2 4489   4.419   6.265   2.349  0.6643  0.4431  0.6340
 1509TIP3   OH2 4490   6.289   3.660   4.099  0.8604  0.3624  0.2762
 1509TIP3    H1 4491   6.313   3.689   4.187 -0.4071  0.2696  0.6809
 1509TIP3    H2 4492   6.357   3.696   4.042  1.2659  1.0977  1.2001
 1510TIP3   OH2 4493   2.465   5.178   4.523 -0.0622 -0.6224  0.2290
 1510TIP3    H1 4494   2.403   5.136   4.464  0.4372 -1.1282  0.0513
 1510TIP3    H2 4495   2.530   5.110   4.541  2.4961  0.8569 -2.4926
 1511TIP3   OH2 4496   3.406   4.895   1.819 -0.0483  0.2371 -0.0712
 1511TIP3    H1 4497   3.343   4.868   1.752  1.5470 -1.9164 -0.8228
 1511TIP3    H2 4498   3.406   4.824   1.883  0.6915  0.8139  0.5997
 1512TIP3   OH2 4499   0.497   2.629   5.508  0.0720  0.0649  0.1951
 1512TIP3    H1 4500   0.477   2.721   5.493  0.2329 -0.0295 -0.6504
 1512TIP3    H2 4501   0.440   2.603   5.580 -1.0742  0.4355 -0.5619
 1513TIP3   OH2 4502   6.136   1.201   0.575 -0.3265  0.4008  0.1625
 1513TIP3    H1 4503   6.177   1.237   0.654 -0.0524  1.0616 -0.2708
 1513TIP3    H2 4504   6.059   1.154   0.607 -0.0392  0.3902  0.8528
 1514TIP3   OH2 4505   6.548   4.118   2.501  0.0255  0.2868  0.0795
 1514TIP3    H1 4506   6.509   4.059   2.565  0.2002  1.7050  1.5734
 1514TIP3    H2 4507   6.511   4.091   2.417 -1.4246 -0.6437  0.9782
 1515TIP3   OH2 4508   0.484   5.666   2.091 -0.7580  0.0153 -0.3370
 1515TIP3    H1 4509   0.443   5.623   2.016  1.7113 -1.3731 -1.0089
 1515TIP3    H2 4510   0.530   5.741   2.054 -0.9940  0.3556  0.0573
 1516TIP3   OH2 4511   0.042   0.160   4.857 -0.4965 -0.2766  0.0831
 1516TIP3    H1 4512   0.078   0.076   4.888  0.2976 -0.2702 -0.7932
 1516TIP3    H2 4513  -0.033   0.175   4.914  0.5627 -0.5571  1.6450
 1517TIP3   OH2 4514   2.622   0.791   1.102 -0.3592  0.0066  0.1225
 1517TIP3    H1 4515   2.617   0.767   1.194  0.5243 -0.7111 -0.0035
 1517TIP3    H2 4516   2.539   0.759   1.064  0.0606 -1.3469  0.3040
 1518TIP3   OH2 4517   3.168   2.728   4.909 -0.4770  0.1599  0.2197
 1518TIP3    H1 4518   3.115   2.785   4.965 -1.3414  0.6557 -1.0675
 1518TIP3    H2 4519   3.192   2.783   4.835 -0.1171 -0.7453 -0.3494
 1519TIP3   OH2 4520   0.328   6.429   0.342  0.0050 -0.0776 -0.0167
 1519TIP3    H1 4521   0.321   6.397   0.432 -2.6603  0.1462 -0.0412
 1519TIP3    H2 4522   0.325   6.351   0.287  1.4158 -0.2004  0.0527
 1520TIP3   OH2 4523   6.710   4.581   0.982  0.2090 -0.2462  0.3637
 1520TIP3    H1 4524   6.760   4.579   1.064  1.2310 -0.3935 -0.2473
 1520TIP3    H2 4525   6.756   4.520   0.924  1.7678  2.5314 -1.5772
 1521TIP3   OH2 4526   6.456   4.210   1.386  0.3080  0.9620 -0.0345
 1521TIP3    H1 4527   6.518   4.272   1.426  0.6506  0.7527 -0.2312
 1521TIP3    H2 4528   6.406   4.262   1.324  1.7180  0.7354 -1.4257
 1522TIP3   OH2 4529   0.110   4.187   2.988  0.1796  0.1572  0.2909
 1522TIP3    H1 4530   0.119   4.281   3.001 -2.2968  0.6729 -1.1503
 1522TIP3    H2 4531   0.058   4.157   3.064 -0.3633  0.2399 -0.0461
 1523TIP3   OH2 4532   6.071   4.386   4.867  0.5227 -0.1001 -0.0322
 1523TIP3    H1 4533   6.058   4.417   4.956  1.9184 -1.0564  0.5631
 1523TIP3    H2 4534   6.000   4.323   4.853  0.5810 -0.3281  0.6178
 1524TIP3   OH2 4535   5.593   3.078   4.851  0.1879  1.0323  0.1690
 1524TIP3    H1 4536   5.605   3.057   4.943  1.3134  0.3153 -0.1196
 1524TIP3    H2 4537   5.628   3.002   4.804 -0.1161  1.4996 -0.8569
 1525TIP3   OH2 4538   6.563   3.729   2.310 -0.9236  0.2514  0.1132
 1525TIP3    H1 4539   6.475   3.693   2.295  0.2668 -2.5479 -0.8869
 1525TIP3    H2 4540   6.574   3.726   2.405 -1.2212 -1.4014  0.1408
 1526TIP3   OH2 4541   2.668   1.835   0.766 -0.2072  0.2775  0.6097
 1526TIP3    H1 4542   2.615   1.914   0.753  0.9139  0.7324 -1.5344
 1526TIP3    H2 4543   2.753   1.868   0.795  0.0756 -0.1767  0.3049
 1527TIP3   OH2 4544   2.191   1.745   5.664 -0.1662 -0.6614 -0.2530
 1527TIP3    H1 4545   2.263   1.688   5.638  1.0671  1.0400 -0.6863
 1527TIP3    H2 4546   2.161   1.786   5.583  1.9552  2.6651  0.4545
 1528TIP3   OH2 4547   1.003   6.327   1.252 -0.3668  0.2988 -0.5236
 1528TIP3    H1 4548   0.982   6.331   1.345  1.5180 -1.5106  0.0632
 1528TIP3    H2 4549   0.949   6.395   1.212 -2.2184  0.2324  1.6803
 1529TIP3   OH2 4550   3.152   5.975   0.390  0.4561 -0.0869  0.2563
 1529TIP3    H1 4551   3.215   5.974   0.318  0.7255  1.1697  0.4618
 1529TIP3    H2 4552   3.136   6.068   0.408 -1.2484 -0.3662  0.3933
 1530TIP3   OH2 4553   5.422   4.219   5.530  0.1463  0.4889  0.2420
 1530TIP3    H1 4554   5.392   4.234   5.440 -0.2647 -0.6836  0.1675
 1530TIP3    H2 4555   5.357   4.264   5.584  0.2795  1.0223 -0.0370
 1531TIP3   OH2 4556   4.706   6.526   3.204  1.2001 -0.1272  0.2326
 1531TIP3    H1 4557   4.700   6.512   3.109  0.2115 -0.0094  0.2612
 1531TIP3    H2 4558   4.745   6.613   3.213 -1.0554  1.0096 -0.1556
 1532TIP3   OH2 4559   4.174   4.496   1.636  0.3363  0.5327 -0.0120
 1532TIP3    H1 4560   4.212   4.581   1.659  0.4442  0.2961  0.7112
 1532TIP3    H2 4561   4.179   4.445   1.717  1.5832 -0.6515 -0.7992
 1533TIP3   OH2 4562   6.288   2.591   3.014  0.2580 -0.6745 -0.0736
 1533TIP3    H1 4563   6.259   2.512   2.968  1.5614  0.6255 -3.4421
 1533TIP3    H2 4564   6.244   2.662   2.969  1.6885  0.7300  0.6453
 1534TIP3   OH2 4565   2.375   1.453   3.492  0.3088  0.4595  0.0483
 1534TIP3    H1 4566   2.333   1.444   3.578 -1.7037 -0.5912 -0.9909
 1534TIP3    H2 4567   2.404   1.365   3.470 -0.8960  0.3503 -1.1671
 1535TIP3   OH2 4568   2.096   5.917   5.677 -0.1270 -0.2287 -0.4378
 1535TIP3    H1 4569   2.172   5.939   5.623  0.9941 -1.9094  0.3462
 1535TIP3    H2 4570   2.034   5.989   5.664  1.8853  1.5570 -0.5590
 1536TIP3   OH2 4571   4.201   0.140   5.429  0.0446 -0.4462  0.2299
 1536TIP3    H1 4572   4.187   0.227   5.392  0.4439 -1.0756 -1.5420
 1536TIP3    H2 4573   4.242   0.155   5.513  0.1061  1.0754 -0.0487
 1537TIP3   OH2 4574   1.515   2.950   1.389  0.3006  0.8215 -0.0834
 1537TIP3    H1 4575   1.444   3.012   1.403  0.7520  1.3856 -0.2558
 1537TIP3    H2 4576   1.505   2.922   1.298  0.1859  0.7542 -0.0502
 1538TIP3   OH2 4577   4.368   4.771   5.326 -0.1131  0.6136 -0.1394
 1538TIP3    H1 4578   4.343   4.716   5.400  3.0423  1.0337  1.4255
 1538TIP3    H2 4579   4.339   4.859   5.351  0.7469  0.7166  0.5538
 1539TIP3   OH2 4580   1.620   6.795   1.057  0.6295 -0.7274  0.2646
 1539TIP3    H1 4581   1.605   6.789   1.151 -1.6602  0.1020  0.0090
 1539TIP3    H2 4582   1.572   6.720   1.020 -0.9077  0.5501 -0.4235
 1540TIP3   OH2 4583   3.452   3.394   2.811 -0.2799  0.5965  0.0531
 1540TIP3    H1 4584   3.402   3.374   2.732  0.3183 -0.4162 -0.0875
 1540TIP3    H2 4585   3.539   3.419   2.778  0.1724 -0.4749  0.4002
 1541TIP3   OH2 4586   0.347   1.107   3.336  0.2106  0.0950  0.0198
 1541TIP3    H1 4587   0.436   1.101   3.300  0.4601  1.0189  0.4501
 1541TIP3    H2 4588   0.350   1.053   3.415  0.2715 -0.2120 -0.1913
 1542TIP3   OH2 4589   2.176   3.368   5.182 -0.0853  0.7212 -0.5171
 1542TIP3    H1 4590   2.130   3.385   5.100  0.8739 -1.1006 -1.4912
 1542TIP3    H2 4591   2.267   3.355   5.157  0.9799  3.6942  1.3043
 1543TIP3   OH2 4592   4.025   0.299   5.055 -0.2990  0.0719  0.1564
 1543TIP3    H1 4593   3.938   0.310   5.093 -0.6682 -0.3085 -0.5438
 1543TIP3    H2 4594   4.048   0.208   5.075 -0.0344  0.1882  0.3865
 1544TIP3   OH2 4595   3.976   2.654   1.183 -0.2817  0.0709 -0.4513
 1544TIP3    H1 4596   3.968   2.746   1.156  1.6166  0.1462 -0.9571
 1544TIP3    H2 4597   4.015   2.610   1.108 -1.3587 -1.2245 -0.2910
 1545TIP3   OH2 4598   0.441   1.324   0.890  0.1255  0.2470  0.5299
 1545TIP3    H1 4599   0.535   1.333   0.881 -0.0450  1.7401  0.0753
 1545TIP3    H2 4600   0.408   1.321   0.801 -0.3410  0.7733  0.6776
 1546TIP3   OH2 4601   5.612   1.583   2.932  0.4766 -0.4007  0.5635
 1546TIP3    H1 4602   5.660   1.654   2.975  0.1934  0.3999 -0.4094
 1546TIP3    H2 4603   5.522   1.614   2.930  0.4582 -0.4867 -0.4488
 1547TIP3   OH2 4604   0.463   3.279   4.446 -0.1563 -0.1259 -0.1779
 1547TIP3    H1 4605   0.554   3.302   4.468 -0.2902  1.5330 -1.2014
 1547TIP3    H2 4606   0.472   3.202   4.390  0.4097 -1.7547  2.0076
 1548TIP3   OH2 4607   6.206   0.563   4.603 -0.1968  0.1618  0.5348
 1548TIP3    H1 4608   6.130   0.506   4.599  0.0190 -0.2571  1.9172
 1548TIP3    H2 4609   6.210   0.592   4.694 -0.0578  2.0610 -0.0268
 1549TIP3   OH2 4610   3.486   2.956   2.657  0.4463  0.0259  0.2198
 1549TIP3    H1 4611   3.487   2.958   2.561 -0.2924 -2.3446  0.0911
 1549TIP3    H2 4612   3.528   3.037   2.683 -2.0824  2.2697 -2.0595
 1550TIP3   OH2 4613   6.405   0.254   2.971  0.7917  0.8637 -0.2996
 1550TIP3    H1 4614   6.320   0.297   2.960  0.9285  0.9237 -1.1340
 1550TIP3    H2 4615   6.423   0.260   3.065 -1.6254 -1.9684  0.5011
 1551TIP3   OH2 4616   0.044   0.690   0.793 -0.1665 -0.5274  0.3023
 1551TIP3    H1 4617   0.138   0.692   0.774  0.1582  2.1914  1.7160
 1551TIP3    H2 4618   0.032   0.616   0.852  1.0748 -0.8893  0.1232
 1552TIP3   OH2 4619   0.792   3.713   2.256 -0.2822 -0.5486  0.3742
 1552TIP3    H1 4620   0.859   3.694   2.190  0.3637 -1.5053  1.2763
 1552TIP3    H2 4621   0.756   3.628   2.278 -2.3936  0.0138 -0.6611
 1553TIP3   OH2 4622   7.187   5.057   4.710  0.1904 -0.4176  0.4004
 1553TIP3    H1 4623   7.102   5.019   4.733  1.4066 -2.4637  1.8586
 1553TIP3    H2 4624   7.203   5.121   4.779 -0.9233  1.3683 -0.9063
 1554TIP3   OH2 4625   4.502   0.276   3.516  0.3448 -0.0675 -0.1816
 1554TIP3    H1 4626   4.596   0.283   3.536  0.7537 -0.4183 -1.8727
 1554TIP3    H2 4627   4.467   0.222   3.587  1.6961 -1.0899 -0.2543
 1555TIP3   OH2 4628   0.179   5.110   5.425 -0.0629  0.3782  0.5643
 1555TIP3    H1 4629   0.088   5.126   5.402 -0.4153 -0.3847  1.3413
 1555TIP3    H2 4630   0.175   5.070   5.512  1.0748  1.2267  1.0297
 1556TIP3   OH2 4631   4.954   3.240   0.710 -0.2980  0.0908  0.5299
 1556TIP3    H1 4632   4.925   3.263   0.798  1.5911  0.5210  1.0810
 1556TIP3    H2 4633   5.002   3.317   0.680 -1.7526  0.3371 -1.2896
 1557TIP3   OH2 4634   5.865   5.477   0.872 -0.1726  0.0443  0.5114
 1557TIP3    H1 4635   5.796   5.531   0.834  0.2012  0.9135  1.0374
 1557TIP3    H2 4636   5.938   5.486   0.811  0.0219  0.4547  0.8053
 1558TIP3   OH2 4637   0.639   0.773   4.089  0.0211 -0.0040  0.0523
 1558TIP3    H1 4638   0.655   0.789   4.181  0.3818  0.4304 -0.0840
 1558TIP3    H2 4639   0.555   0.726   4.087 -0.7262  1.2646  0.5127
 1559TIP3   OH2 4640   3.089   6.101   1.337 -0.3249  0.1854  0.1645
 1559TIP3    H1 4641   3.040   6.175   1.371  0.6257  1.3326 -0.8522
 1559TIP3    H2 4642   3.028   6.027   1.343 -0.8831  0.7503  2.3174
 1560TIP3   OH2 4643   3.390   2.543   5.377  0.1616  0.2860  0.2823
 1560TIP3    H1 4644   3.413   2.636   5.367  0.3627  0.1330 -0.7914
 1560TIP3    H2 4645   3.388   2.509   5.287  0.5872 -0.8706  0.6932
 1561TIP3   OH2 4646   0.152   3.552   2.015  0.0975 -0.1672 -0.0318
 1561TIP3    H1 4647   0.116   3.486   1.956  0.6622  0.0114 -0.5793
 1561TIP3    H2 4648   0.240   3.568   1.983 -0.4966  1.9088 -0.7646
 1562TIP3   OH2 4649   2.914   1.287   5.283  0.8479 -0.1662 -0.5038
 1562TIP3    H1 4650   2.943   1.377   5.299  0.7643 -0.0526 -0.9809
 1562TIP3    H2 4651   2.930   1.242   5.366  4.1412 -0.5726 -1.1831
 1563TIP3   OH2 4652   0.278   2.411   2.851  0.6009 -0.4448 -0.1242
 1563TIP3    H1 4653   0.300   2.400   2.944  0.6378  0.4182 -0.0167
 1563TIP3    H2 4654   0.228   2.333   2.829  0.5529 -0.6430  0.6346
 1564TIP3   OH2 4655   1.285   0.358   4.388  0.7610 -0.4324  0.0579
 1564TIP3    H1 4656   1.196   0.344   4.419  0.5488  0.7329  0.0329
 1564TIP3    H2 4657   1.276   0.417   4.313  1.6435  1.0586  1.0563
 1565TIP3   OH2 4658   2.505   2.777   4.863 -0.3515 -0.2389 -0.3481
 1565TIP3    H1 4659   2.442   2.734   4.805 -0.8246  1.9278 -1.5711
 1565TIP3    H2 4660   2.459   2.855   4.895  0.5589 -0.4059  1.5115
 1566TIP3   OH2 4661   3.402   5.165   1.873  0.2061 -0.5612  0.2934
 1566TIP3    H1 4662   3.309   5.189   1.879  0.4665  0.9778 -1.1932
 1566TIP3    H2 4663   3.402   5.079   1.832 -0.5380 -0.1225 -0.6601
 1567TIP3   OH2 4664   0.510   1.499   3.858 -0.3081  0.1133 -0.1292
 1567TIP3    H1 4665   0.544   1.588   3.850 -2.0637  1.0425  1.7592
 1567TIP3    H2 4666   0.446   1.491   3.787 -1.8563  1.2943  1.0380
 1568TIP3   OH2 4667   4.532   6.535   1.247  0.3121  0.2015  0.0984
 1568TIP3    H1 4668   4.478   6.521   1.169  0.9375  1.5254 -0.5975
 1568TIP3    H2 4669   4.474   6.582   1.307 -0.0335 -0.4294  0.2609
 1569TIP3   OH2 4670   6.238   2.843   2.431  0.3692  0.3304  0.4755
 1569TIP3    H1 4671   6.273   2.769   2.480  1.5290  0.5791  0.0579
 1569TIP3    H2 4672   6.294   2.917   2.456 -0.3535  0.9227  0.3784
 1570TIP3   OH2 4673   1.891   1.939   0.007  0.5275  0.3441  0.5265
 1570TIP3    H1 4674   1.957   1.986   0.057  0.9118  0.3929 -0.0139
 1570TIP3    H2 4675   1.858   1.872   0.067  1.6118 -0.1761  0.5694
 1571TIP3   OH2 4676   6.310   2.608   2.575 -0.1626 -0.4870  0.3369
 1571TIP3    H1 4677   6.367   2.560   2.634 -0.6440 -0.3258  0.9456
 1571TIP3    H2 4678   6.292   2.547   2.504 -0.2836 -0.9972  0.7993
 1572TIP3   OH2 4679   6.452   4.026   3.698  0.3523  0.1443  0.6036
 1572TIP3    H1 4680   6.433   4.058   3.786  1.0599 -0.0246  0.8272
 1572TIP3    H2 4681   6.487   4.103   3.652 -0.2709  0.3027  0.3760
 1573TIP3   OH2 4682   2.537   0.311   1.577  0.1397 -0.5490  0.2542
 1573TIP3    H1 4683   2.613   0.334   1.524  0.1596 -1.8264 -0.2968
 1573TIP3    H2 4684   2.566   0.324   1.667  0.4131  0.7183 -0.0018
 1574TIP3   OH2 4685   5.603   2.139   1.213  0.3173  0.4478 -0.0977
 1574TIP3    H1 4686   5.626   2.058   1.259  0.9859 -0.0057 -1.2034
 1574TIP3    H2 4687   5.511   2.128   1.191  0.4279 -0.0501 -0.3210
 1575TIP3   OH2 4688   6.563   3.110   3.424 -0.0124  0.7633 -0.0574
 1575TIP3    H1 4689   6.546   3.039   3.486 -0.7922  2.3468  1.6095
 1575TIP3    H2 4690   6.659   3.112   3.417  0.0340 -0.2948  0.0268
 1576TIP3   OH2 4691   6.668   1.205   4.715 -0.2278 -0.3205  0.1833
 1576TIP3    H1 4692   6.667   1.130   4.775 -0.4932 -0.2845  0.2229
 1576TIP3    H2 4693   6.761   1.219   4.697 -0.0717  0.3687  1.4523
 1577TIP3   OH2 4694   5.420   2.310   3.540  1.4381 -0.2632  0.6129
 1577TIP3    H1 4695   5.492   2.294   3.479  0.2120 -0.4545 -0.8661
 1577TIP3    H2 4696   5.444   2.261   3.619  2.1003 -1.8205 -0.4930
 1578TIP3   OH2 4697   3.173   1.531   2.815 -0.1825  0.2755 -0.0891
 1578TIP3    H1 4698   3.130   1.617   2.821 -0.3273  0.0899  2.1123
 1578TIP3    H2 4699   3.157   1.504   2.724 -0.9392  2.1474 -0.5784
 1579TIP3   OH2 4700   5.453   6.152   4.661 -0.2362  0.2439 -0.0907
 1579TIP3    H1 4701   5.542   6.185   4.654 -0.0315 -0.5716 -1.8512
 1579TIP3    H2 4702   5.447   6.116   4.750  1.1380  0.4213  0.0872
 1580TIP3   OH2 4703   5.348   1.364   4.212  0.3587 -0.4274  0.3241
 1580TIP3    H1 4704   5.407   1.421   4.163  1.3585 -3.2458 -1.9852
 1580TIP3    H2 4705   5.261   1.403   4.199  1.0197  0.7049 -0.9367
 1581TIP3   OH2 4706   3.745   4.994   3.571  0.7413  0.4784 -0.0354
 1581TIP3    H1 4707   3.818   5.004   3.510  2.2048 -0.7542  1.4099
 1581TIP3    H2 4708   3.779   5.027   3.654 -1.0961  1.8317  0.2498
 1582TIP3   OH2 4709   4.876   4.487   1.602  0.2048 -0.5184 -0.5630
 1582TIP3    H1 4710   4.959   4.440   1.597  2.2737  2.5731  1.1527
 1582TIP3    H2 4711   4.868   4.531   1.517  0.7216 -0.2848 -0.4960
 1583TIP3   OH2 4712   1.231   6.178   5.015 -0.0769  0.2186  0.4497
 1583TIP3    H1 4713   1.232   6.273   5.008 -0.4939  0.3536  1.9875
 1583TIP3    H2 4714   1.292   6.149   4.947  1.3087  1.6624  1.0080
 1584TIP3   OH2 4715   1.928   5.004   3.951  0.6714  0.2273  0.1102
 1584TIP3    H1 4716   1.847   4.964   3.920  0.3138  0.8811  0.1857
 1584TIP3    H2 4717   1.900   5.082   3.998  1.3604  0.6271 -0.1240
 1585TIP3   OH2 4718   4.530   0.695   2.935  0.1728 -0.4815  0.1717
 1585TIP3    H1 4719   4.581   0.680   2.855  0.5871 -0.1082  0.3625
 1585TIP3    H2 4720   4.532   0.611   2.981 -1.3862 -1.1810 -0.9402
 1586TIP3   OH2 4721   0.400   0.944   4.550 -0.1852 -0.2999 -0.2546
 1586TIP3    H1 4722   0.342   0.899   4.490 -0.8141 -0.7399  0.6647
 1586TIP3    H2 4723   0.447   1.007   4.495 -2.5449  1.0903 -0.7952
 1587TIP3   OH2 4724   5.870   2.628   5.557 -1.0721 -0.4786  0.1833
 1587TIP3    H1 4725   5.960   2.654   5.540 -0.8525 -1.4382 -0.1630
 1587TIP3    H2 4726   5.846   2.674   5.638 -0.5269  0.3599 -0.1249
 1588TIP3   OH2 4727   3.028   6.695   1.244  0.1419  0.0145  0.8465
 1588TIP3    H1 4728   2.946   6.726   1.207  0.2528  0.0909  0.6604
 1588TIP3    H2 4729   3.009   6.607   1.276  0.1376 -0.2006  0.2665
 1589TIP3   OH2 4730   0.875   2.476   4.167 -0.1713 -0.3454 -0.0501
 1589TIP3    H1 4731   0.895   2.412   4.235 -0.7287 -1.3201 -0.7785
 1589TIP3    H2 4732   0.942   2.544   4.177 -0.8430  0.0641  2.1138
 1590TIP3   OH2 4733   5.983   5.302   0.259  0.7368 -0.0835  0.5037
 1590TIP3    H1 4734   5.934   5.221   0.246 -2.1583  1.7477 -1.2173
 1590TIP3    H2 4735   5.940   5.344   0.333 -1.1242  1.9777 -1.5952
 1591TIP3   OH2 4736   0.934   2.822   1.361  0.0310 -0.0193 -0.3704
 1591TIP3    H1 4737   0.856   2.854   1.315 -0.9904  0.4323  1.5545
 1591TIP3    H2 4738   1.007   2.871   1.322 -0.8655  0.8346 -1.0287
 1592TIP3   OH2 4739   1.271   6.464   1.090 -0.2515 -0.2429 -0.3318
 1592TIP3    H1 4740   1.290   6.490   1.000 -1.3442  1.0961 -0.1951
 1592TIP3    H2 4741   1.181   6.433   1.088  0.2969 -1.9616 -0.0279
 1593TIP3   OH2 4742   3.790   4.934   1.085  0.6289 -0.7217  0.0909
 1593TIP3    H1 4743   3.821   4.921   1.175  3.1028 -2.3525 -0.8970
 1593TIP3    H2 4744   3.814   5.024   1.065  1.7847 -0.9331  0.4597
 1594TIP3   OH2 4745   3.667   4.186   2.128  0.2082 -0.2186  0.3394
 1594TIP3    H1 4746   3.702   4.122   2.066 -2.6775 -0.1213 -1.5895
 1594TIP3    H2 4747   3.685   4.271   2.088  0.5109  0.0001  0.9206
 1595TIP3   OH2 4748   6.189   3.825   0.022 -0.4481  0.3263  0.2166
 1595TIP3    H1 4749   6.116   3.882   0.042  0.0500  1.3596 -0.8548
 1595TIP3    H2 4750   6.235   3.867  -0.050  1.5863  0.0623  1.2609
 1596TIP3   OH2 4751   6.863   6.560   3.155 -0.0443 -0.5474 -0.0944
 1596TIP3    H1 4752   6.796   6.572   3.088 -1.6411  0.5663  1.6350
 1596TIP3    H2 4753   6.887   6.649   3.181  1.6098 -0.9411 -0.1499
 1597TIP3   OH2 4754   0.664   2.106   4.136  0.3201  0.5556  0.0388
 1597TIP3    H1 4755   0.745   2.123   4.185  0.4244  0.9517 -0.2636
 1597TIP3    H2 4756   0.688   2.122   4.045 -0.4769  2.1939  0.0839
 1598TIP3   OH2 4757   2.226   2.170   0.667 -0.4147  0.8703 -1.0647
 1598TIP3    H1 4758   2.181   2.091   0.697  0.0556  0.5116 -1.2842
 1598TIP3    H2 4759   2.280   2.197   0.741  0.7184  0.0056 -1.5395
 1599TIP3   OH2 4760   5.742   2.228   3.876 -0.1764 -0.0079 -0.1114
 1599TIP3    H1 4761   5.827   2.184   3.876 -0.5014 -0.6503  0.4403
 1599TIP3    H2 4762   5.746   2.290   3.949 -0.9767 -1.6514  1.3927
 1600TIP3   OH2 4763   4.036   5.317   2.484  0.2123  0.1062 -0.1919
 1600TIP3    H1 4764   4.109   5.261   2.458  0.6880 -1.5799  3.9316
 1600TIP3    H2 4765   3.977   5.259   2.533 -1.0166  2.4880  1.3719
 1601TIP3   OH2 4766   1.640   4.152   5.535  0.1849  0.0448  0.9081
 1601TIP3    H1 4767   1.562   4.195   5.499  1.3177  1.6889  0.2969
 1601TIP3    H2 4768   1.660   4.202   5.614 -0.0632 -1.1406  1.7430
 1602TIP3   OH2 4769   4.919   3.736   0.405 -0.4417 -0.4256 -0.1474
 1602TIP3    H1 4770   4.913   3.696   0.318  1.0844 -0.8806 -0.0755
 1602TIP3    H2 4771   5.012   3.729   0.428 -0.4259  1.6070  0.6275
 1603TIP3   OH2 4772   4.628   3.839   3.802  0.0020 -0.6744 -0.1663
 1603TIP3    H1 4773   4.603   3.931   3.812  0.8349 -0.5107  0.5791
 1603TIP3    H2 4774   4.545   3.792   3.797 -0.5155 -0.1607  2.3010
 1604TIP3   OH2 4775   6.714   4.692   0.242  0.1698  0.0317  0.2424
 1604TIP3    H1 4776   6.769   4.639   0.185  2.3795  2.0278  0.3252
 1604TIP3    H2 4777   6.698   4.772   0.192 -0.5463  0.5305  1.2225
 1605TIP3   OH2 4778   0.725   0.251   5.553  0.2842 -0.3890  0.0688
 1605TIP3    H1 4779   0.698   0.191   5.483 -0.8858 -0.1588  0.3056
 1605TIP3    H2 4780   0.692   0.211   5.633  0.7609 -0.1580  0.3824
 1606TIP3   OH2 4781   5.136   0.269   0.609 -0.1182  0.0053 -0.0315
 1606TIP3    H1 4782   5.138   0.180   0.573 -2.2668 -0.2561  0.3986
 1606TIP3    H2 4783   5.164   0.325   0.535  0.7048 -0.9518 -0.4682
 1607TIP3   OH2 4784   3.331   6.023   1.451  0.4690 -0.1648  0.3664
 1607TIP3    H1 4785   3.243   6.060   1.441  0.3207 -0.5520  0.2229
 1607TIP3    H2 4786   3.324   5.963   1.524  0.2604 -1.2421 -0.5142
 1608TIP3   OH2 4787   1.878   6.549   2.761 -0.0039  0.0053 -0.4020
 1608TIP3    H1 4788   1.895   6.491   2.836  0.8978  1.4348  0.5540
 1608TIP3    H2 4789   1.844   6.630   2.801  1.4248  1.1577 -1.4350
 1609TIP3   OH2 4790   6.567   3.404   2.211 -0.4924 -0.0175 -0.4858
 1609TIP3    H1 4791   6.517   3.422   2.131 -1.8377  1.4102  0.6377
 1609TIP3    H2 4792   6.637   3.469   2.211 -1.4955  1.0995  0.3066
 1610TIP3   OH2 4793   4.154   2.016   3.911 -0.1262  0.2598 -0.6169
 1610TIP3    H1 4794   4.086   2.030   3.977 -1.0697  1.1720 -1.7222
 1610TIP3    H2 4795   4.226   2.072   3.939  0.0395 -0.4248  0.3679
 1611TIP3   OH2 4796   3.378   5.632   0.148 -0.4127  0.3968  0.2985
 1611TIP3    H1 4797   3.305   5.599   0.095  1.2759  0.5757 -2.3236
 1611TIP3    H2 4798   3.446   5.566   0.139 -0.1302  0.3013  2.5925
 1612TIP3   OH2 4799   1.860   6.681   5.575 -0.1114  0.0028 -0.6512
 1612TIP3    H1 4800   1.877   6.765   5.619 -1.1381 -1.2465  2.4096
 1612TIP3    H2 4801   1.946   6.642   5.564  0.1500 -0.2136  1.6579
 1613TIP3   OH2 4802   7.093   1.991   1.708  0.4296 -0.4704 -0.1530
 1613TIP3    H1 4803   7.117   2.021   1.621  1.6914  0.5493  0.5168
 1613TIP3    H2 4804   7.167   2.015   1.764  0.6659 -3.1128  0.8282
 1614TIP3   OH2 4805   1.377   1.748   0.474  0.0998  0.4317 -0.3823
 1614TIP3    H1 4806   1.449   1.748   0.537  0.4683  0.3751 -0.8017
 1614TIP3    H2 4807   1.334   1.832   0.487  0.5912  0.7128 -0.5215
 1615TIP3   OH2 4808   3.989   0.907   2.944 -0.3545 -0.4587 -0.7003
 1615TIP3    H1 4809   4.068   0.942   2.903 -1.0904  1.5925 -0.4750
 1615TIP3    H2 4810   3.992   0.940   3.034 -1.2480 -0.7103 -0.5679
 1616TIP3   OH2 4811   0.946   1.628   0.427  0.2167 -0.6378 -0.6458
 1616TIP3    H1 4812   0.888   1.588   0.363  1.3551 -3.6308  0.0640
 1616TIP3    H2 4813   1.026   1.648   0.378  0.2415 -0.7572 -0.6539
 1617TIP3   OH2 4814   6.538   1.674   5.095  0.5435 -0.0005 -0.1735
 1617TIP3    H1 4815   6.470   1.607   5.102 -0.6469  1.1937  0.1648
 1617TIP3    H2 4816   6.614   1.628   5.059  0.1219 -1.7446  1.0711
 1618TIP3   OH2 4817   4.206   4.136   2.788 -0.0405  0.0387 -0.5677
 1618TIP3    H1 4818   4.192   4.049   2.826 -0.2092  0.5817  0.6691
 1618TIP3    H2 4819   4.299   4.152   2.798 -0.0439  0.0756 -0.5971
 1619TIP3   OH2 4820   4.934   5.267   1.002  0.0549 -0.0419 -0.3015
 1619TIP3    H1 4821   4.930   5.343   0.943  0.7013 -0.0739 -0.3924
 1619TIP3    H2 4822   4.910   5.302   1.088  4.1913  1.2217  0.5507
 1620TIP3   OH2 4823   4.535   6.754   5.008 -0.1273 -0.1928 -0.2331
 1620TIP3    H1 4824   4.566   6.666   5.027  0.2768 -0.0556 -0.2502
 1620TIP3    H2 4825   4.461   6.741   4.948 -0.4345 -0.5443  0.2157
 1621TIP3   OH2 4826   0.647   3.094   3.267 -0.5656  0.9742  0.0011
 1621TIP3    H1 4827   0.679   3.104   3.357 -0.6006  0.7600  0.0375
 1621TIP3    H2 4828   0.723   3.063   3.218 -0.3846  1.6642 -0.1671
 1622TIP3   OH2 4829   0.780   3.049   3.514 -0.1880  0.4439 -0.3319
 1622TIP3    H1 4830   0.753   2.957   3.521  1.1320  0.0183 -0.4176
 1622TIP3    H2 4831   0.820   3.068   3.599  0.6296  0.5415 -0.7237
 1623TIP3   OH2 4832   4.185   4.449   1.889 -0.0581  0.0375  0.4109
 1623TIP3    H1 4833   4.242   4.519   1.921 -2.1373  1.5093  1.1838
 1623TIP3    H2 4834   4.204   4.374   1.944  1.2695  0.3923  0.4697
 1624TIP3   OH2 4835   4.507   4.609   0.904  0.8771 -0.3404 -0.3497
 1624TIP3    H1 4836   4.510   4.664   0.825  0.0304 -1.8904 -1.5154
 1624TIP3    H2 4837   4.591   4.625   0.947 -0.1981  3.5716  0.6366
 1625TIP3   OH2 4838   4.718   0.996   5.360 -0.5906  0.0693  0.2756
 1625TIP3    H1 4839   4.628   1.015   5.386 -0.3213  0.7765  0.7161
 1625TIP3    H2 4840   4.760   0.962   5.439 -0.1753  0.7994  0.3812
 1626TIP3   OH2 4841   1.691   1.756   4.185  0.1462  0.1804 -0.7255
 1626TIP3    H1 4842   1.701   1.666   4.154 -1.7173 -0.0679 -0.7189
 1626TIP3    H2 4843   1.708   1.752   4.279  1.9465  0.2204 -1.0104
 1627TIP3   OH2 4844   5.369   1.311   1.686 -0.1644  0.3667 -0.1200
 1627TIP3    H1 4845   5.423   1.258   1.744 -1.3421 -0.2062  0.4796
 1627TIP3    H2 4846   5.338   1.384   1.740 -0.9946  0.0143 -0.1115
 1628TIP3   OH2 4847   0.263   3.684   2.808 -0.1243  0.4124  0.4802
 1628TIP3    H1 4848   0.240   3.769   2.847  0.3776  1.2682 -1.0284
 1628TIP3    H2 4849   0.306   3.636   2.879  0.4735  1.7936  1.0811
 1629TIP3   OH2 4850   3.517   1.804   5.653 -0.3211  0.2754 -0.4004
 1629TIP3    H1 4851   3.607   1.778   5.674 -0.5375  0.2104  0.4541
 1629TIP3    H2 4852   3.476   1.723   5.621  0.8264  0.9467 -4.0658
 1630TIP3   OH2 4853   2.086   2.528   5.369  0.8009 -1.0498  0.4767
 1630TIP3    H1 4854   2.100   2.490   5.282 -0.2481  1.4038 -0.8617
 1630TIP3    H2 4855   2.160   2.587   5.381  0.5262 -0.7905  0.9064
 1631TIP3   OH2 4856   2.291   0.453   1.525  0.3842  0.1338 -0.3010
 1631TIP3    H1 4857   2.377   0.414   1.541  0.4820  0.7465  0.8184
 1631TIP3    H2 4858   2.262   0.481   1.612  0.0060  1.8753 -0.9497
 1632TIP3   OH2 4859   5.015   2.440   3.369 -0.1814  0.1586  0.2412
 1632TIP3    H1 4860   4.924   2.418   3.386 -0.0671 -2.8357 -2.2732
 1632TIP3    H2 4861   5.065   2.374   3.416  0.5902  0.3086 -0.3483
 1633TIP3   OH2 4862   6.584   4.899   5.370 -0.2332 -0.0447  0.4163
 1633TIP3    H1 4863   6.592   4.813   5.328  0.8038  1.5581 -3.0431
 1633TIP3    H2 4864   6.496   4.929   5.346  0.7374  1.3148 -1.7117
 1634TIP3   OH2 4865   1.034   3.650   2.122 -0.0008 -0.0728  0.0955
 1634TIP3    H1 4866   1.076   3.582   2.070 -0.7955 -0.9068  0.5049
 1634TIP3    H2 4867   1.063   3.633   2.212 -1.1294 -0.6227  0.3723
 1635TIP3   OH2 4868   5.008   2.562   4.456  0.1497 -0.6014 -0.0177
 1635TIP3    H1 4869   5.023   2.560   4.551 -2.2038 -0.4489  0.4139
 1635TIP3    H2 4870   4.948   2.636   4.443  1.2417  0.0433 -1.7917
 1636TIP3   OH2 4871   4.003   4.380   2.902 -0.0289 -0.1742 -0.0385
 1636TIP3    H1 4872   3.963   4.367   2.988 -1.7966 -0.4508 -0.8667
 1636TIP3    H2 4873   4.030   4.292   2.875 -0.7459 -0.3029 -0.3526
 1637TIP3   OH2 4874   6.026   4.695   0.876 -0.8355  0.0887 -0.5594
 1637TIP3    H1 4875   6.004   4.683   0.783  1.4994 -0.9330 -1.0407
 1637TIP3    H2 4876   6.121   4.686   0.879 -0.8259  0.5238  1.9010
 1638TIP3   OH2 4877   4.419   6.138   2.732 -0.5497 -0.2724  0.3906
 1638TIP3    H1 4878   4.468   6.195   2.673  0.3309  0.0709  1.4065
 1638TIP3    H2 4879   4.387   6.197   2.800 -0.2382 -0.8703  1.0700
 1639TIP3   OH2 4880   2.785   0.291   0.625  0.1721 -0.7244 -0.0033
 1639TIP3    H1 4881   2.790   0.371   0.678  0.5773  0.0604 -1.1762
 1639TIP3    H2 4882   2.697   0.291   0.589  0.2285 -0.7009 -0.1447
 1640TIP3   OH2 4883   3.122   3.968   3.909  0.1809 -0.1404 -0.0683
 1640TIP3    H1 4884   3.193   3.904   3.912 -0.8537 -1.2843  2.0128
 1640TIP3    H2 4885   3.139   4.026   3.984  0.1774  1.0514 -0.9513
 1641TIP3   OH2 4886   5.503   1.559   1.957  0.1710  0.0984  0.3852
 1641TIP3    H1 4887   5.554   1.478   1.952  0.2552  0.2211 -0.9901
 1641TIP3    H2 4888   5.436   1.550   1.890 -0.0632  1.0165  0.4748
 1642TIP3   OH2 4889   0.522   6.406   4.993 -0.4847  0.0174  0.3123
 1642TIP3    H1 4890   0.481   6.371   4.914 -1.7488  2.1304 -0.0510
 1642TIP3    H2 4891   0.458   6.393   5.062  0.3737 -1.2747  0.9009
 1643TIP3   OH2 4892   4.948   5.493   5.825 -0.0108 -0.4515  0.1950
 1643TIP3    H1 4893   4.959   5.452   5.740 -0.6686 -1.7583  0.7096
 1643TIP3    H2 4894   5.017   5.559   5.829 -0.0419 -0.2911 -1.3800
 1644TIP3   OH2 4895   1.274   4.147   4.053  0.5088 -0.4223 -0.3739
 1644TIP3    H1 4896   1.361   4.164   4.016  0.9304 -1.3708  0.1388
 1644TIP3    H2 4897   1.291   4.087   4.126 -0.2615  1.3944  1.4134
 1645TIP3   OH2 4898   6.321   4.511   0.182  0.2428 -0.0271 -0.6378
 1645TIP3    H1 4899   6.375   4.452   0.235 -0.0440  0.2808  0.0022
 1645TIP3    H2 4900   6.377   4.535   0.108 -0.0522 -2.0556 -1.5683
 1646TIP3   OH2 4901   5.882   1.929   5.577  0.3396 -0.5643  0.1044
 1646TIP3    H1 4902   5.792   1.956   5.560  0.8671  1.0686 -0.3393
 1646TIP3    H2 4903   5.912   1.990   5.645  1.5220 -0.1548 -0.7471
 1647TIP3   OH2 4904   6.974   1.282   1.260  0.1023 -0.4874 -0.1063
 1647TIP3    H1 4905   6.937   1.370   1.257 -0.6081 -0.8039 -1.2301
 1647TIP3    H2 4906   7.024   1.279   1.342 -1.7510  0.2042  1.0960
 1648TIP3   OH2 4907   3.297   5.636   1.519  0.0624  0.1408 -0.6820
 1648TIP3    H1 4908   3.249   5.714   1.545 -1.0790 -0.9695  0.7047
 1648TIP3    H2 4909   3.349   5.613   1.596  1.0262 -0.0280 -1.3602
 1649TIP3   OH2 4910   4.384   5.804   4.685  0.3797  0.4494 -0.4837
 1649TIP3    H1 4911   4.335   5.873   4.641  0.6601  0.9639 -0.0048
 1649TIP3    H2 4912   4.320   5.763   4.744 -0.2199 -0.7985 -1.9494
 1650TIP3   OH2 4913   7.101   4.212   0.688 -0.0535  0.2612  0.2379
 1650TIP3    H1 4914   7.112   4.302   0.657  0.9153 -0.1446 -0.6879
 1650TIP3    H2 4915   7.190   4.180   0.701 -0.4091 -0.1314  1.9327
 1651TIP3   OH2 4916   5.669   6.027   2.181  0.0596  0.3535  0.1404
 1651TIP3    H1 4917   5.735   6.067   2.125  1.0308  0.4677  1.3366
 1651TIP3    H2 4918   5.646   5.945   2.137  0.6405  0.5449 -0.5290
 1652TIP3   OH2 4919   1.420   6.032   5.832  0.1522  0.5776  0.2227
 1652TIP3    H1 4920   1.432   6.124   5.853 -0.2513  0.4819  0.8855
 1652TIP3    H2 4921   1.384   5.993   5.911 -2.6522  0.4558 -1.0067
 1653TIP3   OH2 4922   3.435   2.142   3.957  0.0241  0.1754  0.7436
 1653TIP3    H1 4923   3.356   2.091   3.978  1.1355 -1.8487  0.2815
 1653TIP3    H2 4924   3.404   2.232   3.950 -2.2239 -0.5283  0.7542
 1654TIP3   OH2 4925   1.146   5.810   2.964  0.3390 -0.1565 -0.6396
 1654TIP3    H1 4926   1.113   5.844   2.881  0.1991  1.2445 -0.0355
 1654TIP3    H2 4927   1.074   5.822   3.026  0.8283 -0.1261 -0.0596
 1655TIP3   OH2 4928   5.624   1.508   3.705  0.1758  0.2103  0.0033
 1655TIP3    H1 4929   5.652   1.517   3.796 -0.6139 -0.6517  0.3455
 1655TIP3    H2 4930   5.539   1.464   3.710  0.0457  0.2986 -1.1444
 1656TIP3   OH2 4931   1.942   1.460   1.593  0.2862 -0.1847 -0.0050
 1656TIP3    H1 4932   1.884   1.536   1.588 -1.1727 -1.2158  0.8052
 1656TIP3    H2 4933   2.014   1.482   1.533 -0.4153  1.5491 -0.2785
 1657TIP3   OH2 4934   2.790   5.574   3.339 -0.0965 -0.6030 -0.6709
 1657TIP3    H1 4935   2.791   5.495   3.285 -0.7759 -1.8660  1.0948
 1657TIP3    H2 4936   2.716   5.562   3.398  0.4958  0.8284  0.4186
 1658TIP3   OH2 4937   3.466   0.365   2.552 -0.0633 -0.1947 -0.0480
 1658TIP3    H1 4938   3.382   0.319   2.560  1.0435 -2.0514  2.0911
 1658TIP3    H2 4939   3.466   0.428   2.624 -0.6406  1.6953 -1.6289
 1659TIP3   OH2 4940   5.783   1.349   1.005 -0.0430  0.0874  0.0421
 1659TIP3    H1 4941   5.853   1.375   0.945  0.3441 -1.3744 -0.1881
 1659TIP3    H2 4942   5.723   1.298   0.951 -0.0844 -0.6008  0.7194
 1660TIP3   OH2 4943   5.592   6.354   4.881  0.3795  0.1402  0.6744
 1660TIP3    H1 4944   5.503   6.387   4.895  0.8505  1.4668  0.6724
 1660TIP3    H2 4945   5.644   6.394   4.950  0.9124 -0.9678  0.9359
 1661TIP3   OH2 4946   0.943   1.823   2.440 -0.1423 -0.5921  0.1182
 1661TIP3    H1 4947   0.894   1.810   2.521 -0.5126  0.6159  0.1158
 1661TIP3    H2 4948   1.035   1.829   2.467 -0.4825  3.3695  1.0269
 1662TIP3   OH2 4949   7.213   1.783   5.114  0.5496  0.0766 -0.4582
 1662TIP3    H1 4950   7.170   1.868   5.106  0.3151  0.0040 -0.0024
 1662TIP3    H2 4951   7.168   1.740   5.187  1.9363  0.3287  0.5948
 1663TIP3   OH2 4952   0.839   1.287   0.394  0.0987  0.3960 -0.3940
 1663TIP3    H1 4953   0.759   1.248   0.429 -0.1100  0.6669 -0.5544
 1663TIP3    H2 4954   0.809   1.367   0.350  0.1849 -0.4986 -2.1885
 1664TIP3   OH2 4955   6.989   1.781   4.228 -0.9977 -0.6440 -0.1078
 1664TIP3    H1 4956   6.923   1.845   4.204 -0.8298  0.5979  2.3747
 1664TIP3    H2 4957   6.953   1.737   4.305  0.8275 -0.2144  1.0598
 1665TIP3   OH2 4958   5.127   6.575   1.555  0.0951  0.5371 -0.2081
 1665TIP3    H1 4959   5.147   6.656   1.509 -0.0910  0.5053 -0.3472
 1665TIP3    H2 4960   5.078   6.601   1.632  0.8825  0.6378  0.2745
 1666TIP3   OH2 4961   0.745   4.614   2.329 -0.2889  0.5272  0.6513
 1666TIP3    H1 4962   0.702   4.529   2.344  2.0253 -0.7820  0.3791
 1666TIP3    H2 4963   0.767   4.613   2.236  1.6277  0.4428  1.0728
 1667TIP3   OH2 4964   6.778   3.982   2.836  0.2851  0.4108  0.4474
 1667TIP3    H1 4965   6.685   3.996   2.853  0.8026  3.5053  1.3504
 1667TIP3    H2 4966   6.789   4.000   2.743 -0.2070 -1.4760 -0.0068
 1668TIP3   OH2 4967   1.988   5.042   1.241 -0.8127 -0.5950 -0.2049
 1668TIP3    H1 4968   1.998   5.076   1.330  0.6240 -1.1265 -0.1371
 1668TIP3    H2 4969   1.961   4.951   1.254 -1.0404 -0.5448 -0.3260
 1669TIP3   OH2 4970   3.231   4.212   0.091  0.2242 -0.2275  0.2185
 1669TIP3    H1 4971   3.175   4.248   0.022 -0.4949 -2.3818 -0.3863
 1669TIP3    H2 4972   3.297   4.162   0.044  0.1133 -1.2035  1.0780
 1670TIP3   OH2 4973   6.858   2.686   2.965 -0.3093  0.4316 -0.0963
 1670TIP3    H1 4974   6.891   2.618   2.907  2.2161  0.0877  1.6018
 1670TIP3    H2 4975   6.922   2.757   2.958  0.2337  0.2714  2.3936
 1671TIP3   OH2 4976   2.629   0.539   2.473  0.3447 -0.0993  0.3194
 1671TIP3    H1 4977   2.552   0.588   2.502  0.2388 -0.1350  0.1047
 1671TIP3    H2 4978   2.617   0.451   2.510 -0.3488 -0.4655 -0.7356
 1672TIP3   OH2 4979   3.773   4.241   4.488  0.2194  0.5904 -0.5306
 1672TIP3    H1 4980   3.712   4.182   4.443 -0.7468 -0.2149  1.6600
 1672TIP3    H2 4981   3.744   4.239   4.580  3.5779  0.0985  0.6601
 1673TIP3   OH2 4982   1.897   5.583   3.409  0.0968  0.2057 -0.0786
 1673TIP3    H1 4983   1.815   5.632   3.411 -0.1247 -0.1475 -0.4430
 1673TIP3    H2 4984   1.879   5.508   3.353  0.5816 -0.0316  0.0780
 1674TIP3   OH2 4985   2.166   3.636   2.784  0.6263  0.6628 -0.4153
 1674TIP3    H1 4986   2.243   3.622   2.729  0.7322  1.2426 -0.4166
 1674TIP3    H2 4987   2.099   3.667   2.723 -0.1588 -1.4671 -0.7435
 1675TIP3   OH2 4988   1.578   2.524   1.007 -0.5591  0.0327 -0.1427
 1675TIP3    H1 4989   1.669   2.504   0.984 -0.6463 -1.4798  0.7207
 1675TIP3    H2 4990   1.568   2.616   0.985  1.1354  0.1870 -0.4121
 1676TIP3   OH2 4991   4.915   4.618   5.595 -0.2627 -0.3168 -0.2536
 1676TIP3    H1 4992   4.851   4.548   5.602 -1.7278  0.9084 -0.8065
 1676TIP3    H2 4993   4.973   4.591   5.523 -0.3510 -1.2670  0.0203
 1677TIP3   OH2 4994   2.275   4.488   1.725 -0.3622 -0.5247  0.2562
 1677TIP3    H1 4995   2.223   4.408   1.725 -1.8350  0.3529 -1.4395
 1677TIP3    H2 4996   2.340   4.475   1.794 -2.0201 -2.2064  1.5829
 1678TIP3   OH2 4997   2.710   3.175   3.542 -0.3892 -1.1234 -0.3299
 1678TIP3    H1 4998   2.684   3.196   3.452 -0.3905  0.0007 -0.0729
 1678TIP3    H2 4999   2.764   3.249   3.570  1.0095 -2.2295  0.0319
 1679TIP3   OH2 5000   0.083   6.194   4.471  0.4151 -0.6627 -0.3721
 1679TIP3    H1 5001   0.004   6.238   4.438  0.3612  0.1800  0.8085
 1679TIP3    H2 5002   0.132   6.263   4.514 -0.2608 -1.9329  2.6683
 1680TIP3   OH2 5003   3.844   2.228   3.068  0.2133  0.6119  0.2937
 1680TIP3    H1 5004   3.794   2.249   3.146 -0.5881  1.4701 -0.4415
 1680TIP3    H2 5005   3.932   2.261   3.086 -0.3679  2.2888  0.2074
 1681TIP3   OH2 5006   3.897   2.862   3.899 -0.5055 -0.0548 -0.1479
 1681TIP3    H1 5007   3.930   2.897   3.982  0.4936 -1.9820  0.3214
 1681TIP3    H2 5008   3.803   2.882   3.899 -0.4198  0.3912  1.2174
 1682TIP3   OH2 5009   3.534   5.480   1.960  0.0238  0.3908  0.1409
 1682TIP3    H1 5010   3.557   5.387   1.954  1.1381  0.7299 -1.9859
 1682TIP3    H2 5011   3.558   5.505   2.049  4.0300 -0.3636 -0.5360
 1683TIP3   OH2 5012   0.958   1.149   4.907  0.1153  0.0940  0.2660
 1683TIP3    H1 5013   0.869   1.147   4.871  0.4981 -0.0001 -0.7010
 1683TIP3    H2 5014   0.947   1.184   4.995 -0.5010  3.6897 -1.0729
 1684TIP3   OH2 5015   0.731   1.692   0.069 -0.1965  0.5063  0.0427
 1684TIP3    H1 5016   0.655   1.661   0.020 -0.5152 -0.8706  1.3305
 1684TIP3    H2 5017   0.796   1.714   0.002 -2.0379  2.7523 -1.1467
 1685TIP3   OH2 5018   5.123   0.220   1.625  0.5213  0.2900  0.2484
 1685TIP3    H1 5019   5.185   0.211   1.553  0.6367  1.4480  0.1887
 1685TIP3    H2 5020   5.176   0.204   1.704  0.0876 -2.5116  0.0680
 1686TIP3   OH2 5021   5.301   0.594   3.247 -0.0296  0.6200 -0.3411
 1686TIP3    H1 5022   5.292   0.507   3.208 -0.1237  1.2129 -1.6993
 1686TIP3    H2 5023   5.393   0.615   3.237  0.3047  0.1042  1.3209
 1687TIP3   OH2 5024   5.532   2.959   5.523  0.1474 -0.3942 -0.6836
 1687TIP3    H1 5025   5.533   2.888   5.588 -1.7297  0.7217  0.6801
 1687TIP3    H2 5026   5.491   2.920   5.446 -0.3489 -0.9662 -0.1518
 1688TIP3   OH2 5027   5.321   3.344   3.011  0.1608  0.0444 -0.2172
 1688TIP3    H1 5028   5.237   3.379   2.981  0.0878 -0.3314 -0.4601
 1688TIP3    H2 5029   5.382   3.417   3.000  0.1860 -0.1456 -1.5191
 1689TIP3   OH2 5030   4.808   4.880   2.979  0.0341 -0.2805  0.3322
 1689TIP3    H1 5031   4.754   4.903   2.904 -0.9216 -1.2104  0.7103
 1689TIP3    H2 5032   4.779   4.940   3.048  0.0467 -0.2500  0.3114
 1690TIP3   OH2 5033   2.133   1.640   1.032  0.4078  0.4367 -0.2730
 1690TIP3    H1 5034   2.118   1.546   1.019 -0.0118  0.5172 -0.3883
 1690TIP3    H2 5035   2.228   1.649   1.035  0.4482 -0.2382  1.6354
 1691TIP3   OH2 5036   1.185   1.459   2.191  0.1505 -0.0775 -0.4072
 1691TIP3    H1 5037   1.262   1.460   2.134  0.8055 -2.4484  0.3154
 1691TIP3    H2 5038   1.218   1.490   2.276  0.3468 -1.1205 -0.0904
 1692TIP3   OH2 5039   2.794   4.086   0.671 -0.5411 -0.1825  0.3964
 1692TIP3    H1 5040   2.828   4.106   0.758  1.1818 -1.7414  0.1625
 1692TIP3    H2 5041   2.762   3.996   0.678  0.6569 -0.7432 -0.8086
 1693TIP3   OH2 5042   0.224   3.642   4.462 -0.0795 -0.1819 -0.0707
 1693TIP3    H1 5043   0.217   3.555   4.503 -0.4877 -0.1156  0.0077
 1693TIP3    H2 5044   0.153   3.692   4.502  1.7256  0.9942  1.8517
 1694TIP3   OH2 5045   3.397   3.709   4.357 -0.1955 -0.6792 -0.3621
 1694TIP3    H1 5046   3.470   3.741   4.305  0.9268 -0.3978  1.3156
 1694TIP3    H2 5047   3.321   3.717   4.299  0.8012  0.7128 -1.5438
 1695TIP3   OH2 5048   1.132   5.552   5.824  0.4817 -0.1007  0.4088
 1695TIP3    H1 5049   1.208   5.500   5.799 -1.0731 -3.0433  1.2552
 1695TIP3    H2 5050   1.141   5.564   5.918  0.1176 -0.0826  0.4424
 1696TIP3   OH2 5051   0.461   6.302   5.779 -0.3309  0.5780  0.6079
 1696TIP3    H1 5052   0.476   6.213   5.747 -0.0800  0.6762  0.4482
 1696TIP3    H2 5053   0.459   6.356   5.700  0.0929  0.7929  0.7406
 1697TIP3   OH2 5054   5.345   4.643   2.790  0.3755 -0.5457  0.5826
 1697TIP3    H1 5055   5.392   4.675   2.868 -0.0930 -0.0376  0.6612
 1697TIP3    H2 5056   5.413   4.634   2.723  0.5452  0.4860  0.5994
 1698TIP3   OH2 5057   0.615   1.795   4.147 -0.0612  0.9297 -0.4345
 1698TIP3    H1 5058   0.621   1.792   4.052 -0.5619  0.8363 -0.4633
 1698TIP3    H2 5059   0.622   1.888   4.169 -0.9875  1.0541 -0.6352
 1699TIP3   OH2 5060   2.421   5.211   2.795 -0.4877  0.1015 -0.5914
 1699TIP3    H1 5061   2.414   5.118   2.815  1.3605  0.2723  1.2245
 1699TIP3    H2 5062   2.486   5.216   2.725  1.3899  0.0782  1.0371
 1700TIP3   OH2 5063   4.843   4.853   1.709 -0.0982 -0.0773 -0.4995
 1700TIP3    H1 5064   4.935   4.879   1.701  0.2228 -1.1871 -0.6710
 1700TIP3    H2 5065   4.847   4.761   1.735 -1.1267 -0.9407 -3.1223
 1701TIP3   OH2 5066   2.663   4.027   4.088  0.1708  0.5015  0.4785
 1701TIP3    H1 5067   2.708   3.974   4.022 -0.2964  1.8617 -0.9958
 1701TIP3    H2 5068   2.730   4.087   4.121 -0.2582  1.9099 -1.0588
 1702TIP3   OH2 5069   3.303   0.566   0.574 -0.0586  0.1401  0.4857
 1702TIP3    H1 5070   3.321   0.646   0.623  4.3375 -0.0969 -0.3441
 1702TIP3    H2 5071   3.320   0.496   0.636  0.6304 -0.1224  0.0162
 1703TIP3   OH2 5072   0.195   0.562   5.429 -0.0962 -0.0643 -0.7890
 1703TIP3    H1 5073   0.263   0.503   5.461  0.4476  1.1129  0.3180
 1703TIP3    H2 5074   0.235   0.608   5.355 -0.2253 -0.4603 -1.1079
 1704TIP3   OH2 5075   1.116   6.047   4.307 -0.0768  0.1068  0.3456
 1704TIP3    H1 5076   1.130   5.962   4.349 -0.6522  0.2366  0.8177
 1704TIP3    H2 5077   1.117   6.109   4.380 -0.1258  0.4540  0.0521
 1705TIP3   OH2 5078   1.950   0.149   3.436  0.1238  0.4319  0.3969
 1705TIP3    H1 5079   1.864   0.133   3.475 -0.1410  0.5407 -0.1437
 1705TIP3    H2 5080   2.010   0.148   3.511 -0.4800  1.4425  0.9204
 1706TIP3   OH2 5081   5.657   3.523   5.644  0.3329 -0.2848  0.4510
 1706TIP3    H1 5082   5.680   3.461   5.712  1.3969 -0.0843  0.2867
 1706TIP3    H2 5083   5.697   3.488   5.564 -0.2646 -0.1311  0.0771
 1707TIP3   OH2 5084   0.651   5.773   0.027 -0.4052 -0.5601 -0.2669
 1707TIP3    H1 5085   0.696   5.783  -0.057 -1.1297 -0.0722 -0.6103
 1707TIP3    H2 5086   0.700   5.705   0.073  1.4325  0.7830 -0.1193
 1708TIP3   OH2 5087   5.662   3.771   2.735  0.2831 -0.1405 -0.3136
 1708TIP3    H1 5088   5.597   3.831   2.698  0.6131 -0.2521 -1.1060
 1708TIP3    H2 5089   5.731   3.829   2.768  0.5156 -0.0622 -0.9115
 1709TIP3   OH2 5090   5.002   0.827   1.956  0.1166  0.1658 -0.1392
 1709TIP3    H1 5091   4.922   0.857   1.913  0.4698  0.8760 -0.3228
 1709TIP3    H2 5092   5.044   0.770   1.891 -1.2387 -1.9448  0.7223
 1710TIP3   OH2 5093   5.701   5.965   4.098  0.4001  0.3130 -0.3595
 1710TIP3    H1 5094   5.627   5.936   4.045  0.3956 -1.1713  0.4187
 1710TIP3    H2 5095   5.687   6.060   4.107 -1.8967 -0.0284  0.4562
 1711TIP3   OH2 5096   1.031   0.595   2.427  0.2751  0.0714  0.1931
 1711TIP3    H1 5097   0.950   0.622   2.470  0.9475  0.2129  1.4263
 1711TIP3    H2 5098   1.032   0.499   2.435  1.0556  0.1793  1.7952
 1712TIP3   OH2 5099   7.054   1.980   5.277 -0.0834  0.1701 -0.0683
 1712TIP3    H1 5100   7.080   2.072   5.274  1.7260 -0.3355 -2.1098
 1712TIP3    H2 5101   7.052   1.959   5.370 -3.4182  2.9436  0.6831
 1713TIP3   OH2 5102   2.774   6.631   5.891  0.2799 -0.2962 -0.1352
 1713TIP3    H1 5103   2.751   6.578   5.814  0.7409 -0.7458  0.0365
 1713TIP3    H2 5104   2.813   6.711   5.854  0.0166 -0.2759 -0.3787
 1714TIP3   OH2 5105   3.502   3.952   2.389  0.2741  0.4222  0.1157
 1714TIP3    H1 5106   3.412   3.921   2.399  0.3361  0.1357 -0.1629
 1714TIP3    H2 5107   3.494   4.040   2.353  0.0617  1.2691  2.1223
 1715TIP3   OH2 5108   0.540   5.377   3.170  0.1502 -0.3834 -0.1377
 1715TIP3    H1 5109   0.544   5.338   3.083 -0.6795  0.1237 -0.4140
 1715TIP3    H2 5110   0.517   5.304   3.228 -1.7165 -0.2930 -0.6974
 1716TIP3   OH2 5111   5.849   0.668   1.236 -0.5373 -0.3120  0.2169
 1716TIP3    H1 5112   5.872   0.604   1.303  0.5101  0.1663  0.3322
 1716TIP3    H2 5113   5.859   0.753   1.279  0.9055  0.0397 -0.7252
 1717TIP3   OH2 5114   0.402   2.900   4.818  0.0602  0.0153  0.0422
 1717TIP3    H1 5115   0.385   2.808   4.839  1.3730 -0.3759 -0.4828
 1717TIP3    H2 5116   0.380   2.948   4.898  2.9652 -1.1820  1.7158
 1718TIP3   OH2 5117   3.409   2.359   2.945  0.4222  0.3013 -0.4228
 1718TIP3    H1 5118   3.347   2.419   2.902  0.1761  2.2750  2.3759
 1718TIP3    H2 5119   3.487   2.361   2.889 -0.8038  0.5091 -2.2086
 1719TIP3   OH2 5120   4.776   5.985   5.497  0.4844  0.4713  0.0045
 1719TIP3    H1 5121   4.682   5.966   5.491  0.5608 -0.6173  1.6715
 1719TIP3    H2 5122   4.787   6.026   5.582  1.5316  0.5273 -0.1480
 1720TIP3   OH2 5123   1.487   4.329   2.037 -0.3253 -0.4695  0.0560
 1720TIP3    H1 5124   1.462   4.420   2.055  1.8057 -0.1844  1.9847
 1720TIP3    H2 5125   1.431   4.277   2.094 -1.4426 -0.3941 -0.9379
 1721TIP3   OH2 5126   1.181   4.642   4.609 -0.2765 -0.3651 -0.5000
 1721TIP3    H1 5127   1.252   4.584   4.580  0.1908 -0.3868  0.6251
 1721TIP3    H2 5128   1.226   4.716   4.650 -0.8944  0.2069 -0.8377
 1722TIP3   OH2 5129   3.216   3.188   2.494 -0.3242  0.7364  0.3678
 1722TIP3    H1 5130   3.148   3.247   2.460 -1.0651 -1.0615 -1.4476
 1722TIP3    H2 5131   3.293   3.209   2.442 -0.9669 -0.7511 -1.3057
 1723TIP3   OH2 5132   7.101   4.811   3.184  0.4094 -0.3075 -0.2093
 1723TIP3    H1 5133   7.145   4.759   3.117 -2.0790 -0.0191 -2.2307
 1723TIP3    H2 5134   7.116   4.902   3.159  0.5444 -0.1518  0.4082
 1724TIP3   OH2 5135   0.735   1.591   2.652 -0.3937  0.3180 -0.2945
 1724TIP3    H1 5136   0.809   1.627   2.702  0.6308 -0.6060 -1.0977
 1724TIP3    H2 5137   0.696   1.668   2.609 -0.4129  0.9233  0.7796
 1725TIP3   OH2 5138   1.389   1.099   5.328 -0.4800  0.0934  0.3192
 1725TIP3    H1 5139   1.307   1.065   5.291 -0.6124  0.2173  0.4995
 1725TIP3    H2 5140   1.366   1.125   5.417  0.1523 -1.5021  0.9806
 1726TIP3   OH2 5141   2.321   1.138   3.662  0.3046  0.0047  0.4455
 1726TIP3    H1 5142   2.296   1.190   3.738 -0.8552  1.6946 -1.0030
 1726TIP3    H2 5143   2.237   1.119   3.619  0.9974 -0.2409 -0.8206
 1727TIP3   OH2 5144   3.569   1.573   0.234  0.2321  0.3103  0.4929
 1727TIP3    H1 5145   3.573   1.492   0.183  1.3972 -1.6523  3.4256
 1727TIP3    H2 5146   3.476   1.585   0.252  0.0107 -0.1429 -0.3035
 1728TIP3   OH2 5147   1.088   0.595   4.318  0.3029  0.3209 -0.2175
 1728TIP3    H1 5148   1.172   0.605   4.363 -0.7278  2.3771  1.4141
 1728TIP3    H2 5149   1.063   0.684   4.293 -0.6150 -0.4429 -2.2680
 1729TIP3   OH2 5150   1.810   5.426   2.987  0.1490 -0.3378  0.1906
 1729TIP3    H1 5151   1.783   5.481   3.061  0.6653 -0.7103  0.6698
 1729TIP3    H2 5152   1.895   5.461   2.960 -0.6829  0.7000 -1.1734
 1730TIP3   OH2 5153   4.424   1.468   1.115 -0.7207  0.1593  0.3105
 1730TIP3    H1 5154   4.502   1.438   1.162 -1.3857 -0.2018  1.2166
 1730TIP3    H2 5155   4.356   1.404   1.137 -1.1919  0.2647 -0.7497
 1731TIP3   OH2 5156   1.550   4.217   0.341 -0.5398  0.6979  0.3134
 1731TIP3    H1 5157   1.563   4.249   0.252  0.8110 -2.0807 -0.6032
 1731TIP3    H2 5158   1.616   4.263   0.394  0.2975  0.6020 -0.6270
 1732TIP3   OH2 5159   4.343   0.241   0.675 -0.1651  0.4210 -0.4844
 1732TIP3    H1 5160   4.345   0.190   0.756  1.3006 -0.6865 -1.1655
 1732TIP3    H2 5161   4.251   0.240   0.648 -0.9851  2.1588  1.9362
 1733TIP3   OH2 5162   4.450   1.107   5.302 -0.0381  0.1660 -0.5381
 1733TIP3    H1 5163   4.398   1.057   5.239 -0.6527  0.4267 -0.2465
 1733TIP3    H2 5164   4.389   1.125   5.374  0.2201  1.2149 -0.5751
 1734TIP3   OH2 5165   5.799   0.615   2.230 -0.2360 -0.0337  0.5550
 1734TIP3    H1 5166   5.839   0.647   2.149  1.3142 -0.5477  1.0877
 1734TIP3    H2 5167   5.817   0.684   2.294 -3.0835  1.2836  0.1322
 1735TIP3   OH2 5168   2.383   0.513   2.024 -0.0129  0.1734 -0.6526
 1735TIP3    H1 5169   2.378   0.585   2.088 -0.7008 -0.4834  0.0517
 1735TIP3    H2 5170   2.421   0.440   2.074 -3.3280 -1.3057 -0.0567
 1736TIP3   OH2 5171   3.703   3.413   1.365 -0.1397 -0.4045  0.3592
 1736TIP3    H1 5172   3.767   3.400   1.295 -0.4451  0.7389 -0.1678
 1736TIP3    H2 5173   3.686   3.326   1.399  0.7307 -0.8722 -0.3639
 1737TIP3   OH2 5174   1.978   2.824   2.816  0.4389 -0.4196  0.3169
 1737TIP3    H1 5175   2.024   2.807   2.733 -0.5848 -1.2252 -0.1071
 1737TIP3    H2 5176   2.005   2.913   2.840 -0.8317  0.6853 -1.9716
 1738TIP3   OH2 5177   0.358   1.413   5.597  0.0034  0.3820  0.5427
 1738TIP3    H1 5178   0.410   1.485   5.563 -1.3931  1.6866  1.0464
 1738TIP3    H2 5179   0.363   1.345   5.530 -0.6386  1.9080 -1.1123
 1739TIP3   OH2 5180   2.147   0.125   1.641  0.3495  0.0269 -0.2803
 1739TIP3    H1 5181   2.071   0.097   1.691 -0.3780  0.9541 -0.8274
 1739TIP3    H2 5182   2.216   0.139   1.707 -0.2383  0.1022  0.3246
 1740TIP3   OH2 5183   1.318   4.303   0.494  0.0013 -0.2172 -0.0148
 1740TIP3    H1 5184   1.244   4.339   0.444  1.9260  3.2734 -0.7144
 1740TIP3    H2 5185   1.374   4.262   0.428 -0.2377 -0.8743  0.1853
 1741TIP3   OH2 5186   6.972   6.207   5.645  0.0485 -0.1809  0.2028
 1741TIP3    H1 5187   7.040   6.147   5.673 -0.2446 -0.0668  1.1720
 1741TIP3    H2 5188   6.909   6.151   5.599  0.2981 -0.4366  0.1663
 1742TIP3   OH2 5189   3.568   1.363   4.127  0.8691  0.3642  0.1330
 1742TIP3    H1 5190   3.650   1.400   4.161 -0.0680  0.6804  2.1599
 1742TIP3    H2 5191   3.500   1.395   4.186 -0.6004 -0.7522 -0.8807
 1743TIP3   OH2 5192   7.084   1.797   1.992  0.1386  0.2282 -0.1738
 1743TIP3    H1 5193   7.020   1.845   2.044 -1.1596 -2.1622  0.6214
 1743TIP3    H2 5194   7.153   1.860   1.974 -1.9434  2.6625 -0.2183
 1744TIP3   OH2 5195   6.916   5.350   2.158 -0.9985 -0.2625 -0.0379
 1744TIP3    H1 5196   6.866   5.321   2.235  0.7583 -0.4205  1.1097
 1744TIP3    H2 5197   6.874   5.432   2.132 -1.5601 -0.1277  1.1829
 1745TIP3   OH2 5198   7.024   6.452   3.373 -0.6402 -0.3688 -0.6414
 1745TIP3    H1 5199   6.985   6.490   3.295  0.2867  2.3920  0.1272
 1745TIP3    H2 5200   7.119   6.455   3.358 -0.4248  0.4972  0.6423
 1746TIP3   OH2 5201   5.561   3.580   5.391  0.3219 -0.0602  0.5251
 1746TIP3    H1 5202   5.540   3.489   5.414 -0.9351 -0.2188 -1.0739
 1746TIP3    H2 5203   5.518   3.632   5.459 -0.9393 -0.6065  0.1752
 1747TIP3   OH2 5204   5.608   0.265   5.760  0.3143  0.4775 -0.1660
 1747TIP3    H1 5205   5.635   0.251   5.669 -1.0268  0.4838 -0.5791
 1747TIP3    H2 5206   5.631   0.356   5.779  1.3891  0.2246 -0.2052
 1748TIP3   OH2 5207   6.233   3.770   1.331 -0.3522 -0.2063 -1.0279
 1748TIP3    H1 5208   6.290   3.748   1.405 -0.9454 -0.4632 -0.6407
 1748TIP3    H2 5209   6.146   3.780   1.370 -0.5092  0.5284 -1.5596
 1749TIP3   OH2 5210   0.162   6.753   2.221  0.3171 -0.1479 -0.0773
 1749TIP3    H1 5211   0.106   6.705   2.161 -1.6504  2.5021 -0.5350
 1749TIP3    H2 5212   0.229   6.792   2.166  1.6773 -1.8647  0.2468
 1750TIP3   OH2 5213   1.022   5.280   0.950 -0.2245  0.5327  0.1316
 1750TIP3    H1 5214   0.941   5.321   0.921  1.7675  1.8295 -4.4144
 1750TIP3    H2 5215   1.017   5.191   0.916  0.5926  0.9333 -1.1089
 1751TIP3   OH2 5216   7.068   3.048   4.177 -0.3108 -0.1126 -0.2198
 1751TIP3    H1 5217   7.135   3.062   4.110 -1.2052  3.8493 -0.5404
 1751TIP3    H2 5218   7.015   2.976   4.143  0.8046  0.0403 -2.4886
 1752TIP3   OH2 5219   4.797   5.222   0.571 -0.4044 -0.1632  0.0177
 1752TIP3    H1 5220   4.775   5.220   0.664 -2.5742 -1.1199 -0.4661
 1752TIP3    H2 5221   4.713   5.214   0.526  0.5763  0.4343 -2.0486
 1753TIP3   OH2 5222   0.929   5.304   2.796  0.1906 -0.0212 -0.0692
 1753TIP3    H1 5223   0.896   5.227   2.749  1.0405  0.3547 -1.3413
 1753TIP3    H2 5224   0.944   5.369   2.728  1.5825  0.5078  0.7014
 1754TIP3   OH2 5225   0.625   5.301   1.238 -0.3364  0.5217 -0.6227
 1754TIP3    H1 5226   0.718   5.297   1.213 -0.1597  1.5525 -0.1581
 1754TIP3    H2 5227   0.609   5.393   1.257 -0.3730 -0.1672  3.4492
 1755TIP3   OH2 5228   6.578   2.357   5.721 -0.0893  0.3686  0.4537
 1755TIP3    H1 5229   6.582   2.436   5.774  1.0738  0.2059  0.6210
 1755TIP3    H2 5230   6.661   2.312   5.737 -0.2521 -0.3161 -0.5157
 1756TIP3   OH2 5231   5.533   5.897   5.635  0.2956 -0.1723 -0.3477
 1756TIP3    H1 5232   5.515   5.840   5.710  0.6401  0.0153 -0.1235
 1756TIP3    H2 5233   5.486   5.855   5.562 -0.6512  0.0454  0.1240
 1757TIP3   OH2 5234   3.701   3.034   4.216  0.0698  0.3816 -0.2707
 1757TIP3    H1 5235   3.689   3.122   4.253 -0.7944  0.0730  0.2223
 1757TIP3    H2 5236   3.790   3.034   4.182 -0.8708  2.4570 -3.0276
 1758TIP3   OH2 5237   6.943   0.595   4.663 -0.2132  0.5285  0.3362
 1758TIP3    H1 5238   6.975   0.505   4.663 -1.7521 -0.0493  0.2113
 1758TIP3    H2 5239   7.011   0.645   4.708  0.7748 -0.6497  0.1973
 1759TIP3   OH2 5240   5.452   2.513   1.473 -0.1117  0.1323 -0.0004
 1759TIP3    H1 5241   5.457   2.418   1.488  2.9048 -0.0075 -1.2443
 1759TIP3    H2 5242   5.404   2.521   1.390  2.7817 -0.6744 -1.8877
 1760TIP3   OH2 5243   6.577   2.217   5.101  0.4350 -0.5461 -0.1115
 1760TIP3    H1 5244   6.558   2.214   5.195  0.4813 -0.6331 -0.1044
 1760TIP3    H2 5245   6.551   2.305   5.074 -0.4115 -0.8224 -0.2004
 1761TIP3   OH2 5246   3.910   2.287   4.020 -0.3607  0.0823 -0.1728
 1761TIP3    H1 5247   3.880   2.322   4.104 -0.8505 -1.2507  0.2343
 1761TIP3    H2 5248   3.829   2.275   3.969 -0.5287 -2.6030  0.5703
 1762TIP3   OH2 5249   7.221   0.491   2.882 -0.0881 -0.1391  0.3154
 1762TIP3    H1 5250   7.210   0.408   2.837 -2.1217  0.1346  0.2374
 1762TIP3    H2 5251   7.175   0.480   2.965  2.0867 -0.0279  1.6262
 1763TIP3   OH2 5252   0.350   0.922   0.071 -0.5760  0.4541  0.1259
 1763TIP3    H1 5253   0.293   0.911   0.147 -1.7424 -0.9351 -0.8983
 1763TIP3    H2 5254   0.293   0.907  -0.005  0.7283  0.9809 -0.9991
 1764TIP3   OH2 5255   1.117   0.773   3.206  0.2379  0.5279  0.0816
 1764TIP3    H1 5256   1.110   0.858   3.248 -0.9205  0.0474  0.8980
 1764TIP3    H2 5257   1.109   0.710   3.277  1.6675 -0.2874 -0.4331
 1765TIP3   OH2 5258   1.276   0.113   3.896  0.7156  0.0020 -0.0648
 1765TIP3    H1 5259   1.181   0.105   3.897  0.6028  0.9659 -1.2525
 1765TIP3    H2 5260   1.297   0.163   3.976  0.1404  0.4836 -0.2070
 1766TIP3   OH2 5261   1.180   4.358   3.147  0.4793 -0.3628 -0.2944
 1766TIP3    H1 5262   1.160   4.341   3.055  1.3199 -0.9767 -0.3746
 1766TIP3    H2 5263   1.273   4.381   3.147 -0.1137  2.3795  0.0668
 1767TIP3   OH2 5264   7.076   1.642   5.329  0.3015  0.7844 -0.8047
 1767TIP3    H1 5265   6.998   1.698   5.331  0.5704  1.2450 -2.2114
 1767TIP3    H2 5266   7.116   1.654   5.415 -1.5346 -0.0107  0.2117
 1768TIP3   OH2 5267   6.531   5.239   1.809  0.1507  0.8216  0.2566
 1768TIP3    H1 5268   6.520   5.149   1.777  0.1610  1.3980 -1.4831
 1768TIP3    H2 5269   6.446   5.261   1.848 -0.9510  1.0590 -2.0761
 1769TIP3   OH2 5270   1.239   1.744   4.768 -0.2757 -0.2920 -0.0990
 1769TIP3    H1 5271   1.235   1.730   4.673 -2.7153 -0.8561  0.0120
 1769TIP3    H2 5272   1.233   1.656   4.805  2.4199 -0.2403  0.6466
 1770TIP3   OH2 5273   2.639   2.419   5.886  0.1880  0.5574 -0.5758
 1770TIP3    H1 5274   2.700   2.472   5.937 -0.4388  1.2269 -0.5142
 1770TIP3    H2 5275   2.693   2.382   5.816  0.5529  1.6464 -0.8904
 1771TIP3   OH2 5276   2.647   0.682   1.370 -0.1450  0.2095  0.2593
 1771TIP3    H1 5277   2.670   0.606   1.317  2.8593 -0.4189  2.2294
 1771TIP3    H2 5278   2.619   0.646   1.454 -1.5121  1.2710  0.3041
 1772TIP3   OH2 5279   5.818   4.447   1.786 -0.0798 -0.0198  0.3584
 1772TIP3    H1 5280   5.786   4.520   1.733 -1.0417  0.1015  1.0856
 1772TIP3    H2 5281   5.896   4.482   1.829 -0.1569  0.3678  0.1913
 1773TIP3   OH2 5282   0.363   1.602   2.559 -0.0576 -0.5174  0.2033
 1773TIP3    H1 5283   0.360   1.690   2.598  0.8414  0.6239 -2.1022
 1773TIP3    H2 5284   0.272   1.572   2.560 -0.2080 -0.1161  2.1329
 1774TIP3   OH2 5285   0.589   2.215   2.520  0.3257 -0.1522  0.5084
 1774TIP3    H1 5286   0.674   2.197   2.479  0.2857  1.9856 -0.6739
 1774TIP3    H2 5287   0.612   2.251   2.606  0.5424 -1.2082  0.9015
 1775TIP3   OH2 5288   2.461   6.055   5.019 -0.6738  0.1314  0.3822
 1775TIP3    H1 5289   2.395   6.100   4.966  1.3356  2.4764 -0.2826
 1775TIP3    H2 5290   2.522   6.018   4.955  0.6797  1.2404  0.9982
 1776TIP3   OH2 5291   7.163   6.724   0.039 -0.5985 -0.0419  0.1755
 1776TIP3    H1 5292   7.151   6.679   0.122 -0.5468  1.0604  0.7888
 1776TIP3    H2 5293   7.079   6.767   0.022 -1.2220 -1.6840 -1.2432
 1777TIP3   OH2 5294   1.393   0.195   0.325 -0.1410 -0.3685 -0.6199
 1777TIP3    H1 5295   1.338   0.146   0.264 -1.7506 -1.7020  1.7584
 1777TIP3    H2 5296   1.457   0.131   0.356 -0.1083 -0.0335  0.0062
 1778TIP3   OH2 5297   4.933   5.430   2.965 -0.4076 -0.5528 -0.3163
 1778TIP3    H1 5298   4.975   5.495   3.021 -1.1071  0.6511 -1.1351
 1778TIP3    H2 5299   5.004   5.396   2.910 -0.4119  1.4200 -1.6539
 1779TIP3   OH2 5300   5.856   0.471   3.451 -0.4682  0.1785  0.8339
 1779TIP3    H1 5301   5.802   0.401   3.488  0.4675 -1.0696 -0.0604
 1779TIP3    H2 5302   5.889   0.435   3.369  0.6512  1.3918  0.7095
 1780TIP3   OH2 5303   5.284   0.098   4.394  0.1519 -0.6113 -0.2734
 1780TIP3    H1 5304   5.291   0.181   4.346 -0.9237 -0.8528 -0.8991
 1780TIP3    H2 5305   5.190   0.086   4.407  0.4003 -0.8147  1.4767
 1781TIP3   OH2 5306   5.494   2.303   5.054 -0.1082 -0.4311  0.2270
 1781TIP3    H1 5307   5.490   2.208   5.043  1.9111 -0.6558  0.8803
 1781TIP3    H2 5308   5.575   2.317   5.103  0.0279  1.6967 -0.5294
 1782TIP3   OH2 5309   0.849   6.343   4.082  0.4536 -0.1040  0.0560
 1782TIP3    H1 5310   0.804   6.326   4.166  1.4133  1.2050  0.8771
 1782TIP3    H2 5311   0.909   6.270   4.072  0.1034 -0.4375  0.3447
 1783TIP3   OH2 5312   4.844   3.576   2.058 -0.3326 -0.0980  0.3468
 1783TIP3    H1 5313   4.912   3.514   2.082 -1.3927 -2.2304 -1.7521
 1783TIP3    H2 5314   4.884   3.632   1.991 -0.2923 -0.5783 -0.0324
 1784TIP3   OH2 5315   2.933   1.930   1.395  0.1422 -0.1861 -0.3373
 1784TIP3    H1 5316   2.942   1.843   1.354 -1.2659  0.1188 -1.3837
 1784TIP3    H2 5317   2.987   1.987   1.340 -0.5581 -0.0527 -0.9112
 1785TIP3   OH2 5318   1.673   4.952   3.703  0.6051  0.2621  0.5638
 1785TIP3    H1 5319   1.578   4.961   3.713  0.8069  2.0630  1.1976
 1785TIP3    H2 5320   1.684   4.884   3.636 -1.0871 -1.2079  1.7070
 1786TIP3   OH2 5321   5.783   2.395   1.286  0.0522  0.0083 -0.2573
 1786TIP3    H1 5322   5.768   2.308   1.251 -1.5392 -0.6182  1.7569
 1786TIP3    H2 5323   5.808   2.380   1.377 -0.2138  1.6313  0.1153
 1787TIP3   OH2 5324   1.901   5.756   4.843 -0.7467  0.0929  0.1288
 1787TIP3    H1 5325   1.840   5.718   4.906 -1.5367  2.8619  1.1786
 1787TIP3    H2 5326   1.959   5.811   4.896  1.3715 -0.8343 -1.1117
 1788TIP3   OH2 5327   6.104   5.483   2.883  0.4397  0.2272 -0.4611
 1788TIP3    H1 5328   6.194   5.502   2.909  1.3275 -1.6607 -1.9628
 1788TIP3    H2 5329   6.052   5.502   2.961  2.5400 -1.7815  1.5698
 1789TIP3   OH2 5330   0.184   0.062   0.868 -0.8588  0.1216 -0.0381
 1789TIP3    H1 5331   0.257   0.097   0.817 -1.0790 -0.2906 -0.6527
 1789TIP3    H2 5332   0.226   0.006   0.934 -0.5643  0.7541  0.3232
 1790TIP3   OH2 5333   3.296   4.791   0.281 -0.8507 -0.0267  0.3124
 1790TIP3    H1 5334   3.200   4.788   0.287 -1.2988  1.1098 -3.6172
 1790TIP3    H2 5335   3.316   4.742   0.201  1.4810  2.5778 -0.8457
 1791TIP3   OH2 5336   6.844   2.249   0.400 -0.2957  0.2410  0.4597
 1791TIP3    H1 5337   6.928   2.249   0.446 -1.0811  0.4894  1.9757
 1791TIP3    H2 5338   6.809   2.337   0.413 -0.7487  0.1747 -0.2460
 1792TIP3   OH2 5339   1.007   0.650   1.406  0.4655  0.1404  0.8059
 1792TIP3    H1 5340   0.941   0.606   1.353 -0.0138  2.3729 -0.5389
 1792TIP3    H2 5341   0.964   0.663   1.491 -0.0632 -0.2298  0.6052
 1793TIP3   OH2 5342   2.077   3.086   2.896  0.4998 -0.1596  0.2649
 1793TIP3    H1 5343   2.043   3.128   2.975  1.5332  0.5112  0.3705
 1793TIP3    H2 5344   2.166   3.059   2.918  0.1468 -1.7162 -0.0721
 1794TIP3   OH2 5345   1.094   4.690   1.241  0.6014 -0.2323 -0.2271
 1794TIP3    H1 5346   1.180   4.729   1.226  0.3532  0.1719 -0.6123
 1794TIP3    H2 5347   1.079   4.636   1.163  1.0158 -1.2496  0.3752
 1795TIP3   OH2 5348   6.204   5.016   4.364 -0.1509  0.0516 -0.4077
 1795TIP3    H1 5349   6.256   4.986   4.439 -1.4387 -0.0074  0.5001
 1795TIP3    H2 5350   6.172   5.102   4.390 -0.3720  0.1593 -1.0152
 1796TIP3   OH2 5351   4.373   4.889   1.038  0.5879  0.2382 -0.1066
 1796TIP3    H1 5352   4.395   4.918   0.949 -1.5327  0.1600 -0.7158
 1796TIP3    H2 5353   4.300   4.828   1.026 -0.2656  0.8206  1.7296
 1797TIP3   OH2 5354   0.186   5.471   0.831 -0.0323 -0.5352 -0.1538
 1797TIP3    H1 5355   0.155   5.442   0.746 -1.5314 -0.8942  0.4846
 1797TIP3    H2 5356   0.129   5.544   0.854  2.2647  1.5629 -0.7389
 1798TIP3   OH2 5357   0.860   3.258   4.200 -0.6675 -0.2126 -0.4765
 1798TIP3    H1 5358   0.777   3.294   4.171 -0.6717  0.0260 -0.1731
 1798TIP3    H2 5359   0.916   3.334   4.215 -0.5552 -0.3474 -0.2020
 1799TIP3   OH2 5360   0.437   0.445   2.068  0.0422  0.4359  0.5763
 1799TIP3    H1 5361   0.494   0.508   2.024  0.0331  1.2768  1.7221
 1799TIP3    H2 5362   0.349   0.474   2.047  0.0263  0.0212  0.0401
 1800TIP3   OH2 5363   3.428   0.887   2.901 -0.1389  0.0131 -0.1050
 1800TIP3    H1 5364   3.431   0.965   2.846 -0.3063 -0.9176 -1.4866
 1800TIP3    H2 5365   3.514   0.845   2.888 -0.2979 -0.3816  0.1011
 1801TIP3   OH2 5366   4.641   6.574   2.705  0.0375  0.0952  0.0816
 1801TIP3    H1 5367   4.699   6.599   2.634  0.9363 -1.8328  0.0553
 1801TIP3    H2 5368   4.571   6.640   2.704  1.1414  1.3056 -1.1979
 1802TIP3   OH2 5369   1.292   0.270   0.582 -0.4378  0.2348 -0.2232
 1802TIP3    H1 5370   1.320   0.235   0.498  2.2962  2.6809 -0.4752
 1802TIP3    H2 5371   1.324   0.207   0.646 -0.9454 -0.7304 -0.8946
 1803TIP3   OH2 5372   4.689   6.674   1.956 -0.0503 -0.5993  0.2014
 1803TIP3    H1 5373   4.759   6.735   1.981  0.2338 -0.5608 -0.6532
 1803TIP3    H2 5374   4.731   6.589   1.950 -0.2281 -0.7004  0.3943
 1804TIP3   OH2 5375   3.778   1.108   4.473 -0.2442  0.3445  0.4253
 1804TIP3    H1 5376   3.788   1.030   4.419 -2.0264  0.0513  0.4581
 1804TIP3    H2 5377   3.819   1.085   4.556  1.3154  0.3097 -0.3243
 1805TIP3   OH2 5378   4.682   2.138   1.193  0.1290  0.0698 -0.0819
 1805TIP3    H1 5379   4.676   2.174   1.104 -1.4623 -2.0411 -0.9132
 1805TIP3    H2 5380   4.764   2.089   1.193  0.1073  0.0318 -0.3893
 1806TIP3   OH2 5381   1.756   5.139   1.138 -0.7913  0.5171 -0.4232
 1806TIP3    H1 5382   1.763   5.231   1.112  0.4174  0.4866 -0.2478
 1806TIP3    H2 5383   1.842   5.116   1.173 -1.3008 -0.4714  0.2619
 1807TIP3   OH2 5384   3.149   2.405   5.355 -0.1839  0.3111  0.1791
 1807TIP3    H1 5385   3.236   2.432   5.382 -0.1562  0.1394  0.2622
 1807TIP3    H2 5386   3.094   2.481   5.373 -0.1304  0.2694  0.5381
 1808TIP3   OH2 5387   4.774   4.247   0.874  0.4332 -0.2474 -0.0058
 1808TIP3    H1 5388   4.861   4.279   0.897  0.1012  1.0650 -0.5114
 1808TIP3    H2 5389   4.729   4.240   0.959  0.7372 -0.0420  0.1780
 1809TIP3   OH2 5390   2.041   2.494   3.440 -0.0083  0.1420  0.1487
 1809TIP3    H1 5391   2.081   2.459   3.360 -0.6729 -0.5379  0.1014
 1809TIP3    H2 5392   2.114   2.531   3.489  0.4038  0.6060 -0.7886
 1810TIP3   OH2 5393   4.983   0.984   3.405 -0.2021  0.0726  0.2232
 1810TIP3    H1 5394   4.892   0.963   3.384  0.1571 -1.0236 -0.2827
 1810TIP3    H2 5395   5.007   0.921   3.473 -0.1530  1.0828  1.1656
 1811TIP3   OH2 5396   0.878   2.443   3.362  0.0602  0.4900 -0.6308
 1811TIP3    H1 5397   0.864   2.366   3.307  0.9014  1.1793 -1.8779
 1811TIP3    H2 5398   0.867   2.412   3.451  0.3637 -1.0759 -1.1083
 1812TIP3   OH2 5399   1.725   4.366   4.987  0.6119  0.6200  0.0326
 1812TIP3    H1 5400   1.775   4.447   4.998  1.2400  0.1975  0.3786
 1812TIP3    H2 5401   1.758   4.329   4.905  0.0136  0.9279 -0.3496
 1813TIP3   OH2 5402   3.495   5.972   2.013 -0.3072 -0.2066  0.1991
 1813TIP3    H1 5403   3.568   5.927   1.971 -0.1826  1.7174 -1.8021
 1813TIP3    H2 5404   3.535   6.017   2.088  0.2593 -0.3622 -0.0054
 1814TIP3   OH2 5405   5.601   2.612   1.172 -0.0902  0.2067  0.3005
 1814TIP3    H1 5406   5.662   2.542   1.196  0.9751  1.8878  2.9788
 1814TIP3    H2 5407   5.658   2.686   1.150 -1.1754  0.2469 -2.8553
 1815TIP3   OH2 5408   4.223   1.583   1.405  0.4111 -0.5950  0.3164
 1815TIP3    H1 5409   4.182   1.534   1.333  0.9279 -0.5058 -0.0392
 1815TIP3    H2 5410   4.312   1.602   1.375  0.0584  1.0547  0.2130
 1816TIP3   OH2 5411   3.988   3.904   2.490 -0.5784 -0.0777 -0.9203
 1816TIP3    H1 5412   3.933   3.826   2.493 -0.8730  0.0729 -2.0654
 1816TIP3    H2 5413   4.057   3.888   2.554 -1.2520 -0.7976 -0.3526
 1817TIP3   OH2 5414   3.260   6.075   1.892  0.2103  0.1966  0.3437
 1817TIP3    H1 5415   3.189   6.075   1.957  0.9306  1.1016  1.1621
 1817TIP3    H2 5416   3.332   6.032   1.936 -0.1582 -1.8204 -0.9132
 1818TIP3   OH2 5417   6.712   5.492   5.285  0.2246  0.2894  0.3979
 1818TIP3    H1 5418   6.747   5.563   5.231 -1.6964  2.7133  2.1080
 1818TIP3    H2 5419   6.664   5.437   5.224  1.5702  0.5616 -0.9570
 1819TIP3   OH2 5420   5.286   4.150   3.674 -0.3120  0.1922 -0.0123
 1819TIP3    H1 5421   5.361   4.100   3.705 -0.0741 -1.4743 -2.9515
 1819TIP3    H2 5422   5.321   4.238   3.657  1.3652 -0.8083 -2.2947
 1820TIP3   OH2 5423   2.761   6.795   0.509 -0.2364  0.4404 -0.1233
 1820TIP3    H1 5424   2.798   6.719   0.553  0.2960 -0.0005 -1.3013
 1820TIP3    H2 5425   2.828   6.822   0.446 -0.4373  1.8552  0.2232
 1821TIP3   OH2 5426   6.717   6.504   1.171 -0.6565 -0.0810 -0.7574
 1821TIP3    H1 5427   6.804   6.482   1.140  0.9776  2.9870  1.1282
 1821TIP3    H2 5428   6.699   6.438   1.239  2.3171  1.6293  2.0069
 1822TIP3   OH2 5429   0.995   5.029   2.937  0.3997 -0.2913  0.4103
 1822TIP3    H1 5430   1.068   5.013   2.876 -0.7577  0.3514 -1.2232
 1822TIP3    H2 5431   0.925   4.971   2.907 -0.4010  0.4806  0.7428
 1823TIP3   OH2 5432   6.213   4.468   3.543  0.0307  0.3705  0.2070
 1823TIP3    H1 5433   6.210   4.552   3.589 -1.1253 -0.7215  2.2599
 1823TIP3    H2 5434   6.231   4.404   3.612  0.0263 -1.1733 -1.1737
 1824TIP3   OH2 5435   4.765   0.364   2.280  0.2224  0.2004 -0.1938
 1824TIP3    H1 5436   4.838   0.369   2.220 -0.1151 -0.3682 -0.6587
 1824TIP3    H2 5437   4.805   0.370   2.367  0.7922  0.1330 -0.4476
 1825TIP3   OH2 5438   6.674   1.976   1.251 -0.0509  0.3887 -0.0276
 1825TIP3    H1 5439   6.657   2.037   1.323 -0.6279 -2.2764  2.2836
 1825TIP3    H2 5440   6.759   1.938   1.271  0.8956  1.2121 -2.1261
 1826TIP3   OH2 5441   6.724   0.765   1.657 -0.1895 -0.2330  0.0639
 1826TIP3    H1 5442   6.794   0.751   1.721 -0.5124 -0.7411  0.3147
 1826TIP3    H2 5443   6.769   0.768   1.573  0.0135 -2.0123  0.0686
 1827TIP3   OH2 5444   2.864   1.941   1.122 -0.4892 -0.3454 -0.0757
 1827TIP3    H1 5445   2.847   1.855   1.161  0.9786 -0.8931 -0.6087
 1827TIP3    H2 5446   2.866   1.925   1.028  1.4194 -0.0554 -0.1135
 1828TIP3   OH2 5447   2.174   4.973   0.376  0.0199  0.4630 -0.2716
 1828TIP3    H1 5448   2.270   4.977   0.374  0.0652 -0.5806 -0.8027
 1828TIP3    H2 5449   2.147   5.063   0.392  1.0608  1.0292 -1.5241
 1829TIP3   OH2 5450   7.155   2.787   4.316 -0.2433  0.1011  0.4140
 1829TIP3    H1 5451   7.072   2.742   4.331 -0.3687  0.3165  0.3644
 1829TIP3    H2 5452   7.130   2.877   4.294  0.0171  0.2882  0.8581
 1830TIP3   OH2 5453   4.772   2.121   5.307 -0.0749  0.2749  0.2569
 1830TIP3    H1 5454   4.735   2.045   5.352 -0.3469  0.1216 -0.2197
 1830TIP3    H2 5455   4.841   2.152   5.366  0.4769 -0.7337  0.1707
 1831TIP3   OH2 5456   2.359   4.881   1.209 -0.7278  0.6057 -0.7924
 1831TIP3    H1 5457   2.382   4.974   1.206  0.8484  0.4964  2.6754
 1831TIP3    H2 5458   2.264   4.879   1.212 -0.7709  2.1767 -0.2713
 1832TIP3   OH2 5459   7.107   4.922   1.355 -0.1520 -0.3190 -0.1204
 1832TIP3    H1 5460   7.122   4.912   1.261 -0.6496 -0.9697 -0.1331
 1832TIP3    H2 5461   7.175   4.983   1.384 -0.3964  0.3954 -1.0163
 1833TIP3   OH2 5462   3.364   5.477   0.653 -0.0461 -0.3969  0.1064
 1833TIP3    H1 5463   3.353   5.387   0.623  2.7621 -0.2376 -1.8073
 1833TIP3    H2 5464   3.430   5.472   0.722  0.1052  0.1851  0.0154
 1834TIP3   OH2 5465   5.515   3.848   0.064 -0.5533 -0.1457 -0.0248
 1834TIP3    H1 5466   5.510   3.777  -0.001 -0.3273 -1.4271  1.2976
 1834TIP3    H2 5467   5.462   3.816   0.137 -0.4143  1.0530  0.6153
 1835TIP3   OH2 5468   6.796   5.163   4.533 -0.2310  0.0506  0.2035
 1835TIP3    H1 5469   6.840   5.206   4.606  1.4630 -1.0683 -0.1065
 1835TIP3    H2 5470   6.840   5.079   4.524  0.0776  0.3903 -2.4747
 1836TIP3   OH2 5471   1.350   2.798   4.181 -0.4459  0.7136  0.3307
 1836TIP3    H1 5472   1.357   2.800   4.086 -0.5665 -1.1505  0.2449
 1836TIP3    H2 5473   1.281   2.733   4.198  2.1910 -1.9335  1.7266
 1837TIP3   OH2 5474   0.896   3.984   2.672  0.2695  0.0807  0.4833
 1837TIP3    H1 5475   0.866   4.017   2.756  3.6401  0.5306  1.6801
 1837TIP3    H2 5476   0.941   4.058   2.631  0.5580 -0.7306 -0.7330
 1838TIP3   OH2 5477   1.700   6.490   1.870  0.3883 -0.0610 -0.1007
 1838TIP3    H1 5478   1.756   6.451   1.802  0.1746  0.1381 -0.3929
 1838TIP3    H2 5479   1.642   6.549   1.822 -0.8925 -1.1561  0.0490
 1839TIP3   OH2 5480   1.492   3.048   0.699  0.1931  0.1177  0.3811
 1839TIP3    H1 5481   1.455   2.973   0.653  0.2812 -0.4359  1.1814
 1839TIP3    H2 5482   1.547   3.092   0.634  1.6151 -1.5696  0.3714
 1840TIP3   OH2 5483   2.395   1.552   0.150 -0.2634  0.2483 -0.3280
 1840TIP3    H1 5484   2.404   1.556   0.055  0.5168 -0.6727 -0.3148
 1840TIP3    H2 5485   2.433   1.467   0.173  1.5370  1.3516  1.0142
 1841TIP3   OH2 5486   2.935   5.933   2.862  0.2323 -0.2426 -0.0204
 1841TIP3    H1 5487   3.014   5.887   2.834  0.3438 -0.1288  0.1055
 1841TIP3    H2 5488   2.938   6.017   2.817  0.6538  0.1324  0.6774
 1842TIP3   OH2 5489   3.149   2.511   0.882 -0.8892  0.1909  0.2680
 1842TIP3    H1 5490   3.220   2.550   0.831 -0.1245 -0.1818  1.0108
 1842TIP3    H2 5491   3.095   2.466   0.817  0.3214 -0.6705 -0.1913
 1843TIP3   OH2 5492   5.253   5.576   2.759 -0.2447 -0.0256  0.3998
 1843TIP3    H1 5493   5.283   5.523   2.833  0.3093 -0.7905 -0.3464
 1843TIP3    H2 5494   5.217   5.655   2.798  0.2974 -0.2941  1.4713
 1844TIP3   OH2 5495   7.171   0.127   5.197  0.3106 -0.3072  0.0884
 1844TIP3    H1 5496   7.119   0.207   5.185 -0.0363 -0.2501  1.7044
 1844TIP3    H2 5497   7.118   0.057   5.159 -1.0394 -0.2542  1.7304
 1845TIP3   OH2 5498   5.975   4.167   2.822  0.2773 -0.7600 -0.1134
 1845TIP3    H1 5499   6.040   4.229   2.853 -0.3237  0.4979 -1.2707
 1845TIP3    H2 5500   5.974   4.098   2.888  1.7956 -0.1285  0.6080
 1846TIP3   OH2 5501   5.790   5.945   4.721 -0.1289 -0.3416 -0.6537
 1846TIP3    H1 5502   5.799   6.030   4.677 -0.7787  0.2206  0.2455
 1846TIP3    H2 5503   5.800   5.966   4.814  2.6650 -1.6912 -0.5625
 1847TIP3   OH2 5504   0.817   4.791   4.975 -0.1741 -0.5567  0.2094
 1847TIP3    H1 5505   0.745   4.851   4.995 -0.0861 -0.0282 -0.9315
 1847TIP3    H2 5506   0.814   4.783   4.879  0.2247 -1.8730  0.3006
 1848TIP3   OH2 5507   3.538   0.139   4.381  0.0479  0.2107 -0.2601
 1848TIP3    H1 5508   3.628   0.158   4.355 -0.6046  1.4913 -1.7211
 1848TIP3    H2 5509   3.508   0.218   4.425 -1.2166  0.9116 -2.2542
 1849TIP3   OH2 5510   0.628   1.206   0.566 -0.5013 -0.7370  0.0997
 1849TIP3    H1 5511   0.548   1.256   0.546 -0.1669 -0.9702 -2.0665
 1849TIP3    H2 5512   0.636   1.212   0.661 -4.0790 -2.1799  0.6603
 1850TIP3   OH2 5513   2.603   6.506   3.676 -0.1382  0.2304  0.5596
 1850TIP3    H1 5514   2.601   6.410   3.682 -0.1350  0.2457  0.8272
 1850TIP3    H2 5515   2.531   6.528   3.618 -0.0194  0.0534  0.3425
 1851TIP3   OH2 5516   5.812   4.132   5.125 -0.1224 -0.3915  0.3027
 1851TIP3    H1 5517   5.795   4.199   5.191  0.4850 -0.5381  0.6143
 1851TIP3    H2 5518   5.732   4.129   5.073 -0.5017 -0.0719  0.8571
 1852TIP3   OH2 5519   6.776   2.628   0.744  0.4046 -0.3141  0.4237
 1852TIP3    H1 5520   6.830   2.623   0.822  1.6644 -1.6111 -0.4810
 1852TIP3    H2 5521   6.740   2.717   0.745  0.7903 -0.1464  2.1867
 1853TIP3   OH2 5522   3.800   0.246   5.176  0.3804  0.4440 -0.3805
 1853TIP3    H1 5523   3.847   0.194   5.240  0.3200  0.1936 -0.5393
 1853TIP3    H2 5524   3.716   0.266   5.219  0.5515  0.7235 -0.1760
 1854TIP3   OH2 5525   2.549   2.949   1.946  0.3210  0.1124 -0.4332
 1854TIP3    H1 5526   2.621   2.993   1.901  0.7449 -0.6258 -0.4971
 1854TIP3    H2 5527   2.494   3.020   1.980  1.1046  0.6841 -0.3423
 1855TIP3   OH2 5528   2.398   0.495   4.455 -0.2961 -0.4940 -0.7805
 1855TIP3    H1 5529   2.465   0.549   4.414 -1.0006 -0.6624 -2.2305
 1855TIP3    H2 5530   2.320   0.550   4.455  0.1074  0.2257  2.1634
 1856TIP3   OH2 5531   3.741   4.384   4.267  0.0558 -0.1400 -0.3956
 1856TIP3    H1 5532   3.749   4.340   4.351 -1.1787  0.1238 -0.1132
 1856TIP3    H2 5533   3.662   4.345   4.228 -0.0287  0.5473 -0.9252
 1857TIP3   OH2 5534   3.270   1.035   4.912 -0.4378  0.4226  0.2387
 1857TIP3    H1 5535   3.221   1.040   4.993 -0.3545  0.6778  0.2762
 1857TIP3    H2 5536   3.233   0.960   4.865  0.4475 -0.5910  1.1186
 1858TIP3   OH2 5537   5.168   4.203   2.540  0.0842 -0.0588 -0.5059
 1858TIP3    H1 5538   5.239   4.181   2.601  0.5032 -1.5795 -1.5011
 1858TIP3    H2 5539   5.110   4.261   2.591  3.1886  3.2619 -0.3613
 1859TIP3   OH2 5540   6.590   5.309   0.952  0.2358  0.2012  0.3484
 1859TIP3    H1 5541   6.655   5.337   1.016  0.6223 -3.0510  1.5680
 1859TIP3    H2 5542   6.519   5.271   1.004 -0.1054 -1.2195 -1.0487
 1860TIP3   OH2 5543   2.889   0.466   0.358 -0.4963 -0.1826 -0.1404
 1860TIP3    H1 5544   2.810   0.421   0.387 -0.7564 -0.2666 -0.9616
 1860TIP3    H2 5545   2.955   0.442   0.423 -1.5793  1.4287  1.6663
 1861TIP3   OH2 5546   0.049   4.704   0.131 -0.1637  0.0572 -0.3944
 1861TIP3    H1 5547  -0.026   4.763   0.132 -0.8701 -0.7717 -1.7238
 1861TIP3    H2 5548   0.104   4.737   0.059  0.1476 -0.0537 -0.2088
 1862TIP3   OH2 5549   0.611   0.457   3.787  0.3587  0.0287 -0.1263
 1862TIP3    H1 5550   0.576   0.546   3.787 -0.7004 -0.3646  0.8501
 1862TIP3    H2 5551   0.573   0.416   3.708  0.7216  0.3911 -0.4893
 1863TIP3   OH2 5552   5.043   4.485   5.180  0.0928  0.3505  0.2293
 1863TIP3    H1 5553   5.045   4.533   5.097 -1.0325 -0.3544 -0.2274
 1863TIP3    H2 5554   4.973   4.528   5.230 -1.0262 -0.8553 -0.2413
 1864TIP3   OH2 5555   5.097   1.177   1.717 -0.0855  0.6698 -0.3110
 1864TIP3    H1 5556   5.115   1.087   1.690 -0.3900  0.7221 -0.6867
 1864TIP3    H2 5557   5.129   1.231   1.645 -1.3738  0.7811 -0.8289
 1865TIP3   OH2 5558   4.672   5.588   2.886  0.0340  0.2349 -0.0003
 1865TIP3    H1 5559   4.648   5.585   2.978  1.0187  0.7814  0.2926
 1865TIP3    H2 5560   4.767   5.577   2.886  0.5957  3.9386 -0.6328
 1866TIP3   OH2 5561   2.269   1.181   0.718  0.5585  0.2483  0.3032
 1866TIP3    H1 5562   2.361   1.164   0.741  0.9847 -0.6876 -1.8333
 1866TIP3    H2 5563   2.229   1.094   0.714 -0.3998  0.6477  1.0968
 1867TIP3   OH2 5564   1.813   4.102   0.965  0.2218  0.3079  0.2660
 1867TIP3    H1 5565   1.842   4.048   0.892 -0.1499 -0.7158  0.8515
 1867TIP3    H2 5566   1.872   4.178   0.964 -0.5747  0.9731 -1.8570
 1868TIP3   OH2 5567   3.427   4.050   1.510  0.4231  0.3673 -0.3082
 1868TIP3    H1 5568   3.447   4.141   1.487 -1.4789  0.4527 -1.8936
 1868TIP3    H2 5569   3.511   4.005   1.500  0.6452  1.2025 -3.7816
 1869TIP3   OH2 5570   2.184   1.836   1.698  0.4338  0.0904 -0.3687
 1869TIP3    H1 5571   2.253   1.771   1.710 -1.7390 -2.1398  0.9647
 1869TIP3    H2 5572   2.151   1.820   1.610  0.9158  0.4905 -0.6306
 1870TIP3   OH2 5573   1.511   4.463   5.161  0.1238  0.3069 -0.2810
 1870TIP3    H1 5574   1.590   4.430   5.117  0.2945  0.8558 -0.3881
 1870TIP3    H2 5575   1.484   4.391   5.218  0.4045 -0.0800 -0.6289
 1871TIP3   OH2 5576   5.956   3.257   3.766  0.4079 -0.0747 -0.2152
 1871TIP3    H1 5577   6.004   3.244   3.684  1.1786 -1.0897  0.3682
 1871TIP3    H2 5578   5.885   3.193   3.763  1.2024 -1.0052  0.4578
 1872TIP3   OH2 5579   6.876   0.352   0.253 -0.2615  0.3463 -0.2802
 1872TIP3    H1 5580   6.797   0.298   0.245 -0.0974  0.2558 -1.5103
 1872TIP3    H2 5581   6.843   0.440   0.269 -0.5969  0.2022 -0.1589
 1873TIP3   OH2 5582   0.842   2.134   4.533  0.4764 -0.7511  0.1424
 1873TIP3    H1 5583   0.777   2.163   4.597  0.6847  0.6343 -0.2446
 1873TIP3    H2 5584   0.880   2.215   4.499  1.5628 -1.5094 -0.5067
 1874TIP3   OH2 5585   2.777   2.894   2.301  0.3696 -0.0418  0.0751
 1874TIP3    H1 5586   2.871   2.890   2.281  0.0920  0.2129 -1.3160
 1874TIP3    H2 5587   2.734   2.855   2.225 -0.7254  1.0986  0.0787
 1875TIP3   OH2 5588   5.836   5.241   2.862 -0.2293 -0.0908 -1.2008
 1875TIP3    H1 5589   5.830   5.290   2.780  1.4474  1.1126 -0.6656
 1875TIP3    H2 5590   5.795   5.297   2.927  0.9625  0.2855 -0.7369
 1876TIP3   OH2 5591   4.014   2.644   3.490  0.1453  0.2272 -0.3270
 1876TIP3    H1 5592   3.964   2.654   3.571  0.3981 -0.3192 -0.0959
 1876TIP3    H2 5593   3.967   2.578   3.440 -0.6100  1.3159 -1.1203
 1877TIP3   OH2 5594   6.394   0.186   3.246  0.0775 -0.1955 -0.6328
 1877TIP3    H1 5595   6.356   0.120   3.188 -0.7526  0.4209 -0.8133
 1877TIP3    H2 5596   6.319   0.225   3.291  0.5517  0.5803 -0.4944
 1878TIP3   OH2 5597   7.051   4.533   3.906  0.4353  0.0580 -0.3642
 1878TIP3    H1 5598   7.137   4.516   3.945 -0.0646 -1.4542  0.1307
 1878TIP3    H2 5599   7.000   4.569   3.978  0.6984  1.2076 -0.7249
 1879TIP3   OH2 5600   0.182   0.428   3.806  0.0801 -0.5440  0.2637
 1879TIP3    H1 5601   0.215   0.449   3.718  0.5911 -0.6243  0.4303
 1879TIP3    H2 5602   0.087   0.433   3.798  0.0932  2.7358  0.4535
 1880TIP3   OH2 5603   2.946   4.478   2.060  0.7419 -0.9779 -0.5003
 1880TIP3    H1 5604   2.869   4.469   2.003  0.3486 -0.8314  0.0010
 1880TIP3    H2 5605   2.991   4.395   2.052  1.5912 -0.4158 -2.3041
 1881TIP3   OH2 5606   7.066   0.845   1.296  0.1927  0.7965  0.2330
 1881TIP3    H1 5607   7.088   0.759   1.259 -0.3502  1.1908 -1.0529
 1881TIP3    H2 5608   7.076   0.906   1.222  0.8564  1.8938  1.1969
 1882TIP3   OH2 5609   3.661   3.313   4.256 -0.0721  0.3998  0.0435
 1882TIP3    H1 5610   3.657   3.380   4.324 -0.2592  0.8533 -0.3993
 1882TIP3    H2 5611   3.692   3.360   4.178  2.8352 -0.6486  0.4557
 1883TIP3   OH2 5612   3.306   4.556   1.785 -0.0263 -0.1776  0.4576
 1883TIP3    H1 5613   3.324   4.495   1.856 -0.2875 -1.4811 -0.5713
 1883TIP3    H2 5614   3.388   4.559   1.735  0.0543  0.4979  0.6115
 1884TIP3   OH2 5615   7.079   0.313   0.044 -0.4451  0.0395 -0.1479
 1884TIP3    H1 5616   7.053   0.371  -0.028  0.1699  2.1945  1.2845
 1884TIP3    H2 5617   7.039   0.352   0.122  0.8702 -0.8571  1.0258
 1885TIP3   OH2 5618   2.662   3.531   2.911 -0.1948  0.0853  0.2372
 1885TIP3    H1 5619   2.610   3.611   2.916  0.3363  0.5624 -1.3189
 1885TIP3    H2 5620   2.649   3.499   2.822  0.2270 -1.1326  0.5920
 1886TIP3   OH2 5621   2.554   3.775   5.583  0.0516  0.2552 -0.2396
 1886TIP3    H1 5622   2.565   3.802   5.674 -0.4150  0.3507 -0.2080
 1886TIP3    H2 5623   2.520   3.853   5.539 -0.0798  0.0974 -0.4181
 1887TIP3   OH2 5624   0.169   4.749   3.252  0.4410 -0.3573  0.4850
 1887TIP3    H1 5625   0.077   4.769   3.236  0.6235  0.6066  0.5853
 1887TIP3    H2 5626   0.193   4.802   3.328  0.9899 -0.8742  0.6899
 1888TIP3   OH2 5627   1.674   4.322   0.569 -0.2301  0.1089 -0.9736
 1888TIP3    H1 5628   1.749   4.379   0.555  0.7789 -0.4532  1.5437
 1888TIP3    H2 5629   1.712   4.240   0.602 -1.9319  0.3093  1.8091
 1889TIP3   OH2 5630   1.047   4.967   1.074 -0.8584 -0.4443 -0.4975
 1889TIP3    H1 5631   0.955   4.965   1.103 -0.7915  0.5812 -0.1519
 1889TIP3    H2 5632   1.081   5.049   1.110  0.0320 -0.5220 -1.1347
 1890TIP3   OH2 5633   0.456   3.839   3.067  0.1482  0.7464 -0.6364
 1890TIP3    H1 5634   0.396   3.852   3.141 -1.5278  1.2412 -2.0292
 1890TIP3    H2 5635   0.413   3.880   2.993  1.3154 -0.6042 -2.1421
 1891TIP3   OH2 5636   0.663   3.049   4.225  0.2036  0.4111  0.3639
 1891TIP3    H1 5637   0.737   3.096   4.189 -0.8606  2.3377  0.5580
 1891TIP3    H2 5638   0.693   3.016   4.310  0.5974  1.8898  0.8108
 1892TIP3   OH2 5639   2.776   5.186   1.959 -0.1359  0.0428 -0.1349
 1892TIP3    H1 5640   2.723   5.123   2.008  0.2872 -0.3961 -0.2317
 1892TIP3    H2 5641   2.819   5.133   1.892 -0.0954  0.5081 -0.4802
 1893TIP3   OH2 5642   2.078   3.355   0.888  0.0320  0.3962 -0.6315
 1893TIP3    H1 5643   2.014   3.318   0.949  0.9887  0.1493  0.2620
 1893TIP3    H2 5644   2.028   3.414   0.833 -1.1123 -0.4409 -0.5228
 1894TIP3   OH2 5645   1.736   4.436   5.430  0.3655 -0.0419 -0.3113
 1894TIP3    H1 5646   1.663   4.479   5.474  0.5549 -0.3829  0.3441
 1894TIP3    H2 5647   1.811   4.452   5.487  0.4408 -1.2309 -0.0473
 1895TIP3   OH2 5648   4.830   3.514   4.535  0.1345  0.2060  0.0871
 1895TIP3    H1 5649   4.816   3.537   4.627 -0.1720 -0.9615  0.3514
 1895TIP3    H2 5650   4.893   3.441   4.538  1.1726  1.0342 -0.7176
 1896TIP3   OH2 5651   6.388   3.591   3.584  0.6471 -0.3762 -1.0970
 1896TIP3    H1 5652   6.388   3.497   3.571 -0.4264 -0.5021 -0.3738
 1896TIP3    H2 5653   6.352   3.627   3.503 -1.1637 -0.7874 -0.5423
 1897TIP3   OH2 5654   2.023   1.391   0.770 -0.2981  0.2249  0.4158
 1897TIP3    H1 5655   2.078   1.443   0.712  0.4865 -0.2361  0.7112
 1897TIP3    H2 5656   2.084   1.357   0.836 -1.3648  1.8929  2.3922
 1898TIP3   OH2 5657   4.690   0.041   3.665  0.1400  0.2553 -0.0535
 1898TIP3    H1 5658   4.607   0.088   3.680 -0.5404 -1.3327  1.5775
 1898TIP3    H2 5659   4.755   0.091   3.715 -0.1397  0.6527 -0.0791
 1899TIP3   OH2 5660   3.351   2.661   1.410  0.1315  0.4375  0.0142
 1899TIP3    H1 5661   3.353   2.575   1.452 -0.0234 -0.5368 -1.8657
 1899TIP3    H2 5662   3.315   2.645   1.323  4.4451  1.5420 -2.2818
 1900TIP3   OH2 5663   2.198   2.944   3.419 -0.1266 -0.5271  0.0210
 1900TIP3    H1 5664   2.224   2.916   3.331  2.6651  2.6361 -0.3553
 1900TIP3    H2 5665   2.121   2.999   3.405  1.1005  1.0759 -0.7167
 1901TIP3   OH2 5666   0.987   5.077   4.709  0.4363  0.0367  0.3526
 1901TIP3    H1 5667   0.900   5.039   4.701 -0.1653  1.5140 -0.3362
 1901TIP3    H2 5668   1.042   5.022   4.653 -0.2594 -0.2521 -0.0550
 1902TIP3   OH2 5669   1.318   6.426   1.893  0.2809  0.2768 -0.3926
 1902TIP3    H1 5670   1.342   6.506   1.846  0.8176 -0.0826 -0.7400
 1902TIP3    H2 5671   1.392   6.410   1.951  1.2553 -1.2073 -1.9461
 1903TIP3   OH2 5672   5.243   3.412   2.075  0.5409  0.3791 -0.3887
 1903TIP3    H1 5673   5.317   3.430   2.133 -0.6334  1.4481  0.8568
 1903TIP3    H2 5674   5.207   3.329   2.108 -1.2438  1.8849  1.7406
 1904TIP3   OH2 5675   2.093   1.094   3.197  0.0717  0.3544 -0.2557
 1904TIP3    H1 5676   2.037   1.167   3.170 -1.1574 -0.4380  0.0752
 1904TIP3    H2 5677   2.110   1.111   3.290 -2.8995 -1.3466  0.7570
 1905TIP3   OH2 5678   1.302   2.754   5.626  0.1519  0.3709  0.3337
 1905TIP3    H1 5679   1.224   2.714   5.665  0.7957 -1.1809  0.1006
 1905TIP3    H2 5680   1.271   2.837   5.589 -1.5238 -0.4998 -0.3116
 1906TIP3   OH2 5681   0.491   4.653   2.830  0.0874  0.0359 -0.3907
 1906TIP3    H1 5682   0.539   4.676   2.750  2.0419 -0.4463  0.5786
 1906TIP3    H2 5683   0.494   4.733   2.883  1.4765 -0.5151  0.4189
 1907TIP3   OH2 5684   4.134   2.229   0.111  1.0490  0.0693  0.2420
 1907TIP3    H1 5685   4.200   2.262   0.050  0.0002 -1.1688 -1.6533
 1907TIP3    H2 5686   4.073   2.301   0.123  0.3190 -0.1696 -1.6241
 1908TIP3   OH2 5687   1.020   3.469   3.672  0.3171 -0.2843 -0.0958
 1908TIP3    H1 5688   1.103   3.422   3.668  1.0779  1.0597 -3.4916
 1908TIP3    H2 5689   1.037   3.542   3.732  1.2244 -0.6324  0.0934
 1909TIP3   OH2 5690   2.743   4.017   0.939  0.1452 -0.2297 -0.4414
 1909TIP3    H1 5691   2.656   4.057   0.938 -0.5415 -1.5420  1.0906
 1909TIP3    H2 5692   2.728   3.930   0.978  1.8389 -1.2516 -1.9278
 1910TIP3   OH2 5693   6.718   2.414   0.592  0.2097 -0.0953 -0.9997
 1910TIP3    H1 5694   6.754   2.336   0.632  0.1349 -0.1106 -0.9606
 1910TIP3    H2 5695   6.754   2.487   0.643 -0.5275 -0.1487 -0.3791
 1911TIP3   OH2 5696   2.207   5.232   3.669 -0.7714 -0.3591  0.0698
 1911TIP3    H1 5697   2.204   5.327   3.662 -0.9710 -0.2055  1.8513
 1911TIP3    H2 5698   2.115   5.205   3.674 -0.7615 -0.7669 -1.4086
 1912TIP3   OH2 5699   4.283   4.625   4.776 -0.5082 -0.0356 -0.0775
 1912TIP3    H1 5700   4.264   4.627   4.682  4.2040  2.2790 -1.2414
 1912TIP3    H2 5701   4.233   4.698   4.812  1.9724  2.8345 -2.0330
 1913TIP3   OH2 5702   4.389   1.855   3.990 -0.0777  0.1184  0.1080
 1913TIP3    H1 5703   4.307   1.904   3.998 -0.2659  0.5683 -3.1464
 1913TIP3    H2 5704   4.455   1.921   3.968  0.2938 -0.6704 -1.2708
 1914TIP3   OH2 5705   0.844   3.527   3.948  1.0289 -0.1701  0.3512
 1914TIP3    H1 5706   0.798   3.471   4.012  1.1273 -1.1092 -0.3778
 1914TIP3    H2 5707   0.835   3.480   3.865  1.5067  0.6903 -0.1958
 1915TIP3   OH2 5708   0.569   1.615   1.287  0.2531 -0.3588 -0.1882
 1915TIP3    H1 5709   0.476   1.616   1.261 -0.2046  0.0228  1.3484
 1915TIP3    H2 5710   0.567   1.602   1.382  1.7828 -0.2198 -0.1141
 1916TIP3   OH2 5711   1.475   4.299   4.658 -0.2715  0.5062 -0.4618
 1916TIP3    H1 5712   1.480   4.203   4.654 -1.6622  0.2949  1.4137
 1916TIP3    H2 5713   1.402   4.317   4.718  1.7763  2.7083  1.5977
 1917TIP3   OH2 5714   0.730   3.873   3.689  0.0705  0.1735  0.3756
 1917TIP3    H1 5715   0.810   3.847   3.642 -0.7711 -1.3199 -0.2901
 1917TIP3    H2 5716   0.749   3.852   3.781  1.3716  2.2444  0.6634
 1918TIP3   OH2 5717   6.463   2.880   2.732  0.3149 -0.5693  0.1035
 1918TIP3    H1 5718   6.517   2.957   2.714  1.2025 -1.0456  0.6430
 1918TIP3    H2 5719   6.508   2.808   2.686 -0.7679 -0.6995 -0.8056
 1919TIP3   OH2 5720   5.379   1.400   4.701 -0.3006  0.1144 -0.0516
 1919TIP3    H1 5721   5.455   1.456   4.690  0.2345  0.1365  2.8330
 1919TIP3    H2 5722   5.304   1.459   4.693  0.1995  1.0092  1.4293
 1920TIP3   OH2 5723   2.773   6.460   2.140 -0.4204  0.3377 -0.0387
 1920TIP3    H1 5724   2.769   6.459   2.044 -0.1574  1.6717 -0.0717
 1920TIP3    H2 5725   2.847   6.402   2.161  0.0799  0.7390 -0.6798
 1921TIP3   OH2 5726   2.018   1.485   5.656  0.6382  0.3716 -0.2943
 1921TIP3    H1 5727   1.978   1.518   5.575  1.6259  0.1466 -0.8923
 1921TIP3    H2 5728   2.095   1.541   5.669  1.2892 -0.4998 -0.3047
 1922TIP3   OH2 5729   3.098   0.510   4.098  0.3506 -0.1505 -0.0337
 1922TIP3    H1 5730   3.133   0.596   4.122 -0.0534 -0.5071  2.0641
 1922TIP3    H2 5731   3.044   0.526   4.021 -2.0027  2.0685  1.9061
 1923TIP3   OH2 5732   5.737   2.900   4.686 -0.2657  0.6479  0.3750
 1923TIP3    H1 5733   5.653   2.855   4.685  0.4474 -0.8019 -1.8276
 1923TIP3    H2 5734   5.793   2.849   4.628  1.7049  2.4107  0.5736
 1924TIP3   OH2 5735   4.745   4.292   5.417 -0.8421 -0.0962  0.6415
 1924TIP3    H1 5736   4.674   4.304   5.354 -0.2569 -1.0109 -0.2336
 1924TIP3    H2 5737   4.787   4.210   5.391 -0.1752 -0.1649  1.8416
 1925TIP3   OH2 5738   3.053   4.732   5.716  0.2150 -0.0621 -0.4151
 1925TIP3    H1 5739   3.124   4.795   5.706  1.2653 -1.3954 -1.9832
 1925TIP3    H2 5740   3.007   4.734   5.632 -0.6149 -0.3602  0.0251
 1926TIP3   OH2 5741   3.763   1.319   0.367  0.3314 -0.0594 -0.0941
 1926TIP3    H1 5742   3.734   1.405   0.399  0.9966 -0.1704  0.8271
 1926TIP3    H2 5743   3.855   1.331   0.345  0.0379 -0.1402 -1.4666
 1927TIP3   OH2 5744   0.177   6.520   4.027  0.1425  0.5103 -0.0486
 1927TIP3    H1 5745   0.154   6.492   4.115 -0.7746 -0.8202 -0.6791
 1927TIP3    H2 5746   0.112   6.479   3.971  0.8359  1.1552 -1.3767
 1928TIP3   OH2 5747   1.904   0.002   1.328  0.2177  0.0345 -0.5663
 1928TIP3    H1 5748   1.918   0.091   1.295  0.5079 -0.3866 -1.6434
 1928TIP3    H2 5749   1.990  -0.038   1.328  0.2875  0.1456  1.1766
 1929TIP3   OH2 5750   0.336   0.196   0.271  0.8389  0.0643  0.6712
 1929TIP3    H1 5751   0.364   0.112   0.235  1.9269  1.1517 -1.1694
 1929TIP3    H2 5752   0.364   0.193   0.362  0.6655 -1.6285  0.7081
 1930TIP3   OH2 5753   3.880   1.064   0.121  0.7554 -0.4080 -0.1964
 1930TIP3    H1 5754   3.843   1.103   0.042 -2.4524  1.2032  1.8513
 1930TIP3    H2 5755   3.812   1.004   0.152  0.8893  0.6312  2.3884
 1931TIP3   OH2 5756   3.021   6.341   2.222 -0.1648  0.0299  0.7643
 1931TIP3    H1 5757   3.054   6.256   2.192  1.4603 -0.0161  2.4784
 1931TIP3    H2 5758   3.098   6.398   2.222 -0.9137  1.0705  1.1045
 1932TIP3   OH2 5759   4.812   0.212   5.667  0.3628 -0.8292 -0.2842
 1932TIP3    H1 5760   4.855   0.248   5.744 -2.8929 -0.6231  1.6349
 1932TIP3    H2 5761   4.807   0.285   5.606 -2.1031  0.8924  1.7482
 1933TIP3   OH2 5762   3.992   1.692   5.391 -0.0033  0.1204 -0.6984
 1933TIP3    H1 5763   3.904   1.670   5.360 -0.3704 -1.2655  1.1454
 1933TIP3    H2 5764   4.046   1.693   5.312 -1.7935  1.8843 -1.9930
 1934TIP3   OH2 5765   0.567   0.585   3.203  0.2281  0.6714 -0.7106
 1934TIP3    H1 5766   0.636   0.623   3.150  2.9006 -0.7975  1.4315
 1934TIP3    H2 5767   0.590   0.492   3.210 -2.3126 -0.0291 -0.3284
 1935TIP3   OH2 5768   5.612   1.260   4.632  0.2500  0.4706  0.5886
 1935TIP3    H1 5769   5.707   1.261   4.637  0.3468 -0.2725 -0.6717
 1935TIP3    H2 5770   5.587   1.351   4.620  0.8496  0.5994  0.3112
 1936TIP3   OH2 5771   3.026   1.520   1.197 -0.5220  0.4050 -0.3260
 1936TIP3    H1 5772   3.080   1.565   1.261 -1.1795  0.3813  0.2554
 1936TIP3    H2 5773   3.000   1.438   1.240  0.4995 -0.4699 -1.2908
 1937TIP3   OH2 5774   2.357   0.975   1.178  0.3194 -0.0437 -0.0959
 1937TIP3    H1 5775   2.399   1.058   1.155  0.6586 -0.3021 -0.4093
 1937TIP3    H2 5776   2.331   0.987   1.270  0.4177  0.3855 -0.1187
 1938TIP3   OH2 5777   3.229   6.745   2.754 -0.3592 -0.8993 -0.2045
 1938TIP3    H1 5778   3.153   6.691   2.733 -0.0852 -1.8649  1.1916
 1938TIP3    H2 5779   3.192   6.831   2.775 -0.8977 -0.8595 -1.2202
 1939TIP3   OH2 5780   0.806   0.176   3.054  0.0380  0.6200  0.4285
 1939TIP3    H1 5781   0.891   0.220   3.053  0.8278 -0.8513  0.6443
 1939TIP3    H2 5782   0.825   0.086   3.028 -1.4525  0.2442  0.5610
 1940TIP3   OH2 5783   6.875   0.181   3.066 -0.8391  0.2711  0.0321
 1940TIP3    H1 5784   6.902   0.092   3.045 -1.1419  0.3023 -0.5221
 1940TIP3    H2 5785   6.793   0.193   3.018 -0.2788  1.1920 -0.7423
 1941TIP3   OH2 5786   4.448   1.628   3.410  0.8918 -0.1598 -0.6005
 1941TIP3    H1 5787   4.443   1.610   3.317  1.1663 -0.9132 -0.4772
 1941TIP3    H2 5788   4.424   1.545   3.452  2.4500 -0.3297 -0.0053
 1942TIP3   OH2 5789   4.174   5.509   2.348  0.2120  0.2816  0.6566
 1942TIP3    H1 5790   4.109   5.463   2.400  0.4213  0.0972  0.7548
 1942TIP3    H2 5791   4.255   5.500   2.397  0.5745 -0.5319 -0.0568
 1943TIP3   OH2 5792   3.359   0.734   5.325 -0.4233  0.1774 -0.4704
 1943TIP3    H1 5793   3.452   0.731   5.351 -0.2954  1.7037 -0.6100
 1943TIP3    H2 5794   3.360   0.718   5.231 -0.2738  0.3619 -0.5023
 1944TIP3   OH2 5795   0.925   3.456   0.921 -0.2595 -0.7747  0.1397
 1944TIP3    H1 5796   0.887   3.369   0.925 -1.2186 -0.3353  0.9470
 1944TIP3    H2 5797   0.866   3.506   0.865 -0.8854 -0.1053  1.3598
 1945TIP3   OH2 5798   3.076   0.379   0.550 -0.4200  0.0811  0.1251
 1945TIP3    H1 5799   3.128   0.343   0.622  0.5241  0.5337 -0.3078
 1945TIP3    H2 5800   3.097   0.472   0.549  1.2024 -0.2298 -1.9941
 1946TIP3   OH2 5801   4.344   1.837   3.670 -1.0254 -0.0454  0.0263
 1946TIP3    H1 5802   4.256   1.806   3.649 -1.2400  0.2049  0.5210
 1946TIP3    H2 5803   4.356   1.814   3.762 -0.0135 -1.3400 -0.4072
 1947TIP3   OH2 5804   4.086   0.036   5.092  0.1195  0.7076  0.4846
 1947TIP3    H1 5805   4.022  -0.028   5.121  1.0266 -0.0859  0.7903
 1947TIP3    H2 5806   4.167   0.012   5.138  0.7946  1.2980 -0.3545
 1948TIP3   OH2 5807   1.821   0.060   5.429  0.1939  0.3064  0.0163
 1948TIP3    H1 5808   1.744   0.106   5.397 -0.6706  1.5188  3.3690
 1948TIP3    H2 5809   1.799  -0.033   5.422 -0.1275  0.4943 -2.1323
 1949TIP3   OH2 5810   7.164   6.425   1.922 -0.2536 -0.3017  0.0332
 1949TIP3    H1 5811   7.120   6.487   1.980  0.0077 -0.4920  0.4434
 1949TIP3    H2 5812   7.258   6.445   1.933 -0.0651 -1.7286  1.3043
 1950TIP3   OH2 5813   1.667   0.339   1.337 -0.2047  0.7342  0.4879
 1950TIP3    H1 5814   1.747   0.328   1.389  0.4018  0.9636 -0.3788
 1950TIP3    H2 5815   1.647   0.251   1.306 -0.6035  0.5850  1.1298
 1951TIP3   OH2 5816   4.236   3.043   2.633  0.4755  0.6259  0.0184
 1951TIP3    H1 5817   4.197   2.955   2.624 -1.0488  1.0125  1.9981
 1951TIP3    H2 5818   4.327   3.032   2.605 -0.0925 -1.2096 -1.2942
 1952TIP3   OH2 5819   3.947   6.481   4.295  0.3279 -0.4919 -0.8789
 1952TIP3    H1 5820   3.932   6.480   4.201  0.4470  1.5049 -0.9608
 1952TIP3    H2 5821   4.042   6.475   4.305  0.2600 -1.7775 -0.8119
 1953TIP3   OH2 5822   4.158   2.774   5.707 -0.0066  0.0747  0.3578
 1953TIP3    H1 5823   4.190   2.717   5.777  0.6567  0.9157  0.7666
 1953TIP3    H2 5824   4.236   2.793   5.655 -0.2215  0.5763  0.2127
 1954TIP3   OH2 5825   5.931   5.071   4.291  0.1016  0.1487 -0.4608
 1954TIP3    H1 5826   6.023   5.064   4.316 -0.5056  0.0284  2.0609
 1954TIP3    H2 5827   5.885   5.016   4.355 -1.6627 -0.5040 -2.1989
 1955TIP3   OH2 5828   5.593   0.317   1.372 -0.5141  0.2308  0.1531
 1955TIP3    H1 5829   5.508   0.292   1.335  0.0813 -2.5407  0.4274
 1955TIP3    H2 5830   5.648   0.240   1.360  0.4660 -0.0323  4.5193
 1956TIP3   OH2 5831   2.999   0.263   3.724 -0.3201  0.1303 -0.1445
 1956TIP3    H1 5832   2.941   0.336   3.745 -0.2963  0.3598 -0.8586
 1956TIP3    H2 5833   3.046   0.245   3.806  0.6205  1.7745 -0.2844
 1957TIP3   OH2 5834   4.562   6.143   3.072 -0.3074 -0.4936  0.3288
 1957TIP3    H1 5835   4.656   6.132   3.057 -0.4523 -0.2402 -0.8015
 1957TIP3    H2 5836   4.557   6.204   3.146  0.4189 -1.7380  1.4442
 1958TIP3   OH2 5837   5.653   3.260   0.984  0.4061 -0.3446  0.0412
 1958TIP3    H1 5838   5.600   3.182   0.970  0.3914 -0.6230  1.5046
 1958TIP3    H2 5839   5.651   3.274   1.079  0.6988  1.2264 -0.1553
 1959TIP3   OH2 5840   2.013   5.742   2.289  0.2147 -0.0830 -0.7764
 1959TIP3    H1 5841   2.083   5.679   2.270 -1.1141 -1.7913 -0.3312
 1959TIP3    H2 5842   1.954   5.735   2.214 -0.7903 -0.6620  0.0322
 1960TIP3   OH2 5843   5.388   6.164   1.655 -0.3292  0.9178 -0.3297
 1960TIP3    H1 5844   5.330   6.157   1.579  2.3481 -0.6146 -2.4137
 1960TIP3    H2 5845   5.388   6.076   1.693  0.5461  0.8967 -0.3539
 1961TIP3   OH2 5846   5.904   4.452   0.956 -0.6707 -0.3388  0.6669
 1961TIP3    H1 5847   5.871   4.456   1.046 -0.8924  0.0436  0.5741
 1961TIP3    H2 5848   5.944   4.538   0.942  0.8844 -0.9796  0.9639
 1962TIP3   OH2 5849   2.851   4.824   4.434  0.2783  0.2427  0.2283
 1962TIP3    H1 5850   2.880   4.819   4.343  3.9083 -1.2266  1.2963
 1962TIP3    H2 5851   2.802   4.743   4.449  1.8525 -0.7463  0.1880
 1963TIP3   OH2 5852   2.288   6.231   0.918  0.4668  0.5102 -0.0041
 1963TIP3    H1 5853   2.341   6.266   0.989  0.9044  0.1405 -0.1434
 1963TIP3    H2 5854   2.302   6.137   0.922 -1.1489  0.2618  0.7362
 1964TIP3   OH2 5855   6.986   3.638   3.441  0.0552 -0.0841  0.0082
 1964TIP3    H1 5856   6.952   3.553   3.414  0.4868 -0.1900 -0.2167
 1964TIP3    H2 5857   7.072   3.644   3.399  0.8419 -0.3372  1.5086
 1965TIP3   OH2 5858   1.344   1.671   3.949  0.5454  0.2093 -0.5049
 1965TIP3    H1 5859   1.370   1.735   4.015 -0.4426 -0.2343  0.3263
 1965TIP3    H2 5860   1.426   1.626   3.925  1.1594  1.3917 -0.7138
 1966TIP3   OH2 5861   0.499   0.313   4.887  0.5944 -0.8011 -0.0849
 1966TIP3    H1 5862   0.417   0.298   4.840  1.9669 -1.4800 -2.3998
 1966TIP3    H2 5863   0.471   0.329   4.978 -2.0690 -1.0744 -0.7560
 1967TIP3   OH2 5864   7.202   1.436   0.143 -0.2326 -0.1944 -0.5158
 1967TIP3    H1 5865   7.209   1.529   0.164  0.8898 -0.3994  0.1037
 1967TIP3    H2 5866   7.172   1.434   0.052 -0.3069  0.7707 -0.5223
 1968TIP3   OH2 5867   6.221   0.358   5.804 -0.2742 -0.5678 -0.4235
 1968TIP3    H1 5868   6.274   0.308   5.867 -1.1487  0.1759  0.9591
 1968TIP3    H2 5869   6.236   0.314   5.720  1.9157 -0.8294  0.0431
 1969TIP3   OH2 5870   4.457   6.322   4.633 -0.0451 -0.3349 -0.3713
 1969TIP3    H1 5871   4.492   6.294   4.717  1.0136 -0.0926 -0.7175
 1969TIP3    H2 5872   4.489   6.257   4.570 -0.5968 -0.3610 -0.6331
 1970TIP3   OH2 5873   0.752   0.183   4.175 -0.4153 -0.7911 -0.1042
 1970TIP3    H1 5874   0.843   0.157   4.187  0.4919  0.8229 -2.5794
 1970TIP3    H2 5875   0.743   0.264   4.224 -0.3689 -0.7108 -0.2269
 1971TIP3   OH2 5876   6.371   3.615   0.793 -0.3132 -0.1329  0.3605
 1971TIP3    H1 5877   6.289   3.656   0.768  0.4776  1.2297 -0.1394
 1971TIP3    H2 5878   6.407   3.673   0.860  0.4086 -0.4996  0.3056
 1972TIP3   OH2 5879   5.501   5.174   2.324 -0.5351 -0.1032 -0.2278
 1972TIP3    H1 5880   5.485   5.093   2.372 -0.5941  1.6225  2.9633
 1972TIP3    H2 5881   5.435   5.235   2.357  1.2894  2.0457 -0.3419
 1973TIP3   OH2 5882   5.937   3.454   0.582  0.3302  0.3230  0.3599
 1973TIP3    H1 5883   5.934   3.402   0.662  2.7163  0.0833  0.3565
 1973TIP3    H2 5884   5.991   3.530   0.604 -0.2124  1.0153 -0.6140
 1974TIP3   OH2 5885   4.980   0.706   2.255  0.0727 -0.5020 -0.5101
 1974TIP3    H1 5886   5.007   0.719   2.164 -1.6953  0.0174 -1.0080
 1974TIP3    H2 5887   4.944   0.791   2.281 -4.0290 -1.8708 -1.0321
 1975TIP3   OH2 5888   3.844   2.623   2.382  0.0746  0.8859 -0.4117
 1975TIP3    H1 5889   3.762   2.576   2.394 -0.1720  1.3168 -0.3927
 1975TIP3    H2 5890   3.832   2.705   2.429  0.6638  0.7852 -0.0799
 1976TIP3   OH2 5891   5.311   4.286   2.918 -0.2827  0.5405 -0.0132
 1976TIP3    H1 5892   5.349   4.359   2.967 -0.6031 -0.6318  2.0674
 1976TIP3    H2 5893   5.246   4.248   2.977  0.2297 -1.7551 -0.8201
 1977TIP3   OH2 5894   1.631   1.577   5.759 -0.3075  0.3264 -0.5009
 1977TIP3    H1 5895   1.675   1.646   5.710 -0.0961  0.9119  0.4783
 1977TIP3    H2 5896   1.584   1.623   5.829  0.6776 -0.5735  0.8011
 1978TIP3   OH2 5897   5.234   3.526   1.825 -0.0755 -0.0442 -0.0002
 1978TIP3    H1 5898   5.234   3.475   1.906 -1.1084 -0.5406 -0.2864
 1978TIP3    H2 5899   5.317   3.506   1.783 -0.4656 -1.5108 -0.1109
 1979TIP3   OH2 5900   3.881   5.865   2.217 -0.2997 -0.3813 -0.2894
 1979TIP3    H1 5901   3.883   5.771   2.198 -2.9131 -0.9499  1.6853
 1979TIP3    H2 5902   3.937   5.875   2.295  1.1230  0.0175 -1.3098
 1980TIP3   OH2 5903   0.645   5.109   2.301 -0.0243 -0.2722 -0.1682
 1980TIP3    H1 5904   0.638   5.149   2.387 -1.3215 -1.8733  0.5226
 1980TIP3    H2 5905   0.574   5.149   2.250 -0.4444 -0.6776  0.0939
 1981TIP3   OH2 5906   1.450   5.442   1.180 -0.4678  0.0319  0.2722
 1981TIP3    H1 5907   1.447   5.474   1.269  0.0917 -3.3507  1.6710
 1981TIP3    H2 5908   1.543   5.427   1.163 -0.7199 -1.2883 -0.0593
 1982TIP3   OH2 5909   5.863   3.940   0.741 -0.2552 -0.3774 -0.6528
 1982TIP3    H1 5910   5.851   4.015   0.684  0.3294 -0.4772 -0.9143
 1982TIP3    H2 5911   5.949   3.905   0.717 -0.7829 -1.5046 -0.9885
 1983TIP3   OH2 5912   6.277   0.869   3.294 -0.1184 -0.3000 -0.0457
 1983TIP3    H1 5913   6.373   0.873   3.302 -0.1762  1.0212  0.2397
 1983TIP3    H2 5914   6.249   0.823   3.373  0.1034  2.1781  1.5768
 1984TIP3   OH2 5915   1.546   4.249   2.886  0.2968 -0.0345 -0.0764
 1984TIP3    H1 5916   1.607   4.183   2.852  1.8380  0.2012  2.0751
 1984TIP3    H2 5917   1.548   4.319   2.821  1.7097 -0.3928 -0.4468
 1985TIP3   OH2 5918   5.386   6.046   0.996 -0.1465 -0.2946 -0.2486
 1985TIP3    H1 5919   5.301   6.025   1.036  0.1653 -1.3473 -0.1309
 1985TIP3    H2 5920   5.416   5.964   0.958  0.3726  0.3036 -1.1546
 1986TIP3   OH2 5921   5.991   5.358   5.086 -0.2036  0.2199 -0.3480
 1986TIP3    H1 5922   5.977   5.382   4.995  1.4677  1.2633 -0.3604
 1986TIP3    H2 5923   6.035   5.433   5.125  0.6857 -0.8950  0.8901
 1987TIP3   OH2 5924   0.693   2.105   0.403  0.3035  0.2309 -0.2526
 1987TIP3    H1 5925   0.661   2.051   0.331 -0.0124  0.6320 -0.4172
 1987TIP3    H2 5926   0.767   2.153   0.366  0.1774  0.3941 -0.2931
 1988TIP3   OH2 5927   1.875   1.788   3.277  0.2088 -0.0066  0.0857
 1988TIP3    H1 5928   1.868   1.714   3.337  3.0186  1.0128  1.9055
 1988TIP3    H2 5929   1.969   1.803   3.268 -0.1809  1.4029 -2.7579
 1989TIP3   OH2 5930   1.495   2.001   5.616 -0.4776 -0.6242  0.3824
 1989TIP3    H1 5931   1.418   2.028   5.567  0.2086 -1.0606 -1.0036
 1989TIP3    H2 5932   1.569   2.023   5.559  0.3654 -1.0143  1.2880
 1990TIP3   OH2 5933   4.717   3.909   4.599  0.2205 -0.3918  0.0322
 1990TIP3    H1 5934   4.787   3.868   4.549 -0.9255 -0.4015 -1.6653
 1990TIP3    H2 5935   4.659   3.945   4.532 -2.4010 -2.0505  1.2577
 1991TIP3   OH2 5936   1.041   4.208   4.818 -0.2156 -0.0711 -0.2598
 1991TIP3    H1 5937   1.031   4.199   4.723  0.5879  0.2412 -0.3854
 1991TIP3    H2 5938   1.135   4.195   4.833 -0.0497  1.5762  0.2971
 1992TIP3   OH2 5939   2.372   3.003   5.000 -0.3008  0.3248 -0.2413
 1992TIP3    H1 5940   2.294   3.002   4.944  0.2643 -0.2366 -1.0515
 1992TIP3    H2 5941   2.386   3.095   5.021 -0.3876  0.5738 -1.2423
 1993TIP3   OH2 5942   6.543   0.505   3.287  0.8995  0.0525 -0.0176
 1993TIP3    H1 5943   6.617   0.457   3.252 -0.4884 -0.5615 -2.2974
 1993TIP3    H2 5944   6.492   0.531   3.210 -2.0732 -0.9064  1.4707
 1994TIP3   OH2 5945   2.972   2.824   5.066  0.5137 -0.2361  0.2214
 1994TIP3    H1 5946   3.019   2.797   5.145  1.7534  0.3158 -0.3001
 1994TIP3    H2 5947   2.896   2.871   5.098  0.3441 -1.0784  1.0903
 1995TIP3   OH2 5948   3.810   2.078   1.994 -0.2298  0.4120  0.0275
 1995TIP3    H1 5949   3.870   2.018   1.950 -0.4397  0.4666 -0.3393
 1995TIP3    H2 5950   3.814   2.053   2.086 -0.6799 -0.4911 -0.1861
 1996TIP3   OH2 5951   4.209   0.739   1.502  0.2371  0.0996 -0.8999
 1996TIP3    H1 5952   4.162   0.811   1.545  0.1629 -0.3304 -0.2433
 1996TIP3    H2 5953   4.212   0.764   1.410  3.7082  2.9435 -0.2457
 1997TIP3   OH2 5954   3.293   2.645   5.652  0.2813  0.1200  0.0113
 1997TIP3    H1 5955   3.232   2.719   5.654 -0.6622 -0.6339  2.8275
 1997TIP3    H2 5956   3.303   2.625   5.558 -3.3096  0.6645 -0.6254
 1998TIP3   OH2 5957   6.192   5.077   2.764  0.0082 -0.2772 -0.0322
 1998TIP3    H1 5958   6.166   5.106   2.851 -0.1539 -0.3444 -0.0577
 1998TIP3    H2 5959   6.132   5.005   2.744  0.4093 -0.6307  0.0314
 1999TIP3   OH2 5960   2.761   0.839   0.079  0.3930 -0.4546 -0.3115
 1999TIP3    H1 5961   2.823   0.835   0.005 -0.0384  0.2054 -0.7130
 1999TIP3    H2 5962   2.718   0.753   0.077  0.7840 -0.6530 -0.4753
 2000TIP3   OH2 5963   4.868   5.402   5.012 -0.6129 -0.2427  0.1618
 2000TIP3    H1 5964   4.957   5.397   5.047  0.2377 -0.9723 -1.9294
 2000TIP3    H2 5965   4.848   5.495   5.011 -0.5798 -0.1627  2.1981
 2001TIP3   OH2 5966   3.729   4.149   2.428 -0.1172  0.2223  0.2195
 2001TIP3    H1 5967   3.721   4.060   2.394 -0.2276 -0.1159  1.1108
 2001TIP3    H2 5968   3.668   4.200   2.375 -0.6304 -0.3823  0.2101
 2002TIP3   OH2 5969   6.912   1.218   4.328  0.1611  0.5273  0.1866
 2002TIP3    H1 5970   6.836   1.162   4.342 -0.7841  1.3503 -1.3415
 2002TIP3    H2 5971   6.987   1.159   4.332 -0.8240 -0.9978 -1.9245
 2003TIP3   OH2 5972   6.409   1.981   4.342  0.5542 -0.2548 -0.2436
 2003TIP3    H1 5973   6.496   1.942   4.342  0.7935  0.0130  2.6503
 2003TIP3    H2 5974   6.420   2.064   4.296  1.7238 -0.4448 -0.3356
 2004TIP3   OH2 5975   3.727   4.967   2.643 -0.8563  0.4701 -0.3431
 2004TIP3    H1 5976   3.685   5.010   2.718 -1.6883  1.5483 -1.3951
 2004TIP3    H2 5977   3.758   4.884   2.678 -2.2992  0.4227  0.9341
 2005TIP3   OH2 5978   5.213   3.783   4.597 -0.1389  0.2463 -0.2456
 2005TIP3    H1 5979   5.248   3.803   4.684 -0.7291  1.3347 -0.2388
 2005TIP3    H2 5980   5.283   3.734   4.554 -0.5865 -2.1446  1.5177
 2006TIP3   OH2 5981   3.450   3.010   0.666 -0.3567 -0.1501 -0.4265
 2006TIP3    H1 5982   3.470   3.089   0.716 -2.2412  0.4592 -0.5716
 2006TIP3    H2 5983   3.497   2.940   0.713  1.3107  1.0049 -0.2786
 2007TIP3   OH2 5984   6.357   1.828   5.863 -0.5123 -0.1692 -0.3070
 2007TIP3    H1 5985   6.451   1.831   5.878 -0.5470 -1.3431  0.2765
 2007TIP3    H2 5986   6.324   1.908   5.902  0.2638  0.3448 -0.6886
 2008TIP3   OH2 5987   2.657   4.787   4.131 -0.0530 -0.1629 -0.0525
 2008TIP3    H1 5988   2.591   4.772   4.063  0.2420 -0.9645 -0.1725
 2008TIP3    H2 5989   2.688   4.876   4.115  0.4410 -0.5469 -1.3476
 2009TIP3   OH2 5990   5.090   3.359   0.340 -0.3484  0.6159 -0.4643
 2009TIP3    H1 5991   5.117   3.287   0.399 -1.7475  0.0636 -0.4679
 2009TIP3    H2 5992   5.009   3.328   0.300  0.9782  0.5970 -3.3906
 2010TIP3   OH2 5993   1.488   6.681   2.356  0.3245 -0.2731  0.4350
 2010TIP3    H1 5994   1.447   6.767   2.353 -1.6055 -1.1131  0.9989
 2010TIP3    H2 5995   1.582   6.698   2.350  0.1487  2.0034  2.6861
 2011TIP3   OH2 5996   0.068   2.703   0.166 -0.6085 -0.6631 -0.3319
 2011TIP3    H1 5997   0.015   2.723   0.243  0.3655 -2.1186  0.7727
 2011TIP3    H2 5998   0.058   2.609   0.154 -0.2856 -0.5552 -1.6681
 2012TIP3   OH2 5999   0.852   1.449   3.340  0.4700 -0.1824  0.3147
 2012TIP3    H1 6000   0.906   1.523   3.368 -0.1734  0.2499  0.4370
 2012TIP3    H2 6001   0.897   1.372   3.375 -0.4367  0.3440  2.8804
 2013TIP3   OH2 6002   4.471   4.998   3.284 -0.1242 -0.5207 -0.5003
 2013TIP3    H1 6003   4.509   5.070   3.233  0.2657 -0.5751 -0.2932
 2013TIP3    H2 6004   4.544   4.937   3.295 -0.1549 -0.4239  0.2759
 2014TIP3   OH2 6005   3.817   0.077   1.835  0.2987  0.1642 -0.3757
 2014TIP3    H1 6006   3.851   0.028   1.761  0.3910 -1.3538  0.6125
 2014TIP3    H2 6007   3.723   0.084   1.818  0.3386 -0.0680 -0.6993
 2015TIP3   OH2 6008   1.891   5.690   1.740  0.2355  0.0595  0.1440
 2015TIP3    H1 6009   1.800   5.666   1.757  0.8432 -0.4408  3.3535
 2015TIP3    H2 6010   1.929   5.613   1.698 -0.1567 -0.8943  1.4690
 2016TIP3   OH2 6011   4.016   3.310   0.885  0.6164  0.2417  0.3071
 2016TIP3    H1 6012   3.986   3.219   0.887  0.2740  0.3625  0.8056
 2016TIP3    H2 6013   4.111   3.304   0.881  0.5583 -0.1434 -0.7980
 2017TIP3   OH2 6014   0.947   5.303   5.752  0.5746  0.1640 -0.2043
 2017TIP3    H1 6015   0.982   5.391   5.745  1.1549 -0.0741 -0.4050
 2017TIP3    H2 6016   0.911   5.284   5.665 -2.6359  1.4234  0.6877
 2018TIP3   OH2 6017   1.479   5.429   0.151 -0.1750 -0.3830  0.4164
 2018TIP3    H1 6018   1.529   5.507   0.127 -0.7305 -0.2211 -0.2177
 2018TIP3    H2 6019   1.533   5.386   0.218  0.8720 -0.2611 -0.3180
 2019TIP3   OH2 6020   2.999   6.626   3.769  0.7647 -0.5472 -1.2287
 2019TIP3    H1 6021   2.938   6.643   3.841  2.6251  1.7637 -0.0574
 2019TIP3    H2 6022   3.053   6.553   3.800  1.5062  0.3861 -0.2533
 2020TIP3   OH2 6023   6.720   0.575  -0.031 -0.1425  0.3761  0.4937
 2020TIP3    H1 6024   6.783   0.629   0.018  1.2362  0.7018 -1.4973
 2020TIP3    H2 6025   6.691   0.509   0.032  1.5672  0.7414  1.7391
 2021TIP3   OH2 6026   6.751   0.292   1.736 -0.4466 -0.0298 -0.0293
 2021TIP3    H1 6027   6.822   0.352   1.759 -0.7596  0.8274 -1.1943
 2021TIP3    H2 6028   6.780   0.249   1.655 -0.3726 -1.2315  0.6043
 2022TIP3   OH2 6029   1.920   0.174   4.871  0.1404  0.4739  0.3256
 2022TIP3    H1 6030   1.967   0.238   4.818 -2.4913  0.9511 -1.6901
 2022TIP3    H2 6031   1.957   0.089   4.845 -0.0224  0.8275 -1.2084
 2023TIP3   OH2 6032   1.827   0.788   5.403 -0.3446  0.0502  0.5147
 2023TIP3    H1 6033   1.734   0.809   5.393  0.0907  1.4351 -1.2119
 2023TIP3    H2 6034   1.854   0.838   5.480 -0.8818  0.1834  0.6230
 2024TIP3   OH2 6035   4.379   5.124   2.868 -0.1814 -0.9385 -0.0861
 2024TIP3    H1 6036   4.461   5.137   2.916 -1.2134 -1.5987  1.9752
 2024TIP3    H2 6037   4.312   5.162   2.924 -1.1974  0.9749 -2.4208
 2025TIP3   OH2 6038   1.112   0.648   2.151 -0.0022  0.0550 -0.3219
 2025TIP3    H1 6039   1.066   0.654   2.234 -1.7757  0.4306 -1.2821
 2025TIP3    H2 6040   1.086   0.564   2.115  1.0958 -0.2964 -0.3232
 2026TIP3   OH2 6041   2.732   1.441   1.355  0.5431  0.0869 -0.0832
 2026TIP3    H1 6042   2.729   1.368   1.293 -0.9070 -0.0699  0.1467
 2026TIP3    H2 6043   2.798   1.414   1.420  0.3580 -0.8090 -0.2499
 2027TIP3   OH2 6044   4.400   6.398   3.849  0.3887 -0.1361  0.0799
 2027TIP3    H1 6045   4.446   6.479   3.825  0.1083 -0.3134 -1.1006
 2027TIP3    H2 6046   4.356   6.420   3.931  2.0128  0.2441  0.9108
 2028TIP3   OH2 6047   4.667   2.856   2.794 -0.0326 -0.1791 -0.2413
 2028TIP3    H1 6048   4.661   2.765   2.767 -0.6012  0.4049 -2.2786
 2028TIP3    H2 6049   4.661   2.854   2.890  0.8142 -2.3078 -0.1873
 2029TIP3   OH2 6050   4.110   6.102   3.689  0.0063  0.1058 -0.4290
 2029TIP3    H1 6051   4.194   6.126   3.729  0.0077  0.7388 -0.8069
 2029TIP3    H2 6052   4.057   6.069   3.762  0.5138 -0.1258 -0.1564
 2030TIP3   OH2 6053   5.019   1.710   3.419 -0.3281  0.1609  0.3863
 2030TIP3    H1 6054   5.108   1.676   3.424 -0.6604 -0.9405 -0.5878
 2030TIP3    H2 6055   4.966   1.634   3.393 -1.6046  0.7132  1.2438
 2031TIP3   OH2 6056   1.832   0.823   3.455 -0.7344 -0.0293 -0.0696
 2031TIP3    H1 6057   1.847   0.890   3.389 -1.4785 -0.1812 -0.4104
 2031TIP3    H2 6058   1.917   0.808   3.495 -0.1340 -0.3890 -1.4419
 2032TIP3   OH2 6059   0.378   2.506   0.177  0.0747  0.2535  0.0015
 2032TIP3    H1 6060   0.381   2.509   0.082  0.8674 -0.3338  0.0003
 2032TIP3    H2 6061   0.312   2.439   0.197  1.0887 -0.8016 -0.1518
 2033TIP3   OH2 6062   5.005   3.036   2.318 -0.1542  0.7899 -0.6449
 2033TIP3    H1 6063   4.948   2.959   2.313 -0.2170  0.6885  1.2238
 2033TIP3    H2 6064   5.074   3.011   2.379 -0.2824  2.2629  0.1493
 2034TIP3   OH2 6065   4.747   4.977   3.471 -0.2054  0.0668  0.2803
 2034TIP3    H1 6066   4.836   4.950   3.497 -0.0048  1.0629  0.6836
 2034TIP3    H2 6067   4.710   4.899   3.429  1.2232 -0.0652 -0.8392
 2035TIP3   OH2 6068   6.763   2.625   4.810  0.1307 -0.4630 -0.1384
 2035TIP3    H1 6069   6.816   2.558   4.853 -1.8669 -0.4686  2.6119
 2035TIP3    H2 6070   6.679   2.582   4.793 -0.6073  0.8244  0.0842
 2036TIP3   OH2 6071   1.335   2.413   3.502 -0.2653 -0.5461 -0.1168
 2036TIP3    H1 6072   1.268   2.425   3.569 -0.8053 -3.2250 -0.0445
 2036TIP3    H2 6073   1.415   2.392   3.551 -0.4629 -1.6928 -0.2616
 2037TIP3   OH2 6074   3.907   1.443   3.876 -0.0117  0.0520 -0.1458
 2037TIP3    H1 6075   3.936   1.370   3.822  0.1840 -0.8000  1.0840
 2037TIP3    H2 6076   3.873   1.403   3.955  1.1933  1.3287  1.0657
 2038TIP3   OH2 6077   4.774   1.757   1.052 -0.1500  0.8379  0.3157
 2038TIP3    H1 6078   4.844   1.822   1.052 -0.2355  0.9317  0.4008
 2038TIP3    H2 6079   4.712   1.788   0.986  0.4704  0.1117 -0.6265
 2039TIP3   OH2 6080   3.391   1.063   1.924  0.2242  0.4685  0.2749
 2039TIP3    H1 6081   3.321   0.997   1.916  1.5326 -0.8966 -0.6386
 2039TIP3    H2 6082   3.414   1.083   1.833 -0.2700  2.3847  0.5385
 2040TIP3   OH2 6083   0.881   1.859   4.602  0.5041 -0.3254  0.5630
 2040TIP3    H1 6084   0.794   1.895   4.589  0.2266 -1.0219  0.4585
 2040TIP3    H2 6085   0.937   1.936   4.618  0.0606  0.2024 -0.3547
 2041TIP3   OH2 6086   2.808   2.315   5.698  0.0820  0.7423  0.4745
 2041TIP3    H1 6087   2.778   2.226   5.681 -0.7422  0.3663  3.4082
 2041TIP3    H2 6088   2.899   2.315   5.668 -0.9165  0.1212 -3.0393
 2042TIP3   OH2 6089   6.721   5.731   5.808  0.2015 -0.0894 -0.4984
 2042TIP3    H1 6090   6.718   5.670   5.735 -0.5562 -2.7282  1.6043
 2042TIP3    H2 6091   6.805   5.715   5.850 -0.3111 -0.2352  0.5031
 2043TIP3   OH2 6092   1.133   5.421   1.873  0.1798  0.0229 -0.2837
 2043TIP3    H1 6093   1.104   5.384   1.957  1.8356  0.1290  0.3540
 2043TIP3    H2 6094   1.102   5.358   1.808  1.2818 -1.5249  0.6396
 2044TIP3   OH2 6095   2.337   5.171   5.010  0.2318  0.4184  0.0983
 2044TIP3    H1 6096   2.309   5.079   4.999 -0.5936  0.5741  0.7631
 2044TIP3    H2 6097   2.421   5.165   5.055 -0.2688 -0.0112  1.0229
 2045TIP3   OH2 6098   6.893   0.431   1.244  0.2229  0.5235  0.5179
 2045TIP3    H1 6099   6.805   0.404   1.270 -0.9000  2.6352 -0.7507
 2045TIP3    H2 6100   6.923   0.363   1.185 -1.2653  0.5271 -0.3023
 2046TIP3   OH2 6101   3.668   4.020   4.211 -0.1682 -0.0668  0.3186
 2046TIP3    H1 6102   3.587   4.040   4.258  0.0361  0.4019  0.4722
 2046TIP3    H2 6103   3.726   3.984   4.278 -0.3070 -0.5762  0.1724
 2047TIP3   OH2 6104   5.383   4.427   3.722  0.0048  0.2940 -0.1958
 2047TIP3    H1 6105   5.374   4.500   3.783  0.2579  0.8271 -0.7833
 2047TIP3    H2 6106   5.468   4.388   3.743 -0.0115  0.3330 -0.0590
 2048TIP3   OH2 6107   0.041   3.527   5.336  0.1891  0.1372  0.4707
 2048TIP3    H1 6108   0.051   3.475   5.415  1.3029 -0.2855  0.0767
 2048TIP3    H2 6109   0.097   3.603   5.350  2.0434 -0.9342 -0.6980
 2049TIP3   OH2 6110   0.772   3.777   2.552  0.3652  0.3690 -0.7144
 2049TIP3    H1 6111   0.803   3.747   2.467  0.3813 -0.8199 -0.3004
 2049TIP3    H2 6112   0.808   3.866   2.560  0.6666  0.3591 -1.7808
 2050TIP3   OH2 6113   2.202   6.450   4.712  0.1667 -0.7056 -0.5064
 2050TIP3    H1 6114   2.191   6.355   4.703  2.7302 -0.9732 -1.7084
 2050TIP3    H2 6115   2.113   6.485   4.704 -1.0057 -3.0274  1.1055
 2051TIP3   OH2 6116   0.093   0.939   5.314  0.7271 -0.2263  0.6297
 2051TIP3    H1 6117   0.005   0.968   5.336  0.3678  0.1924 -1.1983
 2051TIP3    H2 6118   0.133   0.918   5.399 -0.8829  0.2166  1.5474
 2052TIP3   OH2 6119   4.984   0.327   4.402  0.7808  0.1991 -0.1507
 2052TIP3    H1 6120   4.975   0.295   4.491  0.5172 -1.1990 -0.6606
 2052TIP3    H2 6121   4.956   0.254   4.347  1.6577  0.7687 -1.4037
 2053TIP3   OH2 6122   6.498   2.965   4.114 -0.4995 -0.4987 -0.0756
 2053TIP3    H1 6123   6.573   3.006   4.157 -0.6901 -0.0301 -0.1891
 2053TIP3    H2 6124   6.426   3.027   4.125 -0.3800 -0.0499 -1.6721
 2054TIP3   OH2 6125   6.662   3.516   0.937  0.7937  0.4695  0.4334
 2054TIP3    H1 6126   6.578   3.470   0.928  0.2983  1.3725  0.3238
 2054TIP3    H2 6127   6.639   3.608   0.937  1.4101  0.7689  3.7152
 2055TIP3   OH2 6128   1.657   1.628   5.020  0.3535 -0.4183  0.0553
 2055TIP3    H1 6129   1.580   1.684   5.006  0.8792  0.6047  1.0857
 2055TIP3    H2 6130   1.644   1.554   4.960 -1.5573 -0.4109  0.4096
 2056TIP3   OH2 6131   2.078   0.217   5.400 -0.2618 -0.0448  0.3306
 2056TIP3    H1 6132   1.994   0.170   5.406 -0.2893  0.0908  1.1420
 2056TIP3    H2 6133   2.143   0.148   5.384 -0.5167 -0.1550 -0.2550
 2057TIP3   OH2 6134   7.188   1.492   2.722 -0.1017 -0.2329  1.1555
 2057TIP3    H1 6135   7.130   1.568   2.733  0.3196  0.3660 -0.5163
 2057TIP3    H2 6136   7.269   1.517   2.766  0.4208  0.7814 -0.3042
 2058TIP3   OH2 6137   2.016   0.585   4.561 -0.2489 -0.2037  0.4791
 2058TIP3    H1 6138   2.000   0.519   4.494  0.0501 -1.4511  1.5982
 2058TIP3    H2 6139   1.929   0.618   4.584 -0.2846  1.0565 -1.2744
 2059TIP3   OH2 6140   2.189   0.573   0.803 -0.0864  0.1428 -0.0628
 2059TIP3    H1 6141   2.116   0.616   0.758 -1.2378  2.3014  3.5065
 2059TIP3    H2 6142   2.154   0.487   0.828 -1.0296  0.7311  0.6716
 2060TIP3   OH2 6143   2.269   4.963   3.819  0.0484  0.3874  0.6245
 2060TIP3    H1 6144   2.314   4.991   3.898  1.7520  0.7127 -0.4175
 2060TIP3    H2 6145   2.195   5.023   3.811  0.0944  0.6136  1.7323
 2061TIP3   OH2 6146   6.297   1.793   4.587  0.2558 -0.3134 -0.4807
 2061TIP3    H1 6147   6.203   1.782   4.572  0.2963 -2.8053  0.5850
 2061TIP3    H2 6148   6.302   1.851   4.663 -0.4018 -0.0891 -0.5970
 2062TIP3   OH2 6149   1.055   1.331   5.441 -0.7251 -0.4683 -0.0348
 2062TIP3    H1 6150   0.999   1.254   5.431 -2.2111  0.3296  1.4620
 2062TIP3    H2 6151   1.071   1.361   5.351 -1.5945 -1.5207 -0.5646
 2063TIP3   OH2 6152   3.363   2.655   0.807 -0.1005 -0.1262  0.0203
 2063TIP3    H1 6153   3.324   2.728   0.854  1.2063  0.3862  0.3493
 2063TIP3    H2 6154   3.411   2.695   0.735 -0.3022 -0.7535 -0.4778
 2064TIP3   OH2 6155   5.281   2.543   4.160 -0.0852 -0.2682 -0.7277
 2064TIP3    H1 6156   5.227   2.484   4.212 -1.2187  0.4243 -1.0686
 2064TIP3    H2 6157   5.237   2.628   4.167  0.6528  0.1958 -1.4812
 2065TIP3   OH2 6158   4.268   0.872   2.599  0.1871 -0.0882  0.1615
 2065TIP3    H1 6159   4.229   0.826   2.525  0.5369 -0.8784  0.4583
 2065TIP3    H2 6160   4.317   0.944   2.559 -2.2906  1.5419 -0.1791
 2066TIP3   OH2 6161   2.207   1.735   3.686  0.1117 -0.0507 -0.2595
 2066TIP3    H1 6162   2.230   1.816   3.731 -1.4400  0.9351 -1.1181
 2066TIP3    H2 6163   2.279   1.675   3.704  0.4349  0.9182  1.9055
 2067TIP3   OH2 6164   5.424   0.502   0.088 -0.0861  0.0016  0.6181
 2067TIP3    H1 6165   5.341   0.550   0.085  0.6309  1.2993 -2.7517
 2067TIP3    H2 6166   5.399   0.410   0.082 -1.3139  0.2871  1.1109
 2068TIP3   OH2 6167   6.232   2.205   4.593 -0.1875 -0.0324 -0.0641
 2068TIP3    H1 6168   6.321   2.219   4.562 -0.4425 -0.7280 -1.1536
 2068TIP3    H2 6169   6.178   2.263   4.538 -0.2598  1.8058  1.8054
 2069TIP3   OH2 6170   4.638   1.172   4.161  0.2733  0.0768 -0.1596
 2069TIP3    H1 6171   4.636   1.181   4.066  2.3158 -0.4445 -0.3010
 2069TIP3    H2 6172   4.712   1.227   4.189  0.8985 -1.2324  0.9016
 2070TIP3   OH2 6173   4.800   5.074   4.498  0.2058 -0.0364  0.2339
 2070TIP3    H1 6174   4.891   5.051   4.481 -0.1801 -0.7996 -0.9658
 2070TIP3    H2 6175   4.778   5.137   4.429  0.4981  2.0600  1.9599
 2071TIP3   OH2 6176   7.091   5.239   0.052 -0.3629  0.1367 -0.1025
 2071TIP3    H1 6177   7.098   5.160   0.106  2.1288  1.1055  1.1468
 2071TIP3    H2 6178   7.069   5.309   0.113 -1.1944  0.6641 -0.9760
 2072TIP3   OH2 6179   2.607   3.512   1.909  0.3901  0.4940 -0.2578
 2072TIP3    H1 6180   2.653   3.593   1.884  0.6719  0.5380  0.3774
 2072TIP3    H2 6181   2.637   3.447   1.845  1.8300  0.3697  0.4820
 2073TIP3   OH2 6182   5.696   4.735   1.859 -0.1254 -0.0196 -0.4265
 2073TIP3    H1 6183   5.724   4.824   1.883  1.8498 -0.5509 -0.5502
 2073TIP3    H2 6184   5.678   4.740   1.766 -0.5711  0.3720 -0.3242
 2074TIP3   OH2 6185   6.254   1.276   4.830 -0.4645 -0.2864  0.2054
 2074TIP3    H1 6186   6.194   1.243   4.763  0.1538 -0.1117 -0.4520
 2074TIP3    H2 6187   6.277   1.364   4.801 -1.1964  0.2864  1.3441
 2075TIP3   OH2 6188   5.648   1.495   5.674 -0.1931 -0.1539  0.1380
 2075TIP3    H1 6189   5.703   1.432   5.628  1.1885 -1.2102  2.9978
 2075TIP3    H2 6190   5.700   1.575   5.677 -0.5722  0.1309 -0.6791
 2076TIP3   OH2 6191   0.949   3.140   1.418  0.4830 -0.0986  0.3346
 2076TIP3    H1 6192   0.905   3.080   1.478 -0.1660  0.9289  0.9217
 2076TIP3    H2 6193   0.878   3.178   1.365  0.9928 -0.6155 -0.7484
 2077TIP3   OH2 6194   2.938   1.469   1.919  0.4670 -0.4205  0.2132
 2077TIP3    H1 6195   2.891   1.396   1.878  0.2799 -0.2433  0.1085
 2077TIP3    H2 6196   2.886   1.489   1.997  1.6291 -1.7366  1.3803
 2078TIP3   OH2 6197   1.134   2.932   1.999  0.4626 -0.2191  0.4834
 2078TIP3    H1 6198   1.090   2.907   2.080  0.7267  1.0935  1.0639
 2078TIP3    H2 6199   1.124   3.027   1.995  2.7087  0.0682  0.3407
 2079TIP3   OH2 6200   4.849   5.312   1.831  0.6153  0.0661 -0.1456
 2079TIP3    H1 6201   4.921   5.279   1.884  1.1889 -1.5782 -1.8263
 2079TIP3    H2 6202   4.891   5.344   1.751 -0.5131 -1.9760 -1.6580
 2080TIP3   OH2 6203   2.577   5.967   0.967  0.1366 -0.2667 -0.1516
 2080TIP3    H1 6204   2.621   6.030   0.909 -0.3573 -0.8755 -1.2025
 2080TIP3    H2 6205   2.643   5.900   0.983 -0.1399 -0.7710 -1.0841
 2081TIP3   OH2 6206   3.270   1.294   4.374 -0.3177 -0.1596  0.0662
 2081TIP3    H1 6207   3.338   1.360   4.391  0.8600 -1.4183  0.4358
 2081TIP3    H2 6208   3.247   1.262   4.461 -0.7223 -0.3866 -0.1239
 2082TIP3   OH2 6209   2.222   6.181   4.587 -0.5246  0.1084 -0.0192
 2082TIP3    H1 6210   2.209   6.102   4.534  3.1433 -1.7994  1.5574
 2082TIP3    H2 6211   2.278   6.236   4.533  0.7699 -0.5256  0.6299
 2083TIP3   OH2 6212   3.834   3.683   2.542  0.2163 -0.4505  0.3746
 2083TIP3    H1 6213   3.741   3.698   2.524  0.6457  1.2640 -0.6873
 2083TIP3    H2 6214   3.858   3.611   2.484  0.3489  1.5585 -2.2246
 2084TIP3   OH2 6215   4.816   5.693   4.092 -0.3165 -0.4700  0.0368
 2084TIP3    H1 6216   4.795   5.607   4.056  0.0423  0.0226 -1.3836
 2084TIP3    H2 6217   4.760   5.754   4.044  0.0884  0.2017  0.3983
 2085TIP3   OH2 6218   3.968   5.895   3.436  0.1837  0.5649  0.1492
 2085TIP3    H1 6219   4.030   5.957   3.397  0.8307 -0.9520 -1.3850
 2085TIP3    H2 6220   3.914   5.865   3.363  0.3328 -1.1456  0.6915
 2086TIP3   OH2 6221   4.900   6.723   4.983  0.2934  0.1842 -0.3570
 2086TIP3    H1 6222   4.883   6.693   5.073 -2.5509  0.3504 -0.7338
 2086TIP3    H2 6223   4.916   6.643   4.933 -1.8554 -0.3288 -0.3332
 2087TIP3   OH2 6224   4.598   0.106   1.874 -0.0857 -0.2012  0.1569
 2087TIP3    H1 6225   4.618   0.113   1.781  0.6077 -2.0179  0.1353
 2087TIP3    H2 6226   4.563   0.017   1.884 -0.0100 -0.0779  1.6492
 2088TIP3   OH2 6227   6.646   1.708   5.339  0.2256  0.0248  0.0785
 2088TIP3    H1 6228   6.605   1.700   5.253 -1.5775  0.5259  0.8570
 2088TIP3    H2 6229   6.713   1.776   5.327 -0.0400  0.1352 -0.8953
 2089TIP3   OH2 6230   5.439   2.008   2.667 -0.3394 -0.1314  0.3394
 2089TIP3    H1 6231   5.376   2.024   2.596 -0.8072 -1.2897  0.4737
 2089TIP3    H2 6232   5.391   1.953   2.729  0.1324  0.7021  1.4705
 2090TIP3   OH2 6233   2.803   5.107   2.513  0.3853 -0.0379 -0.1412
 2090TIP3    H1 6234   2.785   5.165   2.440  0.1529 -0.4204 -0.3880
 2090TIP3    H2 6235   2.855   5.036   2.475 -0.3052 -0.5866 -0.0752
 2091TIP3   OH2 6236   6.253   6.023   4.283  0.2749  0.1619 -0.1311
 2091TIP3    H1 6237   6.265   6.113   4.313  0.1784 -0.3568  1.5633
 2091TIP3    H2 6238   6.173   6.025   4.231  1.9343  1.6348 -2.8478
 2092TIP3   OH2 6239   4.067   3.776   3.856 -0.1036  0.3749 -0.1495
 2092TIP3    H1 6240   4.058   3.682   3.838 -1.3325  0.3501  0.5191
 2092TIP3    H2 6241   4.010   3.819   3.793 -1.2378  0.5218  0.9321
 2093TIP3   OH2 6242   7.102   1.315   4.875  0.3117 -0.3931  0.1533
 2093TIP3    H1 6243   7.101   1.406   4.905  0.0330 -0.5974  0.7872
 2093TIP3    H2 6244   7.171   1.312   4.808  1.3755 -0.0615  1.2104
 2094TIP3   OH2 6245   2.532   1.113   1.418 -0.6045  0.1401  0.4986
 2094TIP3    H1 6246   2.556   1.170   1.491 -1.6261  0.7480  0.3639
 2094TIP3    H2 6247   2.552   1.025   1.450  2.1704  0.5780  0.2700
 2095TIP3   OH2 6248   2.073   2.280   4.521  0.3155  0.2845  0.0833
 2095TIP3    H1 6249   1.990   2.288   4.568  1.6206  1.0454  2.4114
 2095TIP3    H2 6250   2.063   2.338   4.445 -0.9233  1.1442  0.8684
 2096TIP3   OH2 6251   2.128   1.655   0.217  0.1255 -0.7116  0.0082
 2096TIP3    H1 6252   2.220   1.631   0.213  0.4773  0.6940 -1.7118
 2096TIP3    H2 6253   2.098   1.648   0.126 -0.5726  1.9789 -0.0469
 2097TIP3   OH2 6254   0.664   5.566   4.620  0.2016  0.3519  0.2606
 2097TIP3    H1 6255   0.641   5.658   4.608 -0.0044  0.5735  2.0606
 2097TIP3    H2 6256   0.728   5.566   4.692  0.8021 -0.8489 -0.2371
 2098TIP3   OH2 6257   1.766   0.429   2.084 -0.7512 -0.3240 -0.1363
 2098TIP3    H1 6258   1.832   0.379   2.132  1.2978  1.7231 -0.6490
 2098TIP3    H2 6259   1.759   0.511   2.132 -2.9536 -0.4641 -0.1342
 2099TIP3   OH2 6260   2.340   4.154   3.698  0.4204 -0.0969 -0.2955
 2099TIP3    H1 6261   2.370   4.078   3.649 -1.4638 -0.6239 -0.7031
 2099TIP3    H2 6262   2.417   4.185   3.745  1.0193 -2.8582  0.6794
 2100TIP3   OH2 6263   2.576   0.456   3.212 -0.0327  0.1810 -0.2049
 2100TIP3    H1 6264   2.632   0.385   3.181  1.4962  2.2040 -2.4386
 2100TIP3    H2 6265   2.635   0.517   3.256 -1.1765  0.4872  0.9700
 2101TIP3   OH2 6266   5.346   1.142   1.400  0.1521 -0.2741  0.7062
 2101TIP3    H1 6267   5.434   1.149   1.438  1.1917 -0.7422 -1.4314
 2101TIP3    H2 6268   5.352   1.067   1.339 -1.2952  0.5641 -0.5436
 2102TIP3   OH2 6269   2.764   4.974   0.402 -0.7934  0.0512 -0.1125
 2102TIP3    H1 6270   2.750   4.879   0.404 -0.8163  0.0289 -1.0051
 2102TIP3    H2 6271   2.724   5.002   0.320  0.4712  0.6322 -0.5522
 2103TIP3   OH2 6272   5.052   2.082   2.327 -0.0262  0.0677  0.5505
 2103TIP3    H1 6273   4.979   2.092   2.266  0.8864 -1.3231 -0.8395
 2103TIP3    H2 6274   5.017   2.029   2.398 -0.0891 -1.6119 -0.6885
 2104TIP3   OH2 6275   6.415   0.496   0.371  0.0130 -0.4220  0.0133
 2104TIP3    H1 6276   6.322   0.481   0.383 -0.2291  1.5311  1.0369
 2104TIP3    H2 6277   6.454   0.476   0.456 -0.0155  2.0110  0.6878
 2105TIP3   OH2 6278   4.334   2.411   2.618  0.0222 -0.0233  0.1753
 2105TIP3    H1 6279   4.274   2.344   2.585  0.5561  0.1132 -1.1140
 2105TIP3    H2 6280   4.392   2.364   2.678 -2.4394  0.1421  2.9672
 2106TIP3   OH2 6281   0.581   1.847   4.472 -0.7115 -0.7102  0.0124
 2106TIP3    H1 6282   0.501   1.831   4.423  0.1154 -0.1620 -1.5808
 2106TIP3    H2 6283   0.638   1.772   4.451  0.0728  0.0975 -0.8023
 2107TIP3   OH2 6284   5.143   6.720   1.061 -0.4924 -0.1720  0.0192
 2107TIP3    H1 6285   5.086   6.648   1.089 -0.5550 -0.1055  0.0644
 2107TIP3    H2 6286   5.207   6.679   1.004 -1.1343 -0.0968 -0.7624
 2108TIP3   OH2 6287   6.307   3.447   1.336 -0.0417 -0.0459 -0.1470
 2108TIP3    H1 6288   6.263   3.523   1.298 -0.1013  1.0999  2.0649
 2108TIP3    H2 6289   6.245   3.413   1.400  1.4467  0.4143  1.6238
 2109TIP3   OH2 6290   0.084   5.894   3.030  0.5010 -0.0904 -0.3634
 2109TIP3    H1 6291   0.071   5.888   3.124 -0.2519  0.3112 -0.4368
 2109TIP3    H2 6292   0.033   5.970   3.003 -0.6114 -1.1256 -1.3145
 2110TIP3   OH2 6293   4.380   5.802   0.053 -0.5286  0.7846 -0.2173
 2110TIP3    H1 6294   4.328   5.821   0.131 -0.8133 -0.9680  0.0493
 2110TIP3    H2 6295   4.316   5.790  -0.017 -0.4092  0.0235 -0.1998
 2111TIP3   OH2 6296   0.029   5.533   5.444 -0.3061  0.0459  0.4348
 2111TIP3    H1 6297   0.016   5.613   5.393 -1.8436 -0.2215  0.3588
 2111TIP3    H2 6298   0.069   5.471   5.382 -0.9519  0.1372 -0.0849
 2112TIP3   OH2 6299   2.154   1.871   0.444 -0.8915  0.0473  0.4900
 2112TIP3    H1 6300   2.207   1.790   0.446 -1.1843 -0.1722  3.4235
 2112TIP3    H2 6301   2.081   1.853   0.503 -1.8787  1.9248 -0.0984
 2113TIP3   OH2 6302   4.651   3.897   2.950  0.4308  0.0796  0.0691
 2113TIP3    H1 6303   4.563   3.865   2.969  0.6239 -0.1125  0.6593
 2113TIP3    H2 6304   4.673   3.859   2.864  0.7492 -1.5981  0.8500
 2114TIP3   OH2 6305   6.993   3.179   2.301  0.1392 -0.0058 -0.4425
 2114TIP3    H1 6306   7.021   3.138   2.383  0.7945 -1.1105 -1.1942
 2114TIP3    H2 6307   7.038   3.263   2.300 -0.1327  0.1664  0.4729
 2115TIP3   OH2 6308   6.330   4.993   3.719 -0.1639 -0.4582 -0.0320
 2115TIP3    H1 6309   6.369   4.983   3.806  0.8179 -2.0398 -0.6311
 2115TIP3    H2 6310   6.250   5.044   3.735  0.6956  0.4614  1.5960
 2116TIP3   OH2 6311   3.819   0.120   3.446 -0.3157  0.8699 -0.0286
 2116TIP3    H1 6312   3.729   0.087   3.433 -0.1877  0.2149  0.6449
 2116TIP3    H2 6313   3.812   0.214   3.430 -0.9665  0.7204 -0.7347
 2117TIP3   OH2 6314   1.012   4.565   2.108  0.9157 -0.4747  0.1314
 2117TIP3    H1 6315   0.938   4.611   2.070  1.9925  0.7522 -0.5737
 2117TIP3    H2 6316   1.000   4.474   2.083  0.0548 -0.1676 -0.6143
 2118TIP3   OH2 6317   3.011   0.194   3.426  0.0679  0.3635  0.1242
 2118TIP3    H1 6318   3.100   0.170   3.452 -0.1690 -1.0167 -0.2373
 2118TIP3    H2 6319   2.998   0.283   3.460  0.5339 -0.5120  2.7848
 2119TIP3   OH2 6320   6.744   4.501   0.668 -0.0051  0.6005  0.0654
 2119TIP3    H1 6321   6.787   4.435   0.723 -1.2072 -0.2354  0.0441
 2119TIP3    H2 6322   6.757   4.470   0.578 -2.3489 -0.8081  0.1331
 2120TIP3   OH2 6323   6.481   2.908   4.766  0.0191  0.0557  0.7428
 2120TIP3    H1 6324   6.574   2.892   4.751  0.6554  0.4444  3.7108
 2120TIP3    H2 6325   6.466   2.996   4.731  1.3982  0.9696  2.2944
 2121TIP3   OH2 6326   2.514   1.194   3.373 -0.0357  0.3886  0.2725
 2121TIP3    H1 6327   2.489   1.194   3.280 -2.0635  1.9984  0.7425
 2121TIP3    H2 6328   2.589   1.254   3.378  1.5962 -1.4582 -0.5876
 2122TIP3   OH2 6329   1.805   4.884   0.630 -0.2063  0.0027 -0.0584
 2122TIP3    H1 6330   1.862   4.959   0.613 -0.7023  0.3499 -0.2195
 2122TIP3    H2 6331   1.865   4.811   0.645  0.3636 -0.4676 -3.6690
 2123TIP3   OH2 6332   0.148   5.912   1.429 -0.1184  0.0985  0.0926
 2123TIP3    H1 6333   0.137   5.848   1.359  0.1118 -1.7425  1.6492
 2123TIP3    H2 6334   0.238   5.943   1.420 -0.5258  1.0080 -1.2615
 2124TIP3   OH2 6335   5.187   0.795   3.900  0.0857 -0.2523  0.6091
 2124TIP3    H1 6336   5.103   0.764   3.867  0.2348  0.1657 -0.1850
 2124TIP3    H2 6337   5.179   0.788   3.995 -0.4527 -1.2162  0.5058
 2125TIP3   OH2 6338   0.595   5.298   5.611  0.3132 -0.0961  0.6445
 2125TIP3    H1 6339   0.641   5.363   5.557  0.0310 -0.4986 -0.0974
 2125TIP3    H2 6340   0.538   5.350   5.668  1.4239  0.3916  1.3366
 2126TIP3   OH2 6341   4.260   5.450   1.059 -0.0029  0.4600 -0.5186
 2126TIP3    H1 6342   4.289   5.398   1.133  2.0966  0.9200 -0.9569
 2126TIP3    H2 6343   4.312   5.531   1.065 -1.1231  1.2856 -1.4580
 2127TIP3   OH2 6344   3.647   2.670   5.361  0.8582  0.1880  0.0526
 2127TIP3    H1 6345   3.649   2.589   5.411  0.6676 -0.4750 -0.9794
 2127TIP3    H2 6346   3.686   2.647   5.277 -1.0427  0.6367 -1.0033
 2128TIP3   OH2 6347   1.801   0.527   4.015  0.1996  0.0767 -0.6512
 2128TIP3    H1 6348   1.842   0.535   4.102  0.7167 -2.7243 -0.5569
 2128TIP3    H2 6349   1.815   0.436   3.990 -1.4312  0.3777 -2.9713
 2129TIP3   OH2 6350   1.014   0.742   5.789  0.0443 -0.3753  0.9533
 2129TIP3    H1 6351   1.050   0.795   5.718 -0.4790 -0.0405  0.9264
 2129TIP3    H2 6352   1.061   0.659   5.784  0.8527  0.0706  0.9746
 2130TIP3   OH2 6353   0.814   6.323   5.025  0.0707 -0.0297  0.1566
 2130TIP3    H1 6354   0.857   6.398   5.065  0.6966  0.3386 -1.1284
 2130TIP3    H2 6355   0.721   6.345   5.023  0.1986  0.5163  0.2115
 2131TIP3   OH2 6356   1.153   0.011   3.536 -0.1858  0.3205 -0.7661
 2131TIP3    H1 6357   1.126   0.093   3.575 -2.1526  0.2487 -1.8512
 2131TIP3    H2 6358   1.244   0.026   3.508 -0.2074  1.7804 -0.1035
 2132TIP3   OH2 6359   6.515   3.208   1.437 -0.3594 -0.8150 -0.0789
 2132TIP3    H1 6360   6.442   3.269   1.443  1.1699  1.2100 -1.0068
 2132TIP3    H2 6361   6.583   3.255   1.388  2.0301 -2.1397  1.7249
 2133TIP3   OH2 6362   2.564   2.234   4.624  0.0762 -0.0417 -0.0922
 2133TIP3    H1 6363   2.603   2.241   4.536  1.1446  0.2286  0.3891
 2133TIP3    H2 6364   2.608   2.303   4.675  2.7846 -2.9051  1.8457
 2134TIP3   OH2 6365   7.063   2.402   3.120 -0.0048 -0.1970  0.1555
 2134TIP3    H1 6366   7.112   2.481   3.143  1.0903 -0.5484 -0.8674
 2134TIP3    H2 6367   6.972   2.425   3.136  0.2722  1.3769 -0.3481
 2135TIP3   OH2 6368   0.848   1.458   1.277 -0.4757 -0.5402 -0.2727
 2135TIP3    H1 6369   0.779   1.468   1.342 -0.1465 -2.4516  0.4279
 2135TIP3    H2 6370   0.802   1.460   1.193 -1.1179  0.1609  0.0825
 2136TIP3   OH2 6371   6.952   3.372   1.473 -0.4136 -0.0784  0.2281
 2136TIP3    H1 6372   6.888   3.405   1.536 -1.7849  1.0480 -1.6483
 2136TIP3    H2 6373   6.900   3.329   1.406  1.0569 -1.9269  0.2032
 2137TIP3   OH2 6374   4.203   5.498   5.518 -0.0644 -0.6306 -0.5404
 2137TIP3    H1 6375   4.280   5.449   5.546  1.3441  2.1614  0.9515
 2137TIP3    H2 6376   4.173   5.452   5.439  2.4279 -2.5045 -0.5512
 2138TIP3   OH2 6377   5.600   1.543   4.657  0.2314 -0.0250  0.6386
 2138TIP3    H1 6378   5.639   1.609   4.600  0.7607 -0.2921  0.6828
 2138TIP3    H2 6379   5.639   1.559   4.743 -0.5655  0.3791  0.9388
 2139TIP3   OH2 6380   1.013   6.166   5.166  0.1988  0.6782 -0.1366
 2139TIP3    H1 6381   0.941   6.186   5.107 -1.0946 -0.5889  0.9206
 2139TIP3    H2 6382   1.091   6.175   5.113 -0.6912  2.3829 -1.2528
 2140TIP3   OH2 6383   5.015   1.041   3.947  0.0955 -0.5189  0.0530
 2140TIP3    H1 6384   5.049   0.978   3.883  1.5003 -0.0228  0.2602
 2140TIP3    H2 6385   4.996   0.987   4.024  0.0401 -0.8721 -0.2018
 2141TIP3   OH2 6386   6.324   6.091   5.540 -0.6050 -0.1003  0.3508
 2141TIP3    H1 6387   6.379   6.056   5.470 -0.0938  0.0037  0.6973
 2141TIP3    H2 6388   6.385   6.139   5.596 -0.1898 -3.5697  3.1832
 2142TIP3   OH2 6389   5.822   1.015   2.737  0.1217 -0.7568  0.3236
 2142TIP3    H1 6390   5.729   1.034   2.726 -0.0691 -0.6378  2.0025
 2142TIP3    H2 6391   5.830   0.921   2.723 -0.1770 -0.7070 -0.1980
 2143TIP3   OH2 6392   1.857   6.154   2.636  0.4607 -0.7361  0.4536
 2143TIP3    H1 6393   1.789   6.090   2.615 -2.5540  1.9856  1.1773
 2143TIP3    H2 6394   1.836   6.184   2.724  1.7058  1.2779  0.1327
 2144TIP3   OH2 6395   0.261   3.623   2.551  0.1775 -0.4032  0.4818
 2144TIP3    H1 6396   0.252   3.635   2.646  0.3515 -0.2117  0.4751
 2144TIP3    H2 6397   0.211   3.695   2.513 -0.0394 -0.5800  0.4226
 2145TIP3   OH2 6398   4.415   1.700   0.232 -0.1102  0.0354 -0.7277
 2145TIP3    H1 6399   4.437   1.609   0.252 -1.0569 -0.0584 -0.0470
 2145TIP3    H2 6400   4.429   1.747   0.314 -1.9006  0.0601 -0.4062
 2146TIP3   OH2 6401   1.937   1.165   0.004 -0.2160  0.5156 -0.0417
 2146TIP3    H1 6402   1.854   1.146  -0.039  0.0857  1.8393 -1.3237
 2146TIP3    H2 6403   1.915   1.232   0.069 -0.3595 -0.1122  0.5656
 2147TIP3   OH2 6404   5.587   1.100   1.501 -0.4852 -0.6911 -0.1480
 2147TIP3    H1 6405   5.594   1.098   1.596  1.4322  0.7438 -0.1904
 2147TIP3    H2 6406   5.629   1.020   1.472 -0.1074 -0.6165  0.1869
 2148TIP3   OH2 6407   1.691   4.607   3.841 -0.2533  0.1579  0.1019
 2148TIP3    H1 6408   1.721   4.516   3.843 -2.2736 -0.5494  0.2529
 2148TIP3    H2 6409   1.690   4.630   3.748 -1.0788 -0.4703 -0.0559
 2149TIP3   OH2 6410   4.965   2.800   1.960 -0.1023  0.2180 -0.7145
 2149TIP3    H1 6411   5.050   2.762   1.980 -0.4313 -0.5499 -0.7468
 2149TIP3    H2 6412   4.956   2.792   1.865  0.5556  1.9491 -0.9562
 2150TIP3   OH2 6413   6.867   0.102   1.582  0.1493  0.1477  0.1618
 2150TIP3    H1 6414   6.962   0.108   1.585  0.5663 -3.6808 -0.2635
 2150TIP3    H2 6415   6.843   0.070   1.669 -0.8095  1.0912  0.2679
 2151TIP3   OH2 6416   4.138   2.025   0.742 -0.0901  0.1743  0.2962
 2151TIP3    H1 6417   4.175   1.995   0.825 -2.9172 -1.9819  0.9099
 2151TIP3    H2 6418   4.118   2.118   0.757  1.7299  0.4916  1.0749
 2152TIP3   OH2 6419   3.508   2.071   1.368  0.2989  0.6771  0.0957
 2152TIP3    H1 6420   3.544   2.160   1.366 -0.5324  1.0065 -0.6479
 2152TIP3    H2 6421   3.457   2.068   1.449  1.0390  0.5868  0.5645
 2153TIP3   OH2 6422   1.066   2.614   1.489  0.3784 -0.2694  0.1533
 2153TIP3    H1 6423   1.082   2.685   1.550 -0.5653 -1.1903  1.5177
 2153TIP3    H2 6424   1.020   2.655   1.416  1.2837  0.7951  0.1553
 2154TIP3   OH2 6425   0.125   0.714   3.238  0.3825 -0.6179  0.5591
 2154TIP3    H1 6426   0.151   0.627   3.267  0.1361 -1.1526 -0.7635
 2154TIP3    H2 6427   0.148   0.717   3.145 -0.9148  0.1903  0.2325
 2155TIP3   OH2 6428   5.059   1.435   4.569 -0.2763  0.0242  1.0355
 2155TIP3    H1 6429   4.970   1.416   4.542  0.2329 -0.4658 -0.3564
 2155TIP3    H2 6430   5.053   1.447   4.664 -1.3696 -2.9301  1.4598
 2156TIP3   OH2 6431   2.643   4.883   0.901 -0.0926  0.2471 -0.2854
 2156TIP3    H1 6432   2.590   4.869   0.823  0.1436 -0.0185 -0.3993
 2156TIP3    H2 6433   2.638   4.978   0.916  0.5924  0.4429 -1.1540
 2157TIP3   OH2 6434   1.168   3.727   0.930  0.3832  0.1982  0.5615
 2157TIP3    H1 6435   1.182   3.639   0.966  2.3963  0.2333 -0.0202
 2157TIP3    H2 6436   1.216   3.785   0.989  0.7227  0.6726 -0.1670
 2158TIP3   OH2 6437   6.378   3.055   2.474  0.1137  0.2959  0.3600
 2158TIP3    H1 6438   6.376   3.146   2.445  0.9930  0.1061 -0.3507
 2158TIP3    H2 6439   6.444   3.054   2.544  1.5187 -0.1049 -0.8983
 2159TIP3   OH2 6440   6.387   1.576   1.832  0.0771  0.5172  0.4295
 2159TIP3    H1 6441   6.473   1.563   1.870  0.2232 -0.9150 -0.3204
 2159TIP3    H2 6442   6.355   1.488   1.812 -0.4504  1.1079 -1.6787
 2160TIP3   OH2 6443   0.633   6.214   1.534  0.1061  0.2687  0.3118
 2160TIP3    H1 6444   0.557   6.253   1.576  0.0083 -0.5050  0.8837
 2160TIP3    H2 6445   0.669   6.283   1.479 -1.2317  0.5297 -0.2720
 2161TIP3   OH2 6446   0.545   1.155   4.385  0.3221 -0.4621 -0.2526
 2161TIP3    H1 6447   0.501   1.191   4.462 -0.1382 -2.2865  0.3782
 2161TIP3    H2 6448   0.475   1.144   4.320  0.4383 -0.3486 -0.3985
 2162TIP3   OH2 6449   5.195   5.526   1.199 -0.2854 -0.3054 -0.0017
 2162TIP3    H1 6450   5.274   5.514   1.146  0.4037  1.3751  0.5596
 2162TIP3    H2 6451   5.220   5.496   1.286 -0.2632  0.1615  0.1592
 2163TIP3   OH2 6452   0.161   1.515   5.273 -0.1931 -0.2698  0.4583
 2163TIP3    H1 6453   0.134   1.446   5.213  0.0850  0.3387 -0.4015
 2163TIP3    H2 6454   0.101   1.509   5.347 -1.8069  0.1814 -0.7693
 2164TIP3   OH2 6455   5.398   2.236   1.452 -0.0571 -0.1137  0.3197
 2164TIP3    H1 6456   5.385   2.190   1.535 -1.9586 -0.0740  0.0880
 2164TIP3    H2 6457   5.425   2.168   1.391 -4.2726 -1.4004 -0.3919
 2165TIP3   OH2 6458   4.539   2.925   3.627  0.1063 -0.0768 -0.0605
 2165TIP3    H1 6459   4.508   2.927   3.536 -1.3563  2.5787  0.3920
 2165TIP3    H2 6460   4.586   3.008   3.638  2.3361 -1.3872  1.0108
 2166TIP3   OH2 6461   2.474   4.688   1.985 -0.4422 -0.2415  0.3784
 2166TIP3    H1 6462   2.415   4.725   1.919 -0.2868  2.7062  1.7049
 2166TIP3    H2 6463   2.497   4.602   1.952 -1.2540  0.6501 -2.8398
 2167TIP3   OH2 6464   1.938   1.867   0.635 -0.2048 -0.3810 -0.1304
 2167TIP3    H1 6465   1.977   1.909   0.711  0.2845  0.9490 -1.0788
 2167TIP3    H2 6466   1.857   1.915   0.619 -0.2017 -0.5171 -0.5821
 2168TIP3   OH2 6467   1.319   4.791   4.820 -0.4294 -0.2363  0.1529
 2168TIP3    H1 6468   1.293   4.716   4.874  2.3101 -0.3787  1.4294
 2168TIP3    H2 6469   1.414   4.784   4.813 -0.1738  2.6363 -0.4514
 2169TIP3   OH2 6470   0.348   0.887   5.476  0.0830  0.3861 -0.6387
 2169TIP3    H1 6471   0.418   0.822   5.472 -1.0204 -0.8026 -1.8519
 2169TIP3    H2 6472   0.332   0.900   5.569  0.5354 -0.8573 -0.3706
 2170TIP3   OH2 6473   2.233   2.574   5.100  0.0695  0.2773 -0.3503
 2170TIP3    H1 6474   2.281   2.523   5.035  1.6535  1.1330  0.1007
 2170TIP3    H2 6475   2.294   2.583   5.173 -0.0759  2.9038 -0.4623
 2171TIP3   OH2 6476   5.920   3.171   2.174  0.0447  0.7021  1.2527
 2171TIP3    H1 6477   5.946   3.186   2.265  0.1013  0.9810  1.1912
 2171TIP3    H2 6478   5.921   3.257   2.134  0.5098  0.5187  0.8575
 2172TIP3   OH2 6479   5.547   5.040   1.494 -0.0534 -0.2302 -0.1605
 2172TIP3    H1 6480   5.613   5.094   1.536  2.7457 -2.3775 -1.4439
 2172TIP3    H2 6481   5.556   5.058   1.400 -1.8614 -0.0260 -0.3277
 2173TIP3   OH2 6482   3.291   0.945   4.186 -0.0294  0.2396 -0.5822
 2173TIP3    H1 6483   3.241   1.006   4.240  0.9871  1.5404 -1.0666
 2173TIP3    H2 6484   3.291   0.863   4.237 -1.6792  0.5227 -0.0735
 2174TIP3   OH2 6485   3.251   2.264   5.755  0.1812  0.8143 -0.1126
 2174TIP3    H1 6486   3.202   2.247   5.674  2.4648 -0.7412 -1.3033
 2174TIP3    H2 6487   3.207   2.210   5.821  0.2278 -0.5382 -1.1308
 2175TIP3   OH2 6488   0.147   2.677   4.160 -0.1421 -0.8507 -1.4158
 2175TIP3    H1 6489   0.105   2.606   4.113  1.3600 -2.1414 -0.8825
 2175TIP3    H2 6490   0.077   2.713   4.216 -1.1416 -1.2950 -2.3362
 2176TIP3   OH2 6491   0.103   5.761   5.603  0.5721 -0.4146 -0.0910
 2176TIP3    H1 6492   0.193   5.791   5.612  0.7339 -0.4357 -1.4433
 2176TIP3    H2 6493   0.111   5.667   5.586  0.2999 -0.4187 -0.1996
 2177TIP3   OH2 6494   2.542   4.189   1.751 -0.3914 -0.5613  0.1496
 2177TIP3    H1 6495   2.603   4.164   1.681 -0.1489  0.3335  0.0286
 2177TIP3    H2 6496   2.459   4.148   1.726 -0.1612 -0.7323 -0.3509
 2178TIP3   OH2 6497   3.847   6.521   2.591 -0.1737  0.1735  0.5963
 2178TIP3    H1 6498   3.854   6.522   2.495  0.0977 -1.6806  0.5609
 2178TIP3    H2 6499   3.758   6.551   2.608 -0.5460 -0.3844 -0.2944
 2179TIP3   OH2 6500   4.142   1.879   0.321  0.0353 -0.3787  0.2206
 2179TIP3    H1 6501   4.093   1.887   0.402  1.0041  0.3584  0.7639
 2179TIP3    H2 6502   4.234   1.878   0.348  0.5410  2.5814 -0.9500
 2180TIP3   OH2 6503   1.443   5.039   4.793  0.0253 -0.1366  0.4350
 2180TIP3    H1 6504   1.462   5.067   4.883  0.9277 -1.1166  0.5680
 2180TIP3    H2 6505   1.385   4.963   4.803  0.5401 -0.5623  0.2105
 2181TIP3   OH2 6506   3.533   2.893   4.807 -0.6701 -0.3988  0.0888
 2181TIP3    H1 6507   3.625   2.920   4.805 -0.9647  0.6765  0.1198
 2181TIP3    H2 6508   3.496   2.930   4.726 -1.4705  0.7161  0.9376
 2182TIP3   OH2 6509   5.307   4.139   3.951 -0.0527 -0.2242 -0.3021
 2182TIP3    H1 6510   5.282   4.178   3.867 -1.4574 -0.1468  0.1148
 2182TIP3    H2 6511   5.315   4.045   3.932 -0.3865 -0.2111 -0.5277
 2183TIP3   OH2 6512   4.164   0.755   2.051 -0.6713  0.2365 -0.1057
 2183TIP3    H1 6513   4.158   0.821   2.120  1.8169 -1.2741  1.7227
 2183TIP3    H2 6514   4.257   0.731   2.049 -1.1270 -1.6156 -2.2182
 2184TIP3   OH2 6515   6.411   2.216   1.706  0.2453 -0.2358  0.0852
 2184TIP3    H1 6516   6.434   2.124   1.695 -2.4381 -1.1033  1.0187
 2184TIP3    H2 6517   6.404   2.250   1.617  1.8891 -0.7019 -0.2625
 2185TIP3   OH2 6518   0.358   6.386   5.357 -0.1908  0.1465 -0.0710
 2185TIP3    H1 6519   0.307   6.306   5.358  1.4550 -0.9700  1.6145
 2185TIP3    H2 6520   0.448   6.357   5.372  0.7165  2.1680 -1.1859
 2186TIP3   OH2 6521   0.263   4.884   4.647  0.3408  0.0903  0.3235
 2186TIP3    H1 6522   0.203   4.891   4.721  0.1279  0.2894  0.1327
 2186TIP3    H2 6523   0.239   4.802   4.605 -0.1086  0.3946 -0.0226
 2187TIP3   OH2 6524   6.340   4.362   4.362  0.4403 -0.1493 -0.5464
 2187TIP3    H1 6525   6.285   4.341   4.287 -0.3315 -0.3865  0.0749
 2187TIP3    H2 6526   6.280   4.403   4.425  1.1171  0.2295 -0.1396
 2188TIP3   OH2 6527   2.977   4.505   5.000  0.3788  0.6347 -0.3993
 2188TIP3    H1 6528   3.065   4.483   5.028  0.6537  0.5086 -1.3265
 2188TIP3    H2 6529   2.962   4.594   5.034  0.9777  0.7753 -0.4931
 2189TIP3   OH2 6530   5.572   1.206   2.165 -0.1318 -0.1356  0.2377
 2189TIP3    H1 6531   5.637   1.163   2.219 -0.7213  0.6401  1.6107
 2189TIP3    H2 6532   5.551   1.286   2.212 -1.3795  0.0816 -0.6460
 2190TIP3   OH2 6533   2.995   5.816   5.526 -0.4118 -0.0418  0.2141
 2190TIP3    H1 6534   2.994   5.847   5.435 -1.8606 -2.7315 -0.8259
 2190TIP3    H2 6535   3.081   5.841   5.559 -0.0861  1.6214 -1.6513
 2191TIP3   OH2 6536   4.408   2.155   2.735 -0.2969 -0.3089 -0.3915
 2191TIP3    H1 6537   4.477   2.099   2.770  0.1573  0.5582  0.1586
 2191TIP3    H2 6538   4.395   2.126   2.645 -0.9651 -2.1228  0.2506
 2192TIP3   OH2 6539   6.819  -0.004   2.728 -0.0235  0.2309 -0.9618
 2192TIP3    H1 6540   6.777   0.053   2.793  0.1389 -0.1255 -0.5372
 2192TIP3    H2 6541   6.814   0.045   2.646 -1.7696 -0.0495 -1.0479
 2193TIP3   OH2 6542   0.859   5.331   0.581 -0.0395  0.4554 -0.3526
 2193TIP3    H1 6543   0.919   5.257   0.589 -1.3595 -0.7609 -1.1824
 2193TIP3    H2 6544   0.826   5.345   0.670 -1.0161 -1.0805 -0.4320
 2194TIP3   OH2 6545   4.100   1.701   1.184  0.0033 -0.5829  0.2659
 2194TIP3    H1 6546   4.187   1.736   1.164  0.7270 -1.0802  2.2957
 2194TIP3    H2 6547   4.097   1.618   1.136 -0.0583  0.2165 -1.1708
 2195TIP3   OH2 6548   3.067   6.420   3.311 -0.5120 -0.0481  0.1842
 2195TIP3    H1 6549   2.974   6.435   3.332 -0.5829  0.3662 -0.4002
 2195TIP3    H2 6550   3.114   6.476   3.373 -0.6814  0.3101 -0.0046
 2196TIP3   OH2 6551   4.449   3.357   2.439 -0.1538 -0.2041  0.1979
 2196TIP3    H1 6552   4.435   3.299   2.365  1.9017  0.0665 -0.4759
 2196TIP3    H2 6553   4.490   3.435   2.401  1.8638 -0.4618  1.7046
 2197TIP3   OH2 6554   3.111   6.547   0.873 -0.9267  0.6343  0.7924
 2197TIP3    H1 6555   3.065   6.496   0.808 -2.7953  1.4616  1.3931
 2197TIP3    H2 6556   3.094   6.502   0.956  1.1870 -0.2522  0.8070
 2198TIP3   OH2 6557   6.911   0.058   0.453  0.2976 -0.3433  0.6939
 2198TIP3    H1 6558   6.829   0.075   0.407  0.3382  0.4840  0.9168
 2198TIP3    H2 6559   6.974   0.116   0.412  1.1591 -2.0230 -0.4846
 2199TIP3   OH2 6560   0.682   2.566   4.923  0.2629 -0.1459 -0.6676
 2199TIP3    H1 6561   0.717   2.644   4.966  0.1711 -0.9406  0.9025
 2199TIP3    H2 6562   0.758   2.525   4.882  0.8556 -0.7311  0.9399
 2200TIP3   OH2 6563   6.352   3.481   5.583  0.2491 -0.1794 -0.5665
 2200TIP3    H1 6564   6.335   3.464   5.491  0.3583  0.9668 -0.8069
 2200TIP3    H2 6565   6.267   3.509   5.618 -0.5485 -3.3806  0.3896
 2201TIP3   OH2 6566   2.301   6.525   3.780  0.4926 -0.6181  0.2696
 2201TIP3    H1 6567   2.333   6.518   3.690 -0.7674  2.1476 -0.4814
 2201TIP3    H2 6568   2.221   6.472   3.782  0.9693 -1.3599  0.0289
 2202TIP3   OH2 6569   6.961   1.955   0.345 -0.5437 -0.3813  0.2414
 2202TIP3    H1 6570   6.898   1.884   0.339 -0.7374 -0.2456  0.6161
 2202TIP3    H2 6571   6.955   2.000   0.260  0.9615 -1.9300 -0.7660
 2203TIP3   OH2 6572   3.988   3.929   3.625  0.5004 -0.2986 -0.5631
 2203TIP3    H1 6573   3.986   4.016   3.665  1.1302 -0.6632  0.2762
 2203TIP3    H2 6574   4.061   3.932   3.563  0.4503 -0.1993 -0.6178
 2204TIP3   OH2 6575   5.711   2.477   4.870  0.4815 -0.2361 -0.4059
 2204TIP3    H1 6576   5.751   2.544   4.926  1.3856 -0.2225 -1.0584
 2204TIP3    H2 6577   5.672   2.415   4.932 -0.3251  0.8408  0.2178
 2205TIP3   OH2 6578   3.606   2.486   2.430  0.2600 -0.6251  0.0580
 2205TIP3    H1 6579   3.527   2.484   2.484  1.0072 -3.0196  1.2239
 2205TIP3    H2 6580   3.675   2.454   2.488  1.5995 -0.9445 -1.6371
 2206TIP3   OH2 6581   2.597   3.655   4.959  0.4033  0.1846 -0.0294
 2206TIP3    H1 6582   2.569   3.642   4.869 -0.2096 -1.9337  0.4053
 2206TIP3    H2 6583   2.519   3.637   5.011  1.2116 -0.5825  0.9814
 2207TIP3   OH2 6584   2.317   3.431   0.030  0.3303  0.3442  0.0743
 2207TIP3    H1 6585   2.372   3.366   0.072  1.1435  0.8781 -0.1424
 2207TIP3    H2 6586   2.378   3.500   0.002 -0.4509  0.9857 -0.0944
 2208TIP3   OH2 6587   5.611   6.209   4.071 -0.0505  0.3742  0.4315
 2208TIP3    H1 6588   5.582   6.150   4.001  1.5325 -1.4599  1.2434
 2208TIP3    H2 6589   5.531   6.235   4.115 -1.0006  0.8234 -1.4677
 2209TIP3   OH2 6590   1.822   5.391   5.479  0.4343 -0.0691 -0.6632
 2209TIP3    H1 6591   1.847   5.299   5.472 -1.6597 -0.7366  0.0255
 2209TIP3    H2 6592   1.812   5.406   5.573  1.6077  1.1306 -0.7039
 2210TIP3   OH2 6593   0.116   6.677   2.896  0.2664  0.4707  0.3383
 2210TIP3    H1 6594   0.155   6.609   2.951  0.8649  0.4156 -0.1409
 2210TIP3    H2 6595   0.026   6.685   2.928 -0.3106 -1.6202 -0.5296
 2211TIP3   OH2 6596   4.919   1.639   5.172 -0.3554 -0.1187 -0.4955
 2211TIP3    H1 6597   4.933   1.676   5.085 -1.1714  3.1417  0.6046
 2211TIP3    H2 6598   4.983   1.684   5.227 -0.8396 -1.0363  0.8562
 2212TIP3   OH2 6599   1.233   0.290   5.033 -0.5759 -0.5930 -0.1081
 2212TIP3    H1 6600   1.171   0.253   5.096 -0.8504 -1.1139 -0.6697
 2212TIP3    H2 6601   1.211   0.248   4.950 -0.2865  0.1502 -0.5792
 2213TIP3   OH2 6602   2.499   0.494   1.060 -0.3045  0.7008 -0.1012
 2213TIP3    H1 6603   2.420   0.459   1.100 -0.4092  0.0202 -0.8775
 2213TIP3    H2 6604   2.472   0.576   1.019 -0.7288  0.2147 -0.8037
 2214TIP3   OH2 6605   0.438   5.287   2.233 -0.0210  0.0027 -0.0671
 2214TIP3    H1 6606   0.372   5.299   2.165 -0.3671 -0.2505  0.2246
 2214TIP3    H2 6607   0.488   5.369   2.232 -0.4453  0.2617 -0.1720
 2215TIP3   OH2 6608   5.693   4.687   2.869 -0.4929  0.0905  0.0648
 2215TIP3    H1 6609   5.659   4.683   2.779 -1.0095  0.0676  0.2550
 2215TIP3    H2 6610   5.730   4.600   2.884 -2.7793 -0.8478  0.7662
 2216TIP3   OH2 6611   4.872   3.081   1.986 -0.1674 -0.0671 -0.1075
 2216TIP3    H1 6612   4.932   3.081   2.060 -1.8301  1.0092  1.3167
 2216TIP3    H2 6613   4.852   2.989   1.970 -0.7087 -0.2773  1.5951
 2217TIP3   OH2 6614   3.294   0.724   0.319 -0.1425 -0.4415 -0.2642
 2217TIP3    H1 6615   3.237   0.796   0.347  0.8311  0.3515 -0.2577
 2217TIP3    H2 6616   3.311   0.674   0.400  1.8554  1.2713  0.4706
 2218TIP3   OH2 6617   1.838   1.511   2.620 -0.2192  0.1007  0.0358
 2218TIP3    H1 6618   1.748   1.504   2.651 -1.4703  0.8146 -3.1227
 2218TIP3    H2 6619   1.847   1.444   2.553  1.1751  0.9231 -0.6581
 2219TIP3   OH2 6620   6.371   5.354   4.788  0.2866  0.1232  0.3677
 2219TIP3    H1 6621   6.389   5.398   4.705  1.4540  1.0050  1.0493
 2219TIP3    H2 6622   6.449   5.370   4.841 -0.7045  0.1787  1.8835
 2220TIP3   OH2 6623   6.384   0.310   3.544  0.0067 -0.3623  0.6886
 2220TIP3    H1 6624   6.301   0.317   3.591 -1.0423 -1.1955 -0.9306
 2220TIP3    H2 6625   6.366   0.347   3.458  0.8286 -1.9527 -0.2252
 2221TIP3   OH2 6626   3.307   6.738   3.877 -0.1696  0.8360  0.1091
 2221TIP3    H1 6627   3.241   6.697   3.934  2.6509  0.0631  3.1301
 2221TIP3    H2 6628   3.260   6.756   3.795 -4.0102  0.1574  1.9307
 2222TIP3   OH2 6629   6.472   6.704   0.636  0.4116  0.2129 -0.4010
 2222TIP3    H1 6630   6.548   6.649   0.615  1.1322  0.4349  1.4086
 2222TIP3    H2 6631   6.403   6.674   0.577  1.6195 -0.6417 -1.4472
 2223TIP3   OH2 6632   4.779   3.725   5.342  0.6199  0.1111  0.3157
 2223TIP3    H1 6633   4.840   3.711   5.270 -0.2269 -2.1218 -0.0602
 2223TIP3    H2 6634   4.695   3.695   5.309 -0.5692  2.3231  1.1112
 2224TIP3   OH2 6635   5.667   2.665   3.673 -0.8192 -0.5400 -0.4765
 2224TIP3    H1 6636   5.650   2.754   3.641 -0.9534 -0.8477 -1.2754
 2224TIP3    H2 6637   5.586   2.618   3.654  0.3228 -1.6479 -2.9550
 2225TIP3   OH2 6638   4.625   2.535   2.407  0.9988  0.2635 -0.2808
 2225TIP3    H1 6639   4.631   2.463   2.470  1.2151  0.6591  0.1620
 2225TIP3    H2 6640   4.610   2.492   2.323 -2.3434 -0.1998  0.3881
 2226TIP3   OH2 6641   3.115   4.430   2.713 -0.2345  0.6838 -0.1195
 2226TIP3    H1 6642   3.043   4.457   2.770 -0.1682  0.6212 -0.0075
 2226TIP3    H2 6643   3.098   4.337   2.696 -0.1435  0.6537 -0.0417
 2227TIP3   OH2 6644   3.213   2.828   0.304 -0.1554  0.4578 -0.2894
 2227TIP3    H1 6645   3.124   2.793   0.306 -0.1004  0.3025 -0.5464
 2227TIP3    H2 6646   3.219   2.882   0.383  0.0591 -0.8683  0.6472
 2228TIP3   OH2 6647   3.659   1.131   2.683 -0.6151  0.1507  0.1020
 2228TIP3    H1 6648   3.678   1.042   2.654  2.0061  0.6945 -0.1126
 2228TIP3    H2 6649   3.681   1.186   2.608  1.0959  1.1796  1.2637
 2229TIP3   OH2 6650   1.122   4.940   1.460 -0.4311  0.2176 -0.1147
 2229TIP3    H1 6651   1.093   4.888   1.384 -0.5550 -0.7046  0.5455
 2229TIP3    H2 6652   1.177   5.008   1.422 -0.7872 -0.0036 -1.0760
 2230TIP3   OH2 6653   2.725   2.907   0.978 -0.1615  0.4667 -0.3780
 2230TIP3    H1 6654   2.682   2.926   0.895  3.4323  0.8151 -2.3851
 2230TIP3    H2 6655   2.727   2.991   1.024  2.5054  1.7200 -2.5061
 2231TIP3   OH2 6656   0.044   3.925   2.688 -0.2236  0.0571  0.0914
 2231TIP3    H1 6657  -0.019   3.997   2.679  1.5330  1.5744 -0.9551
 2231TIP3    H2 6658   0.051   3.889   2.600 -1.1579 -1.5258  0.6279
 2232TIP3   OH2 6659   6.294   5.001   5.585 -0.4840 -0.3958  0.0016
 2232TIP3    H1 6660   6.353   5.052   5.641 -0.9284 -0.1469  0.2483
 2232TIP3    H2 6661   6.238   4.954   5.646 -1.3955  0.3735 -0.2165
 2233TIP3   OH2 6662   1.604   5.618   1.761  0.3148  0.2500  0.4178
 2233TIP3    H1 6663   1.587   5.686   1.826  0.6965 -0.8240  1.6774
 2233TIP3    H2 6664   1.521   5.610   1.714  0.4307  1.9668 -0.1617
 2234TIP3   OH2 6665   6.570   3.206   5.051  0.2610  0.0156 -0.8252
 2234TIP3    H1 6666   6.567   3.276   5.116 -0.4687  1.4963 -2.3864
 2234TIP3    H2 6667   6.663   3.183   5.046  0.5755  1.1189 -0.5250
 2235TIP3   OH2 6668   4.627  -0.002   1.309 -0.1709 -0.2257  0.3550
 2235TIP3    H1 6669   4.583  -0.031   1.228 -0.5155 -0.8780  0.7602
 2235TIP3    H2 6670   4.574   0.071   1.340  0.3542  0.4645 -0.3648
 2236TIP3   OH2 6671   4.100   2.496   3.157  0.5343  0.4687  0.4249
 2236TIP3    H1 6672   4.005   2.509   3.148  0.3286 -1.1246  0.0820
 2236TIP3    H2 6673   4.131   2.488   3.067  0.5118 -1.9792  0.5717
 2237TIP3   OH2 6674   2.406   2.082   5.597  0.0590  0.0649 -0.3039
 2237TIP3    H1 6675   2.396   2.015   5.529 -0.6521 -1.3793  1.1618
 2237TIP3    H2 6676   2.366   2.160   5.559 -0.8570 -0.8612 -1.3310
 2238TIP3   OH2 6677   4.600   0.956   3.002 -0.7612  0.0359 -0.1701
 2238TIP3    H1 6678   4.677   0.983   2.952  0.2326 -1.0736  0.6951
 2238TIP3    H2 6679   4.572   0.874   2.961  0.6218 -1.3950  1.5180
 2239TIP3   OH2 6680   4.045   0.250   0.936 -0.1225  0.8854 -0.2529
 2239TIP3    H1 6681   4.017   0.170   0.980 -1.3832  0.3629 -1.9261
 2239TIP3    H2 6682   4.049   0.227   0.843  0.5698  2.4728 -0.6547
 2240TIP3   OH2 6683   2.222   1.089   2.957  0.5083 -0.3158 -0.0837
 2240TIP3    H1 6684   2.188   1.012   2.912 -0.2416  0.9506 -1.7680
 2240TIP3    H2 6685   2.176   1.089   3.041 -1.6349 -0.1825 -1.1890
 2241TIP3   OH2 6686   6.421   3.382   4.860  0.8001  0.1853  0.7338
 2241TIP3    H1 6687   6.375   3.326   4.922  1.0028 -1.8716 -0.8678
 2241TIP3    H2 6688   6.498   3.412   4.908  0.7783 -1.0614  1.6020
 2242TIP3   OH2 6689   6.921   3.926   0.413 -0.0958  0.0058  0.1089
 2242TIP3    H1 6690   6.936   3.944   0.506  0.1075  0.8340 -0.0840
 2242TIP3    H2 6691   6.963   3.840   0.399  0.7105  0.3126  0.5676
 2243TIP3   OH2 6692   1.857   0.177   2.236  0.1913  0.4156 -0.6388
 2243TIP3    H1 6693   1.790   0.112   2.256  0.6102  0.2950  0.4253
 2243TIP3    H2 6694   1.899   0.144   2.157  0.5317 -0.7313 -0.0025
 2244TIP3   OH2 6695   0.523   5.205   2.605 -0.0444 -0.3707  0.1950
 2244TIP3    H1 6696   0.520   5.300   2.598 -0.4121 -0.4810 -1.7815
 2244TIP3    H2 6697   0.455   5.174   2.545  1.2480 -1.8921 -0.5773
 2245TIP3   OH2 6698   2.677   2.647   3.533  0.8304  0.4425 -0.0422
 2245TIP3    H1 6699   2.767   2.645   3.503  1.5126  0.5325  1.8233
 2245TIP3    H2 6700   2.637   2.720   3.486  1.9525  0.8634 -0.3594
 2246TIP3   OH2 6701   5.231   6.115   2.028 -0.4266  0.1159  0.3360
 2246TIP3    H1 6702   5.249   6.195   1.978 -1.0676 -0.8129 -1.4954
 2246TIP3    H2 6703   5.252   6.137   2.118  0.5911  1.9679 -0.3061
 2247TIP3   OH2 6704   6.445   2.781   3.292  0.2878  0.3208 -0.3204
 2247TIP3    H1 6705   6.491   2.796   3.375  1.0869 -0.6978 -0.5595
 2247TIP3    H2 6706   6.367   2.836   3.298  1.3489  1.8545  0.2498
 2248TIP3   OH2 6707   2.482   3.452   1.527  0.1517 -0.5933  0.1645
 2248TIP3    H1 6708   2.471   3.463   1.433 -3.0893 -1.4365  0.3194
 2248TIP3    H2 6709   2.416   3.509   1.566 -0.7497 -2.6200  1.7711
 2249TIP3   OH2 6710   3.960   0.354   5.478 -0.2470  0.1320 -0.4700
 2249TIP3    H1 6711   3.980   0.273   5.525  0.6428  0.3168 -0.5137
 2249TIP3    H2 6712   3.914   0.408   5.542  0.8699  0.3454  0.1812
 2250TIP3   OH2 6713   6.227   1.094   0.903  0.5754  0.0560  0.0318
 2250TIP3    H1 6714   6.272   1.033   0.844 -0.9667 -0.0423 -1.1083
 2250TIP3    H2 6715   6.134   1.086   0.880 -0.3296 -1.0129  3.4183
 2251TIP3   OH2 6716   2.534   1.306   4.910 -0.4464 -0.2809  0.1993
 2251TIP3    H1 6717   2.610   1.262   4.873 -1.1353 -0.0562 -1.5450
 2251TIP3    H2 6718   2.462   1.246   4.895 -0.8880  0.1899  0.4183
 2252TIP3   OH2 6719   4.629   5.889   2.505 -0.1826 -0.2783 -0.8243
 2252TIP3    H1 6720   4.632   5.797   2.529  0.4186 -0.4434 -1.4828
 2252TIP3    H2 6721   4.686   5.933   2.568 -1.7363 -0.0981  0.5002
 2253TIP3   OH2 6722   1.356   5.677   4.788 -0.0374 -0.2722  0.2984
 2253TIP3    H1 6723   1.385   5.585   4.787 -0.8995 -0.5932  1.9313
 2253TIP3    H2 6724   1.416   5.720   4.849  1.0827  0.5421 -1.3141
 2254TIP3   OH2 6725   6.130   5.120   5.255  0.3394  0.4286 -0.1096
 2254TIP3    H1 6726   6.141   5.198   5.201 -1.9780  0.0775 -1.2128
 2254TIP3    H2 6727   6.041   5.090   5.236  0.7921 -1.8973  1.0772
 2255TIP3   OH2 6728   3.758   4.917   4.284 -0.1938 -0.1776  0.2248
 2255TIP3    H1 6729   3.733   4.908   4.376 -3.0688  1.9257 -0.2100
 2255TIP3    H2 6730   3.792   4.831   4.260  1.0563 -0.6770  3.2907
 2256TIP3   OH2 6731   4.279   1.221   0.464  1.0096  0.8661  0.1000
 2256TIP3    H1 6732   4.247   1.271   0.389  0.2203 -0.1369 -0.2591
 2256TIP3    H2 6733   4.373   1.233   0.464  1.0713  0.4798 -1.3586
 2257TIP3   OH2 6734   6.467   1.406   3.850 -0.0403 -0.5207 -0.5791
 2257TIP3    H1 6735   6.443   1.354   3.926 -0.3534  2.1266  1.2614
 2257TIP3    H2 6736   6.562   1.415   3.856 -0.0618 -0.3328 -0.5123
 2258TIP3   OH2 6737   2.896   2.764   3.963  0.0397 -0.0940  0.1044
 2258TIP3    H1 6738   2.895   2.728   3.874 -0.2360  1.0342 -0.3595
 2258TIP3    H2 6739   2.832   2.711   4.010  0.3310 -0.8352 -0.3098
 2259TIP3   OH2 6740   6.684   0.943   5.421  0.4242  0.4227  0.6491
 2259TIP3    H1 6741   6.749   1.013   5.428  2.6263 -1.2456 -1.5588
 2259TIP3    H2 6742   6.616   0.979   5.363  0.6344  1.3123  0.9447
 2260TIP3   OH2 6743   4.893   0.048   1.299  0.3077  0.4198  0.2435
 2260TIP3    H1 6744   4.810   0.009   1.272 -0.8155 -0.1763  3.9066
 2260TIP3    H2 6745   4.873   0.140   1.313  1.1171  0.9296 -1.6090
 2261TIP3   OH2 6746   4.759   5.373   5.366 -0.5639  0.8245  0.0243
 2261TIP3    H1 6747   4.689   5.327   5.320 -0.2711  0.4704 -0.0777
 2261TIP3    H2 6748   4.805   5.422   5.298  0.0996  0.0042 -0.1322
 2262TIP3   OH2 6749   2.779   3.427   3.805 -0.2634  0.4702  0.3073
 2262TIP3    H1 6750   2.799   3.515   3.838 -1.2335 -0.1665  2.7990
 2262TIP3    H2 6751   2.745   3.380   3.881  1.1042 -2.3843 -0.7181
 2263TIP3   OH2 6752   2.992   2.297   3.464 -0.6317  0.3549 -0.2357
 2263TIP3    H1 6753   2.970   2.267   3.552 -0.0825  3.0025  0.8955
 2263TIP3    H2 6754   2.912   2.340   3.433  0.5131  3.6653  1.0063
 2264TIP3   OH2 6755   5.869   4.660   0.360 -0.6186  0.4319 -0.2399
 2264TIP3    H1 6756   5.785   4.705   0.351 -0.8992  0.1254  0.6915
 2264TIP3    H2 6757   5.933   4.718   0.319 -1.4455  0.1069 -2.0992
 2265TIP3   OH2 6758   6.018   0.785   0.639  0.5131  0.3062  0.1864
 2265TIP3    H1 6759   5.956   0.726   0.596 -0.1890  1.6141 -0.6757
 2265TIP3    H2 6760   6.016   0.759   0.731 -2.4640  1.2272  0.4844
 2266TIP3   OH2 6761   3.625   3.784   5.273  0.3845  0.3445 -0.5815
 2266TIP3    H1 6762   3.584   3.870   5.282 -1.7369 -0.5524 -1.1332
 2266TIP3    H2 6763   3.619   3.746   5.361  0.0634  0.2290 -0.6526
 2267TIP3   OH2 6764   4.205   6.749   5.297 -0.3208 -0.0964  0.0346
 2267TIP3    H1 6765   4.225   6.655   5.290  0.0011  0.0404 -1.3322
 2267TIP3    H2 6766   4.152   6.757   5.376 -0.5620 -1.4748  0.0408
 2268TIP3   OH2 6767   2.362   1.867   0.825 -0.4922  0.0047  0.2181
 2268TIP3    H1 6768   2.394   1.921   0.753  2.1784 -0.9276  0.5866
 2268TIP3    H2 6769   2.270   1.851   0.804  0.3925 -1.1616 -3.6397
 2269TIP3   OH2 6770   4.666   3.507   3.936  0.0832  0.5923 -0.4755
 2269TIP3    H1 6771   4.666   3.413   3.919 -0.0789  0.8207 -1.8686
 2269TIP3    H2 6772   4.686   3.515   4.029  0.5740 -0.7981 -0.4429
 2270TIP3   OH2 6773   3.365   1.023   2.205  0.1818 -0.3825 -0.0824
 2270TIP3    H1 6774   3.278   1.062   2.214  0.1259 -0.4754 -0.2064
 2270TIP3    H2 6775   3.374   1.007   2.111 -0.0601 -1.2572  0.0264
 2271TIP3   OH2 6776   3.198   1.998   4.010  0.1610  0.4107 -0.1329
 2271TIP3    H1 6777   3.153   1.914   4.018 -1.1728  1.0914 -0.1653
 2271TIP3    H2 6778   3.157   2.053   4.076  1.3476  0.9159  0.2076
 2272TIP3   OH2 6779   2.012   1.647   4.511 -0.3392  0.1756 -0.3253
 2272TIP3    H1 6780   1.967   1.732   4.518  1.7538  1.3954 -0.9471
 2272TIP3    H2 6781   1.997   1.620   4.421  0.3283  0.6744 -0.5878
 2273TIP3   OH2 6782   5.806   4.915   2.074  0.1743  0.3636  0.2448
 2273TIP3    H1 6783   5.758   4.848   2.123 -0.1099 -0.8603 -1.6278
 2273TIP3    H2 6784   5.753   4.994   2.084 -0.3010 -0.0555  1.2169
 2274TIP3   OH2 6785   0.602   4.369   3.682  0.0423 -0.0108  0.1809
 2274TIP3    H1 6786   0.634   4.389   3.770  1.9815 -0.1226 -0.4572
 2274TIP3    H2 6787   0.633   4.280   3.666 -0.9406 -0.2705 -0.3558
 2275TIP3   OH2 6788   5.150   5.496   0.256  0.4614 -0.3420 -0.1584
 2275TIP3    H1 6789   5.083   5.564   0.249  0.1638 -0.6997 -0.9013
 2275TIP3    H2 6790   5.223   5.529   0.204  1.0024  0.1844  0.8937
 2276TIP3   OH2 6791   2.233   3.804   4.404 -0.2383  0.6125 -0.2890
 2276TIP3    H1 6792   2.266   3.825   4.317 -1.2550 -0.7758 -1.0478
 2276TIP3    H2 6793   2.310   3.778   4.454  0.6406  3.2323 -0.1499
 2277TIP3   OH2 6794   4.026   1.184   3.110  0.4556  0.0094 -0.3667
 2277TIP3    H1 6795   4.096   1.220   3.055  0.8271  0.6947  0.5170
 2277TIP3    H2 6796   3.968   1.258   3.126  0.6576 -0.0276  0.6148
 2278TIP3   OH2 6797   4.438   6.497   4.962  0.3829  0.3108 -0.2997
 2278TIP3    H1 6798   4.372   6.442   5.004 -1.3319  2.6783  0.3774
 2278TIP3    H2 6799   4.522   6.465   4.995 -0.4522 -2.2666 -0.5179
 2279TIP3   OH2 6800   4.266   4.748   3.513  0.1468 -0.1760 -0.2940
 2279TIP3    H1 6801   4.281   4.772   3.421  0.2782  0.7815 -0.0358
 2279TIP3    H2 6802   4.352   4.760   3.554 -0.0753  0.0822  0.0944
 2280TIP3   OH2 6803   5.810   3.359   1.708  0.1652 -0.4639 -0.4395
 2280TIP3    H1 6804   5.749   3.287   1.695 -4.0906  2.9325 -1.5497
 2280TIP3    H2 6805   5.778   3.404   1.786  2.7928  0.2523  0.3427
 2281TIP3   OH2 6806   3.259   6.552   5.573  0.0523  0.6631 -0.4066
 2281TIP3    H1 6807   3.249   6.550   5.478 -0.4661 -0.8727 -0.3490
 2281TIP3    H2 6808   3.189   6.496   5.606 -0.5262  2.1178  0.9728
 2282TIP3   OH2 6809   1.687   5.644   2.678 -0.3380  0.5773 -0.0290
 2282TIP3    H1 6810   1.677   5.549   2.674 -0.8209  0.6359 -0.2199
 2282TIP3    H2 6811   1.613   5.673   2.731 -0.7088  0.9386 -0.7464
 2283TIP3   OH2 6812   4.646   5.090   4.998 -0.1578  0.5171  0.3781
 2283TIP3    H1 6813   4.742   5.091   5.007 -0.1313  0.5686  0.0780
 2283TIP3    H2 6814   4.630   5.045   4.915 -0.4428 -0.9320  1.1838
 2284TIP3   OH2 6815   2.469   4.425   1.888 -0.1574 -0.1822 -0.2427
 2284TIP3    H1 6816   2.480   4.387   1.975 -0.3426 -0.3214 -0.2794
 2284TIP3    H2 6817   2.518   4.366   1.830 -0.2584 -0.2418 -0.2685
 2285TIP3   OH2 6818   6.056   0.051   5.189 -0.0573 -0.2397  0.5283
 2285TIP3    H1 6819   5.969   0.060   5.228  0.4952  0.2173  1.7005
 2285TIP3    H2 6820   6.049   0.093   5.103 -0.9047  0.0491  0.7332
 2286TIP3   OH2 6821   6.341   0.827   1.431  0.0233  0.1921  0.4209
 2286TIP3    H1 6822   6.382   0.849   1.514  1.1361 -1.5886  0.4020
 2286TIP3    H2 6823   6.409   0.840   1.366 -0.1791 -0.4235  0.0686
 2287TIP3   OH2 6824   3.961   1.421   1.459 -0.9647 -0.6527  1.0829
 2287TIP3    H1 6825   4.020   1.373   1.402  0.5267  0.3706  1.7080
 2287TIP3    H2 6826   3.874   1.405   1.422 -0.3925 -2.7093  0.5202
 2288TIP3   OH2 6827   2.596   6.013   4.389 -0.3422  0.3259  0.1672
 2288TIP3    H1 6828   2.624   5.931   4.350 -1.7410  0.3064 -0.8970
 2288TIP3    H2 6829   2.537   6.052   4.323 -0.0600  1.9641  0.8215
 2289TIP3   OH2 6830   1.558   0.957   5.692  0.2309 -0.2946  0.1732
 2289TIP3    H1 6831   1.569   0.994   5.604 -1.6507 -0.3894 -0.1496
 2289TIP3    H2 6832   1.647   0.946   5.725  0.9458  0.7970 -1.2769
 2290TIP3   OH2 6833   1.071   0.897   3.992 -0.0700 -0.3609 -0.2567
 2290TIP3    H1 6834   1.013   0.945   3.933  0.7650 -1.3868 -1.9926
 2290TIP3    H2 6835   1.097   0.820   3.942  0.8985 -1.1457  1.3767
 2291TIP3   OH2 6836   1.399   4.215   3.311  0.3690 -0.2584 -0.2583
 2291TIP3    H1 6837   1.341   4.291   3.311  0.4386 -0.1876  0.5992
 2291TIP3    H2 6838   1.485   4.251   3.333  0.3714 -0.5957  0.3156
 2292TIP3   OH2 6839   6.590   2.650   2.954 -0.5534  0.0971 -0.4790
 2292TIP3    H1 6840   6.684   2.648   2.971 -0.6921  0.1477  0.3630
 2292TIP3    H2 6841   6.581   2.688   2.867  0.0775  2.7045  0.5242
 2293TIP3   OH2 6842   3.090   1.931   5.539  0.0609 -0.3904 -0.3252
 2293TIP3    H1 6843   3.022   1.938   5.605  0.1755  0.5269 -0.2891
 2293TIP3    H2 6844   3.135   1.849   5.559 -0.2391 -0.3824  0.4084
 2294TIP3   OH2 6845   6.771   6.105   4.195 -0.2413  0.0358 -0.1802
 2294TIP3    H1 6846   6.801   6.021   4.162 -1.6242 -0.0989 -1.1598
 2294TIP3    H2 6847   6.850   6.160   4.198  0.7404 -1.3630  0.7935
 2295TIP3   OH2 6848   0.738   1.917   3.611  0.0937  0.1222 -0.5520
 2295TIP3    H1 6849   0.651   1.878   3.622  0.4485 -0.5517 -0.0015
 2295TIP3    H2 6850   0.759   1.953   3.698  0.7704 -0.6169 -0.3895
 2296TIP3   OH2 6851   4.671   6.412   0.851 -0.1881  0.5789 -0.1029
 2296TIP3    H1 6852   4.742   6.454   0.802  0.1571 -1.2424 -1.2562
 2296TIP3    H2 6853   4.713   6.383   0.933  0.3826 -0.3123 -0.6912
 2297TIP3   OH2 6854   1.255   2.294   0.714  0.1920  0.3085  0.1502
 2297TIP3    H1 6855   1.341   2.313   0.676  0.0068  3.7660  1.2063
 2297TIP3    H2 6856   1.269   2.298   0.808 -0.8760 -0.5726  0.3658
 2298TIP3   OH2 6857   3.783   0.527   5.604 -0.3227  0.1432  0.1209
 2298TIP3    H1 6858   3.719   0.491   5.543 -0.5863 -0.0535  0.5114
 2298TIP3    H2 6859   3.734   0.587   5.659  0.1221  1.1284 -0.5386
 2299TIP3   OH2 6860   3.743   5.582   3.715 -0.3605 -0.4454  0.2744
 2299TIP3    H1 6861   3.719   5.507   3.769 -0.4530  0.1691  1.1108
 2299TIP3    H2 6862   3.686   5.653   3.746  0.2924  0.1770  0.0739
 2300TIP3   OH2 6863   1.174   2.683   4.594  0.1102  0.0468 -0.2182
 2300TIP3    H1 6864   1.236   2.753   4.572 -1.1198  1.3777  0.3479
 2300TIP3    H2 6865   1.177   2.677   4.689 -1.4713  0.9940 -0.0704
 2301TIP3   OH2 6866   1.109   4.980   5.576  0.0955  0.7259 -0.3367
 2301TIP3    H1 6867   1.102   4.902   5.521 -0.1928  0.8256 -0.4416
 2301TIP3    H2 6868   1.171   5.036   5.528 -0.0683  0.7646 -0.5064
 2302TIP3   OH2 6869   0.094   3.860   1.727 -0.3154  0.5851 -0.2071
 2302TIP3    H1 6870   0.018   3.814   1.762  0.0008 -0.7532 -1.1897
 2302TIP3    H2 6871   0.169   3.810   1.759  0.1150  1.2938 -0.0807
 2303TIP3   OH2 6872   1.114   1.966   4.879 -0.0234 -0.0585  0.2730
 2303TIP3    H1 6873   1.160   1.986   4.960  0.0757 -0.4657  0.3203
 2303TIP3    H2 6874   1.176   1.912   4.829 -0.9179 -1.7652  0.9041
 2304TIP3   OH2 6875   2.855   2.179   1.968  0.5209  0.2030 -0.5897
 2304TIP3    H1 6876   2.779   2.151   1.917  0.3127 -0.2892 -0.0242
 2304TIP3    H2 6877   2.838   2.271   1.989  0.0475  0.0774 -0.4110
 2305TIP3   OH2 6878   1.237   0.124   3.226  0.0639 -0.0505 -0.3755
 2305TIP3    H1 6879   1.283   0.200   3.189  1.6707 -0.7361  0.0873
 2305TIP3    H2 6880   1.294   0.095   3.297 -2.1813  0.3279  1.7172
 2306TIP3   OH2 6881   3.358   1.045   3.491 -0.2400  0.0993  0.4584
 2306TIP3    H1 6882   3.442   1.078   3.458 -0.2717  1.7087  1.8209
 2306TIP3    H2 6883   3.382   0.984   3.561 -0.0939  2.5750  2.7250
 2307TIP3   OH2 6884   0.125   4.141   5.179 -0.7778  0.2078 -0.8281
 2307TIP3    H1 6885   0.202   4.128   5.234 -0.6804  1.6584 -0.6044
 2307TIP3    H2 6886   0.153   4.202   5.111 -1.6552  0.5543 -0.8897
 2308TIP3   OH2 6887   4.178   4.309   3.936  0.3824  0.0778 -0.2474
 2308TIP3    H1 6888   4.248   4.330   3.998  0.8103  1.2763 -1.1025
 2308TIP3    H2 6889   4.221   4.252   3.871  1.0900  2.2094 -1.7436
 2309TIP3   OH2 6890   2.251   1.144   2.173 -0.0345  0.8872  0.2232
 2309TIP3    H1 6891   2.324   1.204   2.187 -1.3201  2.2848  1.3063
 2309TIP3    H2 6892   2.252   1.127   2.079  1.0644  1.6794  0.0632
 2310TIP3   OH2 6893   5.049   6.184   3.694 -0.3795 -0.1418  0.1979
 2310TIP3    H1 6894   5.060   6.098   3.735 -0.1271 -0.7560 -1.0907
 2310TIP3    H2 6895   5.130   6.197   3.644 -1.0459  0.1248 -0.8646
 2311TIP3   OH2 6896   2.319   3.013   0.228 -0.2434  0.4187  0.2832
 2311TIP3    H1 6897   2.247   3.048   0.280 -1.5165 -1.1271 -0.2992
 2311TIP3    H2 6898   2.374   3.088   0.207 -1.6865  1.6593  0.7881
 2312TIP3   OH2 6899   1.749   0.883   0.504  0.0946 -0.1355  0.2465
 2312TIP3    H1 6900   1.696   0.810   0.472 -0.6357  0.8318 -0.8259
 2312TIP3    H2 6901   1.693   0.927   0.568  0.1108  0.1299  0.0770
 2313TIP3   OH2 6902   1.478   4.364   3.811  1.0245  0.1806  0.2479
 2313TIP3    H1 6903   1.571   4.342   3.816  0.8463 -0.6048  0.2559
 2313TIP3    H2 6904   1.473   4.435   3.747  1.3500 -1.6414 -1.9144
 2314TIP3   OH2 6905   2.071   5.963   3.233  0.1247 -0.0674 -0.2961
 2314TIP3    H1 6906   2.053   5.979   3.326  0.4276  0.8768 -0.3857
 2314TIP3    H2 6907   2.102   5.873   3.230  0.8638  0.1350  0.6401
 2315TIP3   OH2 6908   4.804   3.802   4.249 -0.0333  0.5694 -0.2325
 2315TIP3    H1 6909   4.836   3.877   4.199 -0.7903  1.9065  1.1793
 2315TIP3    H2 6910   4.717   3.829   4.278  0.6827  0.2108  2.4689
 2316TIP3   OH2 6911   2.038   2.436   2.360  0.5901  0.2242  0.3049
 2316TIP3    H1 6912   2.016   2.345   2.340  1.5355  0.1456 -0.4034
 2316TIP3    H2 6913   1.958   2.485   2.341  0.6902 -0.1957 -1.2743
 2317TIP3   OH2 6914   3.953   1.837   1.914  0.1333  0.0939  0.1204
 2317TIP3    H1 6915   3.915   1.768   1.860 -0.4866  0.4908  0.0385
 2317TIP3    H2 6916   4.047   1.828   1.901 -0.0139  0.9921 -2.0827
 2318TIP3   OH2 6917   1.785   1.199   0.413  0.2088  0.7913  0.2544
 2318TIP3    H1 6918   1.870   1.241   0.401  0.2996  0.1608 -1.7321
 2318TIP3    H2 6919   1.797   1.138   0.485  1.3031  1.0738  0.3211
 2319TIP3   OH2 6920   4.813   1.243   4.564 -0.1360  0.2818 -0.3855
 2319TIP3    H1 6921   4.804   1.325   4.516  0.8386  0.3059 -0.5460
 2319TIP3    H2 6922   4.889   1.201   4.525 -0.1898 -0.3649  0.1876
 2320TIP3   OH2 6923   5.586   4.405   2.533  0.0248 -0.1628  0.2574
 2320TIP3    H1 6924   5.614   4.361   2.453  0.3639 -0.6667  0.6405
 2320TIP3    H2 6925   5.544   4.486   2.504  2.3116  0.8694 -0.3363
 2321TIP3   OH2 6926   1.667   5.954   0.082 -0.2886 -0.2691 -0.0050
 2321TIP3    H1 6927   1.653   6.029   0.140 -1.6528 -0.7067  0.2635
 2321TIP3    H2 6928   1.598   5.961   0.016  0.9539 -0.0445 -1.3380
 2322TIP3   OH2 6929   5.638   1.241   1.209 -0.9391  0.0852 -0.0675
 2322TIP3    H1 6930   5.708   1.186   1.245 -0.6593  0.6682  0.3009
 2322TIP3    H2 6931   5.684   1.308   1.159 -1.1286  1.4430  1.5243
 2323TIP3   OH2 6932   6.071   3.427   0.980 -0.4202  0.3901 -0.1505
 2323TIP3    H1 6933   6.131   3.495   0.948 -2.0472  1.2921 -1.3976
 2323TIP3    H2 6934   6.025   3.468   1.053  0.7906 -0.4875  1.1633
 2324TIP3   OH2 6935   6.904   0.930   5.177 -0.6163 -0.4357 -0.1198
 2324TIP3    H1 6936   6.811   0.922   5.198 -0.8087 -1.1533 -1.1640
 2324TIP3    H2 6937   6.908   0.924   5.082  0.4895 -0.2002 -0.1066
 2325TIP3   OH2 6938   3.112   1.340   3.436 -0.3422  0.5988 -0.3049
 2325TIP3    H1 6939   3.074   1.422   3.404  1.0044  1.1419 -0.5885
 2325TIP3    H2 6940   3.193   1.331   3.387 -1.0517 -1.5874 -1.1966
 2326TIP3   OH2 6941   4.181   1.986   4.972 -0.1769  0.6399 -0.2156
 2326TIP3    H1 6942   4.232   2.008   4.894  0.5805  1.1333  0.4077
 2326TIP3    H2 6943   4.090   2.004   4.946  0.0766  0.9533 -0.9300
 2327TIP3   OH2 6944   1.065   1.365   3.110  0.1236 -0.2207  0.0624
 2327TIP3    H1 6945   1.038   1.299   3.047 -0.2310  0.2800 -0.3165
 2327TIP3    H2 6946   0.983   1.401   3.145  0.3097 -0.0150  0.2956
 2328TIP3   OH2 6947   4.577   0.999   1.264  0.1092 -0.6300  0.3999
 2328TIP3    H1 6948   4.671   0.991   1.281  0.5080  2.1673  0.0321
 2328TIP3    H2 6949   4.542   1.039   1.344  0.0671  2.2673 -0.9152
 2329TIP3   OH2 6950   5.113   3.458   0.694 -0.7437 -0.0193 -0.2401
 2329TIP3    H1 6951   5.120   3.553   0.698  0.8473 -0.1538  1.2573
 2329TIP3    H2 6952   5.198   3.426   0.726 -0.7715 -1.9398 -1.8673
 2330TIP3   OH2 6953   0.311   0.183   2.064 -0.6013  0.0863  0.1384
 2330TIP3    H1 6954   0.388   0.141   2.025 -0.5032 -0.5428  0.9777
 2330TIP3    H2 6955   0.328   0.277   2.057  0.9165 -0.0437  1.5680
 2331TIP3   OH2 6956   0.905   4.172   1.343  0.2193 -0.3357  0.1766
 2331TIP3    H1 6957   0.862   4.240   1.291  0.9101  0.3308  0.4445
 2331TIP3    H2 6958   0.974   4.219   1.391  0.5495 -1.1871  0.5603
 2332TIP3   OH2 6959   0.646   3.379   4.074 -0.5973 -0.1131  0.2625
 2332TIP3    H1 6960   0.559   3.417   4.063 -0.2545  0.4156 -0.7111
 2332TIP3    H2 6961   0.662   3.332   3.992 -0.2325 -0.7827  0.7059
 2333TIP3   OH2 6962   3.752   3.384   1.906 -0.5145  0.2501 -0.6184
 2333TIP3    H1 6963   3.848   3.387   1.909 -0.4947 -0.6737  0.9439
 2333TIP3    H2 6964   3.724   3.443   1.976 -1.0295 -0.5199 -0.1523
 2334TIP3   OH2 6965   1.037   5.704   0.853  0.3110  0.3910 -0.3650
 2334TIP3    H1 6966   1.037   5.783   0.799 -0.5650 -0.0933 -1.0902
 2334TIP3    H2 6967   1.128   5.675   0.853  0.5422  1.0805 -0.5543
 2335TIP3   OH2 6968   0.729   4.987   3.778 -0.3495  0.3631  0.4867
 2335TIP3    H1 6969   0.737   4.996   3.873 -1.5427  0.9037  0.5561
 2335TIP3    H2 6970   0.785   4.913   3.756  0.8919  0.9879  1.4433
 2336TIP3   OH2 6971   5.349   1.973   2.954  0.0512  0.4877 -0.4683
 2336TIP3    H1 6972   5.284   2.043   2.952  1.1704  1.5315 -1.2769
 2336TIP3    H2 6973   5.434   2.018   2.952  0.8003 -0.8952 -1.9748
 2337TIP3   OH2 6974   2.716   4.487   3.174  0.3039 -0.2109 -0.2878
 2337TIP3    H1 6975   2.722   4.392   3.164 -2.0220 -0.4827  0.1408
 2337TIP3    H2 6976   2.781   4.508   3.241  1.4832 -1.3581 -1.0356
 2338TIP3   OH2 6977   1.095   1.535   0.977 -0.1833  0.7199 -0.5718
 2338TIP3    H1 6978   1.053   1.616   0.946  0.5462  1.4660  0.3354
 2338TIP3    H2 6979   1.186   1.543   0.950 -0.2829 -0.1985 -1.2091
 2339TIP3   OH2 6980   4.764   4.404   2.503  0.3780 -0.7763  0.9368
 2339TIP3    H1 6981   4.780   4.466   2.432 -0.4487  0.5705  1.8861
 2339TIP3    H2 6982   4.705   4.339   2.464  0.1459 -0.2066  0.3069
 2340TIP3   OH2 6983   2.595   4.694   5.401  0.1393  0.5559  0.3347
 2340TIP3    H1 6984   2.550   4.641   5.467  0.5474 -0.3060 -0.0643
 2340TIP3    H2 6985   2.681   4.710   5.438 -0.1319  1.3312  0.6475
 2341TIP3   OH2 6986   2.020   4.991   5.279 -0.0559  0.6302 -0.4620
 2341TIP3    H1 6987   1.955   5.021   5.216 -0.2556  0.7090 -0.2180
 2341TIP3    H2 6988   1.978   5.000   5.364 -0.1017 -0.3100 -0.3833
 2342TIP3   OH2 6989   7.008   6.325   1.722  0.1839 -0.0250  0.0174
 2342TIP3    H1 6990   7.017   6.329   1.817  0.6360 -1.1933  0.0421
 2342TIP3    H2 6991   7.076   6.383   1.688  0.2192  0.1588  0.4047
 2343TIP3   OH2 6992   1.750   6.704   2.421  0.3627 -0.6049 -0.0080
 2343TIP3    H1 6993   1.806   6.779   2.440 -1.2516  0.3871  1.0456
 2343TIP3    H2 6994   1.785   6.633   2.475  2.4981 -0.9490 -1.7389
 2344TIP3   OH2 6995   0.150   1.777   1.390  1.0746 -0.4283 -0.7791
 2344TIP3    H1 6996   0.135   1.701   1.446 -0.5790 -0.5775 -1.3874
 2344TIP3    H2 6997   0.211   1.745   1.323  0.5281 -1.1779 -0.9350
 2345TIP3   OH2 6998   1.602   2.413   5.063  0.1433  0.5499  0.3444
 2345TIP3    H1 6999   1.588   2.322   5.037 -1.0687  0.8282  0.0015
 2345TIP3    H2 7000   1.548   2.424   5.141  1.8163  0.4405  1.6018
 2346TIP3   OH2 7001   4.647   2.915   1.931 -0.0289  0.0956 -0.4192
 2346TIP3    H1 7002   4.568   2.913   1.984 -0.4363  3.1833 -0.7034
 2346TIP3    H2 7003   4.700   2.842   1.963 -2.5762 -1.5101  0.3817
 2347TIP3   OH2 7004   5.969   1.889   5.093 -0.0140  0.5563 -0.0029
 2347TIP3    H1 7005   6.024   1.812   5.106 -0.4091  0.0965 -0.9876
 2347TIP3    H2 7006   5.886   1.866   5.134 -0.1789  0.3964 -0.4221
 2348TIP3   OH2 7007   5.314   2.519   3.180  0.4462 -0.3787 -0.4779
 2348TIP3    H1 7008   5.366   2.449   3.220  0.2774  0.6842  1.7584
 2348TIP3    H2 7009   5.229   2.478   3.162  1.4642 -1.6910 -2.6794
 2349TIP3   OH2 7010   6.225   2.168   5.659 -0.1659 -0.0289  0.0998
 2349TIP3    H1 7011   6.291   2.103   5.635  1.1222  0.0599  3.0430
 2349TIP3    H2 7012   6.162   2.120   5.712 -1.0034  0.4885 -0.3971
 2350TIP3   OH2 7013   0.218   3.911   1.198  0.4013  0.3079  0.1881
 2350TIP3    H1 7014   0.312   3.903   1.217  0.3544  0.7973  0.6331
 2350TIP3    H2 7015   0.180   3.944   1.278 -0.5433 -2.1246  0.8223
 2351TIP3   OH2 7016   4.859   2.354   4.715 -0.1199 -0.0053 -0.0970
 2351TIP3    H1 7017   4.798   2.428   4.714  0.7201  0.7196 -1.6375
 2351TIP3    H2 7018   4.946   2.395   4.711  0.4334 -1.0432  0.8827
 2352TIP3   OH2 7019   6.160   1.731   0.968 -0.0339 -0.2378 -0.1147
 2352TIP3    H1 7020   6.190   1.707   0.880 -0.7325 -0.3469 -0.3265
 2352TIP3    H2 7021   6.235   1.712   1.025 -0.3443 -2.3767 -0.3393
 2353TIP3   OH2 7022   0.313   5.266   0.552 -0.0714  0.4421 -0.8598
 2353TIP3    H1 7023   0.373   5.334   0.584  0.3030 -0.3334  0.1574
 2353TIP3    H2 7024   0.227   5.292   0.585  0.0283  0.5694 -0.6983
 2354TIP3   OH2 7025   3.813   5.245   4.230 -0.5435  0.2575  0.2357
 2354TIP3    H1 7026   3.812   5.149   4.237 -0.7014  0.2640  0.2999
 2354TIP3    H2 7027   3.866   5.274   4.304 -1.2616  0.2673  0.7455
 2355TIP3   OH2 7028   4.089   6.246   4.712 -0.0533 -0.1935 -0.6975
 2355TIP3    H1 7029   4.126   6.233   4.624 -0.7840 -2.5445 -0.7251
 2355TIP3    H2 7030   4.012   6.190   4.714 -0.8686  0.9187  0.9989
 2356TIP3   OH2 7031   2.022   5.604   2.923  0.2226 -0.4412 -0.3762
 2356TIP3    H1 7032   2.083   5.631   2.992 -0.0068 -2.0874  0.5122
 2356TIP3    H2 7033   2.075   5.602   2.843  0.1382  3.0829 -0.6861
 2357TIP3   OH2 7034   5.617   0.574   2.694 -0.6608  0.1311  0.3632
 2357TIP3    H1 7035   5.532   0.555   2.734 -0.0000 -1.0757  1.2388
 2357TIP3    H2 7036   5.643   0.492   2.653  0.7595  0.0360  1.3950
 2358TIP3   OH2 7037   6.609   4.665   5.222 -0.7165  0.4465 -0.4229
 2358TIP3    H1 7038   6.622   4.678   5.129  0.4052 -1.3526 -0.5541
 2358TIP3    H2 7039   6.532   4.608   5.228 -0.1270 -0.3505 -0.3196
 2359TIP3   OH2 7040   2.721   4.252   4.335 -0.2817 -0.0932 -0.0009
 2359TIP3    H1 7041   2.807   4.245   4.292  0.2310 -1.6459  1.1481
 2359TIP3    H2 7042   2.729   4.329   4.391 -0.4872  1.1478 -1.6196
 2360TIP3   OH2 7043   0.436   2.520   3.589  0.0137 -0.3797  0.2111
 2360TIP3    H1 7044   0.501   2.492   3.653 -0.1905 -1.7754 -0.1596
 2360TIP3    H2 7045   0.441   2.455   3.519 -0.1394  0.8158 -0.9563
 2361TIP3   OH2 7046   0.129   1.348   4.746  0.1123  0.2352 -0.3372
 2361TIP3    H1 7047   0.204   1.290   4.761  0.2882  0.0721 -1.6984
 2361TIP3    H2 7048   0.169   1.433   4.728 -0.1362  0.7671  1.4088
 2362TIP3   OH2 7049   0.054   3.758   1.037  0.0725 -0.0659  0.0095
 2362TIP3    H1 7050   0.059   3.666   1.065  0.4874 -0.5723 -1.6225
 2362TIP3    H2 7051   0.128   3.800   1.080  2.4172 -1.4519 -2.4211
 2363TIP3   OH2 7052   6.383   6.280   4.809 -0.3874  0.0121 -0.0727
 2363TIP3    H1 7053   6.406   6.309   4.721 -1.1290 -0.7030 -0.5120
 2363TIP3    H2 7054   6.464   6.244   4.845 -0.1539  0.0380 -0.5748
 2364TIP3   OH2 7055   0.605   6.316   4.273  0.0233 -0.3490 -0.3554
 2364TIP3    H1 7056   0.587   6.334   4.365 -0.3209 -0.5999 -0.3705
 2364TIP3    H2 7057   0.545   6.245   4.250 -0.6502  0.4108 -1.0447
 2365TIP3   OH2 7058   1.398   5.570   0.599 -0.1289 -0.3903  0.1866
 2365TIP3    H1 7059   1.367   5.480   0.599 -0.3412 -0.3161  0.0289
 2365TIP3    H2 7060   1.322   5.622   0.626  0.4950 -0.4413  2.2745
 2366TIP3   OH2 7061   0.533   2.769   2.242  0.3197 -0.3441 -0.0459
 2366TIP3    H1 7062   0.492   2.699   2.292  0.4328 -0.9260 -0.7468
 2366TIP3    H2 7063   0.627   2.758   2.256  0.3434 -0.4053 -0.2460
 2367TIP3   OH2 7064   1.935   1.592   4.887 -0.3502  0.3918 -0.6757
 2367TIP3    H1 7065   1.979   1.539   4.953  1.1508 -2.5343 -3.7322
 2367TIP3    H2 7066   1.874   1.531   4.845 -1.2703  2.1359 -1.9686
 2368TIP3   OH2 7067   5.411   4.110   0.032 -0.0343 -0.2372 -0.5903
 2368TIP3    H1 7068   5.334   4.124   0.087 -0.8492  1.2454 -2.0375
 2368TIP3    H2 7069   5.442   4.023   0.056 -1.0615 -0.1279  1.3220
 2369TIP3   OH2 7070   5.693   1.353   1.953  0.8033  0.4791  0.9423
 2369TIP3    H1 7071   5.655   1.319   2.034  0.5244 -0.7206  0.3362
 2369TIP3    H2 7072   5.774   1.304   1.942  0.5726  0.2478  0.2312
 2370TIP3   OH2 7073   2.901   2.776   2.030  0.5479 -0.1421 -0.3812
 2370TIP3    H1 7074   2.952   2.856   2.020 -0.0279  0.2656 -0.0931
 2370TIP3    H2 7075   2.966   2.708   2.050  0.8109  0.7977  2.4248
 2371TIP3   OH2 7076   1.469   6.390   2.767  0.0329  0.0839 -0.1525
 2371TIP3    H1 7077   1.556   6.354   2.786  0.3853  0.6775 -0.6316
 2371TIP3    H2 7078   1.416   6.313   2.745  0.6831 -0.1900 -0.7965
 2372TIP3   OH2 7079   2.156   2.969   4.851 -0.0155  0.2214  0.0865
 2372TIP3    H1 7080   2.089   2.941   4.913 -0.7067  3.6924  1.1145
 2372TIP3    H2 7081   2.107   3.012   4.781  1.0155  0.7654 -0.3218
 2373TIP3   OH2 7082   0.456   5.925   5.253  0.0708 -0.5234  0.1315
 2373TIP3    H1 7083   0.431   5.925   5.161 -0.8139  1.2261  0.3373
 2373TIP3    H2 7084   0.487   5.836   5.269 -0.5950 -1.1135 -1.6215
 2374TIP3   OH2 7085   4.568   1.314   5.166 -0.5848 -0.3544  0.2808
 2374TIP3    H1 7086   4.585   1.267   5.085 -1.7832  0.0726 -0.2412
 2374TIP3    H2 7087   4.528   1.248   5.224  4.3154 -1.9883  2.3106
 2375TIP3   OH2 7088   1.546   5.352   0.878 -0.7880 -0.7425  0.3785
 2375TIP3    H1 7089   1.569   5.381   0.789 -0.4442 -2.0529  0.0210
 2375TIP3    H2 7090   1.623   5.372   0.930 -0.9214 -0.1395  0.3627
 2376TIP3   OH2 7091   6.495   4.383   0.675 -0.1979 -0.1766  0.1091
 2376TIP3    H1 7092   6.570   4.440   0.660 -0.3306 -0.3843 -1.4873
 2376TIP3    H2 7093   6.527   4.317   0.738  0.7262  0.1642  0.0125
 2377TIP3   OH2 7094   5.207   2.866   5.228  0.0439 -0.3182  0.4066
 2377TIP3    H1 7095   5.114   2.889   5.231  0.4832  2.4542 -2.0469
 2377TIP3    H2 7096   5.251   2.939   5.272  1.1978  0.7676 -2.3075
 2378TIP3   OH2 7097   1.666   2.272   3.187 -0.2106  0.2018  0.2453
 2378TIP3    H1 7098   1.755   2.253   3.216 -0.3781  0.7249  1.1342
 2378TIP3    H2 7099   1.613   2.202   3.225  0.0842 -1.4558 -2.1579
 2379TIP3   OH2 7100   5.070   3.937   3.981 -0.3443 -0.4795  0.8512
 2379TIP3    H1 7101   5.113   3.856   4.010 -0.0676  0.0064  1.8303
 2379TIP3    H2 7102   5.108   4.006   4.035 -1.0117  0.2292  0.4432
 2380TIP3   OH2 7103   6.310   6.303   0.740 -0.2284 -0.2797 -0.5636
 2380TIP3    H1 7104   6.343   6.237   0.800  1.6994  0.3916 -0.8421
 2380TIP3    H2 7105   6.258   6.362   0.795  0.0841 -0.6346  0.1189
 2381TIP3   OH2 7106   0.144   6.638   0.291 -0.2023 -0.5265  0.0512
 2381TIP3    H1 7107   0.172   6.718   0.335 -0.2868  1.0333 -2.5390
 2381TIP3    H2 7108   0.220   6.580   0.296 -0.1674 -0.3871  2.0349
 2382TIP3   OH2 7109   2.163   4.410   1.207 -0.2678 -0.1561 -0.0709
 2382TIP3    H1 7110   2.089   4.467   1.190  0.2933  0.3965 -0.7121
 2382TIP3    H2 7111   2.125   4.323   1.213 -0.8637 -0.0044 -1.2909
 2383TIP3   OH2 7112   5.397   3.642   4.168  0.4185 -0.5573  0.3224
 2383TIP3    H1 7113   5.385   3.548   4.159 -0.3576 -0.5280  0.9708
 2383TIP3    H2 7114   5.428   3.654   4.257 -0.5769 -0.1120  0.6205
 2384TIP3   OH2 7115   1.454   5.257   3.476  0.2799  0.0938 -0.0987
 2384TIP3    H1 7116   1.422   5.229   3.561  1.2840 -2.7530 -0.5650
 2384TIP3    H2 7117   1.459   5.177   3.424 -0.7293  1.7551 -3.0353
 2385TIP3   OH2 7118   5.198   4.002   1.413 -0.2147 -0.2374  0.0724
 2385TIP3    H1 7119   5.235   4.007   1.325  1.0055  2.0007  0.6403
 2385TIP3    H2 7120   5.233   3.920   1.448 -2.0186 -2.0094 -2.0063
 2386TIP3   OH2 7121   2.349   3.203   1.243 -0.2297 -0.1961 -0.4634
 2386TIP3    H1 7122   2.354   3.196   1.148  0.2908  2.6408 -0.7537
 2386TIP3    H2 7123   2.349   3.298   1.259 -0.0872 -0.6051  2.3729
 2387TIP3   OH2 7124   0.084   0.765   4.542  0.5306  0.0499 -0.1864
 2387TIP3    H1 7125  -0.001   0.755   4.499  0.7472 -0.2733 -0.5415
 2387TIP3    H2 7126   0.062   0.788   4.633  0.0470 -0.7161 -0.0938
 2388TIP3   OH2 7127   7.164   0.689   4.825 -0.2102 -0.2317 -0.6474
 2388TIP3    H1 7128   7.233   0.738   4.870 -2.2623  0.7564  1.6538
 2388TIP3    H2 7129   7.204   0.605   4.805  1.9506  0.6371 -0.3164
 2389TIP3   OH2 7130   7.015   1.051   5.837  0.3521  0.0135 -0.3917
 2389TIP3    H1 7131   6.949   1.004   5.888  0.3505  0.7089  0.2758
 2389TIP3    H2 7132   7.099   1.023   5.875  0.4268 -0.4853 -0.9053
 2390TIP3   OH2 7133   1.154   1.805   2.190 -0.3006  0.7756 -0.2984
 2390TIP3    H1 7134   1.200   1.794   2.273 -0.7728 -1.2161 -0.2608
 2390TIP3    H2 7135   1.221   1.789   2.124 -0.6564 -1.1769 -0.2451
 2391TIP3   OH2 7136   1.767   1.489   0.723 -0.4737  0.5425 -0.4154
 2391TIP3    H1 7137   1.851   1.458   0.757 -1.5733 -0.5115  1.5349
 2391TIP3    H2 7138   1.758   1.447   0.638  0.6338  0.0517 -0.2989
 2392TIP3   OH2 7139   6.647   1.311   3.166 -0.3137  0.4737 -0.1350
 2392TIP3    H1 7140   6.702   1.249   3.118 -0.7286  0.2565 -0.3306
 2392TIP3    H2 7141   6.561   1.304   3.125 -0.9224 -0.3769  1.2082
 2393TIP3   OH2 7142   5.940   4.403   2.600 -0.2533  0.4725 -0.3666
 2393TIP3    H1 7143   6.000   4.478   2.608  0.9916 -0.5896  0.8847
 2393TIP3    H2 7144   5.872   4.433   2.541  1.4512  1.8044 -1.7739
 2394TIP3   OH2 7145   4.939   1.995   2.822 -0.0583 -0.8174  0.5011
 2394TIP3    H1 7146   4.887   2.038   2.889  0.4612 -1.1498  1.1322
 2394TIP3    H2 7147   5.008   2.059   2.801 -0.5288 -0.5035 -0.1032
 2395TIP3   OH2 7148   5.036   0.271   5.855 -0.5713  0.2647 -0.0831
 2395TIP3    H1 7149   5.067   0.195   5.806 -0.1899 -0.4571  1.2444
 2395TIP3    H2 7150   5.097   0.341   5.831 -1.0138  0.2219 -1.4297
 2396TIP3   OH2 7151   3.704   5.741   4.916 -0.0229  0.0483 -0.1017
 2396TIP3    H1 7152   3.783   5.702   4.880 -0.0879 -0.0380 -0.1484
 2396TIP3    H2 7153   3.672   5.799   4.847 -0.6328 -0.7748 -0.5203
 2397TIP3   OH2 7154   6.983   5.764   0.601 -0.3033 -0.8659 -0.1829
 2397TIP3    H1 7155   6.954   5.754   0.692  1.1386  1.3258  0.5646
 2397TIP3    H2 7156   6.902   5.782   0.553 -0.7551  1.0542  1.1953
 2398TIP3   OH2 7157   5.414   3.057   2.261 -0.2974  0.2845 -0.0449
 2398TIP3    H1 7158   5.441   2.967   2.242  0.2608  0.1681  1.2193
 2398TIP3    H2 7159   5.493   3.109   2.243 -0.7073  0.5755 -1.0670
 2399TIP3   OH2 7160   2.492   0.832   1.868  0.3317 -0.9681  0.2941
 2399TIP3    H1 7161   2.522   0.813   1.957  0.0831  2.8257  1.3616
 2399TIP3    H2 7162   2.401   0.858   1.879  0.3185 -0.3718 -1.0874
 2400TIP3   OH2 7163   1.658   4.630   2.420  0.2171  0.3525 -0.1832
 2400TIP3    H1 7164   1.588   4.696   2.420  0.2328  0.3699 -0.0374
 2400TIP3    H2 7165   1.645   4.582   2.338 -0.3526 -0.0502  0.1383
 2401TIP3   OH2 7166   5.360   1.152   3.867 -0.5727  0.2592 -0.2571
 2401TIP3    H1 7167   5.397   1.229   3.912  1.0552 -0.6162 -0.0191
 2401TIP3    H2 7168   5.325   1.098   3.937 -1.1874  0.4911 -0.3763
 2402TIP3   OH2 7169   4.776   4.630   1.844  0.0248 -0.1113  0.2572
 2402TIP3    H1 7170   4.819   4.544   1.846 -0.0529 -0.1519  2.0958
 2402TIP3    H2 7171   4.702   4.618   1.784  0.3695 -1.1547  0.0145
 2403TIP3   OH2 7172   4.992   3.266   5.369  0.1777 -0.4467 -0.3939
 2403TIP3    H1 7173   4.926   3.197   5.380  0.4959 -0.6883  0.0527
 2403TIP3    H2 7174   5.065   3.223   5.326 -0.6005  0.2237 -2.5061
 2404TIP3   OH2 7175   1.254   2.868   2.286 -0.6081  0.0626  0.0515
 2404TIP3    H1 7176   1.206   2.949   2.305 -0.1408  0.5792 -0.9244
 2404TIP3    H2 7177   1.335   2.898   2.245 -0.1547 -0.8822  0.2420
 2405TIP3   OH2 7178   0.949   4.821   1.652  0.4690 -0.2836  0.2406
 2405TIP3    H1 7179   1.001   4.741   1.662  0.6743 -0.3130 -0.8605
 2405TIP3    H2 7180   1.007   4.881   1.604 -0.5978 -0.4347 -1.3230
 2406TIP3   OH2 7181   6.957   1.858   1.057 -0.2992 -0.6134 -0.6078
 2406TIP3    H1 7182   7.051   1.872   1.070 -0.3219 -0.2610 -0.8137
 2406TIP3    H2 7183   6.941   1.771   1.094  0.4485 -1.4578 -2.1678
 2407TIP3   OH2 7184   2.064   2.592   1.001 -0.4936  0.3155  0.1774
 2407TIP3    H1 7185   1.973   2.564   1.010 -0.5664  0.1792 -0.8502
 2407TIP3    H2 7186   2.081   2.590   0.907  0.4396  0.7737  0.3181
 2408TIP3   OH2 7187   1.129   1.805   0.323  0.1214 -0.0607  0.3799
 2408TIP3    H1 7188   1.200   1.785   0.263 -1.0439  0.5874 -1.3046
 2408TIP3    H2 7189   1.059   1.839   0.266 -0.5558  1.8925  2.2589
 2409TIP3   OH2 7190   5.244   1.670   5.239  0.3367  0.1862  0.1871
 2409TIP3    H1 7191   5.298   1.649   5.316 -2.2967 -0.8756  1.8589
 2409TIP3    H2 7192   5.211   1.758   5.256 -1.3062 -0.5470  0.9987
 2410TIP3   OH2 7193   1.074   2.496   3.759 -0.2032 -0.0502  0.2340
 2410TIP3    H1 7194   0.994   2.528   3.718 -0.2515 -1.6771 -1.0664
 2410TIP3    H2 7195   1.052   2.407   3.786  0.9014 -0.2049  0.6607
 2411TIP3   OH2 7196   6.101   5.960   2.696 -0.5473  0.4746 -0.4567
 2411TIP3    H1 7197   6.065   5.872   2.703  0.6706  0.0453  0.8833
 2411TIP3    H2 7198   6.065   6.007   2.771 -1.1939  1.1439 -1.1630
 2412TIP3   OH2 7199   2.122   5.761   5.267  0.7952 -0.6584  0.0848
 2412TIP3    H1 7200   2.186   5.819   5.226 -1.0203  2.0732  0.8039
 2412TIP3    H2 7201   2.175   5.696   5.313  2.9357 -0.6862 -2.1782
 2413TIP3   OH2 7202   5.622   4.649   4.559  0.3922  0.3481 -0.5286
 2413TIP3    H1 7203   5.539   4.632   4.515  0.0266 -0.4656  0.4306
 2413TIP3    H2 7204   5.686   4.656   4.488 -0.3735  0.2847 -1.2442
 2414TIP3   OH2 7205   1.758   3.494   1.570  0.4948 -0.0211 -0.0695
 2414TIP3    H1 7206   1.736   3.470   1.660  2.2485  1.0399  0.6894
 2414TIP3    H2 7207   1.814   3.572   1.579 -0.0069  0.6357 -2.1233
 2415TIP3   OH2 7208   0.347   5.841   2.963  0.3876  0.1490  0.0195
 2415TIP3    H1 7209   0.343   5.918   2.906 -0.3276 -1.1966 -1.8615
 2415TIP3    H2 7210   0.259   5.834   3.000 -0.0485 -0.6781 -1.1324
 2416TIP3   OH2 7211   1.787   2.843   2.528 -0.3213  0.1588  0.0207
 2416TIP3    H1 7212   1.876   2.858   2.496 -0.1146  0.3081  0.6509
 2416TIP3    H2 7213   1.732   2.853   2.450  0.0063  2.2342  0.0034
 2417TIP3   OH2 7214   1.122   3.110   2.361 -0.2124 -0.1003  0.1238
 2417TIP3    H1 7215   1.086   3.117   2.450 -0.8754  0.1772 -0.1623
 2417TIP3    H2 7216   1.065   3.164   2.307  0.2842 -0.1374 -0.4504
 2418TIP3   OH2 7217   3.189   0.257   2.542 -0.2937 -0.0011 -0.0192
 2418TIP3    H1 7218   3.139   0.238   2.622 -1.0935  0.4713 -0.3847
 2418TIP3    H2 7219   3.162   0.346   2.519 -0.0788 -0.1366 -0.8195
 2419TIP3   OH2 7220   0.305   5.540   0.105  0.9832  0.4134  0.2496
 2419TIP3    H1 7221   0.249   5.493   0.044  0.1971  2.1930 -0.4777
 2419TIP3    H2 7222   0.315   5.480   0.180 -0.9916 -0.3999 -0.0700
 2420TIP3   OH2 7223   1.419   0.565   3.216  0.1171 -0.3410 -0.3250
 2420TIP3    H1 7224   1.344   0.520   3.256 -0.6219  0.7629 -0.4255
 2420TIP3    H2 7225   1.437   0.638   3.274 -0.3131  0.6801 -1.4303
 2421TIP3   OH2 7226   0.353   3.340   5.462 -0.0734  0.0591 -0.0408
 2421TIP3    H1 7227   0.346   3.335   5.558 -0.7711  1.2010 -0.0163
 2421TIP3    H2 7228   0.377   3.431   5.444  0.4502 -0.2463 -0.9435
 2422TIP3   OH2 7229   0.485   1.671   3.083  0.2277 -1.0692 -0.5585
 2422TIP3    H1 7230   0.503   1.619   3.005 -0.4652 -0.8395 -0.8821
 2422TIP3    H2 7231   0.462   1.607   3.150 -2.2264 -1.1782 -1.3751
 2423TIP3   OH2 7232   2.875   6.148   1.666 -0.1623  0.0017 -0.1693
 2423TIP3    H1 7233   2.834   6.146   1.752 -3.0538  1.9870 -1.3339
 2423TIP3    H2 7234   2.862   6.061   1.630 -1.1786 -0.1204  0.4711
 2424TIP3   OH2 7235   1.257   3.578   0.698 -0.4326  0.0547 -0.3545
 2424TIP3    H1 7236   1.197   3.517   0.740  0.4266  0.0043  0.8471
 2424TIP3    H2 7237   1.237   3.663   0.737  1.4809 -0.2588  1.5150
 2425TIP3   OH2 7238   2.761   1.455   0.820  0.3894  0.2908 -0.2434
 2425TIP3    H1 7239   2.749   1.362   0.834 -1.8143  0.4480 -0.6510
 2425TIP3    H2 7240   2.806   1.462   0.736 -0.0786 -0.4030 -0.5531
 2426TIP3   OH2 7241   3.075   2.222   5.550  0.7539 -0.2908 -0.2578
 2426TIP3    H1 7242   3.111   2.270   5.475 -2.3691  1.5826 -0.7453
 2426TIP3    H2 7243   3.086   2.130   5.527  1.7299  0.2178 -2.0523
 2427TIP3   OH2 7244   6.046   3.025   2.462 -0.1375  0.1157 -0.3611
 2427TIP3    H1 7245   6.117   2.987   2.410 -0.2208  0.7674 -0.9813
 2427TIP3    H2 7246   6.038   2.969   2.539  0.7689 -0.1997 -0.4952
 2428TIP3   OH2 7247   5.923   3.651   4.749  0.3038 -0.3489  0.0956
 2428TIP3    H1 7248   5.986   3.716   4.718 -0.0521  0.0299  0.1620
 2428TIP3    H2 7249   5.954   3.569   4.712  1.2714 -0.2990  0.7357
 2429TIP3   OH2 7250   1.982   3.557   0.711 -0.6149 -0.4169 -0.2207
 2429TIP3    H1 7251   1.893   3.581   0.684  0.5058  0.5109 -3.5890
 2429TIP3    H2 7252   2.023   3.641   0.732 -0.2945 -0.7704  0.5939
 2430TIP3   OH2 7253   6.888   5.742   5.347 -0.0914 -0.0115 -0.1991
 2430TIP3    H1 7254   6.941   5.677   5.393 -0.5494 -0.4622 -0.2995
 2430TIP3    H2 7255   6.897   5.822   5.399  1.2926  0.1402 -0.6334
 2431TIP3   OH2 7256   2.445   0.078   3.757  0.2783  0.6416  0.0277
 2431TIP3    H1 7257   2.397   0.011   3.807  0.9572  0.4041  0.3742
 2431TIP3    H2 7258   2.524   0.033   3.726 -0.3223  0.6539 -1.6452
 2432TIP3   OH2 7259   7.130   0.114   0.899 -0.0577  0.4347  0.0345
 2432TIP3    H1 7260   7.125   0.155   0.812 -1.4936 -0.6460 -0.4399
 2432TIP3    H2 7261   7.217   0.076   0.903  0.0552  0.5503 -0.9277
 2433TIP3   OH2 7262   6.987   6.633   3.937 -0.5238  0.0002  0.1808
 2433TIP3    H1 7263   6.907   6.637   3.885 -0.2760  0.1650 -0.1963
 2433TIP3    H2 7264   7.033   6.555   3.904 -0.5974 -0.1766  0.4953
 2434TIP3   OH2 7265   3.135   1.568   4.474 -0.3968 -0.1909 -0.1478
 2434TIP3    H1 7266   3.187   1.539   4.549 -0.2185  0.0065 -0.1930
 2434TIP3    H2 7267   3.096   1.488   4.439 -3.1702  0.0263  2.0955
 2435TIP3   OH2 7268   7.172   1.234   2.093  0.0355 -0.2223  0.0269
 2435TIP3    H1 7269   7.082   1.267   2.098 -0.3626 -1.3264  0.5180
 2435TIP3    H2 7270   7.221   1.288   2.155  0.1089  1.5304 -1.4807
 2436TIP3   OH2 7271   0.816   5.658   2.864 -0.2428  0.1280 -0.1167
 2436TIP3    H1 7272   0.751   5.701   2.919 -0.2641 -2.2162  1.8247
 2436TIP3    H2 7273   0.868   5.730   2.829 -2.1975  1.8935  0.4195
 2437TIP3   OH2 7274   0.262   4.121   1.660 -0.5447  0.0091 -0.1657
 2437TIP3    H1 7275   0.220   4.167   1.587 -0.6357  1.4121  0.7333
 2437TIP3    H2 7276   0.203   4.048   1.678 -1.0498  0.2324 -0.8383
 2438TIP3   OH2 7277   2.006   5.785   1.960  0.0566  0.5312 -0.1621
 2438TIP3    H1 7278   1.967   5.760   1.877 -2.0347 -1.7182  1.3479
 2438TIP3    H2 7279   2.101   5.776   1.946 -0.1580  1.3874 -2.5798
 2439TIP3   OH2 7280   2.813   3.652   3.932 -0.5303  0.1125 -0.1452
 2439TIP3    H1 7281   2.830   3.649   4.027  0.2823  0.5958 -0.2656
 2439TIP3    H2 7282   2.768   3.735   3.919  2.2184  1.6696 -0.5734
 2440TIP3   OH2 7283   7.185   4.848   2.358 -0.3268 -0.7370 -0.1071
 2440TIP3    H1 7284   7.171   4.801   2.440  2.4568  0.1030  0.9723
 2440TIP3    H2 7285   7.232   4.786   2.302  1.9015  0.0753  0.7290
 2441TIP3   OH2 7286   5.520   0.532   4.287  0.6317 -0.1298 -0.3682
 2441TIP3    H1 7287   5.477   0.453   4.254  2.8595 -1.4000 -0.4203
 2441TIP3    H2 7288   5.510   0.527   4.382  0.4022 -0.2401 -0.3976
 2442TIP3   OH2 7289   6.442   4.997   1.710  0.3123  0.4168 -0.3557
 2442TIP3    H1 7290   6.353   5.032   1.718  0.3699  0.7575 -1.0611
 2442TIP3    H2 7291   6.430   4.904   1.689  0.0389  0.8770 -2.5559
 2443TIP3   OH2 7292   4.365   0.006   1.624 -0.0774 -0.2274  0.4876
 2443TIP3    H1 7293   4.377  -0.041   1.707  0.6939 -0.6190  0.1622
 2443TIP3    H2 7294   4.443   0.061   1.616 -0.7958  0.8591  0.6800
 2444TIP3   OH2 7295   5.795   6.139   3.569 -0.2764 -0.2585  0.7291
 2444TIP3    H1 7296   5.761   6.055   3.599  0.2912 -0.6642  0.2557
 2444TIP3    H2 7297   5.759   6.150   3.481  1.1057 -0.8874  0.0576
 2445TIP3   OH2 7298   5.173   1.392   1.520 -0.3416  0.0781  0.1312
 2445TIP3    H1 7299   5.259   1.353   1.534  0.9703  2.9513  0.9206
 2445TIP3    H2 7300   5.191   1.483   1.495 -3.1425  0.3840 -1.3081
 2446TIP3   OH2 7301   4.494   0.212   3.230 -0.4864 -0.2133  0.5930
 2446TIP3    H1 7302   4.569   0.154   3.217  0.2423  0.8084  0.0996
 2446TIP3    H2 7303   4.484   0.216   3.325  0.7812  0.4649  0.7283
 2447TIP3   OH2 7304   5.579   6.559   0.555 -0.0126 -0.3865 -0.2504
 2447TIP3    H1 7305   5.667   6.525   0.570  0.7564  0.5154 -2.3438
 2447TIP3    H2 7306   5.578   6.645   0.598 -0.5607 -1.1667  1.4010
 2448TIP3   OH2 7307   4.234   6.402   3.463 -0.0635 -0.3625 -0.2859
 2448TIP3    H1 7308   4.213   6.427   3.553  1.5179  3.3418 -0.8005
 2448TIP3    H2 7309   4.153   6.415   3.415 -0.1595  0.5604  0.1062
 2449TIP3   OH2 7310   3.946   0.055   5.362 -0.4927  0.3540 -0.5183
 2449TIP3    H1 7311   3.948  -0.036   5.332 -1.5874 -0.3624  1.4425
 2449TIP3    H2 7312   4.039   0.080   5.369 -0.1859 -0.3400 -1.7252
 2450TIP3   OH2 7313   1.208   5.745   4.136 -0.3044 -0.1317 -0.3605
 2450TIP3    H1 7314   1.253   5.684   4.194 -0.4068  0.8349  0.7625
 2450TIP3    H2 7315   1.262   5.824   4.137 -0.7771  0.2037 -0.8842
 2451TIP3   OH2 7316   1.352   6.076   2.521 -0.5331 -0.0560 -0.5778
 2451TIP3    H1 7317   1.393   5.994   2.493 -0.4278 -0.1580 -0.1403
 2451TIP3    H2 7318   1.414   6.144   2.494  0.0763 -0.2279  0.3234
 2452TIP3   OH2 7319   4.913   6.241   5.450 -0.2392  0.4024  0.1687
 2452TIP3    H1 7320   4.909   6.147   5.468 -0.2183  0.5824  1.1636
 2452TIP3    H2 7321   4.822   6.270   5.455 -0.3489  0.3004 -0.9707
 2453TIP3   OH2 7322   4.621   5.814   4.526  0.2832 -0.4239  0.2296
 2453TIP3    H1 7323   4.647   5.724   4.510  0.3826 -0.5504  1.0562
 2453TIP3    H2 7324   4.528   5.810   4.547 -0.1920 -0.0956 -1.6415
 2454TIP3   OH2 7325   0.196   3.937   4.871  0.6491 -0.0997 -0.3791
 2454TIP3    H1 7326   0.127   4.004   4.868 -0.1656 -0.9518 -0.9496
 2454TIP3    H2 7327   0.245   3.958   4.951  0.3146  1.0797 -0.4583
 2455TIP3   OH2 7328   1.617   1.222   4.309  0.0253 -0.2920  0.1082
 2455TIP3    H1 7329   1.655   1.259   4.389 -0.0312 -0.8626  0.4043
 2455TIP3    H2 7330   1.578   1.139   4.337 -0.7922 -0.0698 -0.3346
 2456TIP3   OH2 7331   5.817   1.676   1.360  0.0666 -0.7885  0.3360
 2456TIP3    H1 7332   5.766   1.623   1.299 -0.3900  0.2878 -0.2416
 2456TIP3    H2 7333   5.899   1.694   1.313 -0.6461  0.7928 -0.3554
 2457TIP3   OH2 7334   1.640   6.363   4.786 -0.7026 -0.3189  0.1843
 2457TIP3    H1 7335   1.671   6.389   4.700 -1.0637  1.3842  0.5160
 2457TIP3    H2 7336   1.551   6.330   4.771  0.4260 -3.3098 -0.4963
 2458TIP3   OH2 7337   4.457   6.731   1.824  0.3503  0.2634 -0.2993
 2458TIP3    H1 7338   4.402   6.652   1.819 -0.0292  0.5048 -0.0339
 2458TIP3    H2 7339   4.526   6.709   1.886 -0.3758  0.5001  0.6188
 2459TIP3   OH2 7340   1.330   6.522   2.556 -0.4182 -0.0270  0.0582
 2459TIP3    H1 7341   1.386   6.583   2.509 -1.4219 -1.0429 -2.6811
 2459TIP3    H2 7342   1.387   6.482   2.621  1.9566 -0.5815 -2.2008
 2460TIP3   OH2 7343   4.085   5.628   4.433 -0.2897  0.2167  0.4835
 2460TIP3    H1 7344   4.109   5.720   4.423 -1.8487  0.6031 -0.0164
 2460TIP3    H2 7345   4.169   5.582   4.443  0.6261  1.4941 -0.8498
 2461TIP3   OH2 7346   5.583   4.734   1.333  0.7728 -0.3238 -0.1211
 2461TIP3    H1 7347   5.519   4.727   1.262 -0.7675  0.0131  1.1736
 2461TIP3    H2 7348   5.627   4.817   1.318  0.4297 -0.2397 -0.6760
 2462TIP3   OH2 7349   0.362   0.161   0.552 -0.4054 -0.0862 -0.0116
 2462TIP3    H1 7350   0.339   0.070   0.533  1.2520 -0.3377 -0.9685
 2462TIP3    H2 7351   0.424   0.155   0.624  1.6673  0.0279 -1.6875
 2463TIP3   OH2 7352   3.317   6.798   1.552 -0.1689 -0.1992 -0.0889
 2463TIP3    H1 7353   3.268   6.809   1.470 -2.4524  1.1124  1.3488
 2463TIP3    H2 7354   3.303   6.706   1.577 -0.7436 -0.1990 -0.4026
 2464TIP3   OH2 7355   5.010   3.080   2.982 -0.6206  0.0194  0.2904
 2464TIP3    H1 7356   5.067   3.043   2.915  1.6960  1.2856  1.4586
 2464TIP3    H2 7357   5.066   3.091   3.059 -2.2313  2.0371  1.2872
 2465TIP3   OH2 7358   1.720   4.392   1.699 -0.3286  0.2635 -0.2154
 2465TIP3    H1 7359   1.740   4.353   1.613 -0.0645 -0.8645  0.3431
 2465TIP3    H2 7360   1.740   4.323   1.762 -0.3466  1.1442  0.7787
 2466TIP3   OH2 7361   0.826   0.450   5.369 -0.1245  0.0725  0.6622
 2466TIP3    H1 7362   0.820   0.393   5.446  1.9383  3.2500  3.5019
 2466TIP3    H2 7363   0.736   0.456   5.337 -1.1550 -1.1246  3.0604
 2467TIP3   OH2 7364   6.479   1.146   0.729 -0.2390 -0.1120  0.0785
 2467TIP3    H1 7365   6.438   1.061   0.714  0.7657 -0.4470 -0.9672
 2467TIP3    H2 7366   6.535   1.159   0.653 -1.4154  2.1494 -0.4772
 2468TIP3   OH2 7367   5.615   4.078   0.300 -0.0327  0.2175 -0.1577
 2468TIP3    H1 7368   5.670   4.040   0.232  0.9341 -1.1741  1.3124
 2468TIP3    H2 7369   5.579   4.157   0.261  1.4865  0.1428 -1.8423
 2469TIP3   OH2 7370   6.762   0.561   0.398 -0.0648  0.9871  0.4832
 2469TIP3    H1 7371   6.770   0.653   0.375  1.1645  0.9484  0.6796
 2469TIP3    H2 7372   6.760   0.561   0.494 -0.9143  0.8626  0.4692
 2470TIP3   OH2 7373   3.014   2.098   5.159 -0.1862  0.0368 -0.2184
 2470TIP3    H1 7374   3.072   2.134   5.225 -0.3432  1.0615 -0.6142
 2470TIP3    H2 7375   3.055   2.121   5.076 -0.4325 -0.4720 -0.4833
 2471TIP3   OH2 7376   1.064   1.652   5.283 -0.6484  0.6116  1.0481
 2471TIP3    H1 7377   1.110   1.606   5.213 -0.1110 -0.0949  1.8349
 2471TIP3    H2 7378   0.971   1.644   5.262 -0.5664 -0.8140  1.1300
 2472TIP3   OH2 7379   6.987   3.440   0.604 -0.0236 -0.8813 -0.1164
 2472TIP3    H1 7380   6.929   3.444   0.528  0.8391  1.6320 -0.7390
 2472TIP3    H2 7381   6.997   3.346   0.622 -2.5122 -1.4575 -1.2940
 2473TIP3   OH2 7382   5.010   0.656   3.283 -0.3081 -0.5463  0.1712
 2473TIP3    H1 7383   5.086   0.657   3.225 -0.4282  1.6999 -0.0310
 2473TIP3    H2 7384   4.952   0.723   3.247 -0.3464  1.0183  2.9280
 2474TIP3   OH2 7385   4.409   5.372   3.371 -0.5730  0.3935 -0.6918
 2474TIP3    H1 7386   4.485   5.346   3.424  0.3960  2.7277 -0.8051
 2474TIP3    H2 7387   4.346   5.406   3.434 -0.1631  1.4952 -0.8671
 2475TIP3   OH2 7388   4.084   3.842   0.217  0.2855 -0.1315  0.4402
 2475TIP3    H1 7389   4.163   3.789   0.223  0.5156 -0.0957 -1.5923
 2475TIP3    H2 7390   4.023   3.803   0.280  0.2348 -3.1970 -1.3201
 2476TIP3   OH2 7391   3.988   5.508   0.903  0.1370 -0.6057 -0.1177
 2476TIP3    H1 7392   3.997   5.601   0.884  0.6033 -0.6262 -0.0132
 2476TIP3    H2 7393   4.060   5.489   0.964  0.5564 -1.2115 -0.7944
 2477TIP3   OH2 7394   3.954   2.574   5.698 -0.5195  0.4878 -0.8655
 2477TIP3    H1 7395   4.011   2.642   5.734 -0.3201  0.1991 -0.6300
 2477TIP3    H2 7396   3.977   2.570   5.605  0.7704 -0.5045 -0.5378
 2478TIP3   OH2 7397   2.547   5.319   2.559 -0.4031  0.2143  0.2996
 2478TIP3    H1 7398   2.555   5.299   2.465 -1.2605 -2.3720  0.6941
 2478TIP3    H2 7399   2.600   5.397   2.571  0.0689  0.3910 -2.2692
 2479TIP3   OH2 7400   6.984   6.449   4.768  0.1058  0.2040 -0.3971
 2479TIP3    H1 7401   6.917   6.496   4.720 -1.7661 -0.2807  1.5924
 2479TIP3    H2 7402   6.956   6.358   4.765  0.4684  0.0420  0.7484
 2480TIP3   OH2 7403   0.018   0.686   1.991  0.6539  0.5112  0.2498
 2480TIP3    H1 7404   0.081   0.744   2.033  0.3599  0.4326  0.8037
 2480TIP3    H2 7405  -0.067   0.716   2.022  0.5656 -1.1709  1.8135
 2481TIP3   OH2 7406   3.205   3.239   2.937  0.2243  0.1956 -0.2099
 2481TIP3    H1 7407   3.173   3.329   2.924 -1.4628 -0.3723 -0.1665
 2481TIP3    H2 7408   3.151   3.204   3.007  0.8197 -0.8925 -0.2703
 2482TIP3   OH2 7409   2.441   2.778   1.583  0.2144  0.7642 -0.4536
 2482TIP3    H1 7410   2.442   2.859   1.635  1.1529  0.2169  0.4033
 2482TIP3    H2 7411   2.355   2.740   1.600  0.5644  0.5171  0.8308
 2483TIP3   OH2 7412   6.802   3.043   4.924 -0.7838  0.7647 -0.6499
 2483TIP3    H1 7413   6.849   3.126   4.925  0.3570  0.1434 -1.2305
 2483TIP3    H2 7414   6.826   3.002   4.841 -0.0368 -0.8670  0.3259
 2484TIP3   OH2 7415   1.610   4.014   2.387 -0.0550  0.3054 -0.3753
 2484TIP3    H1 7416   1.633   3.962   2.464 -0.3728 -0.0687 -0.5318
 2484TIP3    H2 7417   1.633   3.958   2.312  1.9056  1.3224 -0.6125
 2485TIP3   OH2 7418   6.520   1.974   3.214 -1.1410 -0.1343 -0.6731
 2485TIP3    H1 7419   6.515   2.066   3.237 -0.6320  0.0842 -1.3898
 2485TIP3    H2 7420   6.509   1.972   3.119  0.7501 -0.6150 -0.9339
 2486TIP3   OH2 7421   6.421   4.544   3.852 -0.0274 -0.3812  0.0796
 2486TIP3    H1 7422   6.516   4.538   3.847  0.0648  0.2426  0.8942
 2486TIP3    H2 7423   6.402   4.545   3.946 -0.8029  0.0248 -0.0748
 2487TIP3   OH2 7424   3.087   4.272   0.345 -0.1149  0.5924  0.3463
 2487TIP3    H1 7425   3.071   4.201   0.282 -1.9459 -1.2181  2.6806
 2487TIP3    H2 7426   3.139   4.335   0.296 -1.6532 -0.5384 -3.0817
 2488TIP3   OH2 7427   6.207   6.733   1.457  0.0075  0.0949  0.1331
 2488TIP3    H1 7428   6.206   6.828   1.454  0.8198  0.0916 -0.8434
 2488TIP3    H2 7429   6.165   6.706   1.376  2.0028 -0.3334 -0.8142
 2489TIP3   OH2 7430   2.614   3.952   1.888  0.1068 -0.8776  0.5488
 2489TIP3    H1 7431   2.526   3.978   1.916 -0.1487 -0.0160 -0.9343
 2489TIP3    H2 7432   2.658   4.035   1.870  2.9357 -0.8284  5.6930
 2490TIP3   OH2 7433   5.445   2.270   3.189 -0.4674 -0.0032  0.0450
 2490TIP3    H1 7434   5.494   2.284   3.270 -0.4413  1.9652 -0.2576
 2490TIP3    H2 7435   5.389   2.195   3.208 -1.1825  1.0001  2.2774
 2491TIP3   OH2 7436   4.861   1.515   0.527  0.0618 -0.0313 -0.0158
 2491TIP3    H1 7437   4.919   1.575   0.575  0.2614 -0.8240  0.7515
 2491TIP3    H2 7438   4.854   1.553   0.440  2.2309 -0.2226 -0.3157
 2492TIP3   OH2 7439   2.001   2.485   4.926  0.1328  0.3369  0.1884
 2492TIP3    H1 7440   2.096   2.485   4.937  0.0729 -0.6685  0.7153
 2492TIP3    H2 7441   1.981   2.575   4.898  1.3327  0.3189 -0.8089
 2493TIP3   OH2 7442   0.296   6.219   3.109 -0.1530 -0.7480 -0.8818
 2493TIP3    H1 7443   0.249   6.183   3.184  0.7839 -0.0545  0.0767
 2493TIP3    H2 7444   0.251   6.183   3.033 -1.2132 -1.3711  0.0048
 2494TIP3   OH2 7445   5.589   3.223   5.263 -0.2526 -0.4140 -0.4247
 2494TIP3    H1 7446   5.523   3.225   5.332 -0.4163 -0.7147 -0.5681
 2494TIP3    H2 7447   5.669   3.256   5.304 -0.0465 -1.6784  0.2511
 2495TIP3   OH2 7448   0.978   1.444   2.471  0.0960 -0.0365 -0.0541
 2495TIP3    H1 7449   1.070   1.454   2.495  0.1846  0.1161 -0.4549
 2495TIP3    H2 7450   0.930   1.463   2.552  0.3672  1.1668 -0.1543
 2496TIP3   OH2 7451   1.342   0.442   1.729  0.3087  0.4891  0.2692
 2496TIP3    H1 7452   1.405   0.429   1.800 -0.9417  2.0009  1.7427
 2496TIP3    H2 7453   1.365   0.527   1.691 -1.0300  1.2579  1.1012
 2497TIP3   OH2 7454   5.270   6.095   3.045 -0.1522  0.2545 -0.7365
 2497TIP3    H1 7455   5.361   6.068   3.050  0.5999  2.7611  1.4653
 2497TIP3    H2 7456   5.274   6.188   3.021 -2.2122  0.2093 -1.4910
 2498TIP3   OH2 7457   4.846   0.670   5.328  0.5711  0.1380  0.9957
 2498TIP3    H1 7458   4.938   0.670   5.303  0.4879 -1.8183  0.4873
 2498TIP3    H2 7459   4.805   0.735   5.272  1.4399  0.1223  0.3310
 2499TIP3   OH2 7460   2.517   4.646   2.259 -0.8261  0.0046 -0.4602
 2499TIP3    H1 7461   2.461   4.711   2.302 -1.1791  0.0324 -0.9548
 2499TIP3    H2 7462   2.499   4.657   2.166  0.7504  0.6932 -0.7055
 2500TIP3   OH2 7463   1.492   3.198   1.975  0.7281 -0.4097 -0.1620
 2500TIP3    H1 7464   1.483   3.292   1.965  2.9826 -0.2609 -1.4051
 2500TIP3    H2 7465   1.469   3.163   1.889 -0.1168 -1.0396  0.2959
 2501TIP3   OH2 7466   0.110   4.769   1.908  0.4856  0.6803  0.6596
 2501TIP3    H1 7467   0.046   4.820   1.859 -0.5175 -0.0863  1.1413
 2501TIP3    H2 7468   0.170   4.835   1.944  2.4335  1.2083 -3.0721
 2502TIP3   OH2 7469   6.060   3.424   4.445 -0.0902 -0.3488 -0.1753
 2502TIP3    H1 7470   6.108   3.503   4.468 -0.5695 -0.2249  0.4149
 2502TIP3    H2 7471   5.972   3.438   4.480 -0.8789 -0.1417 -2.0973
 2503TIP3   OH2 7472   4.869   3.414   5.158 -0.3294 -0.4483 -0.2974
 2503TIP3    H1 7473   4.905   3.369   5.235 -0.8750  0.1230  0.3048
 2503TIP3    H2 7474   4.790   3.456   5.190 -0.9885 -0.8359 -1.3605
 2504TIP3   OH2 7475   4.655   2.385   1.370 -0.0084 -0.5198  0.6847
 2504TIP3    H1 7476   4.573   2.376   1.420  0.0888  1.4423  1.3050
 2504TIP3    H2 7477   4.661   2.305   1.319 -2.9335 -0.2565 -0.2567
 2505TIP3   OH2 7478   4.481   6.570   2.413  0.3013  0.1368  0.6509
 2505TIP3    H1 7479   4.460   6.582   2.320 -3.1892  1.3317  1.4307
 2505TIP3    H2 7480   4.516   6.655   2.440  1.2768 -0.1981  0.4833
 2506TIP3   OH2 7481   2.434   5.578   4.068  0.3609 -0.3334 -0.2126
 2506TIP3    H1 7482   2.351   5.623   4.048  0.8427  0.7640  0.1907
 2506TIP3    H2 7483   2.497   5.617   4.008  0.2785 -2.4282 -1.7984
 2507TIP3   OH2 7484   2.999   2.140   1.729  0.4063  0.2257  0.2433
 2507TIP3    H1 7485   2.936   2.152   1.657  1.0200  2.7042  0.0084
 2507TIP3    H2 7486   2.946   2.147   1.808 -0.0469 -0.9599  0.0691
 2508TIP3   OH2 7487   5.066   6.759   5.265 -0.1994 -0.3903 -0.9234
 2508TIP3    H1 7488   5.084   6.844   5.226 -0.9092  0.8334  1.2510
 2508TIP3    H2 7489   5.087   6.770   5.358 -2.7684 -1.7805 -0.0775
 2509TIP3   OH2 7490   6.732   0.947   4.819  0.1029 -0.1817  0.0455
 2509TIP3    H1 7491   6.822   0.940   4.853  1.4158 -0.6660 -3.1496
 2509TIP3    H2 7492   6.699   0.857   4.821 -0.0468 -0.1154  0.5787
 2510TIP3   OH2 7493   5.725   5.573   5.612  0.7286 -0.9031 -0.8386
 2510TIP3    H1 7494   5.810   5.529   5.603  0.4952 -1.3505 -0.8949
 2510TIP3    H2 7495   5.707   5.571   5.706  1.0622 -0.2621 -0.7575
 2511TIP3   OH2 7496   4.466   4.112   2.807 -0.1625 -0.1689 -0.4690
 2511TIP3    H1 7497   4.492   4.184   2.749 -0.2568 -1.2112 -1.8522
 2511TIP3    H2 7498   4.472   4.149   2.895 -1.1048  1.8178 -1.1787
 2512TIP3   OH2 7499   4.195   5.415   4.225  1.0424 -0.3715 -0.0956
 2512TIP3    H1 7500   4.146   5.371   4.294  2.6082  0.0439  1.3287
 2512TIP3    H2 7501   4.244   5.345   4.182  2.1124 -0.3023  0.9709
 2513TIP3   OH2 7502   6.473   2.179   3.827  0.0815  0.3176 -0.5966
 2513TIP3    H1 7503   6.383   2.203   3.804  0.1372  0.6660 -0.4547
 2513TIP3    H2 7504   6.466   2.090   3.863 -0.4806  1.0701  1.2362
 2514TIP3   OH2 7505   4.793   6.519   2.434  0.0277  0.1142 -0.0473
 2514TIP3    H1 7506   4.741   6.470   2.370  0.3899  1.3558 -1.3460
 2514TIP3    H2 7507   4.774   6.611   2.415  0.7357  0.5323  1.1543
 2515TIP3   OH2 7508   3.662   3.464   2.661 -0.0095  0.3460  0.2144
 2515TIP3    H1 7509   3.621   3.512   2.588  0.8410 -1.8377 -1.8325
 2515TIP3    H2 7510   3.720   3.528   2.702  0.0766  1.4675 -1.5299
 2516TIP3   OH2 7511   6.890   5.732   2.911 -0.1750 -0.0643  0.2067
 2516TIP3    H1 7512   6.929   5.783   2.840 -0.0946 -0.0589  0.2535
 2516TIP3    H2 7513   6.920   5.642   2.894 -0.4145 -0.1158  0.0577
 2517TIP3   OH2 7514   2.569   1.468   5.187 -0.2713 -0.6208  0.5736
 2517TIP3    H1 7515   2.647   1.450   5.135 -1.2031 -0.5990 -0.8813
 2517TIP3    H2 7516   2.581   1.415   5.266  1.2738 -0.4868  0.4698
 2518TIP3   OH2 7517   2.644   4.961   2.662 -0.0989 -0.2888  0.2086
 2518TIP3    H1 7518   2.718   4.923   2.710  0.9736  2.8761  1.3605
 2518TIP3    H2 7519   2.685   5.013   2.593 -1.4366 -0.7208 -0.9490
 2519TIP3   OH2 7520   5.579   3.507   0.863  0.1237  0.3712 -0.3040
 2519TIP3    H1 7521   5.500   3.464   0.831  0.5314 -0.4229 -0.2911
 2519TIP3    H2 7522   5.622   3.441   0.917  2.2527 -0.3365 -2.6086
 2520TIP3   OH2 7523   6.349   1.464   0.195 -0.3377  0.2146 -0.3621
 2520TIP3    H1 7524   6.435   1.424   0.185 -0.2400  0.8434 -2.6029
 2520TIP3    H2 7525   6.311   1.421   0.271  1.6156 -0.6768  0.1720
 2521TIP3   OH2 7526   5.604   3.281   1.289 -0.0143 -0.0045  1.0511
 2521TIP3    H1 7527   5.610   3.187   1.310  0.1847 -0.5503 -1.1751
 2521TIP3    H2 7528   5.523   3.310   1.331 -1.2120 -1.7000  0.0494
 2522TIP3   OH2 7529   1.293   5.721   2.302 -0.3827 -0.0181 -0.0087
 2522TIP3    H1 7530   1.319   5.651   2.243 -0.3132 -0.8202  0.9394
 2522TIP3    H2 7531   1.199   5.731   2.288 -0.4825 -0.6459  0.1842
 2523TIP3   OH2 7532   4.330   1.644   4.674 -0.0102 -0.4054  0.8275
 2523TIP3    H1 7533   4.396   1.576   4.668 -0.7390 -1.1035  0.6084
 2523TIP3    H2 7534   4.356   1.708   4.608  1.0230 -0.1480  1.4573
 2524TIP3   OH2 7535   1.370   3.750   1.871  0.2808  0.1278  0.4389
 2524TIP3    H1 7536   1.386   3.826   1.815 -2.2750  2.0000  2.0181
 2524TIP3    H2 7537   1.336   3.787   1.952  0.1114 -2.6782  1.7550
 2525TIP3   OH2 7538   4.243   5.803   1.565  0.2641  0.0976 -0.3994
 2525TIP3    H1 7539   4.211   5.879   1.516 -1.9957  0.9826  2.1897
 2525TIP3    H2 7540   4.168   5.744   1.569  1.3529 -1.3587 -0.5609
 2526TIP3   OH2 7541   7.027   0.068   3.667  0.1603  0.0919  0.5447
 2526TIP3    H1 7542   7.085   0.024   3.729  0.2802  0.3009  0.5834
 2526TIP3    H2 7543   6.941   0.030   3.682 -0.1965  1.4111  2.1119
 2527TIP3   OH2 7544   2.521   0.356   3.766 -0.5959  0.5288  0.4844
 2527TIP3    H1 7545   2.502   0.262   3.760 -2.0139  0.8585 -0.5723
 2527TIP3    H2 7546   2.557   0.379   3.681 -1.2864  1.1641  0.3629
 2528TIP3   OH2 7547   3.243   0.711   4.317  0.2771 -0.6608  0.1221
 2528TIP3    H1 7548   3.249   0.628   4.364 -0.4123 -0.1525  1.1454
 2528TIP3    H2 7549   3.149   0.730   4.314  0.5025  0.7237  1.0865
 2529TIP3   OH2 7550   7.070   0.367   3.648 -0.1474  0.2352 -0.3501
 2529TIP3    H1 7551   7.057   0.306   3.721 -0.4097  1.6121  0.7800
 2529TIP3    H2 7552   7.161   0.355   3.622 -0.3373 -1.0126 -0.5167
 2530TIP3   OH2 7553   6.516   6.731   1.707 -0.4663 -0.0815 -0.4105
 2530TIP3    H1 7554   6.432   6.691   1.731 -1.5050  1.9099 -0.4417
 2530TIP3    H2 7555   6.492   6.801   1.646  1.3876 -0.3790 -1.5393
 2531TIP3   OH2 7556   4.973   1.180   5.590 -0.0454  0.4246 -0.0489
 2531TIP3    H1 7557   4.992   1.141   5.675  0.3009  2.4840  0.8928
 2531TIP3    H2 7558   5.058   1.183   5.545  0.4721  2.3932  0.9502
 2532TIP3   OH2 7559   4.762   4.336   5.039 -0.0967  0.0511 -0.0488
 2532TIP3    H1 7560   4.784   4.253   5.081  1.5266  0.4939  0.0430
 2532TIP3    H2 7561   4.700   4.312   4.970 -2.1720 -0.7915  1.9873
 2533TIP3   OH2 7562   6.187   3.213   5.532  0.2097  0.6043  0.0383
 2533TIP3    H1 7563   6.255   3.168   5.583  0.2839 -0.2336 -0.7712
 2533TIP3    H2 7564   6.108   3.161   5.547 -0.0057  0.9533  0.1173
 2534TIP3   OH2 7565   0.245   6.774   5.308  0.0161  0.5115 -0.1608
 2534TIP3    H1 7566   0.207   6.739   5.226 -1.0057  1.0572  0.0563
 2534TIP3    H2 7567   0.331   6.733   5.314 -0.5413 -0.8160 -0.6763
 2535TIP3   OH2 7568   5.227   2.785   1.435  0.4142 -0.0030 -0.0966
 2535TIP3    H1 7569   5.236   2.717   1.368 -0.3413 -0.3951  0.1945
 2535TIP3    H2 7570   5.290   2.852   1.409 -0.3674  0.1887 -1.6233
 2536TIP3   OH2 7571   4.258   4.986   0.752  0.5970  0.1926  0.2233
 2536TIP3    H1 7572   4.339   5.031   0.725  0.9968 -0.4847  0.2658
 2536TIP3    H2 7573   4.249   4.914   0.689 -0.6852  1.0206 -0.5897
 2537TIP3   OH2 7574   6.034   3.704   3.981  0.2614  0.3495  0.1245
 2537TIP3    H1 7575   6.125   3.716   4.005  0.2972 -0.6069  0.5157
 2537TIP3    H2 7576   6.036   3.646   3.905 -0.0247  0.2262  0.2076
 2538TIP3   OH2 7577   3.388   5.281   2.625 -0.1175 -0.5327  0.3147
 2538TIP3    H1 7578   3.360   5.367   2.593  1.8174  0.1155  0.2005
 2538TIP3    H2 7579   3.307   5.236   2.647 -1.2035  1.3278  0.3813
 2539TIP3   OH2 7580   2.860   2.386   1.208  0.1326  0.3530 -0.4014
 2539TIP3    H1 7581   2.809   2.423   1.137  0.5366  1.3970 -0.1640
 2539TIP3    H2 7582   2.945   2.430   1.202 -0.0903  1.0493  1.2115
 2540TIP3   OH2 7583   5.869   3.794   5.077  0.2912  0.2248  0.6027
 2540TIP3    H1 7584   5.964   3.810   5.074  0.1344  1.3210  1.0619
 2540TIP3    H2 7585   5.861   3.702   5.102  1.2289  0.4443  1.7834
 2541TIP3   OH2 7586   4.384   2.895   4.392 -0.2245  0.4112 -0.3930
 2541TIP3    H1 7587   4.467   2.855   4.416 -1.5757 -1.3800  1.7966
 2541TIP3    H2 7588   4.340   2.911   4.476 -2.0980  1.2488 -1.4658
 2542TIP3   OH2 7589   5.125   5.991   3.462 -0.0722  0.0444  0.3207
 2542TIP3    H1 7590   5.055   6.010   3.525  0.9079  0.2611  1.3830
 2542TIP3    H2 7591   5.086   6.007   3.377 -1.2871  0.2649  0.9006
 2543TIP3   OH2 7592   4.217   5.175   3.280 -0.2381 -0.5293 -0.1109
 2543TIP3    H1 7593   4.258   5.261   3.282 -0.1000 -0.6113  0.9573
 2543TIP3    H2 7594   4.288   5.115   3.256 -0.4277 -0.3092 -1.2749
 2544TIP3   OH2 7595   1.159   3.909   3.055 -0.0238  0.3819  0.1395
 2544TIP3    H1 7596   1.221   3.977   3.030  0.7145 -0.3235  0.0208
 2544TIP3    H2 7597   1.190   3.877   3.139  0.6013 -0.9415 -0.5766
 2545TIP3   OH2 7598   3.112   2.386   1.790  0.4805 -0.2667  0.2427
 2545TIP3    H1 7599   3.101   2.291   1.789 -1.8777 -0.1077  1.6983
 2545TIP3    H2 7600   3.040   2.419   1.736  0.2250  0.7085  1.1468
 2546TIP3   OH2 7601   2.336   1.914   4.435  0.1310 -0.3704 -0.3378
 2546TIP3    H1 7602   2.326   2.008   4.450 -0.1822 -0.2925 -0.9795
 2546TIP3    H2 7603   2.355   1.906   4.342  0.7767 -0.9078 -0.1664
 2547TIP3   OH2 7604   5.410   1.854   0.541  0.2002 -0.4999 -0.3455
 2547TIP3    H1 7605   5.379   1.906   0.616 -0.4234 -3.1994  1.4107
 2547TIP3    H2 7606   5.330   1.824   0.498  0.5021 -1.2188 -0.4164
 2548TIP3   OH2 7607   4.840   3.701   3.149 -0.4840  0.5862  0.3586
 2548TIP3    H1 7608   4.818   3.783   3.194 -1.2597  0.9946 -0.7375
 2548TIP3    H2 7609   4.758   3.652   3.147  0.2585 -0.8745  2.2377
 2549TIP3   OH2 7610  -0.004   1.552   4.921 -0.4067 -0.6234  0.1144
 2549TIP3    H1 7611  -0.015   1.626   4.980  0.1772 -1.4720  1.3204
 2549TIP3    H2 7612   0.081   1.566   4.880  0.2663 -1.2230  1.2555
 2550TIP3   OH2 7613   1.022   1.098   3.624  0.1552  0.0552 -0.1899
 2550TIP3    H1 7614   0.968   1.037   3.674 -0.8482  0.2360 -1.0292
 2550TIP3    H2 7615   1.028   1.176   3.680 -2.3466  0.9029 -0.9845
 2551TIP3   OH2 7616   6.394  -0.006   3.581 -0.1018 -0.4304 -0.4217
 2551TIP3    H1 7617   6.481   0.015   3.616  0.1627 -0.8717 -0.7963
 2551TIP3    H2 7618   6.367   0.074   3.536 -0.1697 -0.0752  0.2397
 2552TIP3   OH2 7619   7.033   0.754   1.727  0.3286 -0.0789 -0.3993
 2552TIP3    H1 7620   7.039   0.691   1.656  1.9509 -0.7155  0.2531
 2552TIP3    H2 7621   7.106   0.814   1.713 -0.6421  1.1378 -0.4828
 2553TIP3   OH2 7622   4.133   1.450   1.969 -0.7139  0.8188  0.0390
 2553TIP3    H1 7623   4.082   1.415   1.896  0.1320  0.3939 -0.3596
 2553TIP3    H2 7624   4.223   1.455   1.936 -0.5304  1.8479  0.6206
 2554TIP3   OH2 7625   6.857   2.308   1.014 -0.0674  0.5356 -0.1535
 2554TIP3    H1 7626   6.791   2.357   1.063 -0.3131 -0.1263  0.1801
 2554TIP3    H2 7627   6.828   2.313   0.923 -1.9580 -1.8146  0.2309
 2555TIP3   OH2 7628   6.356   1.911   0.774 -0.2521  0.3708  0.1817
 2555TIP3    H1 7629   6.285   1.933   0.834 -0.8363 -2.0913  0.4643
 2555TIP3    H2 7630   6.348   1.817   0.759  0.3274  0.7473 -3.1896
 2556TIP3   OH2 7631   5.719   3.296   5.832  0.0681 -0.2891  0.1613
 2556TIP3    H1 7632   5.750   3.332   5.915 -0.7220  0.1449  0.2841
 2556TIP3    H2 7633   5.632   3.261   5.853 -0.4505  0.4762 -0.6236
 2557TIP3   OH2 7634   1.341   3.164   1.393 -0.3578 -0.1054  0.4524
 2557TIP3    H1 7635   1.407   3.233   1.396 -0.6615  0.2163 -0.1257
 2557TIP3    H2 7636   1.275   3.197   1.332 -1.0034 -0.4695  0.9517
 2558TIP3   OH2 7637   6.446   2.512   4.512  0.2776 -0.2242 -0.3048
 2558TIP3    H1 7638   6.538   2.493   4.531  0.3927  0.5439 -0.0739
 2558TIP3    H2 7639   6.404   2.517   4.598  0.4598  1.5885 -0.3001
 2559TIP3   OH2 7640   3.797   4.005   2.660  0.1175  0.1581  0.0656
 2559TIP3    H1 7641   3.872   3.986   2.605  0.2403 -0.5942  0.4902
 2559TIP3    H2 7642   3.780   4.099   2.646  1.7034  0.5591  0.6799
 2560TIP3   OH2 7643   3.573   4.835   3.031  0.0905 -0.3512 -0.0331
 2560TIP3    H1 7644   3.601   4.853   3.121 -1.3024  0.1545  0.3229
 2560TIP3    H2 7645   3.634   4.768   3.000  1.5814  0.5860  0.7333
 2561TIP3   OH2 7646   3.185   2.170   1.471  0.0861 -0.1677 -0.3691
 2561TIP3    H1 7647   3.098   2.164   1.510  0.0050 -0.8210 -0.6522
 2561TIP3    H2 7648   3.169   2.189   1.379  0.2170 -1.3208 -0.6322
 2562TIP3   OH2 7649   4.194   0.861   4.034  0.2368 -0.1523  0.1881
 2562TIP3    H1 7650   4.176   0.940   4.084 -0.2535 -0.1542  0.0216
 2562TIP3    H2 7651   4.175   0.789   4.095  0.3996 -0.1457  0.2472
 2563TIP3   OH2 7652   3.924   1.588   4.483 -0.2122 -0.3310  0.0407
 2563TIP3    H1 7653   3.856   1.529   4.449  0.8489 -1.5280 -0.0735
 2563TIP3    H2 7654   4.004   1.560   4.440  0.5560  0.3718  0.9680
 2564TIP3   OH2 7655   3.907   1.581   0.185  0.0291  0.2989 -0.1901
 2564TIP3    H1 7656   3.884   1.514   0.121  1.3172 -0.5410  0.1868
 2564TIP3    H2 7657   3.995   1.558   0.214 -0.5234  0.5922  1.9461
 2565TIP3   OH2 7658   2.241   5.189   5.377  0.2374  0.4504 -0.1928
 2565TIP3    H1 7659   2.161   5.210   5.329 -0.7072 -0.9902  0.6682
 2565TIP3    H2 7660   2.243   5.093   5.379  1.8833  0.4674 -0.0069
 2566TIP3   OH2 7661   1.097   4.775   2.738 -0.1097 -0.4627 -0.7273
 2566TIP3    H1 7662   1.005   4.765   2.763 -0.6291  0.1174 -2.3128
 2566TIP3    H2 7663   1.144   4.715   2.797 -1.2421  0.6019  1.4009
 2567TIP3   OH2 7664   2.916   0.584   2.495  0.0587  0.4685 -0.0355
 2567TIP3    H1 7665   2.833   0.537   2.501 -0.2184  1.1358  2.1943
 2567TIP3    H2 7666   2.901   0.650   2.427 -1.6405  1.2708  1.0450
 2568TIP3   OH2 7667   6.098   3.839   5.781 -0.2629 -0.2418  0.0669
 2568TIP3    H1 7668   6.059   3.830   5.694  0.9574 -2.1068 -0.3470
 2568TIP3    H2 7669   6.131   3.929   5.783 -0.1708 -0.2009 -1.4816
 2569TIP3   OH2 7670   2.869   6.087   1.023  0.3022  0.3678  0.0709
 2569TIP3    H1 7671   2.824   6.171   1.021  1.4510  0.9914 -1.0072
 2569TIP3    H2 7672   2.918   6.083   0.941  0.4307 -1.2803  0.1849
 2570TIP3   OH2 7673   3.042   5.888   3.304  0.3714 -0.7390 -0.2371
 2570TIP3    H1 7674   2.964   5.900   3.250 -0.0382  0.5817  0.5848
 2570TIP3    H2 7675   3.113   5.877   3.242 -0.5465 -2.7348 -1.0059
 2571TIP3   OH2 7676   1.931   0.803   5.108  0.2549 -0.4863 -0.3763
 2571TIP3    H1 7677   1.935   0.802   5.204 -0.3591 -1.6007 -0.3416
 2571TIP3    H2 7678   1.984   0.878   5.083 -0.0257  0.1727  0.8627
 2572TIP3   OH2 7679   5.131   5.052   5.240  0.0284  0.0910  0.4764
 2572TIP3    H1 7680   5.206   5.112   5.243 -1.1802  1.9614 -2.6428
 2572TIP3    H2 7681   5.061   5.097   5.286 -0.7085  0.9269 -1.3637
 2573TIP3   OH2 7682   2.628   5.696   1.156  0.1433 -0.6220  0.3696
 2573TIP3    H1 7683   2.545   5.717   1.115  0.0871 -1.5343 -0.0072
 2573TIP3    H2 7684   2.694   5.718   1.091  0.1927  0.0149  0.6336
 2574TIP3   OH2 7685   5.532   1.959   3.312 -0.3104  0.0845 -0.2130
 2574TIP3    H1 7686   5.566   1.872   3.335 -2.5092 -1.1987 -1.5125
 2574TIP3    H2 7687   5.465   1.976   3.378  0.3860  1.0194  0.2741
 2575TIP3   OH2 7688   2.428   0.532   0.714  0.1387  0.3344  0.1827
 2575TIP3    H1 7689   2.358   0.526   0.780  0.0644 -2.7764 -0.0739
 2575TIP3    H2 7690   2.384   0.564   0.636 -0.9021 -0.9866  0.2033
 2576TIP3   OH2 7691   5.341   0.607   0.412 -0.7152 -0.4301 -0.1514
 2576TIP3    H1 7692   5.309   0.695   0.392  0.1976 -0.5578 -2.5672
 2576TIP3    H2 7693   5.274   0.549   0.377 -0.7930 -0.6848  0.4290
 2577TIP3   OH2 7694   1.876   2.602   2.238  0.5905 -0.1667 -0.4502
 2577TIP3    H1 7695   1.917   2.687   2.255  0.2189  0.0116 -0.4277
 2577TIP3    H2 7696   1.827   2.615   2.157 -0.5412  0.0386  0.2371
 2578TIP3   OH2 7697   1.770   5.467   1.406 -0.3170 -0.4572 -0.0752
 2578TIP3    H1 7698   1.793   5.450   1.315 -0.7283 -3.0107  0.2422
 2578TIP3    H2 7699   1.680   5.498   1.403 -0.6566 -1.4530 -0.4939
 2579TIP3   OH2 7700   5.902   6.343   5.844  0.0134  0.5240 -0.1532
 2579TIP3    H1 7701   5.954   6.415   5.879  2.3816 -1.8474  1.6066
 2579TIP3    H2 7702   5.815   6.356   5.883  0.7299  1.7215  1.1591
 2580TIP3   OH2 7703   6.967   1.682   3.747  0.1751  0.3273  0.3256
 2580TIP3    H1 7704   7.035   1.618   3.766  0.0678 -0.1025 -0.6894
 2580TIP3    H2 7705   7.011   1.750   3.695 -0.1335  0.0927 -0.2560
 2581TIP3   OH2 7706   1.421   4.998   4.004 -0.4349  0.5707  0.7246
 2581TIP3    H1 7707   1.513   4.973   4.000 -0.5974 -0.1574  1.2475
 2581TIP3    H2 7708   1.389   4.986   3.915 -0.0428  0.7494  0.5567
 2582TIP3   OH2 7709   6.514   1.008   2.319  0.4539 -0.1425  0.5167
 2582TIP3    H1 7710   6.519   1.089   2.269 -0.1037 -0.4527 -0.0520
 2582TIP3    H2 7711   6.571   0.947   2.272  0.2209 -0.3233  0.4632
 2583TIP3   OH2 7712   6.748   6.219   2.225  0.6340 -0.4372 -0.0006
 2583TIP3    H1 7713   6.656   6.206   2.246  0.0764  1.8544 -0.7142
 2583TIP3    H2 7714   6.772   6.143   2.172 -1.2007 -0.4817 -0.8197
 2584TIP3   OH2 7715   0.583   3.008   0.730 -0.2081 -0.2458 -0.0829
 2584TIP3    H1 7716   0.637   3.029   0.654 -1.0609 -2.1551 -1.3232
 2584TIP3    H2 7717   0.502   3.058   0.717 -0.9239 -1.6161 -1.2685
 2585TIP3   OH2 7718   0.960   0.689   5.213 -0.0090 -0.2685 -0.3299
 2585TIP3    H1 7719   1.024   0.690   5.142 -0.4709 -0.0545 -0.7503
 2585TIP3    H2 7720   0.938   0.597   5.226  1.6679 -0.5299  1.0072
 2586TIP3   OH2 7721   2.039   6.126   1.134  0.6329 -0.0211  0.7777
 2586TIP3    H1 7722   1.943   6.122   1.136  0.5525  1.5454  1.4833
 2586TIP3    H2 7723   2.061   6.203   1.186  2.2667 -0.0472  0.1863
 2587TIP3   OH2 7724   1.940   2.739   4.433 -0.0644 -0.5120 -0.2701
 2587TIP3    H1 7725   1.872   2.754   4.367  1.2449  1.7021 -1.2084
 2587TIP3    H2 7726   2.009   2.693   4.386  0.4994  0.2842 -0.2369
 2588TIP3   OH2 7727   6.595   5.403   4.906 -0.6015 -0.6000  0.1161
 2588TIP3    H1 7728   6.682   5.441   4.890 -1.5084  1.3614 -0.5322
 2588TIP3    H2 7729   6.571   5.434   4.993 -0.5168 -1.4430  0.4457
 2589TIP3   OH2 7730   4.059   4.501   5.824 -0.0823 -0.1940 -0.1308
 2589TIP3    H1 7731   4.058   4.416   5.868  1.1207 -0.1054  0.1021
 2589TIP3    H2 7732   3.981   4.546   5.858 -1.0624 -1.3982 -0.7024
 2590TIP3   OH2 7733   2.557   3.007   5.672  0.3042  0.1138  0.1706
 2590TIP3    H1 7734   2.577   2.931   5.727 -1.8723 -0.4118  0.3142
 2590TIP3    H2 7735   2.540   3.077   5.735 -1.2787 -0.2541  0.1978
 2591TIP3   OH2 7736   4.333   3.462   4.452  0.1050 -0.1482  0.3536
 2591TIP3    H1 7737   4.407   3.519   4.432 -1.2748  0.9552 -2.0449
 2591TIP3    H2 7738   4.307   3.487   4.541 -0.4261  3.0992 -0.5564
 2592TIP3   OH2 7739   2.095   4.317   5.556  0.7344  0.2529  0.0467
 2592TIP3    H1 7740   2.034   4.389   5.574 -0.7161 -0.9811  0.2938
 2592TIP3    H2 7741   2.038   4.241   5.539  2.1881 -0.6012 -1.2609
 2593TIP3   OH2 7742   1.375   0.381   1.186  0.2826 -0.1289 -0.0221
 2593TIP3    H1 7743   1.293   0.424   1.160  1.1645  1.1105 -0.9218
 2593TIP3    H2 7744   1.404   0.336   1.106  2.3690  2.6389 -0.9925
 2594TIP3   OH2 7745   2.889   6.217   0.531  0.4080 -0.6005  0.3975
 2594TIP3    H1 7746   2.882   6.122   0.523 -1.9336 -0.4614 -0.0851
 2594TIP3    H2 7747   2.799   6.248   0.521  1.3077  1.7952 -1.1524
 2595TIP3   OH2 7748   6.056   0.331   1.637  0.0707 -0.2268  0.5887
 2595TIP3    H1 7749   6.145   0.367   1.631  0.5378 -1.2710  0.9035
 2595TIP3    H2 7750   6.029   0.319   1.546  0.8959 -1.3600  0.4594
 2596TIP3   OH2 7751   1.969   4.220   0.354  0.3927  0.0585 -0.6754
 2596TIP3    H1 7752   2.029   4.202   0.427 -1.5682 -0.0428  1.0051
 2596TIP3    H2 7753   1.926   4.302   0.378 -1.2293 -0.6557 -1.0286
 2597TIP3   OH2 7754   2.438   2.855   3.498 -0.2391 -0.1364  0.2525
 2597TIP3    H1 7755   2.375   2.914   3.456 -0.5385 -0.8592 -0.3522
 2597TIP3    H2 7756   2.383   2.786   3.536  0.2025 -1.1302 -0.8502
 2598TIP3   OH2 7757   6.217   2.386   4.020  0.2133 -0.3216 -0.3710
 2598TIP3    H1 7758   6.241   2.420   4.106 -0.5083  0.1020 -0.3315
 2598TIP3    H2 7759   6.213   2.291   4.032 -0.0511 -0.2537  0.1165
 2599TIP3   OH2 7760   0.614   3.040   2.937  0.4875  0.0065  0.5736
 2599TIP3    H1 7761   0.688   3.098   2.952  1.3754 -0.8461 -0.3295
 2599TIP3    H2 7762   0.630   2.966   2.996 -0.5864  0.6156  1.6554
 2600TIP3   OH2 7763   6.399   2.667   2.232  0.0101  0.0678 -0.6242
 2600TIP3    H1 7764   6.327   2.730   2.232 -1.1252 -1.0136  2.8347
 2600TIP3    H2 7765   6.370   2.598   2.171 -0.8851  0.6697 -0.9031
 2601TIP3   OH2 7766   3.107   3.779   0.882 -0.6863  0.4280  0.4231
 2601TIP3    H1 7767   3.080   3.866   0.912 -1.5264  0.7759 -1.2104
 2601TIP3    H2 7768   3.027   3.727   0.882 -0.0785 -0.5848  2.0146
 2602TIP3   OH2 7769   3.223   4.681   0.861  0.3578  0.3373 -0.2616
 2602TIP3    H1 7770   3.128   4.689   0.867  0.0741 -2.5309  1.0130
 2602TIP3    H2 7771   3.255   4.771   0.865 -2.2327  1.3126  1.2097
 2603TIP3   OH2 7772   0.232   6.781   4.099 -0.0570 -0.1272  0.5062
 2603TIP3    H1 7773   0.137   6.785   4.104 -0.2173  1.7011 -2.2335
 2603TIP3    H2 7774   0.250   6.694   4.064 -0.7306 -0.2847  0.5398
 2604TIP3   OH2 7775   5.470   1.087   0.625  0.3596 -0.4912 -0.0243
 2604TIP3    H1 7776   5.383   1.127   0.628  0.5082  0.1011 -2.1146
 2604TIP3    H2 7777   5.471   1.027   0.699 -1.8874 -0.6215 -0.0270
 2605TIP3   OH2 7778   0.485   1.773   0.418 -0.1818 -0.1816  0.5684
 2605TIP3    H1 7779   0.523   1.818   0.493  0.9605 -0.8399  0.4023
 2605TIP3    H2 7780   0.429   1.839   0.376  0.8394  0.8474  0.7816
 2606TIP3   OH2 7781   0.961   1.493   1.888 -0.1717 -0.2963 -0.1276
 2606TIP3    H1 7782   0.948   1.463   1.798 -2.7048  0.8869 -0.2372
 2606TIP3    H2 7783   0.876   1.477   1.930  0.6974 -0.0077  1.8122
 2607TIP3   OH2 7784   4.190   3.351   3.957 -0.2034 -0.3131  0.2020
 2607TIP3    H1 7785   4.283   3.361   3.978 -0.1641  1.0208 -0.5453
 2607TIP3    H2 7786   4.164   3.273   4.006  1.1704 -0.3949  0.8724
 2608TIP3   OH2 7787   1.390   3.886   2.180  0.4102 -0.1515  0.6396
 2608TIP3    H1 7788   1.482   3.892   2.153 -0.0896 -0.3133 -1.2311
 2608TIP3    H2 7789   1.388   3.813   2.241  1.4659 -0.4427  0.3471
 2609TIP3   OH2 7790   5.285   6.476   5.591 -0.4124 -0.5102  0.1272
 2609TIP3    H1 7791   5.321   6.474   5.503  0.0597  0.4223  0.2907
 2609TIP3    H2 7792   5.253   6.387   5.606  0.1793 -0.8715 -0.7016
 2610TIP3   OH2 7793   5.924   0.566   0.822 -0.3621 -0.1693  0.3146
 2610TIP3    H1 7794   5.972   0.531   0.897  2.6223  1.2871 -0.8008
 2610TIP3    H2 7795   5.935   0.499   0.754  0.9175  0.5465 -0.2109
 2611TIP3   OH2 7796   2.738   4.411   1.513 -0.3036 -0.6400  0.0221
 2611TIP3    H1 7797   2.750   4.504   1.530 -0.9196 -0.3707 -0.9706
 2611TIP3    H2 7798   2.697   4.407   1.427  1.1649 -1.8910 -0.6646
 2612TIP3   OH2 7799   7.007   3.548   5.199 -0.2227  0.5441  0.6991
 2612TIP3    H1 7800   6.944   3.477   5.212  0.2913 -0.4844 -1.8325
 2612TIP3    H2 7801   7.086   3.518   5.245  0.0612 -0.6997 -0.5163
 2613TIP3   OH2 7802   3.004   1.970   2.114  0.0600 -0.4271 -0.0282
 2613TIP3    H1 7803   2.960   2.049   2.084 -0.1721 -0.3126  0.5995
 2613TIP3    H2 7804   2.986   1.905   2.046 -2.1015 -0.7287  0.7490
 2614TIP3   OH2 7805   6.185   1.153   4.584  0.4263  0.0330  0.2558
 2614TIP3    H1 7806   6.156   1.074   4.539 -0.7100  1.3219 -1.3982
 2614TIP3    H2 7807   6.279   1.158   4.566  0.1995 -0.0811 -1.0514
 2615TIP3   OH2 7808   3.835   4.052   3.029 -0.2214  0.1805  0.6170
 2615TIP3    H1 7809   3.907   4.075   3.088  1.7559 -0.2663 -1.4692
 2615TIP3    H2 7810   3.834   3.957   3.029 -0.4780  0.1826  0.2343
 2616TIP3   OH2 7811   7.115   4.903   5.550  0.0826  0.0525 -0.2083
 2616TIP3    H1 7812   7.063   4.948   5.616  3.7377  1.7868  1.8221
 2616TIP3    H2 7813   7.097   4.810   5.565 -0.5485  0.4816  2.0753
 2617TIP3   OH2 7814   0.415   0.497   1.373  0.1362 -0.1619  0.1643
 2617TIP3    H1 7815   0.324   0.494   1.341  0.3403  0.4447 -0.4946
 2617TIP3    H2 7816   0.409   0.543   1.457 -0.0768  0.5583 -0.2355
 2618TIP3   OH2 7817   0.985   1.151   5.210  0.0568  0.3475 -0.0617
 2618TIP3    H1 7818   1.056   1.087   5.216 -0.0573  0.1053 -1.1001
 2618TIP3    H2 7819   0.908   1.104   5.241  0.2413  0.4406  0.5498
 2619TIP3   OH2 7820   3.316   1.741   4.830 -0.2114 -0.1691  0.4141
 2619TIP3    H1 7821   3.311   1.777   4.742  1.4784 -1.5290 -0.2840
 2619TIP3    H2 7822   3.265   1.660   4.826  1.9362 -1.5888 -0.1135
 2620TIP3   OH2 7823   4.501   2.564   3.363 -0.3183 -0.4832  0.0620
 2620TIP3    H1 7824   4.446   2.506   3.310  0.1200 -0.6713 -0.1913
 2620TIP3    H2 7825   4.447   2.584   3.440 -1.0879  0.0649 -0.6094
 2621TIP3   OH2 7826   0.348   4.373   1.010 -0.1864  0.1029 -0.6872
 2621TIP3    H1 7827   0.334   4.467   1.026 -2.3246 -0.0598 -1.2703
 2621TIP3    H2 7828   0.278   4.329   1.058 -0.0141 -1.0933 -1.4769
 2622TIP3   OH2 7829   7.102   6.085   1.908 -0.3108 -0.1681 -0.5191
 2622TIP3    H1 7830   7.128   6.069   1.999  1.3991  1.2384 -0.7000
 2622TIP3    H2 7831   7.079   6.178   1.905 -3.3523 -0.8431 -0.9169
 2623TIP3   OH2 7832   1.750   3.710   1.347  0.2959  0.5021 -0.4454
 2623TIP3    H1 7833   1.745   3.632   1.402 -0.1335  1.8910  1.6159
 2623TIP3    H2 7834   1.659   3.737   1.334  0.4199  0.4883 -1.4472
 2624TIP3   OH2 7835   1.291   5.171   5.464 -0.2550 -0.5653 -0.6384
 2624TIP3    H1 7836   1.278   5.263   5.441  0.5471 -0.3743 -0.3297
 2624TIP3    H2 7837   1.385   5.162   5.478 -0.5985 -0.7229  2.2949
 2625TIP3   OH2 7838   5.677   1.384   3.450 -0.4505 -0.1793 -0.7092
 2625TIP3    H1 7839   5.723   1.452   3.401  0.0679 -0.0797 -0.0946
 2625TIP3    H2 7840   5.663   1.422   3.536  0.1823 -0.9799 -0.2323
 2626TIP3   OH2 7841   5.928   0.079   3.101 -0.1148 -0.2723 -0.1828
 2626TIP3    H1 7842   5.926   0.031   3.018 -0.3631 -0.6843  0.0584
 2626TIP3    H2 7843   5.909   0.013   3.167  1.2665 -0.2046  0.3183
 2627TIP3   OH2 7844   4.751   2.433   4.260 -0.0579 -0.1621  0.9785
 2627TIP3    H1 7845   4.833   2.441   4.211 -0.1287  0.9726  1.0354
 2627TIP3    H2 7846   4.768   2.361   4.321  0.1390 -1.3973 -0.4593
 2628TIP3   OH2 7847   7.057   5.153   0.497 -0.1290 -0.5919  0.1286
 2628TIP3    H1 7848   7.000   5.106   0.437 -1.0641  1.9336 -1.0882
 2628TIP3    H2 7849   7.114   5.205   0.441 -3.2771  4.5683  1.0089
 2629TIP3   OH2 7850   0.368   4.039   5.049  0.0044 -0.1480 -0.2348
 2629TIP3    H1 7851   0.437   4.007   5.108  1.3375 -0.4522 -1.8595
 2629TIP3    H2 7852   0.415   4.088   4.982 -1.5051  0.6216 -0.7701
 2630TIP3   OH2 7853   3.929   1.197   3.684 -0.6314 -0.4019  0.1474
 2630TIP3    H1 7854   3.979   1.120   3.709 -1.5562 -1.0545  0.0038
 2630TIP3    H2 7855   3.954   1.214   3.593 -0.6638 -0.7193  0.0804
 2631TIP3   OH2 7856   6.095   2.429   2.668 -0.6976 -0.4969 -0.6547
 2631TIP3    H1 7857   6.133   2.362   2.725 -0.8790 -0.6179 -0.6765
 2631TIP3    H2 7858   6.168   2.488   2.649 -0.7466 -0.1698  0.1099
 2632TIP3   OH2 7859   0.369   2.624   0.446 -0.3356 -0.2673  0.5188
 2632TIP3    H1 7860   0.440   2.582   0.397 -0.3900  0.3130 -0.0709
 2632TIP3    H2 7861   0.382   2.596   0.536  0.4586 -0.4137  0.3654
 2633TIP3   OH2 7862   1.137   4.960   4.441 -0.4124  0.3804  0.0856
 2633TIP3    H1 7863   1.099   4.886   4.393 -1.7254  1.6356 -0.8979
 2633TIP3    H2 7864   1.221   4.976   4.398 -0.0508 -0.6218  0.4047
 2634TIP3   OH2 7865   3.698   4.620   4.495  0.2955 -0.5388  0.0947
 2634TIP3    H1 7866   3.702   4.701   4.546 -0.2233 -1.8181  2.2629
 2634TIP3    H2 7867   3.608   4.589   4.506  1.2127 -2.8565  1.7204
 2635TIP3   OH2 7868   4.073   6.477   2.341 -0.5786  0.0127  0.3160
 2635TIP3    H1 7869   4.090   6.425   2.420 -1.4636 -1.3168 -0.3257
 2635TIP3    H2 7870   4.014   6.422   2.289  0.9938  0.2641 -1.8666
 2636TIP3   OH2 7871   6.983   3.939   0.685  0.1322 -0.6280 -0.3688
 2636TIP3    H1 7872   7.024   4.025   0.680 -0.3227 -0.3150  0.9719
 2636TIP3    H2 7873   7.050   3.883   0.725 -0.0201 -0.5969 -0.0694
 2637TIP3   OH2 7874   1.086   6.284   2.127  0.3596  0.3136 -0.0919
 2637TIP3    H1 7875   1.168   6.285   2.176  0.7420  0.5955 -0.7193
 2637TIP3    H2 7876   1.047   6.199   2.147  0.4744  0.4514  0.7415
 2638TIP3   OH2 7877   2.219   2.472   1.196 -0.8006  0.2957  0.6101
 2638TIP3    H1 7878   2.304   2.476   1.154 -0.7682 -2.6056  0.2101
 2638TIP3    H2 7879   2.160   2.517   1.136  0.2022  1.2485  0.3053
 2639TIP3   OH2 7880   2.718  -0.002   0.695  0.8359  0.2811  0.0289
 2639TIP3    H1 7881   2.739   0.089   0.676  0.7722  0.1686 -0.5920
 2639TIP3    H2 7882   2.629  -0.014   0.663  0.6286  0.1510  0.6337
 2640TIP3   OH2 7883   2.561   1.310   5.429 -0.4238 -0.1357  0.2019
 2640TIP3    H1 7884   2.588   1.362   5.505 -0.3843 -1.1956  0.9224
 2640TIP3    H2 7885   2.615   1.231   5.433  0.5435  0.3502 -1.6848
 2641TIP3   OH2 7886   6.112   5.008   2.432  0.5051  0.1754 -0.2417
 2641TIP3    H1 7887   6.110   5.077   2.365 -0.0603 -0.6733 -1.1322
 2641TIP3    H2 7888   6.071   5.047   2.509 -0.7072  0.5327 -1.0495
 2642TIP3   OH2 7889   1.010   1.021   5.661  0.3114 -0.2365  0.0279
 2642TIP3    H1 7890   1.039   0.958   5.595  1.8839  0.9447 -0.4860
 2642TIP3    H2 7891   0.928   1.056   5.626  1.3371  0.6922 -1.5805
 2643TIP3   OH2 7892   1.814   2.368   0.078 -0.3874 -0.1955 -0.1076
 2643TIP3    H1 7893   1.767   2.438   0.122 -0.5290 -0.4764  0.1968
 2643TIP3    H2 7894   1.746   2.314   0.038 -0.4863 -1.5427  1.7175
 2644TIP3   OH2 7895   5.990   1.868   3.224  0.1715  0.4975  0.0628
 2644TIP3    H1 7896   6.068   1.815   3.239 -0.4837 -0.4950  0.0396
 2644TIP3    H2 7897   5.952   1.880   3.311 -0.3929 -0.2036 -0.0761
 2645TIP3   OH2 7898   6.953   6.288   2.764 -0.0663  0.4988 -0.2554
 2645TIP3    H1 7899   6.937   6.251   2.677 -0.3901 -1.0441  0.4186
 2645TIP3    H2 7900   7.027   6.347   2.752  0.6750 -0.6082 -1.3685
 2646TIP3   OH2 7901   2.442   3.263   5.190 -0.0588 -0.0582 -0.0758
 2646TIP3    H1 7902   2.504   3.321   5.233 -0.3274 -0.1362  0.4212
 2646TIP3    H2 7903   2.470   3.261   5.099  0.8005 -0.2648  0.1855
 2647TIP3   OH2 7904   1.213   2.397   5.032 -0.0531  0.3901 -0.0931
 2647TIP3    H1 7905   1.242   2.442   5.111 -0.8706 -0.9165  0.9964
 2647TIP3    H2 7906   1.117   2.399   5.037 -0.1155  0.3608 -1.0898
 2648TIP3   OH2 7907   5.872   0.323   3.209  0.2563 -0.0725 -0.1102
 2648TIP3    H1 7908   5.855   0.231   3.190 -0.6703 -0.0280  0.4667
 2648TIP3    H2 7909   5.824   0.372   3.143 -1.0653  0.0299  0.8926
 2649TIP3   OH2 7910   0.434   5.168   2.977 -0.2641  0.5733 -0.4717
 2649TIP3    H1 7911   0.416   5.217   2.897 -1.3923  1.4350  0.2835
 2649TIP3    H2 7912   0.363   5.104   2.982  0.8397 -0.7498 -1.1118
 2650TIP3   OH2 7913   4.657   0.683   1.080  0.0361  0.4568  0.1392
 2650TIP3    H1 7914   4.714   0.727   1.143 -0.7311 -0.3000  1.4014
 2650TIP3    H2 7915   4.571   0.683   1.121 -0.7984  1.1706 -1.5400
 2651TIP3   OH2 7916   5.581   2.582   2.023 -0.1196  0.2512 -0.5597
 2651TIP3    H1 7917   5.660   2.607   2.071  0.0389 -0.7112 -0.2953
 2651TIP3    H2 7918   5.614   2.545   1.941 -0.2618 -0.7659 -0.1642
 2652TIP3   OH2 7919   0.055   1.088   4.333  0.1339 -0.1478  0.4749
 2652TIP3    H1 7920   0.007   1.083   4.416 -0.8274  0.0977 -0.0529
 2652TIP3    H2 7921  -0.004   1.048   4.269  0.6650  0.1153 -0.1828
 2653TIP3   OH2 7922   5.019   1.547   0.931  0.4118  0.1573 -0.9960
 2653TIP3    H1 7923   5.005   1.622   0.990 -0.1915  0.2610 -1.2654
 2653TIP3    H2 7924   5.037   1.587   0.846  1.6243  0.0145 -0.8302
 2654TIP3   OH2 7925   0.067   2.162   1.795  0.1011 -0.0999  0.1472
 2654TIP3    H1 7926   0.159   2.143   1.780  0.3828  0.2803  1.3033
 2654TIP3    H2 7927   0.066   2.242   1.847 -0.8832  0.0085 -0.0090
 2655TIP3   OH2 7928   6.228   0.884   0.450 -0.2137 -0.0249 -0.0860
 2655TIP3    H1 7929   6.170   0.839   0.511 -0.4177  1.6935  1.0455
 2655TIP3    H2 7930   6.170   0.919   0.382 -0.0064 -1.7739 -1.2313
 2656TIP3   OH2 7931   0.272   4.935   2.994  0.2847 -0.0232  0.1842
 2656TIP3    H1 7932   0.189   4.926   3.042  0.5703 -1.9522  0.3976
 2656TIP3    H2 7933   0.250   4.908   2.905  0.4006  0.7267 -0.0722
 2657TIP3   OH2 7934   0.916   6.777   4.319 -0.2271 -0.2648 -0.0111
 2657TIP3    H1 7935   1.003   6.816   4.327  0.2326 -0.2248 -3.5295
 2657TIP3    H2 7936   0.932   6.693   4.275 -1.9427 -0.3395 -0.5549
 2658TIP3   OH2 7937   3.540  -0.037   4.631 -0.0148  0.1606 -0.4196
 2658TIP3    H1 7938   3.569   0.017   4.558  1.3767 -0.3851 -0.3023
 2658TIP3    H2 7939   3.521   0.025   4.701  1.8043  0.5293 -0.2009
 2659TIP3   OH2 7940   2.646   5.413   5.889 -0.4879 -0.4933  0.1971
 2659TIP3    H1 7941   2.727   5.462   5.904 -1.3260  0.1544  3.5458
 2659TIP3    H2 7942   2.601   5.462   5.820  0.8184  0.6384  0.1001
 2660TIP3   OH2 7943   1.270   3.081   2.896  0.2018  0.2033  0.8723
 2660TIP3    H1 7944   1.211   3.142   2.941 -0.0924 -0.3022  1.1920
 2660TIP3    H2 7945   1.280   3.008   2.958 -1.1063 -1.0315 -0.2888
 2661TIP3   OH2 7946   3.196   5.089   5.675  0.1212  0.3294  0.5907
 2661TIP3    H1 7947   3.243   5.092   5.592  0.8019  0.3793  0.9734
 2661TIP3    H2 7948   3.125   5.153   5.664 -2.0740 -2.1590 -1.2748
 2662TIP3   OH2 7949   2.925   4.453   5.365 -0.4020  0.2633  0.1271
 2662TIP3    H1 7950   2.997   4.431   5.306 -1.2405  1.1101 -1.2734
 2662TIP3    H2 7951   2.849   4.407   5.328 -1.1655  1.6393 -0.1101
 2663TIP3   OH2 7952   5.700   3.826   4.845  0.2415  0.1888 -0.3960
 2663TIP3    H1 7953   5.739   3.847   4.931  0.1744 -2.6741  0.4152
 2663TIP3    H2 7954   5.752   3.753   4.813  0.2196  1.1701 -2.8476
 2664TIP3   OH2 7955   6.908   1.211   5.030  0.1076  0.4051 -0.0062
 2664TIP3    H1 7956   6.905   1.272   5.105 -0.8254  1.2706 -0.7201
 2664TIP3    H2 7957   6.978   1.246   4.974  0.0085  0.4420 -0.1066
 2665TIP3   OH2 7958   6.742   5.497   4.657 -0.0420 -0.2645  0.7796
 2665TIP3    H1 7959   6.753   5.574   4.713  0.7222 -0.1366  0.4747
 2665TIP3    H2 7960   6.825   5.450   4.665 -1.3162 -2.3600  2.8394
 2666TIP3   OH2 7961   1.850   3.230   1.010 -0.1875 -0.0068  0.2985
 2666TIP3    H1 7962   1.785   3.232   0.939 -1.4907 -1.9485  1.3516
 2666TIP3    H2 7963   1.798   3.229   1.090  1.2021  0.0093  1.2303
 2667TIP3   OH2 7964   6.786   4.745   2.883  0.1200  0.1193 -0.0364
 2667TIP3    H1 7965   6.765   4.825   2.930 -1.4511  0.0903 -0.6236
 2667TIP3    H2 7966   6.763   4.674   2.943 -0.8813  0.0953 -0.4342
 2668TIP3   OH2 7967   4.379   2.169   3.992  0.7426  0.1515 -0.0827
 2668TIP3    H1 7968   4.386   2.222   3.913  0.1537  0.1601 -0.1331
 2668TIP3    H2 7969   4.389   2.231   4.064 -3.3115  0.9935 -0.0403
 2669TIP3   OH2 7970   3.156   4.899   2.527  0.6768 -0.1806 -0.5395
 2669TIP3    H1 7971   3.157   4.967   2.594  0.8998  1.1621 -1.8650
 2669TIP3    H2 7972   3.063   4.889   2.505  0.6059 -0.6062 -0.0546
 2670TIP3   OH2 7973   3.173   2.994   3.739  0.2863 -0.4908  0.1613
 2670TIP3    H1 7974   3.164   3.088   3.758  1.0293 -0.6657  1.4971
 2670TIP3    H2 7975   3.196   2.955   3.823  3.5181 -1.3623 -0.9791
 2671TIP3   OH2 7976   2.407   3.837   0.619  0.0204 -0.5322  0.1995
 2671TIP3    H1 7977   2.403   3.932   0.612 -0.0637 -0.3630  1.9367
 2671TIP3    H2 7978   2.497   3.819   0.645 -0.6382 -0.6271  2.6899
 2672TIP3   OH2 7979   5.235   1.735   3.716 -0.1019  0.6018 -0.1729
 2672TIP3    H1 7980   5.230   1.647   3.751 -0.5873  0.6095 -0.2099
 2672TIP3    H2 7981   5.248   1.722   3.622  1.2785  0.5817 -0.0044
 2673TIP3   OH2 7982   0.692   2.494   5.727 -0.9259  0.1324 -0.3478
 2673TIP3    H1 7983   0.675   2.551   5.652  0.7694 -0.6947 -1.4280
 2673TIP3    H2 7984   0.637   2.417   5.712  0.1000 -0.4370 -1.2557
 2674TIP3   OH2 7985   0.554   6.412   2.936 -0.1149  0.0528  0.6203
 2674TIP3    H1 7986   0.538   6.505   2.955  1.3641  0.6006 -0.6209
 2674TIP3    H2 7987   0.647   6.400   2.958 -0.1360 -0.9820  0.1573
 2675TIP3   OH2 7988   6.827   4.584   4.738 -0.2581 -0.0983  0.7870
 2675TIP3    H1 7989   6.737   4.557   4.719 -0.2373  1.3182 -1.7185
 2675TIP3    H2 7990   6.819   4.671   4.776  0.0535  0.2126  0.1568
 2676TIP3   OH2 7991   5.776   1.559   4.872  0.1775  0.4906 -0.9297
 2676TIP3    H1 7992   5.774   1.474   4.916 -0.7467  0.6131 -0.7174
 2676TIP3    H2 7993   5.866   1.569   4.842  1.1286  0.8618  1.8108
 2677TIP3   OH2 7994   4.694   6.286   4.857 -0.0584 -0.0585  0.4579
 2677TIP3    H1 7995   4.685   6.259   4.949  1.5571 -0.1931  0.6074
 2677TIP3    H2 7996   4.735   6.372   4.862 -0.5230  0.2021 -0.1396
 2678TIP3   OH2 7997   0.101   0.220   3.584  0.0130  0.4410 -0.4074
 2678TIP3    H1 7998   0.068   0.135   3.554 -0.9357  0.1648  1.2915
 2678TIP3    H2 7999   0.172   0.198   3.644  0.6331  0.9071 -0.9582
 2679TIP3   OH2 8000   5.628   2.341   3.372 -0.3515  0.5462 -0.0862
 2679TIP3    H1 8001   5.701   2.358   3.431  2.0882  0.5409 -2.8271
 2679TIP3    H2 8002   5.621   2.421   3.319 -0.8665 -0.2285 -1.2441
 2680TIP3   OH2 8003   4.800   1.521   4.476  0.0653  0.1151 -0.3272
 2680TIP3    H1 8004   4.740   1.592   4.497 -1.0094 -0.5065 -1.1477
 2680TIP3    H2 8005   4.865   1.560   4.418 -1.7540  0.0381 -2.5853
 2681TIP3   OH2 8006   1.345   4.866   0.813  0.5978  0.0200  0.5905
 2681TIP3    H1 8007   1.326   4.843   0.722  1.1982  1.7406 -0.0180
 2681TIP3    H2 8008   1.297   4.948   0.827  0.6427 -0.1438  1.7801
 2682TIP3   OH2 8009   3.235   2.463   3.540 -0.3486  0.4099  0.0279
 2682TIP3    H1 8010   3.299   2.455   3.469 -0.5306  1.9363 -0.3360
 2682TIP3    H2 8011   3.173   2.392   3.524  0.9984 -0.8534  0.1582
 2683TIP3   OH2 8012   6.744   5.801   3.516  0.1131 -0.0510  0.6215
 2683TIP3    H1 8013   6.775   5.732   3.457 -1.1022 -1.1383  1.2104
 2683TIP3    H2 8014   6.662   5.832   3.476  0.2710  0.5524  0.7526
 2684TIP3   OH2 8015   5.309   4.833   0.756  0.0719 -0.1968 -0.5197
 2684TIP3    H1 8016   5.259   4.802   0.831  0.0602  1.3164  0.1216
 2684TIP3    H2 8017   5.244   4.857   0.691 -0.0702  1.2536  0.1110
 2685TIP3   OH2 8018   5.574   5.280   0.648 -0.0424  0.3126  0.2809
 2685TIP3    H1 8019   5.492   5.265   0.695 -0.1362 -0.4239 -0.0975
 2685TIP3    H2 8020   5.553   5.349   0.585 -0.2042  0.5609  0.6043
 2686TIP3   OH2 8021   4.154   6.415   1.357  0.0839  0.0316 -0.3428
 2686TIP3    H1 8022   4.113   6.454   1.280  1.0481 -0.3184 -1.0663
 2686TIP3    H2 8023   4.179   6.490   1.411 -0.2860  0.2988 -0.5357
 2687TIP3   OH2 8024   4.535   0.046   5.645  0.0028  0.1001  0.0905
 2687TIP3    H1 8025   4.586  -0.012   5.588 -0.6666 -0.2893 -0.1143
 2687TIP3    H2 8026   4.501   0.113   5.587 -0.9948 -0.5076 -0.0582
 2688TIP3   OH2 8027   7.139   4.460   5.655  0.4943 -0.2892  0.3044
 2688TIP3    H1 8028   7.143   4.432   5.746  0.5269  3.1422  1.5217
 2688TIP3    H2 8029   7.219   4.426   5.615  1.6621  0.0505  2.2308
 2689TIP3   OH2 8030   6.449   4.587   4.129 -0.1873  0.7191  0.0363
 2689TIP3    H1 8031   6.462   4.679   4.105 -2.5181  1.0106 -0.4024
 2689TIP3    H2 8032   6.392   4.590   4.205 -1.4512 -0.3531 -0.8229
 2690TIP3   OH2 8033   4.104   4.110   5.464  0.3277  0.0167  0.5684
 2690TIP3    H1 8034   4.082   4.019   5.442 -0.0151  0.1701  0.2522
 2690TIP3    H2 8035   4.134   4.106   5.555  2.4334 -0.7327 -0.1198
 2691TIP3   OH2 8036   4.359   1.862   3.258  0.2004 -0.5438 -0.2906
 2691TIP3    H1 8037   4.398   1.791   3.310  0.3584 -1.6310 -1.8169
 2691TIP3    H2 8038   4.272   1.873   3.295  0.3365 -1.2507  0.2687
 2692TIP3   OH2 8039   4.573   4.933   1.190 -0.5372  0.1986 -0.5176
 2692TIP3    H1 8040   4.497   4.914   1.134 -1.1695  0.1433  0.3434
 2692TIP3    H2 8041   4.597   5.023   1.169 -0.9035  0.2503 -0.7208
 2693TIP3   OH2 8042   6.236   6.387   2.327 -0.5340 -0.2996  0.3728
 2693TIP3    H1 8043   6.163   6.396   2.267 -1.7117 -1.0830  1.6234
 2693TIP3    H2 8044   6.235   6.468   2.378  1.3070  0.9845 -1.4562
 2694TIP3   OH2 8045   3.910   4.417   1.005 -0.1457  0.2622  0.2911
 2694TIP3    H1 8046   3.920   4.322   1.004 -0.2595  0.2471  0.4768
 2694TIP3    H2 8047   3.822   4.433   0.972 -0.8724  0.1902  2.0941
 2695TIP3   OH2 8048   3.136   3.001   1.347  0.2735 -0.3795  0.4407
 2695TIP3    H1 8049   3.137   3.054   1.268 -0.4082 -1.1141 -0.0774
 2695TIP3    H2 8050   3.085   2.923   1.324  0.6786 -0.9533  1.3771
 2696TIP3   OH2 8051   5.339   6.261   3.873  0.0197 -0.4665  0.3315
 2696TIP3    H1 8052   5.261   6.252   3.928 -0.3093  0.7037  0.0972
 2696TIP3    H2 8053   5.397   6.190   3.901 -0.0022  0.2743  2.4373
 2697TIP3   OH2 8054   5.930   4.650   5.695  0.3310  0.1071  0.5715
 2697TIP3    H1 8055   5.866   4.697   5.749 -0.5802 -0.4489 -0.0004
 2697TIP3    H2 8056   5.942   4.566   5.739 -1.1118 -0.7255 -0.5187
 2698TIP3   OH2 8057   1.368   0.057   1.801 -0.0633  0.3725 -0.4213
 2698TIP3    H1 8058   1.454   0.093   1.823  0.2950 -0.2701 -0.7629
 2698TIP3    H2 8059   1.364  -0.027   1.847 -1.3047  1.2489  1.2175
 2699TIP3   OH2 8060   5.908   1.645   3.842  0.4003 -0.5144  0.1917
 2699TIP3    H1 8061   5.900   1.598   3.925  0.9771 -0.6231  0.1848
 2699TIP3    H2 8062   5.888   1.736   3.864  2.7940 -0.0927  0.9355
 2700TIP3   OH2 8063   5.544   2.669   4.217 -0.3863 -0.3578 -0.6360
 2700TIP3    H1 8064   5.470   2.613   4.192 -0.9389  0.2826 -0.4508
 2700TIP3    H2 8065   5.573   2.708   4.134  1.4398 -2.5889 -1.1457
 2701TIP3   OH2 8066   0.854   2.028   2.176 -0.4816 -0.1701  0.6411
 2701TIP3    H1 8067   0.920   2.097   2.173  1.2186 -1.7571 -0.8605
 2701TIP3    H2 8068   0.817   2.027   2.087 -0.5323 -1.1253  0.6704
 2702TIP3   OH2 8069   1.708   5.890   1.611  1.0698 -0.3547  0.3213
 2702TIP3    H1 8070   1.761   5.811   1.602  1.8219  0.3449 -2.2032
 2702TIP3    H2 8071   1.767   5.961   1.586 -0.2429  0.7420  0.2483
 2703TIP3   OH2 8072   5.952   3.912   5.540 -0.4566 -0.0694  0.2506
 2703TIP3    H1 8073   5.865   3.890   5.504 -0.5773 -0.8970  1.0042
 2703TIP3    H2 8074   5.948   4.005   5.558 -0.6961  0.1926 -1.0493
 2704TIP3   OH2 8075   3.236   4.289   4.905 -0.3146  0.0245 -0.1143
 2704TIP3    H1 8076   3.187   4.366   4.877  0.3569  1.0991  1.5059
 2704TIP3    H2 8077   3.307   4.281   4.842 -0.9634  0.1187 -0.8700
 2705TIP3   OH2 8078   2.818   1.406   2.732  0.2585 -0.1734  0.3582
 2705TIP3    H1 8079   2.723   1.407   2.736  0.1964  0.4094 -0.8115
 2705TIP3    H2 8080   2.843   1.498   2.721  0.8749 -0.4444 -0.6539
 2706TIP3   OH2 8081   2.695   2.722   2.517 -0.3813 -0.3240  0.2172
 2706TIP3    H1 8082   2.759   2.726   2.588 -0.6274 -0.9694  0.4851
 2706TIP3    H2 8083   2.711   2.802   2.466  0.4148 -0.3133  0.4644
 2707TIP3   OH2 8084   2.348   6.546   5.668  0.1457 -0.4100 -0.1984
 2707TIP3    H1 8085   2.369   6.586   5.583  0.4901  1.1777  0.5951
 2707TIP3    H2 8086   2.257   6.517   5.659 -0.1162  0.5592 -0.8260
 2708TIP3   OH2 8087   2.971   1.353   4.065 -0.5769 -0.0308  0.1460
 2708TIP3    H1 8088   2.902   1.381   4.004 -0.9885  1.7406  1.3437
 2708TIP3    H2 8089   3.024   1.432   4.079  1.2020 -1.1400 -0.0690
 2709TIP3   OH2 8090   1.437   1.505   0.097  0.3466 -0.3054  0.2946
 2709TIP3    H1 8091   1.512   1.470   0.145  1.3801  0.1071 -0.9959
 2709TIP3    H2 8092   1.428   1.595   0.128  0.9608 -0.0658 -0.2122
 2710TIP3   OH2 8093   3.474   1.894   3.772  0.3777  0.8813  0.0975
 2710TIP3    H1 8094   3.421   1.974   3.782 -0.8115  0.3264 -1.4225
 2710TIP3    H2 8095   3.476   1.878   3.678 -0.2871 -1.4433  0.4094
 2711TIP3   OH2 8096   3.591   1.669   3.553 -0.0252  0.0811 -0.0858
 2711TIP3    H1 8097   3.609   1.629   3.468 -1.5316  0.0021 -0.3948
 2711TIP3    H2 8098   3.674   1.665   3.599  0.6762 -0.4057 -1.3382
 2712TIP3   OH2 8099   2.328   3.012   1.673  0.0971  0.5478 -0.0775
 2712TIP3    H1 8100   2.316   3.090   1.727  1.4794  1.4243 -0.9807
 2712TIP3    H2 8101   2.293   3.036   1.587  1.2676  0.4973 -0.5924
 2713TIP3   OH2 8102   6.378   0.131   0.257 -0.1027  0.2914  0.0069
 2713TIP3    H1 8103   6.371   0.200   0.191  0.2107  1.1494  0.8480
 2713TIP3    H2 8104   6.288   0.100   0.269  0.0033 -0.9407 -1.8871
 2714TIP3   OH2 8105   6.523   2.557   1.676 -0.2519  0.5023 -0.5834
 2714TIP3    H1 8106   6.439   2.564   1.630  0.5355  0.3247 -2.1190
 2714TIP3    H2 8107   6.583   2.521   1.611  0.8802  0.0396  0.6701
 2715TIP3   OH2 8108   0.116   0.933   0.213  0.1200  0.7774 -0.0476
 2715TIP3    H1 8109   0.059   1.009   0.211 -2.7236 -1.1827  0.1216
 2715TIP3    H2 8110   0.085   0.877   0.142  1.8739 -0.4108  0.0375
 2716TIP3   OH2 8111   5.410   3.168   2.810 -0.1798  0.1433 -0.1282
 2716TIP3    H1 8112   5.359   3.087   2.807  0.2041 -0.1086  0.0387
 2716TIP3    H2 8113   5.380   3.213   2.888 -0.7646  0.4098 -0.5051
 2717TIP3   OH2 8114   0.408   2.554   1.354 -0.3231  0.4089  0.4647
 2717TIP3    H1 8115   0.446   2.624   1.408 -0.7528  0.7436  0.3359
 2717TIP3    H2 8116   0.457   2.559   1.271  1.3142 -1.0104  1.2727
 2718TIP3   OH2 8117   5.404   0.406   1.009 -0.1337 -0.1696  0.1573
 2718TIP3    H1 8118   5.440   0.390   0.922 -0.7793  0.5454 -0.2627
 2718TIP3    H2 8119   5.379   0.499   1.007 -3.0485 -0.8466 -0.0103
 2719TIP3   OH2 8120   7.002   5.828   5.024  0.0805 -0.1185 -0.2317
 2719TIP3    H1 8121   7.083   5.874   5.004 -0.0659 -0.2062 -1.0624
 2719TIP3    H2 8122   6.956   5.824   4.941  0.3203 -2.1942 -0.3239
 2720TIP3   OH2 8123   2.974   5.204   2.293 -0.0064  0.2368  0.3681
 2720TIP3    H1 8124   3.049   5.183   2.349 -0.0057 -0.1659  0.2172
 2720TIP3    H2 8125   3.001   5.176   2.205 -0.9157 -1.3726  0.5653
 2721TIP3   OH2 8126   5.920   2.119   4.102  0.1264 -0.4671  0.4705
 2721TIP3    H1 8127   5.963   2.118   4.016  0.1280 -0.3050  0.4692
 2721TIP3    H2 8128   5.982   2.076   4.161  0.1900 -0.4407  0.4224
 2722TIP3   OH2 8129   6.047   6.147   2.889 -0.2747 -0.1822  0.6513
 2722TIP3    H1 8130   6.044   6.242   2.895 -2.7878 -0.1037 -0.7598
 2722TIP3    H2 8131   6.091   6.119   2.970  2.6615  2.1953  0.0479
 2723TIP3   OH2 8132   3.340   2.853   4.206 -0.7099 -0.3780 -0.3894
 2723TIP3    H1 8133   3.290   2.929   4.237 -0.8163 -0.3943 -0.5206
 2723TIP3    H2 8134   3.294   2.825   4.127 -0.4426 -0.3389 -0.5591
 2724TIP3   OH2 8135   1.852   2.331   2.878  0.0153  0.1488 -0.4798
 2724TIP3    H1 8136   1.798   2.278   2.819 -1.6335 -1.7458  2.4784
 2724TIP3    H2 8137   1.803   2.412   2.890 -0.2929 -0.0048 -0.6802
 2725TIP3   OH2 8138   2.082   4.529   5.176 -0.0936  0.4642  0.2144
 2725TIP3    H1 8139   2.011   4.592   5.167 -0.4064  0.2029  0.7781
 2725TIP3    H2 8140   2.057   4.455   5.120 -0.2453  0.3935  0.3740
 2726TIP3   OH2 8141   6.412   3.334   2.428 -0.1961 -0.0928  0.0354
 2726TIP3    H1 8142   6.457   3.371   2.504  0.4340  2.1782 -1.3586
 2726TIP3    H2 8143   6.466   3.359   2.353  0.5034 -4.2245 -1.1073
 2727TIP3   OH2 8144   5.711   4.983   1.271  0.2185  0.3688 -0.1384
 2727TIP3    H1 8145   5.702   5.074   1.244  0.3583 -0.0224 -1.5664
 2727TIP3    H2 8146   5.788   4.951   1.224 -0.0092 -0.5768  0.1074
 2728TIP3   OH2 8147   2.694   2.584   4.801 -0.0377 -0.2222 -0.0985
 2728TIP3    H1 8148   2.632   2.654   4.822  1.1931  0.2137  2.4788
 2728TIP3    H2 8149   2.675   2.514   4.863  1.5514 -0.3701  0.2740
 2729TIP3   OH2 8150   6.137   2.838   3.960 -0.3737 -0.7782  0.1849
 2729TIP3    H1 8151   6.095   2.902   4.019 -0.3168  0.5971 -1.1930
 2729TIP3    H2 8152   6.209   2.887   3.920  1.3974 -2.5489  1.0899
 2730TIP3   OH2 8153   3.364   0.580   0.102 -0.1719 -0.2662  0.2815
 2730TIP3    H1 8154   3.309   0.591   0.180 -0.5399 -1.4546  0.2137
 2730TIP3    H2 8155   3.421   0.505   0.123  0.0830 -0.2672 -0.3845
 2731TIP3   OH2 8156   7.055   4.480   3.097  0.1456  0.2114 -0.1712
 2731TIP3    H1 8157   7.082   4.552   3.041  0.4518  1.3114  1.3196
 2731TIP3    H2 8158   7.136   4.434   3.119  0.0856  0.0566 -0.2753
 2732TIP3   OH2 8159   5.731   0.071   0.565  0.1408 -0.4359 -0.0265
 2732TIP3    H1 8160   5.662   0.024   0.613  1.2826 -3.5955 -1.1785
 2732TIP3    H2 8161   5.702   0.070   0.474  0.1343  1.3746 -0.0800
 2733TIP3   OH2 8162   2.704   5.038   3.391  0.4728 -0.0822  0.2879
 2733TIP3    H1 8163   2.783   5.019   3.340 -0.1910 -0.0040 -0.8201
 2733TIP3    H2 8164   2.632   5.013   3.333 -0.3166 -0.4990  1.4143
 2734TIP3   OH2 8165   2.317   2.118   1.472 -0.3491 -0.2842  0.0403
 2734TIP3    H1 8166   2.296   2.130   1.565 -0.5600  3.4690 -0.3466
 2734TIP3    H2 8167   2.411   2.105   1.471 -0.2620  0.2118  0.7577
 2735TIP3   OH2 8168   6.041   1.495   4.490  0.0953 -0.0098  0.4777
 2735TIP3    H1 8169   6.039   1.552   4.413 -2.2560 -1.7772 -0.9012
 2735TIP3    H2 8170   5.951   1.494   4.521  0.7281 -0.4957  2.4029
 2736TIP3   OH2 8171   5.149   1.972   1.344  0.0125 -0.6990  0.2612
 2736TIP3    H1 8172   5.239   1.947   1.364  0.9994  0.3221 -2.4868
 2736TIP3    H2 8173   5.126   1.921   1.267 -1.6511 -0.6304  0.6623
 2737TIP3   OH2 8174   3.736   0.104   2.340 -0.4287  0.3274  0.7799
 2737TIP3    H1 8175   3.682   0.062   2.273  0.0236  0.6867  0.1804
 2737TIP3    H2 8176   3.747   0.194   2.309  2.1639 -0.2389 -0.1631
 2738TIP3   OH2 8177   4.289   1.205   4.910 -0.1129  0.5122 -0.1685
 2738TIP3    H1 8178   4.383   1.192   4.925  0.0922  0.8515 -1.0730
 2738TIP3    H2 8179   4.271   1.292   4.945  0.1109  0.8149 -0.7851
 2739TIP3   OH2 8180   4.707   3.289   4.832  0.2009 -0.1189  0.1994
 2739TIP3    H1 8181   4.660   3.302   4.749  0.3880  2.9809  0.4529
 2739TIP3    H2 8182   4.664   3.349   4.893  2.2233  0.1841  1.4207
 2740TIP3   OH2 8183   3.933   0.527   2.517  0.1796 -0.8358 -0.1961
 2740TIP3    H1 8184   3.918   0.619   2.539  1.6248 -0.7737  0.6815
 2740TIP3    H2 8185   4.025   0.511   2.540 -0.2172 -2.6795  0.3156
 2741TIP3   OH2 8186   2.688   2.146   1.229  0.6598 -0.2978 -0.3806
 2741TIP3    H1 8187   2.730   2.230   1.207  1.8969 -0.9506 -0.6295
 2741TIP3    H2 8188   2.752   2.080   1.201  0.1421 -1.3002  0.7434
 2742TIP3   OH2 8189   4.772   4.537   2.733  0.1074  0.1509  0.2018
 2742TIP3    H1 8190   4.839   4.604   2.716 -2.2208  3.1459  1.8415
 2742TIP3    H2 8191   4.740   4.513   2.646  1.0351  1.1656 -0.4412
 2743TIP3   OH2 8192   2.566   2.007   1.434  0.1505  0.0867  0.4244
 2743TIP3    H1 8193   2.631   1.962   1.488  1.0927  2.1919  1.1821
 2743TIP3    H2 8194   2.618   2.055   1.369 -0.7721  0.3333 -0.1530
 2744TIP3   OH2 8195   0.654   6.371   5.305  0.3151  0.0399 -0.2937
 2744TIP3    H1 8196   0.697   6.369   5.390 -0.4730  0.3669  0.1181
 2744TIP3    H2 8197   0.682   6.290   5.262  2.0408  0.6494 -0.4007
 2745TIP3   OH2 8198   3.894   5.938   4.204 -0.3101 -0.2295 -0.6264
 2745TIP3    H1 8199   3.965   6.002   4.200 -0.2926 -0.2715 -0.9477
 2745TIP3    H2 8200   3.823   5.976   4.152 -0.6602 -0.0205 -0.0066
 2746TIP3   OH2 8201   3.410   4.060   4.659 -0.3650 -0.0047  0.1626
 2746TIP3    H1 8202   3.393   3.972   4.628  0.0107  0.3365 -1.0501
 2746TIP3    H2 8203   3.472   4.049   4.731 -0.6905 -0.7592  0.3273
 2747TIP3   OH2 8204   3.904   6.478   1.521 -0.1022  0.9164 -0.7153
 2747TIP3    H1 8205   3.879   6.426   1.597 -1.3213 -0.8594 -2.2433
 2747TIP3    H2 8206   3.847   6.555   1.524 -0.5339  0.5778 -0.1491
 2748TIP3   OH2 8207   5.092   0.890   0.577  0.6049  0.7547 -0.1049
 2748TIP3    H1 8208   5.055   0.843   0.651  0.4880  0.7187 -0.1860
 2748TIP3    H2 8209   5.135   0.966   0.615  0.2137  0.9427 -0.0369
 2749TIP3   OH2 8210   1.521   1.318   5.677 -0.2184 -0.1602 -0.5762
 2749TIP3    H1 8211   1.590   1.255   5.656 -0.1569  0.4895 -2.5381
 2749TIP3    H2 8212   1.566   1.390   5.720  0.5861  0.6990 -2.6932
 2750TIP3   OH2 8213   6.147   5.334   2.635 -0.2189 -0.2609  0.2661
 2750TIP3    H1 8214   6.150   5.247   2.675  0.1607  0.0982  1.0475
 2750TIP3    H2 8215   6.113   5.391   2.704  0.9666  0.4649  0.2826
 2751TIP3   OH2 8216   2.784   3.773   0.065  0.1393  0.1399 -0.4136
 2751TIP3    H1 8217   2.765   3.841   0.130 -0.6290  0.6338 -1.1369
 2751TIP3    H2 8218   2.813   3.698   0.117  0.5657  0.8646  0.4280
 2752TIP3   OH2 8219   0.345   0.329   5.477  0.4281  0.2705  0.3947
 2752TIP3    H1 8220   0.284   0.292   5.413 -0.2511  1.0323  0.5797
 2752TIP3    H2 8221   0.322   0.288   5.560  1.1012 -0.4840  0.2138
 2753TIP3   OH2 8222   6.406   5.929   1.063  0.1069 -0.2171 -0.2704
 2753TIP3    H1 8223   6.321   5.919   1.107 -0.3652  0.0401 -1.0999
 2753TIP3    H2 8224   6.470   5.925   1.134 -0.4388 -2.5169  0.1804
 2754TIP3   OH2 8225   6.658   5.280   4.323  0.1853  0.4657 -0.4587
 2754TIP3    H1 8226   6.706   5.362   4.334  0.5949  0.5811 -2.6223
 2754TIP3    H2 8227   6.695   5.222   4.390  0.5241  1.7557  0.5170
 2755TIP3   OH2 8228   1.131   5.697   5.412 -0.5680  0.2935  0.0538
 2755TIP3    H1 8229   1.082   5.628   5.457 -0.3046  0.3446  0.4274
 2755TIP3    H2 8230   1.219   5.661   5.401 -0.1206  0.9692  1.2382
 2756TIP3   OH2 8231   5.973   3.831   1.398 -0.5051  0.2529 -0.3020
 2756TIP3    H1 8232   5.903   3.766   1.391 -0.5629  0.1564  1.0603
 2756TIP3    H2 8233   5.937   3.899   1.454  0.2379  0.5582 -0.1960
 2757TIP3   OH2 8234   4.674   1.243   1.675  0.5065 -0.4215  0.4920
 2757TIP3    H1 8235   4.705   1.296   1.748  1.8838  0.1743 -0.4940
 2757TIP3    H2 8236   4.744   1.248   1.610 -0.0341 -2.1519 -0.2769
 2758TIP3   OH2 8237   5.301   0.669   4.600  0.1379 -0.3772 -0.0118
 2758TIP3    H1 8238   5.335   0.755   4.577 -2.8361  1.4907  1.8643
 2758TIP3    H2 8239   5.268   0.633   4.518  1.4877  0.1689 -0.8370
 2759TIP3   OH2 8240   3.703   4.827   2.055  0.2716 -0.3150 -0.5644
 2759TIP3    H1 8241   3.721   4.811   1.962  0.5051 -1.7415 -0.2951
 2759TIP3    H2 8242   3.621   4.780   2.071  1.0933 -1.4935  0.3200
 2760TIP3   OH2 8243   7.052   1.231   2.806  0.0537  0.3573 -0.3009
 2760TIP3    H1 8244   7.054   1.320   2.773 -2.3543  1.2637  1.6900
 2760TIP3    H2 8245   7.096   1.236   2.891 -1.2967  0.0001  0.4450
 2761TIP3   OH2 8246   2.957   2.771   1.109  0.3690  0.2079 -0.0585
 2761TIP3    H1 8247   2.945   2.794   1.202  0.0185  2.5082 -0.6075
 2761TIP3    H2 8248   2.898   2.831   1.063 -0.5044 -1.8241 -1.7211
 2762TIP3   OH2 8249   6.223   0.655   4.869  0.2945 -0.3702 -0.1648
 2762TIP3    H1 8250   6.250   0.606   4.946 -1.1314 -0.9000  0.0392
 2762TIP3    H2 8251   6.181   0.734   4.904  1.1573  0.2199 -0.4489
 2763TIP3   OH2 8252   0.874   5.909   3.717  0.3074  0.2425 -0.0445
 2763TIP3    H1 8253   0.832   5.987   3.753  2.9441  1.0026  1.6925
 2763TIP3    H2 8254   0.841   5.837   3.771  2.7442  1.1238  2.9337
 2764TIP3   OH2 8255   2.531   4.173   5.054 -0.0991  0.5284 -0.3145
 2764TIP3    H1 8256   2.578   4.256   5.061  0.3518  0.2211  0.3949
 2764TIP3    H2 8257   2.472   4.186   4.980  0.2496  1.3398 -0.4689
 2765TIP3   OH2 8258   3.247   0.039   3.882  0.2639 -0.1147 -0.1784
 2765TIP3    H1 8259   3.192  -0.035   3.908 -0.1437  0.0884 -0.4642
 2765TIP3    H2 8260   3.210   0.114   3.928  0.4246 -0.0118 -0.2159
 2766TIP3   OH2 8261   0.179   6.667   4.688 -0.6041 -0.6131 -0.2489
 2766TIP3    H1 8262   0.164   6.586   4.737 -1.3623  0.2105  0.9270
 2766TIP3    H2 8263   0.093   6.707   4.680 -0.2230  0.1440 -0.7166
 2767TIP3   OH2 8264   6.829   4.595   4.341 -0.2923 -0.7707 -0.4835
 2767TIP3    H1 8265   6.750   4.550   4.372 -0.9276  0.3759 -0.3661
 2767TIP3    H2 8266   6.831   4.676   4.391 -0.2742  0.2410 -2.0545
 2768TIP3   OH2 8267   2.673   0.494   3.983  0.1407 -0.2342 -0.2023
 2768TIP3    H1 8268   2.740   0.426   3.984 -2.5415 -3.0799 -0.3488
 2768TIP3    H2 8269   2.617   0.472   3.909 -1.7083  1.2454  0.6539
 2769TIP3   OH2 8270   3.499   2.055   2.262  0.5069 -0.1113 -0.3246
 2769TIP3    H1 8271   3.486   1.966   2.230 -0.3567 -0.6288  1.3359
 2769TIP3    H2 8272   3.416   2.100   2.242  0.1911 -0.2659  0.6201
 2770TIP3   OH2 8273   0.559   0.819   0.965 -0.4973 -0.2787  0.0060
 2770TIP3    H1 8274   0.530   0.908   0.943 -0.6707 -0.4506 -0.4704
 2770TIP3    H2 8275   0.535   0.767   0.888  2.4593 -0.1533 -1.1269
 2771TIP3   OH2 8276   6.046   4.888   0.341  0.2999  0.1050 -0.2414
 2771TIP3    H1 8277   5.961   4.927   0.319  0.3796  1.6138  1.7595
 2771TIP3    H2 8278   6.106   4.924   0.276  0.2381  3.0137  1.1252
 2772TIP3   OH2 8279   5.122   0.833   0.098  0.0361 -0.0764 -0.3179
 2772TIP3    H1 8280   5.125   0.854   0.004 -0.7876 -0.5732 -0.4632
 2772TIP3    H2 8281   5.095   0.915   0.140 -1.3610 -0.3132 -0.7034
 2773TIP3   OH2 8282   5.245   6.512   2.128 -0.0172  0.1202  0.3491
 2773TIP3    H1 8283   5.226   6.427   2.167  0.7096  0.4392  1.4443
 2773TIP3    H2 8284   5.236   6.574   2.199  1.3820  0.7144  0.0502
 2774TIP3   OH2 8285   6.340   5.821   3.186 -0.1066 -0.3738 -0.1722
 2774TIP3    H1 8286   6.298   5.889   3.134  1.5910 -0.0104 -1.1506
 2774TIP3    H2 8287   6.294   5.740   3.163 -1.2611  0.2165 -0.0047
 2775TIP3   OH2 8288   0.743   1.122   0.176 -0.7389  0.3193  0.0252
 2775TIP3    H1 8289   0.799   1.074   0.115 -0.8346  0.1039  0.1052
 2775TIP3    H2 8290   0.804   1.154   0.243 -0.9041 -1.3642  1.0470
 2776TIP3   OH2 8291   2.905   5.036   5.102 -0.3902  0.0539  0.1875
 2776TIP3    H1 8292   2.883   5.128   5.115  1.1155  0.2594  1.6595
 2776TIP3    H2 8293   2.904   4.998   5.190 -0.3677 -1.1836 -0.3235
 2777TIP3   OH2 8294   2.475   2.362   3.583 -0.1397 -0.5276 -0.3672
 2777TIP3    H1 8295   2.431   2.407   3.512 -0.1179  0.1412  0.0352
 2777TIP3    H2 8296   2.448   2.408   3.662  3.4923  1.9106 -0.2686
 2778TIP3   OH2 8297   5.775   1.681   1.794 -0.2468 -0.2026  0.0059
 2778TIP3    H1 8298   5.683   1.677   1.820 -0.3869 -1.1407 -0.6020
 2778TIP3    H2 8299   5.800   1.772   1.810 -1.2257  0.0207  0.3461
 2779TIP3   OH2 8300   6.320   6.530   1.591  0.4566 -0.6001  0.0571
 2779TIP3    H1 8301   6.266   6.589   1.538  0.0713 -0.1428  0.9352
 2779TIP3    H2 8302   6.403   6.525   1.544  0.1771 -0.0932 -0.5136
 2780TIP3   OH2 8303   1.481   4.710   4.201 -0.3845 -0.0864  0.0193
 2780TIP3    H1 8304   1.417   4.779   4.221 -2.9218 -2.4775  0.8384
 2780TIP3    H2 8305   1.427   4.631   4.188  2.4442 -2.3802  1.1732
 2781TIP3   OH2 8306   1.972   2.776   0.709 -0.0288  0.1620  0.2872
 2781TIP3    H1 8307   2.008   2.711   0.648 -0.8353 -0.1793  0.1649
 2781TIP3    H2 8308   2.004   2.860   0.676  1.6214 -0.1959  0.8576
 2782TIP3   OH2 8309   3.634   0.751   0.818 -0.0509  0.5717  0.0385
 2782TIP3    H1 8310   3.666   0.661   0.813 -0.5012  0.4289 -0.3561
 2782TIP3    H2 8311   3.539   0.742   0.822 -0.1208  1.0509 -0.5072
 2783TIP3   OH2 8312   0.135   2.935   2.676 -0.1806  0.6972 -0.8738
 2783TIP3    H1 8313   0.053   2.899   2.642 -0.6893 -1.0168  1.8579
 2783TIP3    H2 8314   0.110   3.017   2.718 -0.3516  0.5937 -0.7725
 2784TIP3   OH2 8315   2.070   4.253   1.793  0.2030 -0.2277 -0.5738
 2784TIP3    H1 8316   2.075   4.162   1.765 -0.1376 -0.7786  1.0775
 2784TIP3    H2 8317   2.121   4.256   1.873 -0.9216  0.7293  0.1305
 2785TIP3   OH2 8318   0.843   1.502   3.982 -0.1597 -0.3196 -0.1082
 2785TIP3    H1 8319   0.839   1.454   4.065  1.1537 -0.1526  0.0802
 2785TIP3    H2 8320   0.928   1.478   3.945  0.2958  1.4429 -0.2601
 2786TIP3   OH2 8321   7.096   4.941   1.068  0.1873 -0.4447 -0.1523
 2786TIP3    H1 8322   7.068   4.850   1.061  0.6500 -0.5049 -1.4397
 2786TIP3    H2 8323   7.016   4.992   1.054  0.2745 -0.6474 -1.5751
 2787TIP3   OH2 8324   5.467   2.837   0.099 -0.7301 -0.0588  0.0545
 2787TIP3    H1 8325   5.409   2.871   0.031 -0.9070  0.1247  0.2922
 2787TIP3    H2 8326   5.527   2.778   0.053 -1.8831 -1.2162 -0.0170
 2788TIP3   OH2 8327   3.284   3.707   3.666 -0.0526  0.4789  0.2139
 2788TIP3    H1 8328   3.218   3.701   3.735 -0.1784  1.6791  0.2146
 2788TIP3    H2 8329   3.367   3.716   3.713 -0.1485  1.3958  0.2195
 2789TIP3   OH2 8330   5.054   5.621   4.962  0.1696  0.1769  0.0758
 2789TIP3    H1 8331   5.132   5.567   4.967 -0.0751 -0.2482 -0.5106
 2789TIP3    H2 8332   5.011   5.593   4.880  0.0594  1.2682 -0.2580
 2790TIP3   OH2 8333   1.684   2.122   0.048 -0.1591  0.4476 -0.1416
 2790TIP3    H1 8334   1.758   2.068   0.021 -1.6981 -1.8787 -0.0082
 2790TIP3    H2 8335   1.631   2.131  -0.031 -1.7453 -1.4782  0.5839
 2791TIP3   OH2 8336   3.812   1.593   2.507  0.3520  0.1756 -0.3899
 2791TIP3    H1 8337   3.878   1.547   2.456  4.3073  0.4299  3.7840
 2791TIP3    H2 8338   3.826   1.686   2.486  0.0059  0.1319 -0.8296
 2792TIP3   OH2 8339   6.768   3.611   5.621 -0.2051  0.0531  0.5164
 2792TIP3    H1 8340   6.731   3.693   5.655 -0.9054 -0.3084  0.6375
 2792TIP3    H2 8341   6.822   3.639   5.547  0.8346  0.7885  1.5049
 2793TIP3   OH2 8342   0.430   2.819   1.504 -0.2772 -0.7529  0.4407
 2793TIP3    H1 8343   0.430   2.759   1.579  2.1703 -0.8546  0.4593
 2793TIP3    H2 8344   0.520   2.853   1.502 -0.8791  0.8648 -1.1938
 2794TIP3   OH2 8345   3.756   2.165   3.389 -0.5637 -0.3860  0.6014
 2794TIP3    H1 8346   3.733   2.119   3.309  0.3201  0.3511 -0.0882
 2794TIP3    H2 8347   3.828   2.114   3.426 -0.4081 -0.2513  0.4839
 2795TIP3   OH2 8348   3.773   1.703   1.184  0.2883  0.1427 -0.2257
 2795TIP3    H1 8349   3.714   1.777   1.168  1.8920  1.6354  0.4296
 2795TIP3    H2 8350   3.817   1.689   1.100  0.6469  0.5820 -0.1197
 2796TIP3   OH2 8351   2.754   6.194   1.902  0.2188  0.3251 -0.8253
 2796TIP3    H1 8352   2.735   6.166   1.992  4.5910  0.0859  0.2363
 2796TIP3    H2 8353   2.708   6.278   1.893 -0.3976  0.3185  1.5936
 2797TIP3   OH2 8354   2.160   0.026   3.297 -0.5466 -0.1990 -0.0137
 2797TIP3    H1 8355   2.196   0.100   3.346  0.7541 -0.3235 -0.7374
 2797TIP3    H2 8356   2.065   0.041   3.298 -0.4056  0.8271  0.8636
 2798TIP3   OH2 8357   1.806   1.794   5.210  0.1041 -0.5396  0.2565
 2798TIP3    H1 8358   1.757   1.778   5.130 -1.9708 -0.2822  1.4156
 2798TIP3    H2 8359   1.758   1.746   5.278  0.9394  0.4604  1.6012
 2799TIP3   OH2 8360   2.621   4.225   3.772 -0.4525 -0.1793  0.1372
 2799TIP3    H1 8361   2.662   4.280   3.839 -0.5313 -0.8312  0.7205
 2799TIP3    H2 8362   2.644   4.269   3.689 -0.5430  0.7478  0.5890
 2800TIP3   OH2 8363   6.905   1.594   1.161  0.1019 -0.0315 -0.1604
 2800TIP3    H1 8364   6.880   1.584   1.070 -0.3028 -1.0945  0.0550
 2800TIP3    H2 8365   6.832   1.557   1.211  0.8025 -0.4924  0.5561
 2801TIP3   OH2 8366   6.541   4.877   4.114 -0.3771  0.6303 -0.3032
 2801TIP3    H1 8367   6.534   4.834   4.199 -0.8340 -0.6473 -0.9661
 2801TIP3    H2 8368   6.511   4.967   4.130 -0.7703  0.3156  0.8013
 2802TIP3   OH2 8369   0.607   3.496   5.191 -0.1480 -0.1504  0.0334
 2802TIP3    H1 8370   0.630   3.420   5.245  0.8073 -1.0614 -1.5756
 2802TIP3    H2 8371   0.644   3.476   5.105 -0.6734  1.7457 -0.6754
 2803TIP3   OH2 8372   3.596   0.456   1.687  0.5353 -0.0080 -0.0651
 2803TIP3    H1 8373   3.690   0.459   1.708  0.4623  1.5663  0.1115
 2803TIP3    H2 8374   3.581   0.364   1.662  2.1714 -0.2339 -0.3742
 2804TIP3   OH2 8375   2.605   1.862   4.150 -0.1323  0.4792  0.5016
 2804TIP3    H1 8376   2.510   1.852   4.152 -0.4676  2.9539  0.8575
 2804TIP3    H2 8377   2.621   1.918   4.073  0.9380  0.7311  0.8890
 2805TIP3   OH2 8378   1.723   1.152   0.985 -0.1821 -0.3563 -0.0033
 2805TIP3    H1 8379   1.640   1.168   1.031 -0.5786 -0.9928 -0.4732
 2805TIP3    H2 8380   1.760   1.239   0.971 -1.0161 -0.0253 -0.2106
 2806TIP3   OH2 8381   1.033   4.891   5.154  0.2116 -0.0827  0.0622
 2806TIP3    H1 8382   0.980   4.895   5.234 -0.1185  1.0218 -0.1944
 2806TIP3    H2 8383   0.981   4.838   5.093  0.5120 -1.0171  0.6047
 2807TIP3   OH2 8384   0.197   4.210   0.347  0.1116 -0.1998  0.2188
 2807TIP3    H1 8385   0.231   4.245   0.430 -0.1796  0.2812  0.1407
 2807TIP3    H2 8386   0.127   4.150   0.373 -1.0623  1.1467  0.2851
 2808TIP3   OH2 8387   1.545   5.397   4.417 -0.6708 -0.0739 -0.5872
 2808TIP3    H1 8388   1.571   5.329   4.354  2.0214 -0.1724  0.4918
 2808TIP3    H2 8389   1.496   5.350   4.485  2.2670 -1.3359  0.8364
 2809TIP3   OH2 8390   0.270   1.582   4.785  0.0575 -0.1962 -0.5163
 2809TIP3    H1 8391   0.345   1.578   4.726  0.4612  0.7385 -0.0771
 2809TIP3    H2 8392   0.268   1.672   4.816 -1.0859 -0.2789 -0.3037
 2810TIP3   OH2 8393   0.912   1.546   0.756 -0.5858 -0.3377 -0.2978
 2810TIP3    H1 8394   0.858   1.618   0.724  1.0147  1.2508  0.4285
 2810TIP3    H2 8395   0.985   1.540   0.693 -0.6707 -1.3116 -0.3277
 2811TIP3   OH2 8396   6.985   6.357   1.023 -0.7914 -0.1771 -0.5447
 2811TIP3    H1 8397   6.981   6.274   1.071 -1.3753  0.1958  0.0726
 2811TIP3    H2 8398   7.027   6.335   0.940 -0.7856 -1.0571 -0.3164
 2812TIP3   OH2 8399   0.899   6.695   1.949  0.8240 -0.2259  0.1660
 2812TIP3    H1 8400   0.961   6.650   2.007  1.1510  1.0614  0.8516
 2812TIP3    H2 8401   0.859   6.761   2.005  0.3179  0.2947 -0.8053
 2813TIP3   OH2 8402   6.589   5.227   5.149 -0.1150 -0.3072  0.0509
 2813TIP3    H1 8403   6.664   5.192   5.102  0.8911  1.1169  0.5568
 2813TIP3    H2 8404   6.513   5.191   5.102  0.7899  1.6413 -3.1931
 2814TIP3   OH2 8405   5.156   0.497   0.756  0.4059  0.2375  0.4660
 2814TIP3    H1 8406   5.138   0.425   0.695 -1.6615  0.4709  0.7101
 2814TIP3    H2 8407   5.107   0.473   0.835 -0.8336  2.1490  0.3439
 2815TIP3   OH2 8408   6.791   6.170   5.291 -0.6670 -0.2997  0.0774
 2815TIP3    H1 8409   6.747   6.087   5.270  0.3578 -0.6143 -0.9802
 2815TIP3    H2 8410   6.884   6.152   5.277 -0.5081  1.3618 -1.4896
 2816TIP3   OH2 8411   2.703   3.290   3.054 -0.4244 -0.2394 -0.6660
 2816TIP3    H1 8412   2.669   3.358   2.995 -0.1909 -0.0095 -0.5372
 2816TIP3    H2 8413   2.775   3.333   3.101  0.8721 -1.0912 -1.8321
 2817TIP3   OH2 8414   3.502   1.464   5.392  0.3068  0.1472 -0.3981
 2817TIP3    H1 8415   3.434   1.526   5.418 -0.5284  0.0166 -2.1826
 2817TIP3    H2 8416   3.524   1.418   5.473 -0.5510  1.3166  0.5337
 2818TIP3   OH2 8417   1.660   2.224   0.313 -0.4031 -0.6923  0.2340
 2818TIP3    H1 8418   1.673   2.189   0.225  1.7491  0.2784  0.1024
 2818TIP3    H2 8419   1.742   2.204   0.359 -0.9441  0.0520  1.5852
 2819TIP3   OH2 8420   2.493   0.509   5.239 -0.2929  0.2708 -0.1549
 2819TIP3    H1 8421   2.570   0.557   5.210  0.2140 -0.4169  0.0152
 2819TIP3    H2 8422   2.423   0.536   5.179  0.4655 -0.2786 -1.3318
 2820TIP3   OH2 8423   5.993   1.693   4.299  0.0533  0.2923  0.0446
 2820TIP3    H1 8424   5.908   1.692   4.256 -0.4853  0.2356  1.0902
 2820TIP3    H2 8425   5.976   1.726   4.387  1.1300  0.3820  0.2404
 2821TIP3   OH2 8426   5.835   2.461   3.503  0.0893 -0.1542  0.0505
 2821TIP3    H1 8427   5.816   2.527   3.569 -0.7161  1.1887 -1.4569
 2821TIP3    H2 8428   5.854   2.511   3.423  0.7138 -1.7151 -0.8383
 2822TIP3   OH2 8429   4.820   0.705   4.605  0.2230  0.2667 -0.0204
 2822TIP3    H1 8430   4.778   0.637   4.658 -0.7980  0.2659 -0.8008
 2822TIP3    H2 8431   4.860   0.764   4.669 -1.5908  0.6677  0.7942
 2823TIP3   OH2 8432   4.844   1.809   0.658 -0.4961 -0.0391  0.2183
 2823TIP3    H1 8433   4.914   1.752   0.691 -0.4040  0.8690  1.6795
 2823TIP3    H2 8434   4.891   1.882   0.618 -0.5599 -1.8759 -3.5845
 2824TIP3   OH2 8435   6.903   6.803   0.085 -0.3900 -0.2460 -0.1878
 2824TIP3    H1 8436   6.942   6.810   0.172 -0.8146  0.0374 -0.0158
 2824TIP3    H2 8437   6.864   6.715   0.083  0.6948 -0.7420 -0.5558
 2825TIP3   OH2 8438   1.192   5.095   4.888  0.2442 -0.4421  0.5796
 2825TIP3    H1 8439   1.132   5.026   4.862 -3.6699  1.5324  3.3915
 2825TIP3    H2 8440   1.224   5.069   4.975  1.8501 -0.4279  0.0360
 2826TIP3   OH2 8441   0.647   6.063   2.443  0.3410  0.0501 -0.8485
 2826TIP3    H1 8442   0.656   6.089   2.351  0.7797 -0.0392 -0.8335
 2826TIP3    H2 8443   0.575   6.117   2.476  0.3544  0.2717 -1.1735
 2827TIP3   OH2 8444   5.540   4.018   3.744  0.1321  0.0595  0.2342
 2827TIP3    H1 8445   5.545   3.946   3.808  0.1531  0.0206  0.1891
 2827TIP3    H2 8446   5.546   3.974   3.659  1.3014  0.2076  0.2234
 2828TIP3   OH2 8447   0.838   1.145   1.772 -0.2816  0.3393  0.3122
 2828TIP3    H1 8448   0.876   1.201   1.704  1.1728  1.1129  1.7133
 2828TIP3    H2 8449   0.743   1.152   1.758 -0.0898  2.2085 -0.3030
 2829TIP3   OH2 8450   1.575   0.258   2.583  0.1134 -0.6160  0.0191
 2829TIP3    H1 8451   1.545   0.267   2.493 -2.3644  0.0356  0.8414
 2829TIP3    H2 8452   1.628   0.335   2.599  2.0995 -1.6029 -1.3612
 2830TIP3   OH2 8453   5.242   2.838   3.792  0.7944 -0.5120 -0.2447
 2830TIP3    H1 8454   5.304   2.809   3.860  0.5592 -2.2825 -0.7155
 2830TIP3    H2 8455   5.219   2.927   3.817 -0.6601 -1.6417  3.0820
 2831TIP3   OH2 8456   3.825   4.152   0.159  0.2495  0.1822 -0.0086
 2831TIP3    H1 8457   3.812   4.205   0.080 -0.2794  0.4876  0.2765
 2831TIP3    H2 8458   3.741   4.108   0.172  0.2571  0.3153  0.5155
 2832TIP3   OH2 8459   4.096   0.504   5.822 -0.3879  0.4875 -0.3041
 2832TIP3    H1 8460   4.189   0.493   5.804 -0.1048  1.1162  0.7246
 2832TIP3    H2 8461   4.060   0.535   5.739  0.3208  0.3076 -0.6910
 2833TIP3   OH2 8462   2.336   2.413   4.916  0.3615 -0.1888  0.2772
 2833TIP3    H1 8463   2.351   2.471   4.841  1.7075 -1.1321 -0.2389
 2833TIP3    H2 8464   2.423   2.380   4.938 -0.4819 -3.5487 -0.7693
 2834TIP3   OH2 8465   1.765   0.897   2.679 -0.6451 -0.5747 -0.0548
 2834TIP3    H1 8466   1.827   0.839   2.723 -0.1446 -0.8775 -1.1492
 2834TIP3    H2 8467   1.820   0.960   2.632 -1.0944 -1.6142 -2.0832
 2835TIP3   OH2 8468   2.337   5.713   1.020 -0.1205 -0.0697  0.6496
 2835TIP3    H1 8469   2.309   5.801   1.043  0.8994  0.8645 -1.3388
 2835TIP3    H2 8470   2.326   5.709   0.925  0.0812 -2.0090  0.6713
 2836TIP3   OH2 8471   6.934   6.515   2.287 -0.2656 -0.2434  0.2499
 2836TIP3    H1 8472   6.932   6.434   2.338  1.2249 -2.3465 -2.7329
 2836TIP3    H2 8473   6.852   6.515   2.238 -0.9175  0.8754  1.2842
 2837TIP3   OH2 8474   0.065   3.968   0.479  0.0476  0.4481  0.0816
 2837TIP3    H1 8475   0.109   3.926   0.553 -0.2166 -0.5009 -0.2907
 2837TIP3    H2 8476   0.084   3.911   0.404 -0.8342  0.6573 -0.3096
 2838TIP3   OH2 8477   3.279   3.713   3.331  0.8475 -0.0863 -0.6481
 2838TIP3    H1 8478   3.360   3.690   3.284  1.2130 -0.0445 -0.0477
 2838TIP3    H2 8479   3.212   3.715   3.263  1.3787  0.0178 -1.1803
 2839TIP3   OH2 8480   6.875   3.604   4.148  0.8247  0.4754 -0.4371
 2839TIP3    H1 8481   6.783   3.611   4.172  0.7758  1.2296 -0.8134
 2839TIP3    H2 8482   6.875   3.567   4.060  0.9092 -0.0907 -0.2020
 2840TIP3   OH2 8483   3.673   2.651   3.512  0.4461  0.3869 -0.2252
 2840TIP3    H1 8484   3.606   2.609   3.567  0.9534  0.9617  0.8656
 2840TIP3    H2 8485   3.700   2.728   3.562  3.0289 -0.6366  0.1104
 2841TIP3   OH2 8486   3.851   0.825   1.041 -0.6257 -0.1366 -0.3834
 2841TIP3    H1 8487   3.764   0.865   1.042 -1.6209 -2.1498 -0.3824
 2841TIP3    H2 8488   3.871   0.813   0.948 -0.2302  0.5061 -0.3903
 2842TIP3   OH2 8489   2.340   3.328   2.619 -0.1848 -0.0338  0.3476
 2842TIP3    H1 8490   2.247   3.314   2.637 -0.1603  1.4662  1.9855
 2842TIP3    H2 8491   2.384   3.260   2.671 -0.3316 -0.9517 -0.6815
 2843TIP3   OH2 8492   5.997   0.082   2.552  0.4647 -0.1812 -0.1652
 2843TIP3    H1 8493   5.942   0.160   2.552  2.0614  1.0087  0.2781
 2843TIP3    H2 8494   6.032   0.077   2.641 -0.5642 -2.1481  0.1799
 2844TIP3   OH2 8495   6.524   0.078   1.492 -0.2086  0.1300  0.2019
 2844TIP3    H1 8496   6.607   0.123   1.475  0.0737 -0.6743 -0.6270
 2844TIP3    H2 8497   6.462   0.120   1.434 -0.0519 -0.2151 -0.2220
 2845TIP3   OH2 8498   4.117   6.370   5.504 -0.5859 -0.1967 -0.0024
 2845TIP3    H1 8499   4.114   6.274   5.503 -1.4764 -0.1845 -0.0090
 2845TIP3    H2 8500   4.123   6.395   5.412  1.3013 -0.2589  0.0810
 2846TIP3   OH2 8501   1.673   1.974   3.311  0.0889  0.0060  0.2978
 2846TIP3    H1 8502   1.715   1.892   3.284  0.2489  0.5870 -1.2676
 2846TIP3    H2 8503   1.579   1.956   3.304  0.0844  0.7099 -2.6327
 2847TIP3   OH2 8504   3.216   3.448   5.078  0.3547  0.1386 -0.0724
 2847TIP3    H1 8505   3.196   3.531   5.120  0.7105  0.5665 -0.7345
 2847TIP3    H2 8506   3.165   3.383   5.127 -1.7048  1.0224 -0.9485
 2848TIP3   OH2 8507   1.115   1.397   4.005 -0.8085 -0.0637  0.0299
 2848TIP3    H1 8508   1.188   1.370   3.948 -0.6047  0.3436  0.0949
 2848TIP3    H2 8509   1.068   1.315   4.024 -0.7609 -0.2317 -0.5584
 2849TIP3   OH2 8510   6.454   1.834   4.876 -0.0488 -0.0294 -0.2099
 2849TIP3    H1 8511   6.483   1.779   4.949 -0.1857  1.5008  1.0509
 2849TIP3    H2 8512   6.509   1.807   4.802  1.1315 -0.6063  0.8411
 2850TIP3   OH2 8513   2.780   1.656   3.974  0.0896  0.0296 -0.1126
 2850TIP3    H1 8514   2.693   1.685   3.947  0.0359  1.3093  1.2860
 2850TIP3    H2 8515   2.840   1.698   3.912 -0.0550  2.6572  1.3632
 2851TIP3   OH2 8516   1.667   5.878   5.423  0.5328  0.0633  0.4450
 2851TIP3    H1 8517   1.721   5.953   5.400  0.3998  0.7303  2.1192
 2851TIP3    H2 8518   1.594   5.915   5.472 -3.3460 -0.3597 -4.2534
 2852TIP3   OH2 8519   4.299   1.808   5.658  0.4651  0.3142 -0.3594
 2852TIP3    H1 8520   4.355   1.733   5.637  0.9336 -0.0586  1.9623
 2852TIP3    H2 8521   4.231   1.772   5.714 -0.3537  1.3297 -0.6839
 2853TIP3   OH2 8522   3.588   2.967   0.426 -0.3770  0.5509  0.2012
 2853TIP3    H1 8523   3.534   2.998   0.498 -1.0600  1.5959 -0.7298
 2853TIP3    H2 8524   3.552   2.881   0.404 -0.6422  0.5575  0.6116
 2854TIP3   OH2 8525   1.704   1.646   2.126 -0.1979  0.5179  0.3673
 2854TIP3    H1 8526   1.700   1.553   2.146  4.2209  0.2627  0.8943
 2854TIP3    H2 8527   1.675   1.689   2.206  0.5254 -0.4496  1.1660
 2855TIP3   OH2 8528   1.938   2.456   4.073 -0.5155 -0.2510 -0.1897
 2855TIP3    H1 8529   1.856   2.410   4.053 -0.8257  0.7466 -1.2982
 2855TIP3    H2 8530   1.998   2.429   4.003  1.0570 -3.1265  2.0557
 2856TIP3   OH2 8531   2.773   1.891   1.595 -0.6696 -0.0114  0.2493
 2856TIP3    H1 8532   2.821   1.942   1.529 -0.6108 -0.4605 -0.0558
 2856TIP3    H2 8533   2.793   1.800   1.575 -1.8635 -0.2240 -0.0472
 2857TIP3   OH2 8534   7.174   5.431   2.169 -0.1325 -0.8905 -0.1126
 2857TIP3    H1 8535   7.155   5.420   2.262 -1.7282  0.1218 -0.2765
 2857TIP3    H2 8536   7.094   5.402   2.124  0.5296 -1.1585 -1.1554
 2858TIP3   OH2 8537   4.429   3.936   5.411  0.3216 -0.1308  0.0655
 2858TIP3    H1 8538   4.387   3.962   5.329 -1.0619  1.3611  1.1916
 2858TIP3    H2 8539   4.477   4.013   5.439  0.0541 -0.3251  1.0987
 2859TIP3   OH2 8540   3.424   5.784   2.297  0.0824  0.5448  0.3284
 2859TIP3    H1 8541   3.500   5.731   2.274 -0.9894 -0.8541 -0.1093
 2859TIP3    H2 8542   3.461   5.867   2.328  1.7449  0.2225 -0.6956
 2860TIP3   OH2 8543   2.276   1.078   5.403 -0.2979 -0.1018 -0.3332
 2860TIP3    H1 8544   2.369   1.103   5.411 -0.1123 -0.9668  0.3890
 2860TIP3    H2 8545   2.229   1.146   5.451  0.1269 -0.6384  0.8757
 2861TIP3   OH2 8546   3.571   0.641   3.184 -0.2717  0.0109  0.3186
 2861TIP3    H1 8547   3.642   0.688   3.228 -0.0077 -0.2794  0.2073
 2861TIP3    H2 8548   3.496   0.700   3.190 -0.0046  0.3487  0.3852
 2862TIP3   OH2 8549   0.865   0.549   0.768  0.1759 -0.1453 -0.7839
 2862TIP3    H1 8550   0.915   0.629   0.782 -0.4942  0.0846  0.4238
 2862TIP3    H2 8551   0.923   0.479   0.798  0.3159 -0.0120 -0.7438
 2863TIP3   OH2 8552   3.921   5.944   4.484 -0.1022  0.6072 -0.0462
 2863TIP3    H1 8553   3.896   6.037   4.478  1.8507  1.1213 -1.1007
 2863TIP3    H2 8554   3.906   5.910   4.395  1.1189  0.4730 -0.2205
 2864TIP3   OH2 8555   4.715   2.263   5.787 -0.1481  0.0933 -0.0001
 2864TIP3    H1 8556   4.751   2.196   5.845 -0.1652  1.3730  1.5716
 2864TIP3    H2 8557   4.713   2.222   5.701 -0.6904 -2.1123  0.9891
 2865TIP3   OH2 8558   4.302   6.076   4.788  0.1178  0.1750 -0.4148
 2865TIP3    H1 8559   4.232   6.141   4.782 -0.6413 -0.7347 -1.7227
 2865TIP3    H2 8560   4.268   6.008   4.845  0.6237  0.5344  0.3385
 2866TIP3   OH2 8561   0.703   5.644   3.785  0.2547 -0.0586 -0.6966
 2866TIP3    H1 8562   0.757   5.665   3.861  0.7359  0.1595 -1.0882
 2866TIP3    H2 8563   0.739   5.561   3.753 -0.4501 -0.5505 -0.2347
 2867TIP3   OH2 8564   6.617   5.948   3.100  0.3481  0.1556  0.0168
 2867TIP3    H1 8565   6.711   5.928   3.106  0.6437  0.1615 -3.0739
 2867TIP3    H2 8566   6.575   5.862   3.095  0.5346  0.1457 -1.8264
 2868TIP3   OH2 8567   5.271   0.732   4.980  0.4474 -0.5080  0.1553
 2868TIP3    H1 8568   5.307   0.651   4.944 -0.1576 -1.2002  1.0639
 2868TIP3    H2 8569   5.283   0.796   4.910  0.2078 -1.5632 -0.8982
 2869TIP3   OH2 8570   4.392   1.932   0.409 -0.0923  0.2331 -0.5054
 2869TIP3    H1 8571   4.354   2.004   0.461 -0.4497 -0.0298 -0.3967
 2869TIP3    H2 8572   4.460   1.895   0.465 -0.2261  0.1867 -0.3734
 2870TIP3   OH2 8573   3.811   1.984   0.509  0.1405 -0.0358  0.0874
 2870TIP3    H1 8574   3.781   1.943   0.428 -0.2775 -0.1789  0.3111
 2870TIP3    H2 8575   3.864   2.059   0.481 -2.2143  1.5674 -0.3574
 2871TIP3   OH2 8576   5.935   5.772   5.014 -0.3609 -0.2600  0.0366
 2871TIP3    H1 8577   5.917   5.858   4.975 -0.9085 -0.1085  0.6077
 2871TIP3    H2 8578   5.948   5.789   5.107  2.1203 -0.4679 -0.2159
 2872TIP3   OH2 8579   3.518   3.812   3.777 -0.1175  0.5550 -0.1407
 2872TIP3    H1 8580   3.450   3.804   3.844 -0.6897  0.1242 -0.7527
 2872TIP3    H2 8581   3.596   3.842   3.824 -0.2509 -0.6113  0.8621
 2873TIP3   OH2 8582   6.651   2.854   3.870 -0.5080 -0.4567 -0.2543
 2873TIP3    H1 8583   6.619   2.869   3.959 -0.0774 -0.0152 -0.1683
 2873TIP3    H2 8584   6.716   2.784   3.879 -0.7031 -0.6398 -0.2716
 2874TIP3   OH2 8585   3.532   0.998   5.096  0.3303  0.3390  0.3156
 2874TIP3    H1 8586   3.456   1.005   5.038  1.8010 -0.5118 -1.8452
 2874TIP3    H2 8587   3.524   1.073   5.155 -0.7292  1.9178 -1.6931
 2875TIP3   OH2 8588   5.620   0.200   1.758 -0.1061 -0.0028  0.1788
 2875TIP3    H1 8589   5.626   0.139   1.684 -0.6875 -0.7966  0.7688
 2875TIP3    H2 8590   5.710   0.225   1.777  0.0496  0.2107 -0.7973
 2876TIP3   OH2 8591   6.396   3.907   2.672  0.5858 -0.4331  0.7717
 2876TIP3    H1 8592   6.320   3.883   2.619  0.1308  0.6057  0.9277
 2876TIP3    H2 8593   6.397   3.844   2.743  0.0708 -0.6596  0.5790
 2877TIP3   OH2 8594   3.347   4.314   5.405 -0.1886  0.8889 -0.0335
 2877TIP3    H1 8595   3.390   4.399   5.391  0.1673  0.9788  1.4115
 2877TIP3    H2 8596   3.417   4.250   5.393 -0.4444  0.7907 -1.0673
 2878TIP3   OH2 8597   4.153   6.591   1.564 -0.5262  0.0173  0.6057
 2878TIP3    H1 8598   4.074   6.539   1.579 -0.6113  0.7279  3.0152
 2878TIP3    H2 8599   4.126   6.681   1.578  0.3104  0.4550 -0.4471
 2879TIP3   OH2 8600   4.547   1.430   5.768 -0.7864  0.2646 -0.2969
 2879TIP3    H1 8601   4.574   1.453   5.857 -1.9211 -0.2974  0.2151
 2879TIP3    H2 8602   4.629   1.418   5.720 -0.0757 -1.6474  1.2421
 2880TIP3   OH2 8603   5.291   5.236   4.908  0.6378  0.2811 -0.1212
 2880TIP3    H1 8604   5.261   5.303   4.848  0.1921  0.2075  0.0157
 2880TIP3    H2 8605   5.245   5.255   4.990 -0.6840 -1.0872 -0.4993
 2881TIP3   OH2 8606   5.481   3.390   3.606 -0.0408 -0.1184 -0.6697
 2881TIP3    H1 8607   5.496   3.477   3.569  0.6305  0.9708  1.9783
 2881TIP3    H2 8608   5.568   3.349   3.607  0.3035  0.5668  1.2487
 2882TIP3   OH2 8609   6.606   1.570   2.005 -0.4171 -0.0497 -0.5132
 2882TIP3    H1 8610   6.640   1.500   2.061 -1.0186 -1.4853 -1.8636
 2882TIP3    H2 8611   6.672   1.578   1.935 -0.3940  0.6870 -0.4103
 2883TIP3   OH2 8612   4.180   0.919   2.262 -0.0540  0.0944 -0.2140
 2883TIP3    H1 8613   4.234   0.995   2.242 -0.3908  0.4947  0.3550
 2883TIP3    H2 8614   4.235   0.863   2.316 -0.3231  0.6911  0.7083
 2884TIP3   OH2 8615   1.493   2.339   1.920 -0.3805  0.0329 -0.7273
 2884TIP3    H1 8616   1.479   2.409   1.856  0.0386  2.1255  1.3253
 2884TIP3    H2 8617   1.585   2.316   1.911  0.2945  1.9764  0.5973
 2885TIP3   OH2 8618   5.705   2.113   2.692  0.3197 -0.2510 -0.0280
 2885TIP3    H1 8619   5.627   2.071   2.657  1.0352 -1.2210 -0.5318
 2885TIP3    H2 8620   5.673   2.190   2.737 -0.8242 -0.0004 -1.2012
 2886TIP3   OH2 8621   1.085   5.101   0.610 -0.1273 -0.2823 -0.4531
 2886TIP3    H1 8622   1.092   5.103   0.515  0.3468 -0.5081 -0.4248
 2886TIP3    H2 8623   1.095   5.008   0.633 -1.3822 -0.3884 -0.2677
 2887TIP3   OH2 8624   0.487   2.151   0.109 -0.0329 -0.4570 -0.1206
 2887TIP3    H1 8625   0.556   2.085   0.106 -0.6914 -1.1524 -0.2230
 2887TIP3    H2 8626   0.514   2.217   0.046  0.5811 -0.6808 -0.0986
 2888TIP3   OH2 8627   4.162   0.901   4.882 -0.1137  0.0207  0.1341
 2888TIP3    H1 8628   4.075   0.866   4.902 -0.3309  0.8002  0.5980
 2888TIP3    H2 8629   4.223   0.844   4.928 -0.2342 -1.6652 -1.6905
 2889TIP3   OH2 8630   3.483   1.776   4.198 -0.3492  0.1543 -0.0384
 2889TIP3    H1 8631   3.441   1.745   4.118 -1.3046  1.5535 -0.1257
 2889TIP3    H2 8632   3.559   1.825   4.167 -0.7212  0.6992 -0.1222
 2890TIP3   OH2 8633   5.386   5.261   0.856 -0.5312 -0.1191 -0.0362
 2890TIP3    H1 8634   5.340   5.329   0.907 -0.1917  1.3276 -1.5746
 2890TIP3    H2 8635   5.320   5.228   0.795 -0.1820  0.2080 -0.5936
 2891TIP3   OH2 8636   2.861   0.797   3.899 -0.3174 -0.3037 -0.2422
 2891TIP3    H1 8637   2.956   0.787   3.894 -0.0187  1.7557  0.4807
 2891TIP3    H2 8638   2.842   0.875   3.847 -1.1380  1.3558  2.3562
 2892TIP3   OH2 8639   4.180   5.283   0.115 -0.4587  0.0671  0.2352
 2892TIP3    H1 8640   4.246   5.261   0.049 -0.7302  0.1265 -0.0618
 2892TIP3    H2 8641   4.128   5.352   0.074  0.1923  1.0579  1.0330
 2893TIP3   OH2 8642   3.563   0.381   0.129  0.2469  0.4591  0.7506
 2893TIP3    H1 8643   3.514   0.307   0.095 -0.4399  1.0292  0.4744
 2893TIP3    H2 8644   3.628   0.401   0.061  1.7406 -1.0862  1.6552
 2894TIP3   OH2 8645   5.653   2.250   0.597 -0.0180  0.1549  0.1684
 2894TIP3    H1 8646   5.735   2.201   0.591  0.2740  0.3892  1.7574
 2894TIP3    H2 8647   5.604   2.207   0.666 -0.1545  1.5035  0.9601
 2895TIP3   OH2 8648   0.373   0.746   5.250 -0.1909  0.1040  0.0508
 2895TIP3    H1 8649   0.457   0.715   5.285 -0.3996 -0.4083  0.1118
 2895TIP3    H2 8650   0.350   0.822   5.304 -1.5458 -1.8900  2.4895
 2896TIP3   OH2 8651   7.075   4.378   2.463  0.1906  0.1252 -0.0081
 2896TIP3    H1 8652   7.079   4.291   2.424 -1.6152 -0.0381  0.0609
 2896TIP3    H2 8653   7.117   4.369   2.548  1.7686 -0.1753 -0.7889
 2897TIP3   OH2 8654   1.296   2.944   3.584  0.5018 -0.7279  0.0661
 2897TIP3    H1 8655   1.251   3.007   3.639  0.0260 -1.2504  0.2824
 2897TIP3    H2 8656   1.232   2.875   3.567  0.5544 -0.4574 -1.3626
 2898TIP3   OH2 8657   2.740   0.474   0.817 -0.9214  0.5554 -0.1370
 2898TIP3    H1 8658   2.807   0.439   0.877 -1.2388 -1.9764 -1.1381
 2898TIP3    H2 8659   2.711   0.555   0.859  0.2370 -0.1050  2.1372
 2899TIP3   OH2 8660   1.753   1.177   5.610 -0.3106 -0.0725  0.3612
 2899TIP3    H1 8661   1.821   1.113   5.634 -0.3665 -0.7352 -1.1427
 2899TIP3    H2 8662   1.763   1.248   5.673  2.0365  0.0296 -0.0406
 2900TIP3   OH2 8663   4.824   6.700   3.813 -0.2165  0.6619  0.4471
 2900TIP3    H1 8664   4.878   6.775   3.787  1.0338 -0.0510  0.9184
 2900TIP3    H2 8665   4.882   6.647   3.867 -1.2357 -0.4151  0.5058
 2901TIP3   OH2 8666   2.347   2.600   4.726  0.6284  0.0119  0.3857
 2901TIP3    H1 8667   2.262   2.636   4.700  0.6138  0.1087  0.5660
 2901TIP3    H2 8668   2.388   2.574   4.643 -0.7646 -2.7587  0.4690
 2902TIP3   OH2 8669   6.016   3.025   0.134 -0.4194 -0.2756  0.3088
 2902TIP3    H1 8670   6.071   3.039   0.212 -1.9402 -0.3608  1.4494
 2902TIP3    H2 8671   5.945   2.969   0.165 -2.6510  1.9914 -0.3699
 2903TIP3   OH2 8672   6.974   4.019   5.349  0.2151 -0.2761  0.0240
 2903TIP3    H1 8673   7.028   4.006   5.271 -0.1791 -0.1688 -0.2703
 2903TIP3    H2 8674   6.951   4.112   5.347  0.3436 -0.2360  0.3609
 2904TIP3   OH2 8675   0.981   1.643   3.469 -0.1319  0.6157  0.2135
 2904TIP3    H1 8676   0.966   1.737   3.478 -0.0352  0.5517  1.2025
 2904TIP3    H2 8677   1.073   1.635   3.444 -0.2089  0.7881 -0.1332
 2905TIP3   OH2 8678   5.122   3.098   0.530  0.0604 -0.1462  0.0591
 2905TIP3    H1 8679   5.146   3.012   0.563 -1.3651 -0.7108 -0.2891
 2905TIP3    H2 8680   5.066   3.135   0.598 -1.1172 -0.4241 -0.7264
 2906TIP3   OH2 8681   3.886   1.692   0.921  0.5554 -0.1425  0.5240
 2906TIP3    H1 8682   3.826   1.680   0.848 -1.4609  0.6685  1.9736
 2906TIP3    H2 8683   3.965   1.644   0.895 -0.3543 -0.4859 -1.8380
 2907TIP3   OH2 8684   6.627   6.281   1.918  0.0986 -0.5560  0.2002
 2907TIP3    H1 8685   6.555   6.334   1.954 -1.0024 -0.6605 -1.7058
 2907TIP3    H2 8686   6.601   6.191   1.936  0.1182 -0.5692  0.1620
 2908TIP3   OH2 8687   2.487   5.603   5.667 -0.4519  0.3224 -0.5077
 2908TIP3    H1 8688   2.471   5.614   5.573 -1.7442  1.8851 -0.1455
 2908TIP3    H2 8689   2.400   5.592   5.705  0.1436 -2.0597  0.3647
 2909TIP3   OH2 8690   5.270   3.826   3.052  0.0556  0.1772  0.0546
 2909TIP3    H1 8691   5.313   3.772   2.985  0.3688 -1.3091  1.3860
 2909TIP3    H2 8692   5.209   3.881   3.003  0.5532 -0.5829 -1.4882
 2910TIP3   OH2 8693   6.229   6.299   4.365  0.3760 -0.1261 -0.4124
 2910TIP3    H1 8694   6.286   6.373   4.384 -1.6297  1.8263 -1.5108
 2910TIP3    H2 8695   6.168   6.295   4.439 -1.0211  0.9280 -1.4536
 2911TIP3   OH2 8696   6.413   2.468   3.378 -0.6504  0.1635  0.2751
 2911TIP3    H1 8697   6.343   2.499   3.435 -1.0040 -0.6305  0.2798
 2911TIP3    H2 8698   6.493   2.481   3.428 -0.8353  0.6148  0.4614
 2912TIP3   OH2 8699   5.165   6.597   0.777  0.4388 -0.3878 -0.2897
 2912TIP3    H1 8700   5.176   6.610   0.683  0.0267 -0.1190 -0.3033
 2912TIP3    H2 8701   5.245   6.552   0.804  0.7493 -0.0978 -0.6967
 2913TIP3   OH2 8702   6.259   5.826   2.171  0.3887 -0.4650  0.4510
 2913TIP3    H1 8703   6.205   5.767   2.119 -0.4770  0.2456  0.5264
 2913TIP3    H2 8704   6.210   5.908   2.173  2.1695  0.6888 -0.7318
 2914TIP3   OH2 8705   3.111   5.784   2.594  0.1478  0.6237 -0.3782
 2914TIP3    H1 8706   3.153   5.744   2.518  0.4870 -2.0462  1.0695
 2914TIP3    H2 8707   3.026   5.814   2.561  0.5036  0.0444 -1.9175
 2915TIP3   OH2 8708   1.311   1.224   2.368  0.0252 -1.0273  0.3828
 2915TIP3    H1 8709   1.300   1.298   2.428  2.4134 -0.0377 -0.3070
 2915TIP3    H2 8710   1.379   1.252   2.307  0.1354 -3.3485 -0.6587
 2916TIP3   OH2 8711   3.894   6.092   0.913 -0.3054  0.0482 -0.3308
 2916TIP3    H1 8712   3.805   6.077   0.945  0.5865 -1.7607  1.5861
 2916TIP3    H2 8713   3.938   6.008   0.925  1.4742  0.6853 -1.9417
 2917TIP3   OH2 8714   2.956   5.598   5.225  0.5686  0.5059  0.0561
 2917TIP3    H1 8715   2.956   5.632   5.135  0.5352  2.2644  0.6815
 2917TIP3    H2 8716   2.870   5.558   5.235 -0.0755  1.7439 -0.2151
 2918TIP3   OH2 8717   0.274   0.195   4.745  0.0706 -0.3154  0.4758
 2918TIP3    H1 8718   0.268   0.121   4.685 -0.6085  2.1645 -2.7979
 2918TIP3    H2 8719   0.193   0.192   4.796  0.8673 -2.7407  1.7612
 2919TIP3   OH2 8720   2.796   4.338   2.532  0.0798  0.3222 -0.4485
 2919TIP3    H1 8721   2.825   4.295   2.612 -1.9590  1.2292  0.8542
 2919TIP3    H2 8722   2.804   4.271   2.464  1.8971 -0.4481  0.4811
 2920TIP3   OH2 8723   6.975   1.452   5.172 -0.3357  0.0840  0.2479
 2920TIP3    H1 8724   6.911   1.429   5.240 -1.8036  1.0532 -0.7281
 2920TIP3    H2 8725   7.028   1.521   5.211  0.3867 -0.9940  1.2067
 2921TIP3   OH2 8726   5.375   3.562   5.693  0.2084  0.4526  0.1837
 2921TIP3    H1 8727   5.467   3.547   5.669 -0.6294 -1.1967 -2.3137
 2921TIP3    H2 8728   5.362   3.507   5.771  1.4439  1.2104  0.9749
 2922TIP3   OH2 8729   3.325   5.106   1.357  0.4560 -0.0358  0.5422
 2922TIP3    H1 8730   3.304   5.021   1.395  0.6122 -1.0540 -1.4995
 2922TIP3    H2 8731   3.244   5.133   1.314  0.1568  1.2872  1.8595
 2923TIP3   OH2 8732   4.100   3.836   5.430  0.0875  0.8908  0.0642
 2923TIP3    H1 8733   4.045   3.761   5.450  0.7110 -0.0781 -1.6840
 2923TIP3    H2 8734   4.171   3.832   5.494  0.3873 -0.3292 -0.3254
 2924TIP3   OH2 8735   5.943   3.273   2.422  0.4234 -0.3726  0.3314
 2924TIP3    H1 8736   5.858   3.251   2.459  0.3643 -1.1034 -0.2087
 2924TIP3    H2 8737   6.003   3.209   2.458  0.5240 -0.5679 -0.1730
 2925TIP3   OH2 8738   2.380   1.726   1.065 -0.4142 -0.0061 -0.5054
 2925TIP3    H1 8739   2.367   1.794   1.000  1.2764  3.0019  1.9946
 2925TIP3    H2 8740   2.466   1.688   1.044 -0.0571  0.6688 -0.2774
 2926TIP3   OH2 8741   0.611   4.089   3.829 -0.2299  0.2240  0.3475
 2926TIP3    H1 8742   0.685   4.099   3.889  0.4515  2.0831 -0.7231
 2926TIP3    H2 8743   0.643   4.030   3.761 -0.2412 -0.1055  0.6236
 2927TIP3   OH2 8744   0.843   2.676   0.174 -0.2483 -0.1030  0.9127
 2927TIP3    H1 8745   0.779   2.619   0.217 -1.6977  2.0378  1.8105
 2927TIP3    H2 8746   0.864   2.742   0.241  0.3933  1.1214 -0.4464
 2928TIP3   OH2 8747   2.595   1.634   4.463 -0.1915  0.2529  0.4636
 2928TIP3    H1 8748   2.620   1.558   4.516  0.0891 -0.9897 -1.3565
 2928TIP3    H2 8749   2.613   1.607   4.373 -2.7984  1.3852 -0.5084
 2929TIP3   OH2 8750   0.315   1.061   4.260  0.4443 -0.4505  0.2086
 2929TIP3    H1 8751   0.225   1.090   4.277  0.1986 -1.1634  0.1721
 2929TIP3    H2 8752   0.308   0.966   4.251  1.2863 -0.5717  0.7162
 2930TIP3   OH2 8753   2.320   2.909   2.884  0.4294  0.4350 -0.0267
 2930TIP3    H1 8754   2.378   2.833   2.877  0.8857  0.8401 -0.8545
 2930TIP3    H2 8755   2.368   2.980   2.842 -0.4604  0.8984 -0.3025
 2931TIP3   OH2 8756   6.996   2.691   3.492  0.1544  0.3912  0.2161
 2931TIP3    H1 8757   6.949   2.769   3.523 -2.1866 -0.6865 -0.3738
 2931TIP3    H2 8758   7.015   2.641   3.572  1.9613  1.6601  0.6290
 2932TIP3   OH2 8759   0.487   1.801   3.650  0.7824  0.0583  0.1633
 2932TIP3    H1 8760   0.444   1.799   3.736  1.4096 -2.6199  0.5029
 2932TIP3    H2 8761   0.458   1.721   3.607  0.2596  1.4904 -2.3085
 2933TIP3   OH2 8762   0.867   4.728   0.423  0.1624 -0.4974  0.1923
 2933TIP3    H1 8763   0.902   4.810   0.457 -1.6293  0.0151  0.8758
 2933TIP3    H2 8764   0.940   4.690   0.374  1.9392  0.1397  2.1675
 2934TIP3   OH2 8765   6.940   5.970   3.852  0.3297 -0.0086  0.3197
 2934TIP3    H1 8766   6.871   6.014   3.803  0.9480  1.7342  0.9297
 2934TIP3    H2 8767   6.962   5.894   3.800 -0.4354  0.6801 -1.0653
 2935TIP3   OH2 8768   6.347   5.660   2.383 -0.1846  0.0286 -0.2112
 2935TIP3    H1 8769   6.315   5.576   2.351 -2.2082 -0.0155  1.6826
 2935TIP3    H2 8770   6.311   5.724   2.321  1.2688 -0.4218 -1.5955
 2936TIP3   OH2 8771   6.502   2.921   1.887 -0.1675  0.2780 -0.0805
 2936TIP3    H1 8772   6.517   2.924   1.982  0.4578 -2.0587 -0.0526
 2936TIP3    H2 8773   6.437   2.852   1.876 -0.4194  0.7030 -1.3565
 2937TIP3   OH2 8774   5.417   0.743   2.386  0.0117  0.1536  0.0076
 2937TIP3    H1 8775   5.443   0.796   2.310  4.3066  0.4856  1.4781
 2937TIP3    H2 8776   5.442   0.654   2.362 -0.3923 -0.0490  0.3297
 2938TIP3   OH2 8777   6.529   1.969   1.670  0.1806 -0.1769 -0.4969
 2938TIP3    H1 8778   6.580   2.011   1.601 -1.7326  0.5173 -1.5461
 2938TIP3    H2 8779   6.548   1.876   1.661 -0.8372 -0.2213 -2.6886
 2939TIP3   OH2 8780   2.976   0.713   4.329  0.0775  0.0045  0.1526
 2939TIP3    H1 8781   2.902   0.688   4.274 -0.0567 -0.2589  0.4510
 2939TIP3    H2 8782   2.960   0.670   4.413  0.1858  0.5483  0.4612
 2940TIP3   OH2 8783   1.720   1.751   0.873  0.0709 -0.0418  0.0953
 2940TIP3    H1 8784   1.746   1.687   0.808  0.4371  1.2529 -1.0701
 2940TIP3    H2 8785   1.793   1.754   0.935 -0.2164 -1.1688  0.5094
 2941TIP3   OH2 8786   1.271   1.328   3.592  0.6605  0.5582  0.4486
 2941TIP3    H1 8787   1.227   1.328   3.507  0.5235 -1.3668  0.4711
 2941TIP3    H2 8788   1.232   1.401   3.640 -1.1707  0.0481 -0.2011
 2942TIP3   OH2 8789   1.383   6.682   3.613  0.0194  0.5524  0.2125
 2942TIP3    H1 8790   1.423   6.752   3.561  0.4760  0.0226 -0.1507
 2942TIP3    H2 8791   1.351   6.727   3.691  1.9392  0.8905  0.8484
 2943TIP3   OH2 8792   1.334   3.483   0.293 -0.1882  0.3525 -0.3151
 2943TIP3    H1 8793   1.363   3.467   0.383 -1.0884 -0.6060 -0.1703
 2943TIP3    H2 8794   1.244   3.515   0.302 -0.0533  0.9021 -0.8549
 2944TIP3   OH2 8795   2.502   2.828   4.051 -0.2588  0.0172  0.0137
 2944TIP3    H1 8796   2.487   2.736   4.074  0.2177 -0.2710 -0.7917
 2944TIP3    H2 8797   2.556   2.825   3.972  1.0522  1.0115  0.8410
 2945TIP3   OH2 8798   6.226   0.834   5.670  0.2827  0.6052 -0.1225
 2945TIP3    H1 8799   6.136   0.846   5.638  0.4975 -0.9262 -1.4423
 2945TIP3    H2 8800   6.225   0.749   5.714  1.1112  0.5113 -0.2752
 2946TIP3   OH2 8801   3.830   0.680   3.532  0.3238  0.0057 -0.1726
 2946TIP3    H1 8802   3.822   0.775   3.540  2.7658  0.3042 -0.4737
 2946TIP3    H2 8803   3.768   0.645   3.595 -1.6414  1.7354 -1.0075
 2947TIP3   OH2 8804   6.209   1.516   4.126 -0.2356  0.1735  0.5610
 2947TIP3    H1 8805   6.202   1.420   4.119  0.1250  0.2118 -0.7180
 2947TIP3    H2 8806   6.121   1.545   4.148 -0.4822 -0.4267  0.3918
 2948TIP3   OH2 8807   2.708   3.529   2.461  0.2881 -0.3061  0.4206
 2948TIP3    H1 8808   2.660   3.612   2.464  0.2848 -0.2324 -0.8739
 2948TIP3    H2 8809   2.792   3.549   2.503  0.1598  0.2661  0.4180
 2949TIP3   OH2 8810   4.295   2.070   2.489 -0.4759 -0.3928 -0.3739
 2949TIP3    H1 8811   4.320   1.978   2.485 -0.3615 -0.3544 -0.5320
 2949TIP3    H2 8812   4.201   2.068   2.510 -0.2513 -0.5265  0.6511
 2950TIP3   OH2 8813   6.472   1.079   4.287 -0.0534  0.2409  0.2131
 2950TIP3    H1 8814   6.416   1.003   4.276 -0.0375  0.2783 -0.1576
 2950TIP3    H2 8815   6.487   1.085   4.381  0.8229 -0.8481  0.1675
 2951TIP3   OH2 8816   6.478   5.469   3.617  0.1438  0.2463  0.3835
 2951TIP3    H1 8817   6.448   5.521   3.691  1.6735  1.1915  0.3973
 2951TIP3    H2 8818   6.417   5.490   3.546  0.3026  1.5297  0.6009
 2952TIP3   OH2 8819   0.049   5.384   5.210  0.0026  0.2193 -0.5305
 2952TIP3    H1 8820   0.036   5.393   5.116  1.0551  1.0521 -0.6049
 2952TIP3    H2 8821   0.037   5.290   5.227  0.3055 -0.0113 -1.5649
 2953TIP3   OH2 8822   5.703   6.689   3.020  0.7155 -0.0862  0.3520
 2953TIP3    H1 8823   5.733   6.695   3.111  1.1161 -2.7666  0.4887
 2953TIP3    H2 8824   5.739   6.607   2.989 -1.8672 -0.7199 -1.2922
 2954TIP3   OH2 8825   2.557   6.548   2.495 -0.2201  0.1715  0.5420
 2954TIP3    H1 8826   2.513   6.493   2.430  0.7731 -2.0409  1.6063
 2954TIP3    H2 8827   2.488   6.602   2.532 -1.1074  0.2524 -1.1516
 2955TIP3   OH2 8828   7.080   4.469   1.604  0.6624 -0.2813  0.3663
 2955TIP3    H1 8829   7.063   4.561   1.586  0.2713 -0.3858  0.1977
 2955TIP3    H2 8830   7.096   4.466   1.699  0.0199 -0.1363  0.4827
 2956TIP3   OH2 8831   1.483   4.716   3.339 -0.6899  0.3157  0.0445
 2956TIP3    H1 8832   1.558   4.775   3.348  0.8949 -1.1948 -2.2877
 2956TIP3    H2 8833   1.502   4.644   3.399 -0.2411 -0.0814 -0.5684
 2957TIP3   OH2 8834   2.279   0.746   2.135 -0.2557 -0.2463 -0.2387
 2957TIP3    H1 8835   2.206   0.793   2.095  0.1185  0.6441  0.1064
 2957TIP3    H2 8836   2.256   0.742   2.228  0.0871 -0.0555 -0.1468
 2958TIP3   OH2 8837   0.668   0.321   3.276  0.6494 -0.0467 -0.2564
 2958TIP3    H1 8838   0.704   0.274   3.201  0.7333 -0.2995 -0.0590
 2958TIP3    H2 8839   0.595   0.266   3.306  0.1297  0.4320 -0.6176
 2959TIP3   OH2 8840   4.978   2.644   1.085  0.3444  0.1080 -0.1547
 2959TIP3    H1 8841   4.900   2.696   1.106 -0.6865 -0.6860 -1.7731
 2959TIP3    H2 8842   5.047   2.681   1.140 -0.5694  2.5106 -0.4821
 2960TIP3   OH2 8843   4.762   4.913   0.661  0.3060  0.2055 -0.1860
 2960TIP3    H1 8844   4.853   4.943   0.653  0.4986  0.3892  2.1496
 2960TIP3    H2 8845   4.717   4.984   0.706 -0.3626 -0.9687  1.0626
 2961TIP3   OH2 8846   3.881   5.411   2.729 -0.2743 -0.3499  0.1283
 2961TIP3    H1 8847   3.886   5.315   2.729 -0.4538 -0.3928 -1.8152
 2961TIP3    H2 8848   3.961   5.439   2.685 -1.1845  0.2691 -1.2208
 2962TIP3   OH2 8849   4.501   6.529   5.373 -0.1563 -0.1449 -0.3556
 2962TIP3    H1 8850   4.528   6.620   5.382 -0.3130  0.0052 -1.2860
 2962TIP3    H2 8851   4.436   6.516   5.441 -0.2734  0.4957 -0.3449
 2963TIP3   OH2 8852   1.310   5.135   5.153  0.0560  0.3649  0.1391
 2963TIP3    H1 8853   1.253   5.124   5.229 -2.4131  1.1232 -1.4856
 2963TIP3    H2 8854   1.285   5.220   5.116  2.3250  0.7605 -0.6467
 2964TIP3   OH2 8855   6.247   3.721   3.370  0.4597 -0.1032 -0.2721
 2964TIP3    H1 8856   6.210   3.809   3.378 -0.8209 -0.5231 -1.1721
 2964TIP3    H2 8857   6.324   3.733   3.314  0.1205  0.4106 -0.6466
 2965TIP3   OH2 8858   1.297   2.191   2.005 -0.1968  0.7620  0.2874
 2965TIP3    H1 8859   1.270   2.142   1.928 -0.8818 -1.4406  1.8274
 2965TIP3    H2 8860   1.380   2.232   1.980 -0.8414  0.8524 -1.8588
 2966TIP3   OH2 8861   3.120   1.466   0.428  0.7675  0.1973 -0.0187
 2966TIP3    H1 8862   3.117   1.523   0.352 -0.3178  0.1636 -0.0225
 2966TIP3    H2 8863   3.175   1.512   0.491  0.6467  0.8167 -0.3631
 2967TIP3   OH2 8864   0.856   6.144   3.420  0.1354 -0.3091  0.0127
 2967TIP3    H1 8865   0.916   6.140   3.346  0.2284  1.0043 -0.0063
 2967TIP3    H2 8866   0.777   6.099   3.390 -0.3303  1.3278 -1.4074
 2968TIP3   OH2 8867   2.495   2.912   5.259 -0.2194  0.0524 -0.3350
 2968TIP3    H1 8868   2.480   2.946   5.171  1.8948  1.2763 -0.3098
 2968TIP3    H2 8869   2.516   2.990   5.311 -1.5500 -0.6318  1.3026
 2969TIP3   OH2 8870   0.883   4.457  -0.021  0.3793  0.2972 -0.1091
 2969TIP3    H1 8871   0.930   4.373  -0.025  1.1341  0.7044 -0.0012
 2969TIP3    H2 8872   0.845   4.459   0.066 -1.2517 -0.7631 -0.7445
 2970TIP3   OH2 8873   2.397   5.673   3.656  0.2628  0.6293 -0.4366
 2970TIP3    H1 8874   2.347   5.743   3.614 -0.8420  0.4064  0.4548
 2970TIP3    H2 8875   2.432   5.622   3.583  1.2556  2.1967 -1.1120
 2971TIP3   OH2 8876   3.641   6.097   5.296 -0.3157  0.1652  0.2114
 2971TIP3    H1 8877   3.736   6.082   5.290 -0.7267 -2.9351 -0.6912
 2971TIP3    H2 8878   3.632   6.170   5.357  2.6101 -0.1624  1.2158
 2972TIP3   OH2 8879   0.919   3.386   2.438  0.0826 -0.0502 -0.4850
 2972TIP3    H1 8880   0.855   3.456   2.423  1.2274  0.9969 -0.6090
 2972TIP3    H2 8881   0.874   3.307   2.409 -2.0774  0.2444  1.6927
 2973TIP3   OH2 8882   3.825   1.399   4.984 -0.3810 -0.8058 -0.1738
 2973TIP3    H1 8883   3.807   1.306   4.972  3.1648 -1.5848 -0.4698
 2973TIP3    H2 8884   3.880   1.404   5.062  0.1243  0.9169 -0.5853
 2974TIP3   OH2 8885   0.491   1.060   0.885  0.3454  0.1103 -0.1952
 2974TIP3    H1 8886   0.453   1.068   0.798 -0.6836  1.2596  0.3225
 2974TIP3    H2 8887   0.475   1.145   0.926  2.1736  0.1071  0.5885
 2975TIP3   OH2 8888   2.955   4.229   5.642 -0.0213 -0.3442  0.2685
 2975TIP3    H1 8889   2.990   4.203   5.556 -0.8853 -0.8694  0.0679
 2975TIP3    H2 8890   2.913   4.149   5.675 -1.4533  0.3945  0.2936
 2976TIP3   OH2 8891   6.697   0.520   2.000  0.0707 -0.1602  0.9046
 2976TIP3    H1 8892   6.650   0.439   2.019 -0.7312  0.5478  2.0644
 2976TIP3    H2 8893   6.630   0.579   1.966  0.7380 -0.1048 -0.3863
 2977TIP3   OH2 8894   5.709   5.001   2.719  0.1712 -0.2880 -0.1915
 2977TIP3    H1 8895   5.701   5.086   2.677  0.4568 -0.7980 -1.3197
 2977TIP3    H2 8896   5.625   4.988   2.764 -0.3329  0.0627 -1.0175
 2978TIP3   OH2 8897   4.446   6.697   3.823  0.3727  0.1624  0.1762
 2978TIP3    H1 8898   4.368   6.750   3.807 -0.3396 -0.6386  0.9448
 2978TIP3    H2 8899   4.487   6.737   3.900 -0.1976 -0.4202  0.7931
 2979TIP3   OH2 8900   5.483   3.894   0.974 -0.6257 -0.0508 -0.2514
 2979TIP3    H1 8901   5.538   3.968   0.946 -1.1557  1.1012  1.5820
 2979TIP3    H2 8902   5.454   3.854   0.892  1.5091  0.3488 -1.2898
 2980TIP3   OH2 8903   3.459   0.841   4.398  0.2356  0.0446  0.1899
 2980TIP3    H1 8904   3.465   0.905   4.328  1.2328 -0.7482 -0.4833
 2980TIP3    H2 8905   3.387   0.784   4.372 -0.0010  0.2978  0.2855
 2981TIP3   OH2 8906   5.206   1.601   4.420  0.1222 -0.0010 -0.1352
 2981TIP3    H1 8907   5.295   1.565   4.414  0.2019 -0.1581  1.5879
 2981TIP3    H2 8908   5.155   1.532   4.462 -0.6417  0.3997 -0.3871
 2982TIP3   OH2 8909   1.601   0.484   2.990 -0.1754  0.3999 -0.7036
 2982TIP3    H1 8910   1.551   0.518   3.064  0.9068 -1.2310  0.8348
 2982TIP3    H2 8911   1.635   0.563   2.947  1.2674  1.4053  2.0334
 2983TIP3   OH2 8912   4.890   5.793   2.813 -0.5426  0.1867  0.1684
 2983TIP3    H1 8913   4.930   5.870   2.854  0.2912 -0.2384  0.1772
 2983TIP3    H2 8914   4.802   5.790   2.849 -0.6509  1.2491  0.0171
 2984TIP3   OH2 8915   5.639   3.679   1.130  0.6522  0.3888  0.3520
 2984TIP3    H1 8916   5.647   3.697   1.036 -1.6478 -0.7016 -0.1336
 2984TIP3    H2 8917   5.550   3.645   1.140  0.6061  1.1041  3.0644
 2985TIP3   OH2 8918   2.320   3.031   4.014  0.2920  0.6698  0.6611
 2985TIP3    H1 8919   2.285   2.999   3.931  2.4687  0.1418 -0.1237
 2985TIP3    H2 8920   2.388   2.967   4.037  0.1680  1.1546  2.5394
 2986TIP3   OH2 8921   6.136   1.479   0.514 -0.1566 -0.5832  0.1641
 2986TIP3    H1 8922   6.105   1.421   0.583 -2.8002 -1.3891 -1.5501
 2986TIP3    H2 8923   6.207   1.431   0.472  1.4858 -0.0833  2.1841
 2987TIP3   OH2 8924   4.310   0.412   2.254 -0.5558 -0.1232  0.6415
 2987TIP3    H1 8925   4.274   0.330   2.288  0.7738 -0.3393  1.5704
 2987TIP3    H2 8926   4.361   0.386   2.177 -1.3311  0.0367  0.0549
 2988TIP3   OH2 8927   2.554   0.665   4.263 -0.4789  0.4289 -0.1128
 2988TIP3    H1 8928   2.573   0.741   4.318 -1.9576  0.3832  0.4961
 2988TIP3    H2 8929   2.627   0.662   4.201 -0.6363  2.6554 -0.5021
 2989TIP3   OH2 8930   3.621   3.732   1.968 -0.0891  0.2354 -0.3000
 2989TIP3    H1 8931   3.636   3.787   1.891  1.2869 -0.1436 -0.3286
 2989TIP3    H2 8932   3.652   3.784   2.042 -0.6938  0.2960 -0.0835
 2990TIP3   OH2 8933   2.371   3.607   2.593  0.5374 -0.3000 -0.2190
 2990TIP3    H1 8934   2.336   3.620   2.505 -3.1204 -0.3548  1.0393
 2990TIP3    H2 8935   2.385   3.513   2.599 -0.7560 -0.5185 -0.2907
 2991TIP3   OH2 8936   0.958   0.801   0.778 -0.0113 -0.1116 -0.3411
 2991TIP3    H1 8937   1.019   0.852   0.831  0.5791  0.0496 -1.1579
 2991TIP3    H2 8938   0.893   0.865   0.749  0.5160  0.1146 -1.0508
 2992TIP3   OH2 8939   6.756   4.963   0.532 -0.4905  0.0967  0.2017
 2992TIP3    H1 8940   6.744   5.025   0.460  0.5607  1.4464  1.1282
 2992TIP3    H2 8941   6.742   5.015   0.611 -0.6276 -1.1139  1.0052
 2993TIP3   OH2 8942   2.931   4.206   4.782 -0.3599 -0.3568  0.1214
 2993TIP3    H1 8943   2.845   4.241   4.806 -1.6859 -1.2401 -2.9421
 2993TIP3    H2 8944   2.957   4.153   4.858 -2.3402  0.1980  1.2558
 2994TIP3   OH2 8945   6.004   5.551   3.134  0.5033 -0.0070  0.0069
 2994TIP3    H1 8946   6.087   5.562   3.182 -0.3059 -0.0540  1.4803
 2994TIP3    H2 8947   5.945   5.510   3.198 -1.0387  1.1867 -0.5841
 2995TIP3   OH2 8948   2.933   5.245   4.331  0.2309  0.0010  0.2015
 2995TIP3    H1 8949   2.952   5.326   4.377 -0.0789  0.7769 -1.0080
 2995TIP3    H2 8950   2.883   5.193   4.395  0.2480  0.8345  0.9096
 2996TIP3   OH2 8951   5.213   3.832   0.199  0.3015 -0.2524  0.6851
 2996TIP3    H1 8952   5.167   3.764   0.248  0.1426 -0.8132 -0.2097
 2996TIP3    H2 8953   5.246   3.787   0.121  2.9847 -0.0570  1.6071
 2997TIP3   OH2 8954   2.106   2.374   1.637  0.1651  0.5642  0.5093
 2997TIP3    H1 8955   2.137   2.284   1.632 -0.7404  0.2919 -0.5535
 2997TIP3    H2 8956   2.180   2.427   1.606 -0.3021 -0.0610 -1.8664
 2998TIP3   OH2 8957   3.032   4.872   0.328 -0.0060  0.2035 -0.2043
 2998TIP3    H1 8958   3.081   4.900   0.405 -1.0586  0.8978  0.2307
 2998TIP3    H2 8959   2.943   4.902   0.343 -0.8276 -1.8675 -0.5183
 2999TIP3   OH2 8960   0.266   2.379   5.231 -0.1751 -1.1031 -0.2037
 2999TIP3    H1 8961   0.233   2.315   5.168 -0.0686 -0.1326 -1.2888
 2999TIP3    H2 8962   0.234   2.463   5.198  0.8856 -0.4489  0.3753
 3000TIP3   OH2 8963   3.374   2.200   3.646 -0.0920  0.2944  0.2648
 3000TIP3    H1 8964   3.343   2.279   3.690 -0.4190  0.1902  0.2246
 3000TIP3    H2 8965   3.448   2.230   3.592  0.7765  0.3003  1.4171
 3001TIP3   OH2 8966   6.102   2.704   4.571  0.4364  0.0135  0.2588
 3001TIP3    H1 8967   6.084   2.797   4.557  0.8265  0.3432  1.7912
 3001TIP3    H2 8968   6.015   2.664   4.585  0.0716 -0.2502 -2.3064
 3002TIP3   OH2 8969   2.248   1.202   0.404  0.5051  0.5214  0.2887
 3002TIP3    H1 8970   2.260   1.210   0.499  2.6298  2.3891 -0.0354
 3002TIP3    H2 8971   2.167   1.250   0.386 -0.0849 -0.1188  1.1811
 3003TIP3   OH2 8972   7.012   3.499   5.834  0.3195 -0.0597  0.1771
 3003TIP3    H1 8973   6.965   3.518   5.915  1.4226 -0.2203  0.8670
 3003TIP3    H2 8974   6.989   3.572   5.776  0.0865  0.4323  0.8694
 3004TIP3   OH2 8975   4.784   6.271   3.734 -0.3813  0.3863  0.1717
 3004TIP3    H1 8976   4.741   6.238   3.655 -0.1834 -0.2839  0.3339
 3004TIP3    H2 8977   4.868   6.226   3.736 -0.5814  0.0208  1.0213
 3005TIP3   OH2 8978   1.744   4.671   3.591  0.7318 -0.0489  0.0995
 3005TIP3    H1 8979   1.744   4.752   3.539 -0.7526 -0.9496 -1.4144
 3005TIP3    H2 8980   1.775   4.604   3.530 -1.1064 -1.1526  0.3220
 3006TIP3   OH2 8981   2.627   4.106   0.140 -0.3669  0.1142 -0.1656
 3006TIP3    H1 8982   2.559   4.161   0.101  0.5557  0.8702 -0.7345
 3006TIP3    H2 8983   2.704   4.119   0.084  0.7915  0.6794  1.4870
 3007TIP3   OH2 8984   2.664   3.775   1.438 -0.7693  0.2751  0.3723
 3007TIP3    H1 8985   2.688   3.789   1.347 -1.1265  1.0148  0.3874
 3007TIP3    H2 8986   2.569   3.764   1.436 -0.7796  0.3029  0.6570
 3008TIP3   OH2 8987   6.425   2.440   2.757  0.5949 -0.1606  0.1735
 3008TIP3    H1 8988   6.440   2.412   2.848 -0.7396 -1.7179 -0.0318
 3008TIP3    H2 8989   6.436   2.360   2.706  0.4494  0.5152 -0.9454
 3009TIP3   OH2 8990   4.768   2.239   1.775  0.1228  0.2737 -0.3063
 3009TIP3    H1 8991   4.689   2.279   1.813  0.4277  0.2022  0.4263
 3009TIP3    H2 8992   4.798   2.303   1.711 -0.5935  0.2510 -0.6769
 3010TIP3   OH2 8993   2.656   2.142   3.272 -0.6492  0.2716 -0.2377
 3010TIP3    H1 8994   2.682   2.081   3.341  0.8590  1.8158  0.6411
 3010TIP3    H2 8995   2.670   2.094   3.190 -2.0798 -1.4458  0.4655
 3011TIP3   OH2 8996   3.395   0.703   5.698  0.5333  0.3517 -0.0968
 3011TIP3    H1 8997   3.471   0.749   5.662  0.4610  0.6647  0.1493
 3011TIP3    H2 8998   3.371   0.640   5.630 -0.3182  1.7179 -1.1094
 3012TIP3   OH2 8999   3.180   5.361   5.806  0.0221  0.1632 -0.0988
 3012TIP3    H1 9000   3.189   5.440   5.753 -0.0766 -0.1027 -0.5194
 3012TIP3    H2 9001   3.087   5.338   5.799  0.0027  0.1446  0.2136
 3013TIP3   OH2 9002   6.293   1.324   1.778 -0.3679  0.5531  0.4595
 3013TIP3    H1 9003   6.213   1.343   1.729 -0.3001  1.9841  0.8371
 3013TIP3    H2 9004   6.276   1.240   1.821 -1.0141  0.0309 -0.7656
 3014TIP3   OH2 9005   4.097   4.056   4.338 -0.6840 -0.1845  0.0772
 3014TIP3    H1 9006   4.084   4.083   4.247  1.4610  0.5978 -0.0665
 3014TIP3    H2 9007   4.144   3.972   4.331  0.9621  0.6551  0.3755
 3015TIP3   OH2 9008   0.120   4.406   2.098  0.1047 -0.7296 -0.2162
 3015TIP3    H1 9009   0.147   4.374   2.184  0.6164  0.3907  0.0489
 3015TIP3    H2 9010   0.182   4.364   2.037  1.4487  0.5205  0.2347
 3016TIP3   OH2 9011   0.674   6.164   3.087 -0.2401  0.0223  0.1626
 3016TIP3    H1 9012   0.653   6.255   3.065 -1.3557 -0.1410  0.4635
 3016TIP3    H2 9013   0.767   6.156   3.068 -0.2474  1.0614 -0.4390
 3017TIP3   OH2 9014   1.885   3.342   0.205 -0.4872  0.9010 -0.3376
 3017TIP3    H1 9015   1.863   3.409   0.140 -0.9918  2.2012  1.0923
 3017TIP3    H2 9016   1.838   3.370   0.284 -0.6737 -1.1475  0.3286
 3018TIP3   OH2 9017   5.049   1.052   0.236  0.0271  0.1442  0.6498
 3018TIP3    H1 9018   4.970   1.100   0.212 -0.0875 -0.7435 -0.8773
 3018TIP3    H2 9019   5.078   1.093   0.317  0.0108  2.8781 -0.6136
 3019TIP3   OH2 9020   4.281   4.778   4.424  0.3391 -0.4399 -0.0018
 3019TIP3    H1 9021   4.229   4.755   4.347 -1.7301 -0.1881  1.2485
 3019TIP3    H2 9022   4.226   4.754   4.499  1.1788  1.6468  1.3863
 3020TIP3   OH2 9023   2.538   1.757   4.973  0.0557  0.5919 -0.7774
 3020TIP3    H1 9024   2.468   1.812   5.008 -0.2111  0.8798 -1.7261
 3020TIP3    H2 9025   2.592   1.816   4.921  1.2502  0.4503  0.2531
 3021TIP3   OH2 9026   6.068   6.773   5.227  0.7793  0.1225 -0.3889
 3021TIP3    H1 9027   5.995   6.834   5.237  1.4708  1.1491 -1.3718
 3021TIP3    H2 9028   6.045   6.698   5.282 -0.4326  0.9541  0.2625
 3022TIP3   OH2 9029   4.378   5.097   5.165 -0.4363 -0.1131 -0.1704
 3022TIP3    H1 9030   4.393   5.092   5.259 -1.8659 -0.7288  0.0509
 3022TIP3    H2 9031   4.466   5.108   5.127  0.3388 -1.4865  1.1140
 3023TIP3   OH2 9032   1.332   1.718   2.005 -0.0334  0.1014 -0.2467
 3023TIP3    H1 9033   1.358   1.631   2.036 -0.4207  0.1973  0.3580
 3023TIP3    H2 9034   1.325   1.708   1.910  0.5253 -0.3658 -0.2421
 3024TIP3   OH2 9035   3.096   1.158   1.859 -0.0453 -0.8008  0.3523
 3024TIP3    H1 9036   3.068   1.104   1.933  0.1859 -2.6421 -0.8475
 3024TIP3    H2 9037   3.095   1.099   1.784 -0.1109  0.9717 -1.1120
 3025TIP3   OH2 9038   3.438   6.225   1.690 -0.3550 -0.4003  0.0726
 3025TIP3    H1 9039   3.353   6.190   1.663  0.3455 -0.7094 -1.9305
 3025TIP3    H2 9040   3.501   6.160   1.659  0.6041 -0.4096  1.9549
 3026TIP3   OH2 9041   6.952   6.767   5.689  0.2718  0.5345  0.2766
 3026TIP3    H1 9042   6.993   6.681   5.674 -2.2700 -0.6464 -0.3892
 3026TIP3    H2 9043   7.022   6.830   5.673  1.8341 -1.3549 -0.7515
 3027TIP3   OH2 9044   5.531   0.381   5.223  0.6733  0.3576 -0.0829
 3027TIP3    H1 9045   5.463   0.448   5.227  1.8100  1.9896 -3.5946
 3027TIP3    H2 9046   5.510   0.331   5.144  1.8133 -1.1610  0.5309
 3028TIP3   OH2 9047   0.427   2.715   2.003  0.1198  0.1811 -0.3236
 3028TIP3    H1 9048   0.337   2.707   2.034 -0.0961 -0.4773 -1.0841
 3028TIP3    H2 9049   0.477   2.741   2.080 -0.6541  0.1529  0.1992
 3029TIP3   OH2 9050   4.249   0.084   3.479 -0.5982  0.3353  0.3692
 3029TIP3    H1 9051   4.333   0.040   3.487 -0.9457 -0.1830  1.5266
 3029TIP3    H2 9052   4.209   0.047   3.401 -0.5311 -0.8110  0.8605
 3030TIP3   OH2 9053   2.095   5.399   3.199  0.1958  0.0425  0.3328
 3030TIP3    H1 9054   2.007   5.361   3.203  0.1588  0.1229  0.3053
 3030TIP3    H2 9055   2.128   5.374   3.113 -0.2479  0.9676 -0.1258
 3031TIP3   OH2 9056   5.900   0.666   1.974 -0.4683  0.4446 -0.9418
 3031TIP3    H1 9057   5.924   0.752   1.938  0.0914  0.0124 -1.6131
 3031TIP3    H2 9058   5.895   0.608   1.898 -0.9255 -0.1031 -0.5013
 3032TIP3   OH2 9059   2.950   2.604   4.711  0.6367  0.1609 -0.1506
 3032TIP3    H1 9060   2.863   2.581   4.742  0.6196 -0.2097 -0.4694
 3032TIP3    H2 9061   3.009   2.573   4.780  0.6124 -0.8390 -0.5636
 3033TIP3   OH2 9062   0.439   5.557   3.450  0.1467  0.2886 -0.0587
 3033TIP3    H1 9063   0.368   5.582   3.509 -0.6479 -1.8386 -0.0041
 3033TIP3    H2 9064   0.518   5.592   3.491 -0.7559  2.1459  0.2176
 3034TIP3   OH2 9065   6.371   4.269   5.098  0.0316  0.7764  0.1274
 3034TIP3    H1 9066   6.347   4.244   5.009  1.4179  0.1261 -0.0975
 3034TIP3    H2 9067   6.334   4.200   5.153  2.1268 -0.8059 -0.3082
 3035TIP3   OH2 9068   0.098   3.801   2.431  0.3825  0.7256  0.7022
 3035TIP3    H1 9069   0.148   3.834   2.356 -0.1129 -0.9084 -0.4191
 3035TIP3    H2 9070   0.044   3.730   2.394  0.9731 -0.9366  2.8220
 3036TIP3   OH2 9071   3.223   2.064   2.214 -0.2944 -0.3073 -0.3138
 3036TIP3    H1 9072   3.147   2.020   2.176 -1.2064  1.9274 -1.2388
 3036TIP3    H2 9073   3.201   2.157   2.212  2.8327  0.5542 -1.5172
 3037TIP3   OH2 9074   1.865   4.384   4.132  0.0086 -0.5768 -0.3196
 3037TIP3    H1 9075   1.851   4.304   4.183  0.6368 -0.3862  0.1544
 3037TIP3    H2 9076   1.783   4.433   4.142  0.2475 -0.3793  0.7991
 3038TIP3   OH2 9077   5.132   5.311   1.402 -0.0667 -0.1925 -0.7357
 3038TIP3    H1 9078   5.196   5.281   1.467 -0.6174  0.0073 -0.0987
 3038TIP3    H2 9079   5.096   5.231   1.364  0.0232 -0.3088 -0.5729
 3039TIP3   OH2 9080   0.067   5.909   0.135 -0.4401 -0.0619 -0.0548
 3039TIP3    H1 9081   0.060   6.003   0.152 -1.8899  0.0077 -0.8656
 3039TIP3    H2 9082   0.098   5.904   0.044  1.1620 -0.3988  0.4781
 3040TIP3   OH2 9083   1.380   4.092   3.027 -0.0029 -0.0087  0.3129
 3040TIP3    H1 9084   1.459   4.134   2.991 -0.1318 -2.0474 -2.7476
 3040TIP3    H2 9085   1.369   4.132   3.113  2.9301  2.1620 -0.1468
 3041TIP3   OH2 9086   5.939   1.293   0.267 -1.2752 -0.3717 -0.3246
 3041TIP3    H1 9087   5.993   1.329   0.337 -0.1501 -0.2629 -1.2234
 3041TIP3    H2 9088   5.851   1.286   0.306 -0.9254  0.7356  0.7303
 3042TIP3   OH2 9089   6.987   2.719   5.553 -0.1944 -0.3615 -0.4916
 3042TIP3    H1 9090   6.986   2.650   5.620 -0.2709  0.8687  0.8201
 3042TIP3    H2 9091   7.008   2.799   5.602  0.0051  0.5327 -1.9958
 3043TIP3   OH2 9092   0.558   1.272   2.242 -0.6902  0.2690 -0.0418
 3043TIP3    H1 9093   0.493   1.245   2.177  0.7411  0.1246 -1.4885
 3043TIP3    H2 9094   0.637   1.289   2.191  0.0463  1.7743  1.4811
 3044TIP3   OH2 9095   5.183   3.889   2.016  0.0080 -0.1725  0.4611
 3044TIP3    H1 9096   5.265   3.933   1.994  1.0174 -1.4188  1.5449
 3044TIP3    H2 9097   5.160   3.923   2.102  1.6834 -2.7787  2.0899
 3045TIP3   OH2 9098   1.201   0.997   1.657  0.2395 -0.2154 -0.7383
 3045TIP3    H1 9099   1.144   1.012   1.582  0.0426 -0.7646 -0.7005
 3045TIP3    H2 9100   1.184   1.072   1.715 -1.0593 -0.7741 -0.3508
 3046TIP3   OH2 9101   5.479   0.839   2.133  0.1025 -0.6685 -0.2260
 3046TIP3    H1 9102   5.560   0.878   2.098 -0.0671 -1.4013 -1.4837
 3046TIP3    H2 9103   5.410   0.872   2.076 -0.8302  1.5636  2.0242
 3047TIP3   OH2 9104   2.336   5.310   1.048  0.2413 -0.0295 -0.7129
 3047TIP3    H1 9105   2.327   5.236   0.989 -0.9595  1.2926 -2.3076
 3047TIP3    H2 9106   2.246   5.335   1.069  0.6031  1.2651 -0.6162
 3048TIP3   OH2 9107   6.723   3.574   3.788  0.1796  0.0791  0.4158
 3048TIP3    H1 9108   6.714   3.545   3.697  0.8205  0.3298  0.2684
 3048TIP3    H2 9109   6.791   3.518   3.825  0.9278  0.9120  0.3311
 3049TIP3   OH2 9110   4.409   3.469   0.853  0.2565 -0.2636 -0.6212
 3049TIP3    H1 9111   4.351   3.538   0.888  0.3261 -1.0240  1.1195
 3049TIP3    H2 9112   4.353   3.392   0.846  0.6494 -0.5543 -0.5996
 3050TIP3   OH2 9113   1.203   4.192   1.848 -0.2992  0.0392  0.3744
 3050TIP3    H1 9114   1.230   4.284   1.844  1.1568 -0.3752 -0.1699
 3050TIP3    H2 9115   1.196   4.173   1.941  0.7128  0.3668  0.5345
 3051TIP3   OH2 9116   6.049   4.240   0.625 -0.1055 -0.0943 -0.4054
 3051TIP3    H1 9117   6.141   4.218   0.610  0.2237  0.5492  0.5605
 3051TIP3    H2 9118   6.022   4.288   0.547  0.6863  0.6281 -0.2512
 3052TIP3   OH2 9119   3.632   2.913   3.866  0.1015 -0.2621 -0.3345
 3052TIP3    H1 9120   3.594   2.827   3.882 -0.3449 -0.1395 -0.7121
 3052TIP3    H2 9121   3.561   2.975   3.886  0.4630  0.0227  0.0736
 3053TIP3   OH2 9122   3.779   1.376   0.844 -0.6749  0.4408  0.2715
 3053TIP3    H1 9123   3.774   1.311   0.774  0.7887 -1.0091  1.4433
 3053TIP3    H2 9124   3.763   1.459   0.800 -0.4125 -0.4771 -1.6789
 3054TIP3   OH2 9125   4.609   5.646   2.632  0.3144  0.2067  0.1863
 3054TIP3    H1 9126   4.623   5.612   2.720 -1.0509 -0.0503  0.3331
 3054TIP3    H2 9127   4.542   5.588   2.595 -0.5060  1.4460 -0.3275
 3055TIP3   OH2 9128   3.282   5.711   4.648  0.3968 -0.0274  0.2273
 3055TIP3    H1 9129   3.314   5.772   4.714  2.2427  0.8389 -1.3662
 3055TIP3    H2 9130   3.357   5.696   4.591  0.7034 -5.3885  1.5711
 3056TIP3   OH2 9131   5.285   0.413   5.812  0.2024 -0.3756  0.3431
 3056TIP3    H1 9132   5.353   0.432   5.747  0.6527  0.5367  1.0533
 3056TIP3    H2 9133   5.280   0.318   5.815  1.1017 -0.4492 -0.0875
 3057TIP3   OH2 9134   4.507   0.837   4.911  0.4699  0.2334 -0.0025
 3057TIP3    H1 9135   4.500   0.761   4.853  2.0426  1.6327 -2.1628
 3057TIP3    H2 9136   4.537   0.800   4.994  1.6628 -1.4688 -1.1216
 3058TIP3   OH2 9137   2.946   4.573   3.706  0.0317  0.4798 -0.1389
 3058TIP3    H1 9138   2.997   4.644   3.666 -0.0431  0.5856 -0.0476
 3058TIP3    H2 9139   2.893   4.617   3.772 -0.8502  0.5095 -0.8511
 3059TIP3   OH2 9140   1.736   5.276   1.615 -0.0592  0.2985 -0.5775
 3059TIP3    H1 9141   1.732   5.314   1.703 -0.5558  0.0042 -0.4662
 3059TIP3    H2 9142   1.765   5.348   1.558 -1.2437  0.9144 -0.4182
 3060TIP3   OH2 9143   5.892   6.738   0.736 -0.4688 -0.5398 -0.7008
 3060TIP3    H1 9144   5.828   6.797   0.697 -1.3693 -1.2177 -0.2873
 3060TIP3    H2 9145   5.874   6.653   0.696 -0.3530 -0.9061  0.0127
 3061TIP3   OH2 9146   4.267   0.394   2.843  0.2960  0.0948  0.0381
 3061TIP3    H1 9147   4.305   0.332   2.905  1.0983  0.8764  0.3455
 3061TIP3    H2 9148   4.226   0.461   2.897 -0.0367  0.1621 -0.2875
 3062TIP3   OH2 9149   5.694   2.935   1.082  0.0918 -0.5696 -0.2526
 3062TIP3    H1 9150   5.734   2.910   1.166  0.9143 -0.3000 -0.5519
 3062TIP3    H2 9151   5.768   2.947   1.024 -0.4668 -0.4906 -0.9543
 3063TIP3   OH2 9152   3.040   0.996   4.378 -0.3563  0.3644 -0.1294
 3063TIP3    H1 9153   2.983   1.023   4.306  0.3320 -0.7431 -1.1233
 3063TIP3    H2 9154   3.043   0.900   4.372  2.2270  0.3904 -0.6538
 3064TIP3   OH2 9155   1.613   2.260   0.896 -0.0570 -0.0054  0.8129
 3064TIP3    H1 9156   1.607   2.352   0.922 -0.5262  0.7491 -1.6644
 3064TIP3    H2 9157   1.522   2.231   0.889  0.0595 -0.3258  0.5666
 3065TIP3   OH2 9158   0.155   3.961   5.604 -0.5114  0.3272 -0.2832
 3065TIP3    H1 9159   0.204   3.886   5.638 -0.6687  0.1252 -0.5043
 3065TIP3    H2 9160   0.205   3.989   5.527 -1.0054 -0.1773 -0.7906
 3066TIP3   OH2 9161   6.847   2.286   4.049 -0.1560  0.3444  0.2006
 3066TIP3    H1 9162   6.841   2.240   4.133  0.6460  1.3952  0.8612
 3066TIP3    H2 9163   6.939   2.280   4.025 -0.1857  0.9329 -0.0797
 3067TIP3   OH2 9164   5.992   6.400   2.949  0.4359 -0.5686  0.5527
 3067TIP3    H1 9165   5.996   6.421   3.042  3.8339 -2.5377  1.0251
 3067TIP3    H2 9166   6.040   6.471   2.906  0.4696 -0.6107  0.5202
 3068TIP3   OH2 9167   2.994   3.281   2.031 -0.5748 -0.4745  0.2197
 3068TIP3    H1 9168   2.963   3.287   1.940  0.6181  0.7564 -0.1446
 3068TIP3    H2 9169   2.923   3.317   2.083  0.0641  2.2120 -0.5817
 3069TIP3   OH2 9170   2.512   6.717   5.788  0.1545  0.5973  0.1875
 3069TIP3    H1 9171   2.443   6.696   5.725 -0.2614 -0.1808  0.8749
 3069TIP3    H2 9172   2.572   6.774   5.740 -0.1901  0.0907 -0.8926
 3070TIP3   OH2 9173   3.552   5.703   4.443 -0.0394  0.2930 -0.0825
 3070TIP3    H1 9174   3.486   5.651   4.397 -1.0262  2.2460 -0.9590
 3070TIP3    H2 9175   3.559   5.784   4.393  2.0445  0.7225  0.7907
 3071TIP3   OH2 9176   1.439   1.772   2.817  0.7470  0.0921  0.1004
 3071TIP3    H1 9177   1.363   1.723   2.849  1.1275 -0.6844 -0.1581
 3071TIP3    H2 9178   1.469   1.822   2.893  0.2540  0.0591  0.3224
 3072TIP3   OH2 9179   5.332   2.700   2.288 -0.3625  0.1869 -0.0644
 3072TIP3    H1 9180   5.403   2.730   2.345  0.0362 -0.2983 -0.3058
 3072TIP3    H2 9181   5.293   2.627   2.336 -0.0139 -0.2361 -0.4121
 3073TIP3   OH2 9182   3.086   2.740   4.515  0.1680  0.7732  0.5135
 3073TIP3    H1 9183   3.028   2.726   4.590  0.0178 -3.4274 -0.1313
 3073TIP3    H2 9184   3.028   2.769   4.445 -0.1813  1.8174  1.2065
 3074TIP3   OH2 9185   0.102   3.832   4.625  0.4049 -0.1472  0.2352
 3074TIP3    H1 9186   0.140   3.825   4.712  1.9789 -0.8546 -0.4659
 3074TIP3    H2 9187   0.063   3.919   4.623  0.8840  0.1200  1.4360
 3075TIP3   OH2 9188   4.637   0.806   5.578 -0.0235  0.6653  0.3381
 3075TIP3    H1 9189   4.717   0.821   5.629 -0.0889 -1.3624  1.1429
 3075TIP3    H2 9190   4.568   0.795   5.644 -0.5939  0.4770 -0.2830
 3076TIP3   OH2 9191   2.849   6.707   0.858  0.5145  0.2568 -0.2366
 3076TIP3    H1 9192   2.760   6.718   0.825  0.1277 -0.4738  0.5251
 3076TIP3    H2 9193   2.890   6.793   0.848  0.0689  0.3317 -1.5834
 3077TIP3   OH2 9194   2.945   6.451   4.192 -0.6079 -0.0192  0.0371
 3077TIP3    H1 9195   2.915   6.370   4.152 -1.3697  0.4051 -0.2583
 3077TIP3    H2 9196   2.874   6.513   4.179 -0.4418  0.4348  1.1125
 3078TIP3   OH2 9197   3.561   2.249   3.165 -0.1489 -0.4909 -0.2921
 3078TIP3    H1 9198   3.505   2.295   3.103 -1.4403 -0.8787  0.5515
 3078TIP3    H2 9199   3.567   2.160   3.131 -0.1790 -0.4950 -0.2858
 3079TIP3   OH2 9200   1.701   6.460   5.547  0.4475 -0.1913  0.1407
 3079TIP3    H1 9201   1.774   6.403   5.525  0.5833  0.1125 -0.2061
 3079TIP3    H2 9202   1.740   6.546   5.561  0.0595  0.1914 -0.9836
 3080TIP3   OH2 9203   0.591   5.236   3.723 -0.0900  0.3111  0.2337
 3080TIP3    H1 9204   0.637   5.160   3.761 -0.8902 -0.0964  0.4031
 3080TIP3    H2 9205   0.661   5.298   3.703  0.4063  0.4293  2.1402
 3081TIP3   OH2 9206   2.423   3.967   2.624  0.3201 -0.2804 -0.4120
 3081TIP3    H1 9207   2.356   4.035   2.623 -0.3767 -0.8736  1.6610
 3081TIP3    H2 9208   2.477   3.987   2.548 -0.7291  1.7048 -0.7236
 3082TIP3   OH2 9209   3.375   2.540   2.205  0.0599 -0.1123 -1.1351
 3082TIP3    H1 9210   3.346   2.572   2.291  0.0578 -2.3026 -0.2684
 3082TIP3    H2 9211   3.414   2.617   2.163 -1.1331  1.3418  0.2717
 3083TIP3   OH2 9212   5.960   2.052   2.541 -0.4570  0.3354 -0.1388
 3083TIP3    H1 9213   5.980   1.959   2.548 -2.7530 -0.2422 -0.5413
 3083TIP3    H2 9214   5.894   2.068   2.608  0.5727  1.9265  0.5618
 3084TIP3   OH2 9215   0.065   5.331   0.619  0.2591  0.5135 -0.8555
 3084TIP3    H1 9216  -0.004   5.397   0.611  1.4932  2.0741  0.5585
 3084TIP3    H2 9217   0.025   5.261   0.671 -0.5381  0.9644 -0.8398
 3085TIP3   OH2 9218   2.070   2.355   3.841  0.8926 -0.0508  0.3071
 3085TIP3    H1 9219   2.068   2.260   3.832 -0.5708 -0.1353  1.1521
 3085TIP3    H2 9220   2.163   2.378   3.839  1.3635 -1.6707  1.5977
 3086TIP3   OH2 9221   7.057   3.908   3.505  0.1313  0.0449  0.6636
 3086TIP3    H1 9222   7.128   3.913   3.440  1.8874  0.1921  2.4769
 3086TIP3    H2 9223   7.023   3.819   3.497 -0.4098  0.3732 -1.1231
 3087TIP3   OH2 9224   4.834   0.591   3.476  0.0395  0.2461  0.0496
 3087TIP3    H1 9225   4.767   0.634   3.422  0.2918 -0.1584 -0.5855
 3087TIP3    H2 9226   4.917   0.611   3.433  0.2942  0.3331  0.5665
 3088TIP3   OH2 9227   5.105   0.358   5.511 -0.1596  0.0023  0.3248
 3088TIP3    H1 9228   5.084   0.267   5.535 -0.9747  0.2318  0.5007
 3088TIP3    H2 9229   5.192   0.372   5.547  0.8469 -1.3529 -1.4042
 3089TIP3   OH2 9230   2.143   3.552   0.302  0.2203 -0.4782  0.0293
 3089TIP3    H1 9231   2.187   3.635   0.317  1.9722 -1.5640  1.3131
 3089TIP3    H2 9232   2.177   3.522   0.218  0.8322 -0.6108  0.3144
 3090TIP3   OH2 9233   0.371   4.983   1.429  0.3942  0.0472 -0.2261
 3090TIP3    H1 9234   0.425   5.008   1.354  0.3927  0.1989 -0.1762
 3090TIP3    H2 9235   0.426   5.003   1.505 -0.5268  2.1774 -0.0758
 3091TIP3   OH2 9236   5.941   1.613   0.128  0.5341 -0.2123  0.3677
 3091TIP3    H1 9237   5.989   1.533   0.106 -0.5961 -0.7661 -0.1819
 3091TIP3    H2 9238   5.866   1.612   0.069  1.1511  1.9244 -0.5838
 3092TIP3   OH2 9239   5.460   6.757   4.915  0.3424  0.0240 -0.2346
 3092TIP3    H1 9240   5.425   6.668   4.923 -0.2699  0.3745  1.3997
 3092TIP3    H2 9241   5.504   6.757   4.830  0.7327 -1.9744 -0.1011
 3093TIP3   OH2 9242   6.594   2.109   0.529  0.6077  0.2433  0.0241
 3093TIP3    H1 9243   6.519   2.131   0.473  0.4848  1.6883  0.6837
 3093TIP3    H2 9244   6.659   2.176   0.508  1.1032 -0.0667  0.5608
 3094TIP3   OH2 9245   6.323   0.749   4.000  0.7649  0.5684 -0.1506
 3094TIP3    H1 9246   6.306   0.758   4.094 -0.8785  0.8553 -0.4545
 3094TIP3    H2 9247   6.408   0.704   3.996  0.2785 -0.6121  1.4778
 3095TIP3   OH2 9248   0.937   6.148   0.865  0.0624 -0.3145  0.3778
 3095TIP3    H1 9249   0.938   6.054   0.844 -0.2859 -0.2940  0.2680
 3095TIP3    H2 9250   0.845   6.174   0.855  0.3896  0.3636 -0.9861
 3096TIP3   OH2 9251   6.627   2.836   2.247  0.1537  0.5785 -0.5080
 3096TIP3    H1 9252   6.565   2.764   2.251  0.3333  0.4499  2.9078
 3096TIP3    H2 9253   6.573   2.915   2.252  0.1257  0.6112 -1.1783
 3097TIP3   OH2 9254   2.283   6.695   4.617  0.0875 -0.3025  0.0120
 3097TIP3    H1 9255   2.253   6.609   4.645 -1.2319  0.1550  0.0869
 3097TIP3    H2 9256   2.365   6.709   4.664  0.8324 -1.8938 -0.7094
 3098TIP3   OH2 9257   4.916   1.986   2.530  0.0320  0.7933 -0.4583
 3098TIP3    H1 9258   4.926   2.001   2.624 -1.0818  1.6055 -0.4553
 3098TIP3    H2 9259   4.824   1.963   2.519  0.4128 -0.4826 -1.2240
 3099TIP3   OH2 9260   3.311   0.299   0.028  0.0075  0.5073  0.1855
 3099TIP3    H1 9261   3.315   0.390  -0.002  1.3659 -0.0630 -1.5729
 3099TIP3    H2 9262   3.237   0.262  -0.020 -0.8056  0.7497  1.2117
 3100TIP3   OH2 9263   5.678   6.591   5.622  0.1666 -0.2627  0.6468
 3100TIP3    H1 9264   5.676   6.579   5.527  0.7368 -2.3397  0.8505
 3100TIP3    H2 9265   5.701   6.505   5.657 -0.4707  0.3428  2.7095
 3101TIP3   OH2 9266   6.466   5.614   5.391  0.0739  0.0092 -0.0449
 3101TIP3    H1 9267   6.507   5.555   5.328 -0.6476 -1.3733  0.7346
 3101TIP3    H2 9268   6.426   5.683   5.338  0.8094 -0.2705 -0.9815
 3102TIP3   OH2 9269   2.417   4.925   2.475  0.1276 -0.0640 -0.0723
 3102TIP3    H1 9270   2.367   4.846   2.460 -0.3555  0.1087  0.5962
 3102TIP3    H2 9271   2.484   4.900   2.538  2.5035 -0.9289 -2.6928
 3103TIP3   OH2 9272   5.085   5.361   2.714 -0.5549 -0.3305  0.1178
 3103TIP3    H1 9273   5.018   5.374   2.647 -0.2595  0.3418 -0.0478
 3103TIP3    H2 9274   5.129   5.445   2.722 -1.1402 -0.1332  1.7739
 3104TIP3   OH2 9275   4.340   5.427   3.085 -0.2256  0.1315  0.2815
 3104TIP3    H1 9276   4.259   5.474   3.067  0.1341  0.9065  0.6303
 3104TIP3    H2 9277   4.356   5.440   3.178 -0.6053 -1.4979  0.6073
 3105TIP3   OH2 9278   1.521   3.733   2.764 -0.3587 -0.1085 -0.4764
 3105TIP3    H1 9279   1.497   3.672   2.833 -0.0118  0.9823  0.6468
 3105TIP3    H2 9280   1.445   3.791   2.756  0.2768  0.8503  0.2421
 3106TIP3   OH2 9281   5.749   6.477   5.088 -0.1530  0.1356 -0.3050
 3106TIP3    H1 9282   5.719   6.519   5.169  0.4141  0.5535 -0.3004
 3106TIP3    H2 9283   5.775   6.549   5.031 -2.1902 -0.0651 -1.5674
 3107TIP3   OH2 9284   4.868   5.717   5.490  0.4869  0.0202 -0.1743
 3107TIP3    H1 9285   4.851   5.811   5.495  1.0276  0.1365 -0.4222
 3107TIP3    H2 9286   4.786   5.676   5.519 -0.0613  0.5547 -0.9242
 3108TIP3   OH2 9287   5.491   2.864   3.921  0.3761 -0.4690 -0.7274
 3108TIP3    H1 9288   5.566   2.863   3.861  1.5188  0.4126  0.6052
 3108TIP3    H2 9289   5.490   2.954   3.955 -1.9255 -0.1771 -1.4353
 3109TIP3   OH2 9290   2.561   2.062   0.429 -0.0004 -0.5048  0.0732
 3109TIP3    H1 9291   2.613   2.125   0.379 -1.7663  0.5204 -0.5652
 3109TIP3    H2 9292   2.475   2.103   0.436 -0.6461 -2.0019  1.3590
 3110TIP3   OH2 9293   0.046   3.434   2.521 -0.5926  0.5765 -0.2515
 3110TIP3    H1 9294   0.032   3.450   2.427 -2.0508  0.3347 -0.1048
 3110TIP3    H2 9295   0.093   3.511   2.552  0.3790  0.4187 -1.2781
 3111TIP3   OH2 9296   2.921   2.539   1.616 -0.6553 -0.6163  0.2453
 3111TIP3    H1 9297   2.864   2.606   1.653 -0.7992 -0.5834 -0.0359
 3111TIP3    H2 9298   2.988   2.589   1.568  0.1365 -0.6134  1.3000
 3112TIP3   OH2 9299   0.869   2.639   1.721  1.0313  0.1462  0.2473
 3112TIP3    H1 9300   0.884   2.548   1.747  0.2742  0.3044  1.2920
 3112TIP3    H2 9301   0.956   2.678   1.716  1.4252 -0.7996 -0.9181
 3113TIP3   OH2 9302   2.360   3.286   4.918  0.4675 -0.0721 -0.0564
 3113TIP3    H1 9303   2.402   3.329   4.844 -0.8144 -2.6003 -2.4419
 3113TIP3    H2 9304   2.267   3.306   4.908  0.4601  1.4359  2.3056
 3114TIP3   OH2 9305   1.494   1.445   0.783  0.0756 -0.9234  0.1186
 3114TIP3    H1 9306   1.583   1.447   0.819 -0.0417 -0.0392  0.4035
 3114TIP3    H2 9307   1.456   1.529   0.810 -0.0826 -0.2878 -1.9209
 3115TIP3   OH2 9308   1.627   2.068   4.670  0.1010 -0.2467  0.4472
 3115TIP3    H1 9309   1.685   2.079   4.746 -2.0850  0.3717  2.1413
 3115TIP3    H2 9310   1.591   1.980   4.679  0.3822 -0.4458 -0.3027
 3116TIP3   OH2 9311   5.730   3.426   3.845  0.0114 -0.2985  0.6508
 3116TIP3    H1 9312   5.772   3.437   3.930 -0.0139 -0.0397  0.6296
 3116TIP3    H2 9313   5.758   3.339   3.816  1.5071  0.3317  0.1018
 3117TIP3   OH2 9314   5.339   6.029   4.431  0.1686  0.3802 -0.2641
 3117TIP3    H1 9315   5.346   6.082   4.510  0.3577  0.0396 -0.0527
 3117TIP3    H2 9316   5.385   5.948   4.452 -0.4383 -0.0202 -0.4585
 3118TIP3   OH2 9317   0.778   4.037   1.621  0.8801  0.1020  0.3579
 3118TIP3    H1 9318   0.806   4.106   1.561 -0.6571 -0.3094 -0.8958
 3118TIP3    H2 9319   0.688   4.061   1.645  0.3999 -1.3295  0.0702
 3119TIP3   OH2 9320   1.086   3.778   2.771 -0.1473 -0.3666 -0.7881
 3119TIP3    H1 9321   0.991   3.777   2.771 -0.1863 -0.6100  1.1777
 3119TIP3    H2 9322   1.112   3.699   2.818  0.9909  0.1520 -0.4842
 3120TIP3   OH2 9323   2.543   0.359   0.503 -0.0767 -0.0989 -0.5397
 3120TIP3    H1 9324   2.495   0.396   0.577  1.0926  2.0070 -0.7624
 3120TIP3    H2 9325   2.553   0.432   0.443 -0.5226 -1.6234 -2.5844
 3121TIP3   OH2 9326   1.075   0.888   3.448 -0.4255 -0.4451 -0.2389
 3121TIP3    H1 9327   1.095   0.959   3.511 -0.9072 -0.9336  0.4777
 3121TIP3    H2 9328   0.990   0.855   3.476  0.0843 -1.7321 -0.1810
 3122TIP3   OH2 9329   2.260   0.705   1.367  0.1409  0.0698 -0.0923
 3122TIP3    H1 9330   2.295   0.628   1.412  2.1582  0.5547 -0.7683
 3122TIP3    H2 9331   2.186   0.671   1.316 -1.1482 -0.7804  2.2066
 3123TIP3   OH2 9332   4.468   1.121   1.832 -0.4156  0.1736 -0.1152
 3123TIP3    H1 9333   4.539   1.179   1.804 -0.2077 -0.5744 -1.1747
 3123TIP3    H2 9334   4.474   1.046   1.774 -2.2860  0.2298 -0.4355
 3124TIP3   OH2 9335   5.804   2.811   3.293  0.0325  0.6680  0.1826
 3124TIP3    H1 9336   5.815   2.858   3.210  2.1216  1.7606  0.9772
 3124TIP3    H2 9337   5.863   2.856   3.353 -1.1897 -0.2841  2.2026
 3125TIP3   OH2 9338   5.746   1.408   1.497 -0.4395  0.3949  0.0718
 3125TIP3    H1 9339   5.717   1.318   1.487 -0.0505  0.3421 -0.6211
 3125TIP3    H2 9340   5.804   1.423   1.423 -2.1359  1.8626 -1.0567
 3126TIP3   OH2 9341   5.710   4.946   2.372  0.6606  0.5268 -0.1918
 3126TIP3    H1 9342   5.643   4.911   2.313 -0.1408 -0.7862  1.3747
 3126TIP3    H2 9343   5.774   4.875   2.380  0.5281  0.4955  0.8020
 3127TIP3   OH2 9344   2.010   6.391   1.970 -0.0941 -0.1844 -0.0415
 3127TIP3    H1 9345   1.953   6.419   2.041 -0.5546 -1.4615  0.1062
 3127TIP3    H2 9346   1.963   6.321   1.926  1.6103 -1.7635  0.5142
 3128TIP3   OH2 9347   4.882   0.313   1.585  0.8328 -0.6290 -0.1346
 3128TIP3    H1 9348   4.884   0.325   1.490 -1.3105 -0.3108 -0.2068
 3128TIP3    H2 9349   4.960   0.261   1.605  1.1554 -0.9814 -2.1107
 3129TIP3   OH2 9350   2.824   0.308   3.044 -0.1421  0.3820  1.0725
 3129TIP3    H1 9351   2.850   0.383   2.991  0.2360 -0.2448  0.3542
 3129TIP3    H2 9352   2.771   0.254   2.985 -1.5791  0.7342  1.9710
 3130TIP3   OH2 9353   7.191   6.479   0.812  0.4214 -0.1900  0.4721
 3130TIP3    H1 9354   7.123   6.505   0.750 -1.1801 -0.3967  2.0727
 3130TIP3    H2 9355   7.201   6.555   0.870 -0.0720 -0.9562  1.5976
 3131TIP3   OH2 9356   0.802   4.103   0.655 -0.1116 -0.4042  0.7084
 3131TIP3    H1 9357   0.750   4.149   0.720  0.6321  2.8496 -0.8286
 3131TIP3    H2 9358   0.886   4.088   0.698  0.1302  1.0527  0.7937
 3132TIP3   OH2 9359   0.185   0.076   4.057 -0.4881 -0.1481 -0.7199
 3132TIP3    H1 9360   0.115   0.133   4.089  0.3557  0.4260  0.1516
 3132TIP3    H2 9361   0.265   0.115   4.091  0.1901 -1.3151 -0.9234
 3133TIP3   OH2 9362   3.280   4.490   1.071 -0.0977  0.9001  0.3820
 3133TIP3    H1 9363   3.216   4.561   1.079 -1.0394  0.4889 -2.4989
 3133TIP3    H2 9364   3.268   4.457   0.982  2.9790 -0.3378  0.3281
 3134TIP3   OH2 9365   2.210   0.115   4.465  0.0301  0.7996 -0.1900
 3134TIP3    H1 9366   2.301   0.145   4.471 -0.0441  1.3001 -1.2954
 3134TIP3    H2 9367   2.162   0.191   4.433 -0.8174  0.5839  0.5253
 3135TIP3   OH2 9368   5.525   4.762   0.315  0.7475 -0.0233  0.6245
 3135TIP3    H1 9369   5.494   4.685   0.362 -2.0162  0.6739  0.1361
 3135TIP3    H2 9370   5.447   4.795   0.269  2.0543  2.4749  0.0164
 3136TIP3   OH2 9371   2.958   1.395   4.349 -0.3711  0.0507  0.1399
 3136TIP3    H1 9372   2.894   1.457   4.315 -0.2036 -0.1272 -0.5044
 3136TIP3    H2 9373   2.996   1.354   4.272 -0.1535 -0.5303  0.5456
 3137TIP3   OH2 9374   3.599   2.746   0.717 -0.1228  0.6269  0.0514
 3137TIP3    H1 9375   3.661   2.676   0.700 -1.8062 -0.7575 -0.6192
 3137TIP3    H2 9376   3.610   2.765   0.811 -0.9045 -1.8629  0.7235
 3138TIP3   OH2 9377   3.960   1.061   1.149 -0.3388 -0.1296  0.4106
 3138TIP3    H1 9378   3.918   0.997   1.092  1.1251  0.1747 -1.1026
 3138TIP3    H2 9379   3.948   1.145   1.104  1.9887 -0.0644 -0.2453
 3139TIP3   OH2 9380   6.353   4.452   3.147 -0.1803 -0.2925  0.4116
 3139TIP3    H1 9381   6.367   4.503   3.067 -0.6670  0.3199  0.7089
 3139TIP3    H2 9382   6.441   4.423   3.172  0.2774  1.3527  0.8457
 3140TIP3   OH2 9383   3.070   1.186   0.510  0.0887 -0.1314 -0.5269
 3140TIP3    H1 9384   3.027   1.203   0.593 -0.8858 -1.0518 -0.8254
 3140TIP3    H2 9385   3.082   1.273   0.471 -1.7951  0.1425 -0.5724
 3141TIP3   OH2 9386   5.413   6.691   5.295 -0.3870  0.5251 -0.1971
 3141TIP3    H1 9387   5.347   6.634   5.256  0.4696  1.0013 -2.5096
 3141TIP3    H2 9388   5.492   6.637   5.298 -0.3602  0.5942  0.6771
 3142TIP3   OH2 9389   3.809   2.110   4.911 -0.2864  0.4358  0.1307
 3142TIP3    H1 9390   3.811   2.057   4.831  1.7857  0.6543 -0.0159
 3142TIP3    H2 9391   3.817   2.046   4.982  2.1900  0.4738 -0.0456
 3143TIP3   OH2 9392   1.628   1.419   0.263 -0.2428  0.7336 -0.3211
 3143TIP3    H1 9393   1.644   1.496   0.317 -3.9675  0.4058  1.5479
 3143TIP3    H2 9394   1.678   1.349   0.306 -1.6490  0.8882  1.6927
 3144TIP3   OH2 9395   5.540   2.688   5.640  0.4270  0.4532  0.4428
 3144TIP3    H1 9396   5.630   2.655   5.635  0.7909  1.4283  0.2845
 3144TIP3    H2 9397   5.486   2.615   5.611  1.3717  0.7423 -2.3247
 3145TIP3   OH2 9398   4.605   1.781   3.600 -0.0358 -0.5987  0.3805
 3145TIP3    H1 9399   4.542   1.841   3.638 -0.0136 -1.2262  1.4475
 3145TIP3    H2 9400   4.553   1.722   3.546  0.0350  0.8538 -1.3667
 3146TIP3   OH2 9401   5.649   1.078   3.725 -0.1007 -0.1604  0.6164
 3146TIP3    H1 9402   5.712   1.007   3.713  0.1838  0.5480 -3.2610
 3146TIP3    H2 9403   5.701   1.151   3.760  0.4188 -0.6769  0.9253
 3147TIP3   OH2 9404   7.176   2.562   2.378  0.0571 -0.5266 -0.4704
 3147TIP3    H1 9405   7.173   2.658   2.376  1.6557 -0.4489 -0.7931
 3147TIP3    H2 9406   7.092   2.536   2.416 -0.1552  1.0288  0.2151
 3148TIP3   OH2 9407   2.478   4.332   2.151 -0.0890 -0.0933 -0.1862
 3148TIP3    H1 9408   2.509   4.373   2.232  0.3959  0.1188 -0.4766
 3148TIP3    H2 9409   2.533   4.254   2.140 -0.1272 -0.1010 -0.3324
 3149TIP3   OH2 9410   1.960   0.382   0.594  0.2004 -0.0146  0.1223
 3149TIP3    H1 9411   2.011   0.431   0.529  0.3554  0.5875  0.6891
 3149TIP3    H2 9412   1.874   0.424   0.593 -0.4525 -1.3028 -1.1432
 3150TIP3   OH2 9413   0.056   3.667   4.898 -0.3580 -0.3461 -0.1776
 3150TIP3    H1 9414   0.102   3.742   4.935  1.1007 -1.0002 -0.5854
 3150TIP3    H2 9415   0.100   3.591   4.936 -1.8194 -1.0193  0.2481
 3151TIP3   OH2 9416   4.664   1.722   5.677 -0.9882 -0.3108 -0.1304
 3151TIP3    H1 9417   4.610   1.648   5.704 -1.3223  0.2365  0.7359
 3151TIP3    H2 9418   4.682   1.770   5.758 -0.7472  0.5376 -0.6719
 3152TIP3   OH2 9419   2.078   6.323   1.322  0.3731  0.0291  0.3357
 3152TIP3    H1 9420   2.166   6.341   1.288  0.4599  0.3574  0.7215
 3152TIP3    H2 9421   2.063   6.393   1.386  0.2720 -0.6545  1.0627
 3153TIP3   OH2 9422   2.473   2.834   0.051  0.1048  0.1409 -1.1426
 3153TIP3    H1 9423   2.415   2.867   0.120  0.9198 -1.2893  0.2904
 3153TIP3    H2 9424   2.413   2.802  -0.016 -0.9549 -2.6669  0.9419
 3154TIP3   OH2 9425   1.191   6.310   4.061  0.4252  0.0749 -1.0133
 3154TIP3    H1 9426   1.160   6.354   3.981  0.1129 -1.6301 -1.8808
 3154TIP3    H2 9427   1.144   6.227   4.062 -0.2632  0.4021  1.4622
 3155TIP3   OH2 9428   0.225   5.763   2.559  0.1214 -0.7897 -0.5365
 3155TIP3    H1 9429   0.135   5.747   2.532 -0.0192 -0.6171 -0.1773
 3155TIP3    H2 9430   0.227   5.856   2.582 -0.0455 -1.1766  1.1137
 3156TIP3   OH2 9431   4.640   0.819   5.171 -0.2010  0.1742  0.4573
 3156TIP3    H1 9432   4.672   0.879   5.238  0.4135 -1.1154  1.3750
 3156TIP3    H2 9433   4.577   0.764   5.216 -3.5717  2.3537 -1.2065
 3157TIP3   OH2 9434   2.080   3.179   0.058 -0.4932  0.2679 -0.5062
 3157TIP3    H1 9435   2.162   3.227   0.047  0.5312 -0.5781  2.4461
 3157TIP3    H2 9436   2.017   3.245   0.086 -0.6429  0.7883 -2.0118
 3158TIP3   OH2 9437   2.035   6.659   1.861  0.3004  0.0254 -0.0990
 3158TIP3    H1 9438   2.031   6.566   1.884  0.9503 -0.2411 -1.0321
 3158TIP3    H2 9439   1.978   6.701   1.926  0.8307 -0.8821  1.0119
 3159TIP3   OH2 9440   0.443   4.408   5.060  0.1104 -0.2064  0.3520
 3159TIP3    H1 9441   0.448   4.479   4.996 -2.6281  0.9322  1.2559
 3159TIP3    H2 9442   0.531   4.406   5.099  0.9996  0.9667 -1.4240
 3160TIP3   OH2 9443   7.054   3.856   5.878 -0.1685 -0.5497  0.5216
 3160TIP3    H1 9444   7.029   3.880   5.789  2.0159  0.1168  0.0034
 3160TIP3    H2 9445   6.974   3.824   5.918 -1.0385 -1.7882 -1.9782
 3161TIP3   OH2 9446   5.078   4.408   3.126  0.1366  0.1985 -0.0381
 3161TIP3    H1 9447   5.037   4.435   3.044 -0.3780  0.6305  0.3548
 3161TIP3    H2 9448   5.088   4.490   3.176 -0.2754 -0.1597  0.6458
 3162TIP3   OH2 9449   4.847   5.454   0.842  0.1022  0.4370 -0.5048
 3162TIP3    H1 9450   4.789   5.475   0.769 -0.4667 -0.7951 -0.4252
 3162TIP3    H2 9451   4.935   5.457   0.804 -0.1519  0.2712 -1.1261
 3163TIP3   OH2 9452   6.098   4.167   1.557 -0.2992 -0.1388 -0.1418
 3163TIP3    H1 9453   6.036   4.237   1.533 -0.0009  0.9807  2.1023
 3163TIP3    H2 9454   6.119   4.125   1.474 -2.4489  0.7942 -1.2560
 3164TIP3   OH2 9455   1.681   4.527   2.808  0.2440 -0.1941 -0.1285
 3164TIP3    H1 9456   1.624   4.505   2.734 -0.3694 -0.1718  0.3244
 3164TIP3    H2 9457   1.768   4.534   2.770  0.1235 -1.3208 -0.6451
 3165TIP3   OH2 9458   6.067   2.709   5.030 -0.4010  0.4172  0.1252
 3165TIP3    H1 9459   6.133   2.728   4.964  0.8276 -1.7528  0.6145
 3165TIP3    H2 9460   6.040   2.795   5.063  0.3062  1.4569 -1.8500
 3166TIP3   OH2 9461   3.868   3.531   0.805  0.5871 -0.4271  0.1374
 3166TIP3    H1 9462   3.834   3.525   0.716  0.5148  0.9947  0.0400
 3166TIP3    H2 9463   3.914   3.448   0.819 -1.7102 -1.8633 -0.2083
 3167TIP3   OH2 9464   5.925   2.001   1.125 -0.6841  0.0216  0.3593
 3167TIP3    H1 9465   5.873   2.035   1.053  1.3916  2.5586 -0.0855
 3167TIP3    H2 9466   5.938   2.075   1.183 -1.3166 -1.6741  2.8432
 3168TIP3   OH2 9467   2.682   4.360   1.141  0.5281  0.0233 -0.2680
 3168TIP3    H1 9468   2.777   4.365   1.139  0.4431  2.3432 -0.4062
 3168TIP3    H2 9469   2.654   4.439   1.188 -1.3839  0.2152 -1.6077
 3169TIP3   OH2 9470   0.647   0.656   1.466 -0.1202 -0.2380  0.0755
 3169TIP3    H1 9471   0.661   0.746   1.436 -1.0148 -0.5074 -1.2408
 3169TIP3    H2 9472   0.610   0.611   1.390  1.2925 -1.9987  0.3705
 3170TIP3   OH2 9473   5.152   1.333   5.412  0.1887 -0.2014 -0.0472
 3170TIP3    H1 9474   5.141   1.428   5.410 -0.3902 -0.2308  0.9644
 3170TIP3    H2 9475   5.226   1.315   5.354  0.2256  0.8560 -0.3305
 3171TIP3   OH2 9476   6.383   1.223   2.500 -0.4761  0.3101 -0.4957
 3171TIP3    H1 9477   6.445   1.167   2.452  1.7451  0.1187  2.3288
 3171TIP3    H2 9478   6.306   1.167   2.512  0.5955 -1.1725 -0.1538
 3172TIP3   OH2 9479   5.423   2.191   5.584 -0.2346 -0.2043 -0.0969
 3172TIP3    H1 9480   5.366   2.151   5.650 -1.3071  1.5174  0.0865
 3172TIP3    H2 9481   5.385   2.164   5.500 -0.9743  0.4266  0.0234
 3173TIP3   OH2 9482   2.597   6.721   0.762 -0.4193 -0.5142 -0.1663
 3173TIP3    H1 9483   2.557   6.807   0.749  1.5998  0.3154 -1.4188
 3173TIP3    H2 9484   2.561   6.668   0.690 -0.4250 -0.2352 -0.3736
 3174TIP3   OH2 9485   6.620   0.448   3.600 -0.2922  0.0102 -0.0702
 3174TIP3    H1 9486   6.668   0.377   3.642  0.6153  0.1217 -0.8708
 3174TIP3    H2 9487   6.550   0.404   3.550  0.8759 -0.4470 -1.3771
 3175TIP3   OH2 9488   0.630   4.050   3.403  0.1367 -0.2708 -0.4279
 3175TIP3    H1 9489   0.542   4.046   3.440  0.1145 -1.2480 -0.5676
 3175TIP3    H2 9490   0.623   4.112   3.330  0.1733  1.6628  1.1181
 3176TIP3   OH2 9491   6.074   3.925   1.710  0.2530 -0.3003 -0.0379
 3176TIP3    H1 9492   5.993   3.936   1.759  1.1827 -1.2514  1.8094
 3176TIP3    H2 9493   6.102   4.014   1.689  0.3948  0.2302  2.2000
 3177TIP3   OH2 9494   4.023   4.729   1.418 -0.6190 -0.0816 -0.0631
 3177TIP3    H1 9495   4.011   4.815   1.379 -0.2192  0.6436  1.3298
 3177TIP3    H2 9496   4.117   4.713   1.414 -0.6059 -0.1175  0.3573
 3178TIP3   OH2 9497   4.751   6.311   0.032  0.0891 -0.0163 -0.1034
 3178TIP3    H1 9498   4.725   6.306  -0.060  0.7385  0.2146 -0.3099
 3178TIP3    H2 9499   4.829   6.255   0.038  0.0950  0.0297  0.2863
 3179TIP3   OH2 9500   0.197   2.952   0.973 -0.1087  0.0981  0.1502
 3179TIP3    H1 9501   0.102   2.963   0.976 -0.3431 -0.1585 -3.0915
 3179TIP3    H2 9502   0.211   2.858   0.984 -0.4973 -0.2315 -1.8048
 3180TIP3   OH2 9503   4.298   6.716   4.860  0.5009  0.1863 -0.1466
 3180TIP3    H1 9504   4.324   6.628   4.888  1.6964  0.5043 -0.2225
 3180TIP3    H2 9505   4.202   6.713   4.860  0.5175 -1.1393 -0.2204
 3181TIP3   OH2 9506   0.447   1.656   1.528 -0.3943 -0.2545 -0.4366
 3181TIP3    H1 9507   0.368   1.636   1.578 -0.9102 -0.5091 -1.3187
 3181TIP3    H2 9508   0.465   1.748   1.546 -0.9821 -0.1567 -0.3379
 3182TIP3   OH2 9509   4.913   2.832   3.514 -0.5453  0.3666 -0.5481
 3182TIP3    H1 9510   4.955   2.756   3.553 -2.7753 -0.4732  0.4272
 3182TIP3    H2 9511   4.941   2.830   3.422 -0.6998 -1.8042 -0.6200
 3183TIP3   OH2 9512   3.986   1.306   0.984  0.6731 -0.4453  0.0968
 3183TIP3    H1 9513   3.917   1.344   0.930  0.0079 -0.6077  0.8117
 3183TIP3    H2 9514   4.060   1.293   0.924 -0.0528 -0.6497 -0.7701
 3184TIP3   OH2 9515   0.548   1.886   2.865 -0.3645 -0.5977  0.3770
 3184TIP3    H1 9516   0.525   1.812   2.921  2.2998 -0.5897  1.6284
 3184TIP3    H2 9517   0.507   1.867   2.781 -0.4229 -3.0884  0.9146
 3185TIP3   OH2 9518   3.783   6.702   1.608 -0.1163  0.3466 -0.3680
 3185TIP3    H1 9519   3.857   6.734   1.658  0.6651 -1.2235 -0.4500
 3185TIP3    H2 9520   3.706   6.734   1.656  0.5638 -1.6597  2.3192
 3186TIP3   OH2 9521   2.462   3.261   5.625 -0.1276  0.8133  0.3554
 3186TIP3    H1 9522   2.401   3.212   5.570  0.4349  0.6334 -0.1213
 3186TIP3    H2 9523   2.460   3.350   5.590  1.2084  0.4157 -0.8401
 3187TIP3   OH2 9524   2.922   6.711   2.490 -0.0685  0.1975  0.1746
 3187TIP3    H1 9525   2.979   6.644   2.529  0.2770  0.0952 -0.4860
 3187TIP3    H2 9526   2.833   6.683   2.512  0.1112  0.0519  0.7356
 3188TIP3   OH2 9527   6.384   1.650   3.958  0.7872  0.3094 -0.0420
 3188TIP3    H1 9528   6.315   1.627   4.021  1.8325  0.6397  1.2812
 3188TIP3    H2 9529   6.392   1.573   3.901 -1.2103  0.5774 -0.7624
 3189TIP3   OH2 9530   3.471   2.174   1.872 -0.4587  0.1257 -0.2672
 3189TIP3    H1 9531   3.564   2.186   1.893  0.0562 -2.7694 -0.4258
 3189TIP3    H2 9532   3.425   2.206   1.949  1.0122 -3.0228  2.1987
 3190TIP3   OH2 9533   5.605   5.559   0.179  0.1684 -0.1848  0.3085
 3190TIP3    H1 9534   5.681   5.594   0.226  1.4701 -1.8515 -0.4159
 3190TIP3    H2 9535   5.632   5.470   0.154 -1.9861 -0.7627 -0.1244
 3191TIP3   OH2 9536   6.654   6.032   0.033  0.3313  0.7522 -0.3488
 3191TIP3    H1 9537   6.745   6.035   0.003  0.5937 -1.5233  0.0815
 3191TIP3    H2 9538   6.648   5.951   0.083 -2.2091  0.3269 -1.2120
 3192TIP3   OH2 9539   2.317   1.614   4.384  0.6423  0.1881 -0.7610
 3192TIP3    H1 9540   2.274   1.698   4.368  0.6409  0.1122 -1.1793
 3192TIP3    H2 9541   2.398   1.636   4.430  0.5013  0.3942 -0.6140
 3193TIP3   OH2 9542   5.548   5.587   0.520 -0.1147 -0.2669  0.2676
 3193TIP3    H1 9543   5.528   5.679   0.507  0.5943  0.0405  1.2172
 3193TIP3    H2 9544   5.614   5.566   0.454 -0.6452 -0.2301 -0.2737
 3194TIP3   OH2 9545   0.958   5.668   5.132 -0.0428  0.0334  0.3996
 3194TIP3    H1 9546   1.021   5.627   5.191  1.7991  0.6544 -1.0775
 3194TIP3    H2 9547   0.931   5.748   5.179 -0.8060 -0.9008  1.6240
 3195TIP3   OH2 9548   2.097   3.951   5.333  0.3726  0.0856  0.4782
 3195TIP3    H1 9549   2.154   3.989   5.266  0.7015 -0.0954  0.6539
 3195TIP3    H2 9550   2.045   4.025   5.364  0.2962  0.1943  0.1059
 3196TIP3   OH2 9551   2.906   5.441   1.943  0.1323 -0.3590 -0.6959
 3196TIP3    H1 9552   2.880   5.349   1.940  1.5186 -1.1116  3.5236
 3196TIP3    H2 9553   2.998   5.440   1.916  0.3576 -0.3767  0.0458
 3197TIP3   OH2 9554   1.305   1.903   4.431 -0.2840  0.5305 -0.4416
 3197TIP3    H1 9555   1.335   1.994   4.441 -0.5901  0.5781  0.0874
 3197TIP3    H2 9556   1.215   1.904   4.464  0.3660 -0.3731  1.4549
 3198TIP3   OH2 9557   4.558   3.176   0.839 -0.1677  0.3725 -0.2351
 3198TIP3    H1 9558   4.583   3.228   0.915  0.7221  0.5717 -0.6410
 3198TIP3    H2 9559   4.638   3.127   0.817 -1.0440 -1.3572  0.2814
 3199TIP3   OH2 9560   6.949   3.420   3.863 -0.3910  0.0468  0.2549
 3199TIP3    H1 9561   6.917   3.364   3.792 -2.9361  0.4248  1.0002
 3199TIP3    H2 9562   7.011   3.479   3.821 -2.0597  0.4720 -1.7717
 3200TIP3   OH2 9563   7.059   6.350   3.077  0.1929  0.1580  0.2503
 3200TIP3    H1 9564   6.990   6.290   3.105 -0.5867  0.7501 -0.3575
 3200TIP3    H2 9565   7.018   6.436   3.080  0.7926  0.4773 -0.4867
 3201TIP3   OH2 9566   2.095   4.604   4.164 -0.3968 -0.2001  0.1754
 3201TIP3    H1 9567   2.016   4.655   4.147 -0.8412 -0.8464  0.3074
 3201TIP3    H2 9568   2.091   4.531   4.102  0.7655  0.4642 -0.7546
 3202TIP3   OH2 9569   5.648   1.787   4.974 -0.7128  0.3280  0.2312
 3202TIP3    H1 9570   5.641   1.730   5.050 -2.2513  0.4032  0.1726
 3202TIP3    H2 9571   5.716   1.747   4.920  0.9191  0.6380  1.9232
 3203TIP3   OH2 9572   3.326   5.913   3.947 -0.3115 -0.0588  0.5205
 3203TIP3    H1 9573   3.364   5.920   3.859 -0.6951  1.7226  0.4720
 3203TIP3    H2 9574   3.388   5.857   3.995 -0.1461 -1.1567 -0.8809
 3204TIP3   OH2 9575   4.264   2.306   3.736 -0.4321 -0.0777 -0.0677
 3204TIP3    H1 9576   4.180   2.300   3.689 -1.1936  0.5403  1.1502
 3204TIP3    H2 9577   4.245   2.363   3.811  0.9694 -0.3099  0.4935
 3205TIP3   OH2 9578   3.858   2.156   5.800 -0.1047  0.4708  0.0956
 3205TIP3    H1 9579   3.795   2.093   5.836 -0.7684  0.2083 -1.4493
 3205TIP3    H2 9580   3.888   2.206   5.876  0.9523 -2.1023  1.5216
 3206TIP3   OH2 9581   1.152   6.747   0.683 -0.3289 -0.0455  0.0433
 3206TIP3    H1 9582   1.129   6.832   0.644 -0.7790  1.2666  2.9121
 3206TIP3    H2 9583   1.243   6.757   0.711 -0.3722 -0.5165  0.3651
 3207TIP3   OH2 9584   3.357   3.037   5.846 -0.6351 -0.4816 -0.3013
 3207TIP3    H1 9585   3.284   2.976   5.834 -1.6597  0.8989 -1.5403
 3207TIP3    H2 9586   3.375   3.069   5.757  1.6093 -0.9083 -0.0379
 3208TIP3   OH2 9587   3.637   1.956   4.079  0.2281 -0.2910  0.0583
 3208TIP3    H1 9588   3.630   2.020   4.150 -0.4577 -1.7419  1.3505
 3208TIP3    H2 9589   3.568   1.980   4.018 -0.3339 -0.0848  0.7701
 3209TIP3   OH2 9590   6.026   5.905   0.894 -0.6773  0.4362 -0.2634
 3209TIP3    H1 9591   5.991   5.900   0.983  0.7776  2.0567  0.4710
 3209TIP3    H2 9592   6.073   5.823   0.881  0.2618  0.7412  1.0209
 3210TIP3   OH2 9593   6.408   3.540   4.620 -0.0206  0.9288  0.2291
 3210TIP3    H1 9594   6.398   3.487   4.699 -0.8961 -1.1847 -1.1807
 3210TIP3    H2 9595   6.498   3.525   4.592 -0.0705  0.6591  0.2002
 3211TIP3   OH2 9596   4.424   5.532   3.868  0.2291  0.4640 -0.8888
 3211TIP3    H1 9597   4.334   5.556   3.846 -0.0055 -0.1422 -0.6141
 3211TIP3    H2 9598   4.424   5.437   3.869  0.1495  0.3922  1.8612
 3212TIP3   OH2 9599   6.545   2.889   3.592 -0.6058  0.1365 -0.0051
 3212TIP3    H1 9600   6.529   2.937   3.674  3.9136 -1.4763  2.1500
 3212TIP3    H2 9601   6.550   2.797   3.619  0.3738 -0.5259 -2.2149
 3213TIP3   OH2 9602   6.505   3.051  -0.010 -0.0224 -0.1474 -0.4985
 3213TIP3    H1 9603   6.533   3.072   0.080  0.9825  1.4107 -1.1305
 3213TIP3    H2 9604   6.452   3.126  -0.037  0.9693  0.1486 -1.7238
 3214TIP3   OH2 9605   0.275   4.967   5.689 -0.1166 -0.5305  0.4635
 3214TIP3    H1 9606   0.292   4.935   5.601  1.0689 -1.7423  1.0848
 3214TIP3    H2 9607   0.358   5.006   5.717 -1.2358  2.2711  0.1129
 3215TIP3   OH2 9608   1.103   0.954   0.220 -0.0045  0.3624 -0.3111
 3215TIP3    H1 9609   1.048   0.933   0.295  1.3312 -0.3755  0.4887
 3215TIP3    H2 9610   1.126   1.046   0.233 -0.6084  0.5281 -0.3753
 3216TIP3   OH2 9611   6.822   1.700   0.334 -0.1289  0.2710  0.1527
 3216TIP3    H1 9612   6.888   1.666   0.394 -0.3985 -0.6992 -0.0902
 3216TIP3    H2 9613   6.748   1.723   0.389 -0.9302 -1.9556  0.0841
 3217TIP3   OH2 9614   2.740   2.387   3.407  0.5358 -0.5170  0.4810
 3217TIP3    H1 9615   2.673   2.403   3.474  0.3135  0.6700  0.0024
 3217TIP3    H2 9616   2.708   2.310   3.361  0.5816 -1.2241  1.5853
 3218TIP3   OH2 9617   2.967   5.806   0.149  0.4124  0.1257  0.2132
 3218TIP3    H1 9618   2.959   5.901   0.141  1.3718  0.1341 -0.9570
 3218TIP3    H2 9619   3.048   5.785   0.102  1.0956 -1.0945  1.8481
 3219TIP3   OH2 9620   5.087   1.502   3.843 -0.9469  0.1007 -0.9652
 3219TIP3    H1 9621   5.053   1.477   3.757 -2.1561  1.5696 -0.9572
 3219TIP3    H2 9622   5.011   1.538   3.889 -0.4665 -1.1834  0.9679
 3220TIP3   OH2 9623   2.664   5.226   5.418  0.7382 -0.4505 -0.6352
 3220TIP3    H1 9624   2.636   5.286   5.487 -0.2560 -0.3085 -1.1439
 3220TIP3    H2 9625   2.596   5.158   5.416  0.3298 -0.0425 -1.9771
 3221TIP3   OH2 9626   0.980   3.152   3.974  0.7291  0.4051 -0.5107
 3221TIP3    H1 9627   1.027   3.074   4.003  0.3662  0.0846 -0.7765
 3221TIP3    H2 9628   0.963   3.201   4.055 -0.6511 -0.6873 -0.0906
 3222TIP3   OH2 9629   5.597   0.258   2.782  0.0884  0.9192 -0.0168
 3222TIP3    H1 9630   5.538   0.240   2.709  0.2075  0.5034 -0.0127
 3222TIP3    H2 9631   5.543   0.303   2.847  0.1891  2.1342 -0.7346
 3223TIP3   OH2 9632   6.543   5.382   2.339 -0.3101 -1.0320  0.1953
 3223TIP3    H1 9633   6.555   5.374   2.244 -1.2680  1.2222 -0.1828
 3223TIP3    H2 9634   6.571   5.471   2.359 -4.1535  0.1413  1.2307
 3224TIP3   OH2 9635   0.265   3.504   1.623  0.1196  0.0530  0.6455
 3224TIP3    H1 9636   0.293   3.412   1.625 -0.9281 -0.5403 -3.2521
 3224TIP3    H2 9637   0.169   3.500   1.620  0.0688  1.2513  0.1725
 3225TIP3   OH2 9638   6.219   2.113   5.337 -0.0134 -0.2919 -0.2213
 3225TIP3    H1 9639   6.221   2.093   5.431  0.9305 -2.3070 -0.6131
 3225TIP3    H2 9640   6.142   2.169   5.326 -0.7433 -0.8527  1.6008
 3226TIP3   OH2 9641   4.549   0.906   4.001 -0.2235 -0.1174  0.0549
 3226TIP3    H1 9642   4.505   0.896   4.085 -2.3673  1.2237 -0.8397
 3226TIP3    H2 9643   4.524   0.829   3.951  0.4865 -0.5694  0.3798
 3227TIP3   OH2 9644   2.746   4.277   5.225  0.0015  0.4836  0.3237
 3227TIP3    H1 9645   2.724   4.184   5.218 -1.2207  0.5675  2.2117
 3227TIP3    H2 9646   2.737   4.310   5.136 -1.6791 -0.7932 -0.0492
 3228TIP3   OH2 9647   0.253   0.524   5.769  0.1758 -0.1192  0.2588
 3228TIP3    H1 9648   0.315   0.475   5.822  2.1531 -1.3798 -2.9493
 3228TIP3    H2 9649   0.168   0.486   5.791  1.2037 -2.2722  0.7742
 3229TIP3   OH2 9650   5.794   5.157   1.619  0.5901  0.1563 -0.3676
 3229TIP3    H1 9651   5.844   5.160   1.701  0.2301  1.9294 -0.1788
 3229TIP3    H2 9652   5.844   5.097   1.563  1.2410 -0.5118  0.8779
 3230TIP3   OH2 9653   1.863   4.122   0.598  0.0137 -0.8241  0.4930
 3230TIP3    H1 9654   1.957   4.128   0.614  0.0891 -1.8483  0.5026
 3230TIP3    H2 9655   1.856   4.075   0.515 -0.5029 -2.0751  1.2148
 3231TIP3   OH2 9656   6.786   0.271   4.804 -0.2528 -0.2687 -0.2736
 3231TIP3    H1 9657   6.851   0.320   4.754 -1.3774  0.8612 -0.6935
 3231TIP3    H2 9658   6.706   0.277   4.750 -1.1283 -0.2075  0.9977
 3232TIP3   OH2 9659   0.293   5.929   4.041  0.5500 -0.1667  0.0796
 3232TIP3    H1 9660   0.321   5.839   4.059  0.5975 -0.2806 -0.5484
 3232TIP3    H2 9661   0.269   5.964   4.127  2.6192 -0.0484  0.6724
 3233TIP3   OH2 9662   3.644   0.082   5.611  0.0113  0.7720 -0.8200
 3233TIP3    H1 9663   3.593   0.128   5.677  1.7055  0.5752  0.7191
 3233TIP3    H2 9664   3.619  -0.010   5.622 -0.1218  0.8090 -0.8161
 3234TIP3   OH2 9665   5.947   2.522   2.467  0.6070 -0.0226  0.4449
 3234TIP3    H1 9666   5.997   2.574   2.403  2.2405 -1.4037  0.5498
 3234TIP3    H2 9667   6.010   2.499   2.534 -0.7816  0.2705  1.9137
 3235TIP3   OH2 9668   1.104   2.050   5.811  0.3002 -0.1956  0.4517
 3235TIP3    H1 9669   1.162   2.015   5.878  2.7912  1.5897 -0.6408
 3235TIP3    H2 9670   1.034   1.986   5.805  2.2548 -2.6077  1.6777
 3236TIP3   OH2 9671   3.685   6.071   1.112  0.0482 -0.1553  0.2445
 3236TIP3    H1 9672   3.607   6.114   1.146  0.4915  0.1200  0.9206
 3236TIP3    H2 9673   3.729   6.034   1.189  0.6555 -0.1936 -0.1098
 3237TIP3   OH2 9674   0.506   2.590   1.091 -0.4965  0.6158 -0.5188
 3237TIP3    H1 9675   0.431   2.566   1.036  0.0676  0.3730 -1.2047
 3237TIP3    H2 9676   0.531   2.676   1.059 -0.0773  0.4121 -0.7436
 3238TIP3   OH2 9677   4.260   3.026   1.065  0.3901  0.5049 -0.5228
 3238TIP3    H1 9678   4.332   2.993   1.118  0.5048  0.1636 -0.8876
 3238TIP3    H2 9679   4.266   2.977   0.983  1.3745  2.3385 -1.6159
 3239TIP3   OH2 9680   0.378   4.708   2.356 -0.2132 -0.2753  0.1800
 3239TIP3    H1 9681   0.333   4.645   2.413 -1.6698  0.0102 -0.5893
 3239TIP3    H2 9682   0.408   4.656   2.281  0.3066 -0.3786  0.4562
 3240TIP3   OH2 9683   2.108   4.377   4.004 -0.2676 -0.6122  0.3051
 3240TIP3    H1 9684   2.151   4.291   4.011  0.2335 -0.5323 -1.3522
 3240TIP3    H2 9685   2.022   4.365   4.044  0.5428 -1.3285  1.8959
 3241TIP3   OH2 9686   2.242   3.664   4.766  0.5252 -0.4492  0.3049
 3241TIP3    H1 9687   2.287   3.699   4.689 -0.4967  0.2660  0.0053
 3241TIP3    H2 9688   2.190   3.592   4.732 -1.3581  1.0090 -0.0695
 3242TIP3   OH2 9689   0.204   3.315   0.232  0.4363  0.5780 -0.1098
 3242TIP3    H1 9690   0.147   3.241   0.252  0.3438  0.6500 -0.1044
 3242TIP3    H2 9691   0.244   3.293   0.148  1.3252 -0.0245  0.4621
 3243TIP3   OH2 9692   3.918   0.841   2.372 -0.3056  0.0562  0.1747
 3243TIP3    H1 9693   4.010   0.864   2.384 -0.5875  0.5541  1.6319
 3243TIP3    H2 9694   3.899   0.864   2.281  0.6300  1.3688  0.2761
 3244TIP3   OH2 9695   1.641   4.485   1.429  0.0872  0.1892  0.2578
 3244TIP3    H1 9696   1.701   4.560   1.419 -0.1236  0.6560  2.1844
 3244TIP3    H2 9697   1.673   4.421   1.365  1.4985  1.1498 -0.0587
 3245TIP3   OH2 9698   2.895   0.988   3.290 -0.0008  0.4608 -0.1258
 3245TIP3    H1 9699   2.969   1.011   3.347  0.9223 -1.9768 -0.2307
 3245TIP3    H2 9700   2.821   0.979   3.349  0.4077  0.2968  0.3704
 3246TIP3   OH2 9701   2.657   3.730   0.681  0.0709 -0.0022  0.1897
 3246TIP3    H1 9702   2.735   3.741   0.627 -0.7933 -0.5369 -1.2232
 3246TIP3    H2 9703   2.661   3.639   0.711  0.0142 -0.0286  0.1203
 3247TIP3   OH2 9704   1.389   0.887   1.153  0.0880 -0.1494 -0.1573
 3247TIP3    H1 9705   1.418   0.805   1.114  0.3667  0.5661 -1.5290
 3247TIP3    H2 9706   1.301   0.869   1.186 -0.7319 -0.4440 -2.3708
 3248TIP3   OH2 9707   6.281   4.059   5.245  0.1323  0.3661  0.1689
 3248TIP3    H1 9708   6.305   3.988   5.185  3.1617  1.1567  0.2561
 3248TIP3    H2 9709   6.281   4.017   5.332 -1.5958 -0.1980 -0.0580
 3249TIP3   OH2 9710   4.107   1.804   3.376 -0.2736  0.7989 -0.2284
 3249TIP3    H1 9711   4.088   1.714   3.351 -0.5719  1.2363 -1.6613
 3249TIP3    H2 9712   4.037   1.856   3.337  0.4325  1.7605 -0.2564
 3250TIP3   OH2 9713   1.708   5.049   2.237  0.3393  0.2070 -0.4016
 3250TIP3    H1 9714   1.798   5.059   2.270  0.0163  0.6512  0.3951
 3250TIP3    H2 9715   1.718   5.023   2.146  1.2794  0.0952 -0.2762
 3251TIP3   OH2 9716   5.120   6.246   0.278  0.2376  0.2869  0.4047
 3251TIP3    H1 9717   5.046   6.195   0.312 -0.1903  0.8291  0.2952
 3251TIP3    H2 9718   5.196   6.190   0.293 -0.1361 -0.0914  0.9319
 3252TIP3   OH2 9719   4.314   3.155   1.551  0.4860  0.4649  0.3668
 3252TIP3    H1 9720   4.219   3.160   1.548  0.5224  0.8729 -0.3221
 3252TIP3    H2 9721   4.333   3.107   1.632 -0.2851  0.9047  0.8265
 3253TIP3   OH2 9722   3.975   3.472   0.209  0.1092 -0.3568 -0.4688
 3253TIP3    H1 9723   3.963   3.417   0.286 -0.3531 -0.3818 -0.5576
 3253TIP3    H2 9724   4.069   3.486   0.205  0.1797 -0.7050 -0.1417
 3254TIP3   OH2 9725   1.097   4.649   0.263 -0.1216  1.0659  0.0767
 3254TIP3    H1 9726   1.192   4.632   0.266 -0.1817  0.8180  0.6346
 3254TIP3    H2 9727   1.079   4.663   0.170  0.1543 -0.6561 -0.2617
 3255TIP3   OH2 9728   4.704   6.612   5.711  0.5186 -0.5116  0.3134
 3255TIP3    H1 9729   4.736   6.677   5.774  2.0678 -0.8666 -0.0726
 3255TIP3    H2 9730   4.783   6.573   5.675 -0.3834 -1.8155 -0.3099
 3256TIP3   OH2 9731   2.963   2.617   5.695 -0.0159  0.7826 -0.8536
 3256TIP3    H1 9732   2.953   2.706   5.729 -0.2186  1.0748 -1.6653
 3256TIP3    H2 9733   2.906   2.614   5.618  0.9513  0.3537 -1.5732
 3257TIP3   OH2 9734   0.775   5.514   5.551  0.0557 -0.2445 -0.0701
 3257TIP3    H1 9735   0.799   5.553   5.635  2.8384  0.8829 -1.2737
 3257TIP3    H2 9736   0.859   5.492   5.510 -1.2465 -1.5084 -2.2254
 3258TIP3   OH2 9737   6.545   2.717   4.351  0.3277 -0.3960  0.0498
 3258TIP3    H1 9738   6.478   2.777   4.318  0.2137 -1.5416 -1.9672
 3258TIP3    H2 9739   6.497   2.659   4.411 -0.2127 -0.3939 -0.3690
 3259TIP3   OH2 9740   2.170   6.385   4.164  0.4899 -0.7097 -0.5213
 3259TIP3    H1 9741   2.205   6.364   4.251 -0.4673 -1.1287 -0.2287
 3259TIP3    H2 9742   2.198   6.312   4.109  1.8577 -0.0206 -0.8033
 3260TIP3   OH2 9743   4.366   3.349   2.706  0.0152  0.5736 -0.0374
 3260TIP3    H1 9744   4.402   3.335   2.618  0.5867  1.0420  0.1117
 3260TIP3    H2 9745   4.390   3.439   2.727 -1.7851  1.1238 -0.1709
 3261TIP3   OH2 9746   3.218   2.168   3.056  0.1945 -0.1673 -0.0187
 3261TIP3    H1 9747   3.211   2.134   2.967  0.4763  0.2832 -0.2160
 3261TIP3    H2 9748   3.256   2.255   3.046 -1.8957  0.8515  0.3366
 3262TIP3   OH2 9749   6.306   5.297   4.184  0.1685  0.5979  0.3918
 3262TIP3    H1 9750   6.319   5.364   4.252 -1.4242  2.1727 -0.7652
 3262TIP3    H2 9751   6.274   5.346   4.108 -0.5519 -1.4333 -0.6852
 3263TIP3   OH2 9752   2.659   0.665   3.351  0.4263  0.1992 -0.3441
 3263TIP3    H1 9753   2.588   0.729   3.338 -0.3526 -0.7059 -0.6407
 3263TIP3    H2 9754   2.713   0.704   3.419  0.4659  1.5946 -1.1212
 3264TIP3   OH2 9755   3.819   4.002   5.022 -0.1063  0.4110 -0.0193
 3264TIP3    H1 9756   3.820   3.910   5.049  1.2127  0.3702 -0.1603
 3264TIP3    H2 9757   3.841   4.050   5.101 -1.9685  0.7196  0.3525
 3265TIP3   OH2 9758   0.749   5.065   0.489 -0.1286 -0.1119  0.3929
 3265TIP3    H1 9759   0.763   5.015   0.570  0.0305  0.3202  0.6368
 3265TIP3    H2 9760   0.701   5.006   0.432 -1.1991 -0.0492  1.2033
 3266TIP3   OH2 9761   0.546   0.081   2.943  0.1764 -0.0606 -0.0884
 3266TIP3    H1 9762   0.613   0.148   2.933  1.2045 -1.1024 -0.4449
 3266TIP3    H2 9763   0.499   0.080   2.860  0.1408  0.2309 -0.0709
 3267TIP3   OH2 9764   5.355   1.692   2.854 -0.1117 -0.6088 -0.0356
 3267TIP3    H1 9765   5.273   1.680   2.806 -0.5668 -0.2253  0.6353
 3267TIP3    H2 9766   5.340   1.770   2.907  1.1712  0.2796 -0.9283
 3268TIP3   OH2 9767   5.121   2.764   0.180 -0.4580  0.1041 -0.2645
 3268TIP3    H1 9768   5.196   2.784   0.124  0.7558 -0.2370  1.1694
 3268TIP3    H2 9769   5.100   2.847   0.223  0.9248 -0.3605  1.4120
 3269TIP3   OH2 9770   0.221   1.532   2.853 -0.1005  0.3479  0.4987
 3269TIP3    H1 9771   0.283   1.602   2.832  1.2221 -0.6577  0.8843
 3269TIP3    H2 9772   0.256   1.494   2.934 -2.3700  1.0429  1.8997
 3270TIP3   OH2 9773   3.089   3.540   3.469 -0.2171 -0.5828  0.3827
 3270TIP3    H1 9774   3.180   3.571   3.475 -0.6335  0.8967 -0.3833
 3270TIP3    H2 9775   3.090   3.480   3.394  0.3580 -1.5667  1.1459
 3271TIP3   OH2 9776   3.916   6.300   2.925 -0.3644 -0.2163 -0.2368
 3271TIP3    H1 9777   3.847   6.235   2.910  0.1041 -0.7920  0.0826
 3271TIP3    H2 9778   3.995   6.249   2.937 -0.2592  0.3181  1.6493
 3272TIP3   OH2 9779   0.100   2.745   4.567  1.1213 -0.4560  0.7371
 3272TIP3    H1 9780   0.108   2.813   4.633 -0.6702 -0.4464  1.0058
 3272TIP3    H2 9781   0.066   2.791   4.490 -1.1767 -1.1462  1.2572
 3273TIP3   OH2 9782   5.807   0.140   5.286 -0.4061 -0.4727  0.6200
 3273TIP3    H1 9783   5.741   0.162   5.221  0.2037 -1.0319 -0.2062
 3273TIP3    H2 9784   5.758   0.106   5.360 -1.1168  0.2759  0.5111
 3274TIP3   OH2 9785   5.015   5.189   3.074 -0.0762  0.0061 -0.1043
 3274TIP3    H1 9786   4.952   5.260   3.084  0.3255  0.6678 -1.9701
 3274TIP3    H2 9787   4.963   5.114   3.045 -0.3559 -0.2085  0.9118
 3275TIP3   OH2 9788   1.922   0.171   4.123 -0.6208  0.2117  0.0413
 3275TIP3    H1 9789   1.891   0.080   4.129 -3.2741  1.0292 -0.0398
 3275TIP3    H2 9790   1.928   0.201   4.213 -1.6234  0.5177  0.0130
 3276TIP3   OH2 9791   5.390   0.619   5.226  0.0490 -0.2982  0.0468
 3276TIP3    H1 9792   5.369   0.679   5.154  0.5205  1.6813  1.4751
 3276TIP3    H2 9793   5.329   0.643   5.296  0.1616 -1.6133  0.6255
 3277TIP3   OH2 9794   1.108   3.507   4.797 -0.1269 -0.0406 -0.1043
 3277TIP3    H1 9795   1.039   3.470   4.741 -0.8738  0.0601  0.7229
 3277TIP3    H2 9796   1.112   3.448   4.872  1.0271 -0.3048 -0.3572
 3278TIP3   OH2 9797   0.806   2.557   0.841 -0.4003  0.1393  0.6071
 3278TIP3    H1 9798   0.835   2.620   0.907 -0.4363  0.9031 -0.0869
 3278TIP3    H2 9799   0.735   2.509   0.882  0.3321 -0.1812  1.5261
 3279TIP3   OH2 9800   0.952   5.513   3.054  0.4362 -0.2688 -0.0540
 3279TIP3    H1 9801   0.897   5.560   3.117  0.4061 -0.8914  0.3929
 3279TIP3    H2 9802   0.934   5.556   2.970 -0.7724 -0.4930  0.0758
 3280TIP3   OH2 9803   0.270   4.266   0.097 -0.1993  0.3835  0.1768
 3280TIP3    H1 9804   0.241   4.274   0.188  0.4302  0.4038  0.3820
 3280TIP3    H2 9805   0.280   4.172   0.083  1.9352  0.4582  0.8709
 3281TIP3   OH2 9806   3.227   1.353   2.231  0.2892 -0.1561  0.0417
 3281TIP3    H1 9807   3.191   1.267   2.207 -1.2911  0.4704  0.0161
 3281TIP3    H2 9808   3.151   1.411   2.229  1.4267  1.3641 -0.4863
 3282TIP3   OH2 9809   2.112   5.754   4.618  0.4224  0.4358  0.1686
 3282TIP3    H1 9810   2.033   5.754   4.671  0.6347  0.6142  0.4851
 3282TIP3    H2 9811   2.184   5.762   4.680  0.6710  0.7029 -0.1447
 3283TIP3   OH2 9812   2.326   0.652   0.494 -0.2597  0.0526 -0.2823
 3283TIP3    H1 9813   2.303   0.736   0.454  0.6875  0.1920 -0.5510
 3283TIP3    H2 9814   2.258   0.591   0.464 -0.7263  0.6253 -0.4061
 3284TIP3   OH2 9815   1.462   1.888   2.366 -0.3022 -0.3603  0.0595
 3284TIP3    H1 9816   1.521   1.913   2.437 -2.2628 -0.1310  1.6903
 3284TIP3    H2 9817   1.509   1.818   2.320  1.0985 -0.4132  1.4716
 3285TIP3   OH2 9818   6.347   2.915   4.358 -0.1268  0.3044 -0.3201
 3285TIP3    H1 9819   6.325   2.896   4.449 -0.4047  1.0045 -0.2360
 3285TIP3    H2 9820   6.270   2.961   4.323 -0.4462 -0.8417 -1.2081
 3286TIP3   OH2 9821   6.203   2.576   3.557  0.0514  1.2169 -0.1452
 3286TIP3    H1 9822   6.182   2.579   3.650  1.5734 -0.1935  0.2891
 3286TIP3    H2 9823   6.162   2.496   3.525  1.8630  0.1937 -0.0144
 3287TIP3   OH2 9824   4.149   4.164   0.345  0.5524  0.0042 -0.1402
 3287TIP3    H1 9825   4.243   4.151   0.356  0.9224 -0.1301 -2.6871
 3287TIP3    H2 9826   4.115   4.076   0.326  0.0951  0.2052 -0.2693
 3288TIP3   OH2 9827   5.290   0.195   5.227  0.1816 -0.6547  0.3037
 3288TIP3    H1 9828   5.209   0.146   5.234 -0.2592  0.1933  1.3777
 3288TIP3    H2 9829   5.341   0.168   5.303  0.3918 -0.2616  0.3045
 3289TIP3   OH2 9830   2.476   4.307   5.325  0.0821  0.2231 -0.2401
 3289TIP3    H1 9831   2.464   4.325   5.232 -1.8414 -3.0999 -0.7667
 3289TIP3    H2 9832   2.567   4.279   5.332  0.1046  0.0186 -1.2169
 3290TIP3   OH2 9833   5.535   0.966   4.219 -0.1102  0.1793  0.1163
 3290TIP3    H1 9834   5.444   0.980   4.194 -0.9600  0.4375  2.9997
 3290TIP3    H2 9835   5.550   0.872   4.205 -0.9760  0.0415  0.0566
 3291TIP3   OH2 9836   2.314   5.704   4.423  0.6839  1.3486 -0.5559
 3291TIP3    H1 9837   2.395   5.654   4.438 -1.1406 -1.4519  0.6979
 3291TIP3    H2 9838   2.264   5.693   4.504 -3.0229 -1.2657 -2.8709
 3292TIP3   OH2 9839   1.612   4.000   5.210 -0.6214  0.0206 -0.3474
 3292TIP3    H1 9840   1.656   4.074   5.253 -2.5360  1.8194 -1.3185
 3292TIP3    H2 9841   1.630   3.926   5.267 -2.0068  2.0201  2.9856
 3293TIP3   OH2 9842   6.514   1.958   3.658  0.0471  0.4784 -0.4548
 3293TIP3    H1 9843   6.535   2.042   3.699 -0.5954  0.1831  0.5305
 3293TIP3    H2 9844   6.450   1.979   3.590  0.4398  0.8783 -0.6967
 3294TIP3   OH2 9845   7.008   3.756   5.015  0.0696 -0.3729 -0.6234
 3294TIP3    H1 9846   7.089   3.711   4.988  0.4981  0.4995 -0.8296
 3294TIP3    H2 9847   6.967   3.695   5.076  1.3177 -0.4919  0.1527
 3295TIP3   OH2 9848   0.713   6.435   1.950 -0.8783 -0.0636  0.4556
 3295TIP3    H1 9849   0.787   6.491   1.928 -1.7415  0.4532 -1.3080
 3295TIP3    H2 9850   0.719   6.362   1.889 -2.1695  0.3291 -0.1798
 3296TIP3   OH2 9851   2.421   3.620   2.054 -0.0053  0.9427 -0.3094
 3296TIP3    H1 9852   2.494   3.568   2.021 -0.5882 -0.9240  1.1004
 3296TIP3    H2 9853   2.391   3.671   1.979  2.4693  1.4897 -1.0136
 3297TIP3   OH2 9854   1.094   6.449   2.459  0.1051  0.6126  0.1743
 3297TIP3    H1 9855   1.088   6.408   2.545 -2.0696 -0.4651 -0.4369
 3297TIP3    H2 9856   1.179   6.494   2.461  0.7064 -0.4424  2.3841
 3298TIP3   OH2 9857   0.527   3.140   5.359 -0.2767  0.1259 -0.3065
 3298TIP3    H1 9858   0.455   3.199   5.378  0.0391  0.5519 -0.4316
 3298TIP3    H2 9859   0.494   3.084   5.289 -0.7279 -0.1344  0.1082
 3299TIP3   OH2 9860   4.942   3.666   0.136 -0.5042  0.2504  0.5473
 3299TIP3    H1 9861   4.889   3.739   0.102 -1.0840 -0.6728 -0.5807
 3299TIP3    H2 9862   4.920   3.592   0.080  1.7316 -0.2748  0.2554
 3300TIP3   OH2 9863   0.030   6.491   1.658 -0.5494 -0.1113  0.3324
 3300TIP3    H1 9864   0.095   6.426   1.684 -2.3251 -1.7695  0.8511
 3300TIP3    H2 9865   0.023   6.549   1.734  0.0804 -0.0869  0.3808
 3301TIP3   OH2 9866   3.560   2.305   0.662 -0.0592  0.4136  0.7672
 3301TIP3    H1 9867   3.601   2.219   0.655 -3.2574 -1.1510 -1.5828
 3301TIP3    H2 9868   3.488   2.293   0.725 -0.8796  1.1583  0.0124
 3302TIP3   OH2 9869   4.905   5.100   5.001  0.0434 -0.5613  0.4195
 3302TIP3    H1 9870   4.986   5.067   4.963  1.0698  1.5960  0.5971
 3302TIP3    H2 9871   4.930   5.181   5.046 -2.2891  0.4948  0.0053
 3303TIP3   OH2 9872   4.881   2.993   4.608  0.1540  0.5044  0.2103
 3303TIP3    H1 9873   4.891   3.088   4.610  0.8615  0.4296  0.9741
 3303TIP3    H2 9874   4.965   2.960   4.640 -0.1978 -0.3680  0.2568
 3304TIP3   OH2 9875   0.964   2.545   5.014 -0.0029 -0.7333 -0.1947
 3304TIP3    H1 9876   0.956   2.616   5.078  1.7639 -1.6323  1.0895
 3304TIP3    H2 9877   1.011   2.585   4.941 -2.8807  0.5759 -1.4859
 3305TIP3   OH2 9878   3.744   1.050   2.933 -0.2867 -0.2222 -0.0050
 3305TIP3    H1 9879   3.826   1.002   2.946  0.9347  1.7976  0.1134
 3305TIP3    H2 9880   3.735   1.056   2.838 -2.0332 -3.1137 -0.1719
 3306TIP3   OH2 9881   3.010   3.901   4.401  0.5146  0.1928  0.2236
 3306TIP3    H1 9882   3.065   3.952   4.461  0.8711 -0.2874  0.3079
 3306TIP3    H2 9883   3.004   3.815   4.441  1.0281 -0.2311 -0.5957
 3307TIP3   OH2 9884   1.304   3.400   3.277  0.0541  0.0060  0.0699
 3307TIP3    H1 9885   1.229   3.459   3.280 -0.1297 -0.0648 -2.0036
 3307TIP3    H2 9886   1.277   3.324   3.330 -0.9525  0.3793  0.1062
 3308TIP3   OH2 9887   0.999   6.114   4.077 -0.2399 -0.3396  0.7444
 3308TIP3    H1 9888   1.027   6.041   4.021 -0.0928 -0.1501  0.5693
 3308TIP3    H2 9889   1.031   6.089   4.164  0.1629 -0.3015  0.6138
 3309TIP3   OH2 9890   2.174   3.830   0.786  0.1356  0.2669  0.4775
 3309TIP3    H1 9891   2.185   3.773   0.862 -1.6545 -2.4932 -1.1663
 3309TIP3    H2 9892   2.251   3.812   0.732  0.8561  1.4108  1.0799
 3310TIP3   OH2 9893   6.568   3.871   3.025 -0.5203 -0.7563  0.0751
 3310TIP3    H1 9894   6.611   3.942   3.072  1.5730 -0.8521 -1.5924
 3310TIP3    H2 9895   6.629   3.797   3.030 -1.2500 -1.4591 -0.8637
 3311TIP3   OH2 9896   5.184   2.659   3.383  0.2307  0.0818 -0.0495
 3311TIP3    H1 9897   5.127   2.582   3.381 -0.0445  0.2740 -2.2349
 3311TIP3    H2 9898   5.254   2.637   3.322  0.6676  1.1871  0.0437
 3312TIP3   OH2 9899   6.208   5.275   5.725 -0.2036  0.8207 -0.4851
 3312TIP3    H1 9900   6.259   5.346   5.686  0.9061 -0.5462 -1.6864
 3312TIP3    H2 9901   6.273   5.223   5.773 -0.5820 -0.4743 -1.3195
 3313TIP3   OH2 9902   0.417   4.604   5.365  0.1790  0.5508 -0.0852
 3313TIP3    H1 9903   0.500   4.594   5.410  0.8683 -1.5313 -1.6652
 3313TIP3    H2 9904   0.357   4.547   5.412  0.6730 -0.9332 -1.1898
 3314TIP3   OH2 9905   5.220   0.439   3.689 -0.3535 -0.3831  0.4617
 3314TIP3    H1 9906   5.229   0.529   3.657 -2.1423  0.0649  1.1349
 3314TIP3    H2 9907   5.220   0.385   3.610 -0.7330  0.3397 -0.0321
 3315TIP3   OH2 9908   0.014   4.694   2.971  0.3702  0.4471  0.3907
 3315TIP3    H1 9909  -0.021   4.757   2.908  1.0551  0.2068 -0.2371
 3315TIP3    H2 9910   0.079   4.644   2.922  1.4202  0.7102  1.4629
 3316TIP3   OH2 9911   2.373   6.019   2.860  0.2453 -0.1395 -0.4035
 3316TIP3    H1 9912   2.420   6.100   2.841 -1.2845  0.6243 -1.1211
 3316TIP3    H2 9913   2.434   5.967   2.913  2.1199  0.5025 -1.8411
 3317TIP3   OH2 9914   0.125   2.426   1.537  0.0708 -0.1194 -0.0693
 3317TIP3    H1 9915   0.155   2.450   1.624  0.5568 -0.8798 -0.0183
 3317TIP3    H2 9916   0.182   2.474   1.477 -0.6019  0.8105  0.0255
 3318TIP3   OH2 9917   1.058   3.744   3.482  0.3262 -0.0082  0.3263
 3318TIP3    H1 9918   0.994   3.674   3.498 -0.4110  0.3549 -0.8853
 3318TIP3    H2 9919   1.140   3.710   3.516 -0.3549 -0.7984  1.2374
 3319TIP3   OH2 9920   6.806   3.311   0.409  0.5921  0.3241  0.3206
 3319TIP3    H1 9921   6.760   3.350   0.335  0.0134  1.6427  1.3392
 3319TIP3    H2 9922   6.862   3.243   0.369  0.2432  0.9323 -1.2938
 3320TIP3   OH2 9923   4.067   3.740   1.298 -0.3802 -0.2033  1.0652
 3320TIP3    H1 9924   4.127   3.762   1.369 -0.5410  0.8008  0.9101
 3320TIP3    H2 9925   4.119   3.750   1.218 -0.1287 -1.5721  1.0351
 3321TIP3   OH2 9926   6.704   1.629   3.030  0.5862  0.2510  0.1262
 3321TIP3    H1 9927   6.705   1.723   3.010  1.5096  0.2229  0.0012
 3321TIP3    H2 9928   6.697   1.586   2.945 -1.4418  0.2038  0.2641
 3322TIP3   OH2 9929   4.055   0.697   0.426  0.4917  0.1065  0.2300
 3322TIP3    H1 9930   4.051   0.792   0.417  0.0985  0.0894  0.1907
 3322TIP3    H2 9931   4.044   0.681   0.520  1.6859  0.1483  0.3903
 3323TIP3   OH2 9932   3.289   3.368   4.807 -0.6794  0.1520  0.2224
 3323TIP3    H1 9933   3.291   3.342   4.899 -1.3846 -0.6719  0.0128
 3323TIP3    H2 9934   3.347   3.444   4.803  1.9168 -1.6400  0.7690
 3324TIP3   OH2 9935   3.252   6.743   0.342 -0.2589 -0.1045  0.2785
 3324TIP3    H1 9936   3.217   6.730   0.254 -0.5348  1.1659  0.1778
 3324TIP3    H2 9937   3.290   6.659   0.365  1.6551  0.0763 -1.8702
 3325TIP3   OH2 9938   2.167   4.920   5.568  0.1567  0.4727 -0.1322
 3325TIP3    H1 9939   2.181   4.826   5.558 -0.9492  0.3179 -0.2805
 3325TIP3    H2 9940   2.076   4.928   5.593 -0.3665  1.6384 -2.2040
 3326TIP3   OH2 9941   6.416   6.586   3.143 -0.5593 -0.3046  0.0344
 3326TIP3    H1 9942   6.487   6.636   3.183 -0.9974  0.0721  0.3562
 3326TIP3    H2 9943   6.455   6.547   3.065  0.0685 -0.3142  0.3425
 3327TIP3   OH2 9944   1.263   3.267   5.760 -0.0662  0.7383  0.8335
 3327TIP3    H1 9945   1.286   3.331   5.693  1.2081 -1.4781 -0.9982
 3327TIP3    H2 9946   1.311   3.296   5.838  2.0347  1.0313 -0.4785
 3328TIP3   OH2 9947   5.185   6.675   5.829 -0.2503  0.5963  0.4959
 3328TIP3    H1 9948   5.280   6.669   5.836  0.1499  0.8357 -3.0117
 3328TIP3    H2 9949   5.155   6.584   5.827  0.1362  0.4780 -0.2598
 3329TIP3   OH2 9950   6.350   0.276   5.135  0.5560 -0.6158 -0.1464
 3329TIP3    H1 9951   6.440   0.302   5.155  0.9140 -0.9995 -1.1694
 3329TIP3    H2 9952   6.324   0.333   5.062  0.1051 -0.7637 -0.1049
 3330TIP3   OH2 9953   1.438   0.339   2.808  0.5833  0.1525  0.0467
 3330TIP3    H1 9954   1.507   0.381   2.858  0.4245  0.6520 -0.1518
 3330TIP3    H2 9955   1.465   0.348   2.717 -0.6522  2.0356 -0.1744
 3331TIP3   OH2 9956   3.881   3.944   1.313  0.0891  0.1288  0.1242
 3331TIP3    H1 9957   3.836   3.941   1.229 -1.8417 -2.2773  1.1278
 3331TIP3    H2 9958   3.931   3.863   1.317  1.0145  0.7085  0.8985
 3332TIP3   OH2 9959   1.062   1.703   5.780 -0.3436 -0.3991  0.0559
 3332TIP3    H1 9960   1.073   1.622   5.829  2.3432 -1.1308 -1.5140
 3332TIP3    H2 9961   1.151   1.738   5.772 -0.7347  0.1319 -3.3850
 3333TIP3   OH2 9962   4.550   0.636   5.361  0.6731 -0.0486 -0.2782
 3333TIP3    H1 9963   4.457   0.638   5.386  0.0266  0.8691 -2.5684
 3333TIP3    H2 9964   4.593   0.692   5.427 -0.8533  1.8055 -0.7678
 3334TIP3   OH2 9965   4.722   1.216   3.227 -0.1810  0.5063  0.5326
 3334TIP3    H1 9966   4.707   1.124   3.249 -3.6302  0.8916  0.3428
 3334TIP3    H2 9967   4.639   1.246   3.189  0.8048  3.7191  0.5858
 3335TIP3   OH2 9968   3.605   1.511   0.506 -0.0688  0.3963 -0.2247
 3335TIP3    H1 9969   3.530   1.452   0.513 -0.5783  1.0726  0.1484
 3335TIP3    H2 9970   3.595   1.553   0.421 -0.4684  0.9575  0.0981
 3336TIP3   OH2 9971   0.371   2.118   2.103 -0.1720 -0.0171 -0.3509
 3336TIP3    H1 9972   0.323   2.189   2.061 -1.2270 -1.2088 -1.2284
 3336TIP3    H2 9973   0.440   2.162   2.153  0.4065  1.5427 -2.3645
 3337TIP3   OH2 9974   1.990   5.568   2.611 -0.7564 -0.0014  0.3968
 3337TIP3    H1 9975   1.904   5.605   2.634 -0.5330  1.2821 -0.7034
 3337TIP3    H2 9976   1.969   5.490   2.560 -1.3700  1.2588 -1.4234
 3338TIP3   OH2 9977   4.826   2.054   2.193 -0.0689  0.3290  0.0261
 3338TIP3    H1 9978   4.827   1.963   2.163  0.0216  0.0341  0.9054
 3338TIP3    H2 9979   4.745   2.091   2.155  0.4151  0.1975 -1.1956
 3339TIP3   OH2 9980   2.249   5.406   1.782 -0.1567 -0.6893 -0.1217
 3339TIP3    H1 9981   2.244   5.429   1.689  0.0636 -0.3332 -0.0456
 3339TIP3    H2 9982   2.323   5.346   1.788  0.8635  0.5335  0.0672
 3340TIP3   OH2 9983   1.392   3.372   4.794 -0.2003  0.1145  0.0409
 3340TIP3    H1 9984   1.356   3.452   4.755 -1.9564 -0.5327  0.2328
 3340TIP3    H2 9985   1.319   3.336   4.845  0.7073 -1.3598  0.3385
 3341TIP3   OH2 9986   4.927   5.388   5.578  0.0693  0.0351  0.6089
 3341TIP3    H1 9987   5.008   5.380   5.527 -0.2168 -0.6111  0.2470
 3341TIP3    H2 9988   4.858   5.362   5.518 -0.2005 -1.5711  1.5409
 3342TIP3   OH2 9989   2.913   2.180   3.699  0.3153  0.0708  0.1053
 3342TIP3    H1 9990   2.988   2.132   3.735  0.0179 -1.3500 -1.0530
 3342TIP3    H2 9991   2.869   2.217   3.775  0.7318 -1.2913  1.0526
 3343TIP3   OH2 9992   2.709   4.615   1.289 -0.7490 -0.1210  0.2214
 3343TIP3    H1 9993   2.655   4.647   1.217 -0.3125  0.5738  0.1909
 3343TIP3    H2 9994   2.778   4.680   1.298 -0.8282 -0.1664  1.3101
 3344TIP3   OH2 9995   3.492   2.831   2.201 -0.3209  0.5999 -0.1110
 3344TIP3    H1 9996   3.568   2.884   2.224  0.1428  0.2160 -0.7520
 3344TIP3    H2 9997   3.459   2.799   2.285  1.1603 -0.5271  0.0800
 3345TIP3   OH2 9998   5.806   4.093   4.545  0.2641 -0.1966  0.1027
 3345TIP3    H1 9999   5.796   4.018   4.486  1.9648 -0.1516 -0.3138
 3345TIP3    H210000   5.767   4.166   4.497 -0.8598 -0.6924  0.2502
 3346TIP3   OH210001   1.452   5.946   5.571 -0.0941  0.2493  0.0414
 3346TIP3    H110002   1.382   5.886   5.598  0.2227  0.4769  1.4169
 3346TIP3    H210003   1.454   6.013   5.639  0.2897  1.2295 -0.9141
 3347TIP3   OH210004   1.398   4.947   3.710 -0.4993  0.1727 -0.3437
 3347TIP3    H110005   1.372   5.038   3.717 -1.9295 -0.2643  0.5808
 3347TIP3    H210006   1.316   4.899   3.700  0.1433 -1.0707  0.0666
 3348TIP3   OH210007   5.592   4.983   5.153 -0.4489 -0.5987 -0.1917
 3348TIP3    H110008   5.567   4.914   5.092 -1.3067  0.2923 -0.8844
 3348TIP3    H210009   5.582   5.064   5.103 -0.3372  0.0900  0.8694
 3349TIP3   OH210010   2.354   3.904   3.894 -0.4574  0.4115 -0.2016
 3349TIP3    H110011   2.350   3.812   3.868  0.2724  0.5608 -0.8926
 3349TIP3    H210012   2.393   3.948   3.818 -2.8517  1.6485 -0.8095
 3350TIP3   OH210013   5.108   3.715   2.479  0.0320 -0.0022  0.1451
 3350TIP3    H110014   5.113   3.648   2.412  2.3973  1.8558 -1.7322
 3350TIP3    H210015   5.081   3.794   2.433  2.5288  1.5353  1.1056
 3351TIP3   OH210016   3.513   5.193   3.587  0.0463 -0.4248  0.0746
 3351TIP3    H110017   3.462   5.269   3.616 -0.0895 -0.8503  0.9542
 3351TIP3    H210018   3.603   5.212   3.614  0.6319  0.8023 -2.3649
 3352TIP3   OH210019   3.284   2.064   3.305  0.8890 -0.0583 -0.5054
 3352TIP3    H110020   3.338   1.996   3.265  0.1921 -0.4854 -0.7313
 3352TIP3    H210021   3.266   2.125   3.233  0.9797  0.0322 -0.4526
 3353TIP3   OH210022   0.615   5.302   0.400  0.5842 -0.3303 -0.1903
 3353TIP3    H110023   0.631   5.231   0.461 -0.3871 -0.0237  0.4287
 3353TIP3    H210024   0.687   5.363   0.415  0.3576 -0.2632  0.6411
 3354TIP3   OH210025   1.813   0.503   1.832 -0.1277  0.0258 -0.3192
 3354TIP3    H110026   1.814   0.461   1.918  1.5045 -0.0836 -0.3510
 3354TIP3    H210027   1.811   0.430   1.770 -1.3191  0.1048 -0.3819
 3355TIP3   OH210028   0.004   6.804   2.448  0.4165 -0.0219 -0.4530
 3355TIP3    H110029   0.061   6.783   2.374  0.1324 -0.3781 -0.5783
 3355TIP3    H210030   0.039   6.751   2.520  1.0826  0.8084 -0.1541
 3356TIP3   OH210031   3.049   4.320   3.734  0.5053 -0.0908 -0.4069
 3356TIP3    H110032   3.044   4.292   3.642 -1.3175 -0.7852 -0.1342
 3356TIP3    H210033   3.003   4.404   3.736 -0.7588 -0.7619  0.0845
 3357TIP3   OH210034   7.123   1.980   4.894  0.0897  0.4756 -0.1514
 3357TIP3    H110035   7.195   1.917   4.884  0.1986  0.8320 -2.2430
 3357TIP3    H210036   7.045   1.925   4.903  0.4179  0.0703  0.2734
 3358TIP3   OH210037   1.246   5.708   2.608 -0.0654  0.1561 -0.1902
 3358TIP3    H110038   1.293   5.745   2.533  1.2507 -0.8840  0.0917
 3358TIP3    H210039   1.301   5.727   2.683 -1.2595  0.9692  0.5121
 3359TIP3   OH210040   2.284   0.048   5.362  0.2610 -0.1810 -0.3276
 3359TIP3    H110041   2.337   0.114   5.316  0.2664 -0.5910 -0.9146
 3359TIP3    H210042   2.340  -0.030   5.363  0.9098  0.2505  1.7626
 3360TIP3   OH210043   4.442   4.448   5.558  0.3815 -0.0760 -0.3261
 3360TIP3    H110044   4.423   4.438   5.465 -0.2491 -0.6536 -0.1480
 3360TIP3    H210045   4.371   4.504   5.591  1.0470  0.7916 -0.3382
 3361TIP3   OH210046   1.035   4.708   4.364  0.0612  0.9434  0.3380
 3361TIP3    H110047   0.940   4.698   4.370  0.0211  1.0532 -0.1126
 3361TIP3    H210048   1.065   4.701   4.455 -0.4406  1.5536  0.5587
 3362TIP3   OH210049   2.067   4.783   0.573 -0.1170 -0.6185  0.5170
 3362TIP3    H110050   2.152   4.774   0.617 -0.5535  0.5289  1.6523
 3362TIP3    H210051   2.075   4.863   0.521 -0.6933 -0.1795  1.0965
 3363TIP3   OH210052   3.744   0.812   5.741 -0.3223 -0.1813  0.3710
 3363TIP3    H110053   3.817   0.772   5.789  0.9080  0.9997 -0.4387
 3363TIP3    H210054   3.734   0.898   5.781 -0.3700  0.1833 -0.4110
 3364TIP3   OH210055   5.035   3.518   3.849 -0.1636  0.6558 -0.0215
 3364TIP3    H110056   5.129   3.523   3.833 -0.5031  0.8801 -2.2332
 3364TIP3    H210057   5.025   3.551   3.938  2.0038 -1.0774  0.9776
 3365TIP3   OH210058   1.494   3.118   4.699 -0.5272  0.6562 -0.2416
 3365TIP3    H110059   1.470   3.210   4.715 -0.0370  0.5653  1.1083
 3365TIP3    H210060   1.552   3.122   4.622 -1.3342  1.3472 -0.8345
 3366TIP3   OH210061   4.227   1.177   3.586 -0.2556  0.1401 -0.1263
 3366TIP3    H110062   4.280   1.102   3.611 -0.4779 -0.1037 -0.3781
 3366TIP3    H210063   4.174   1.146   3.513 -1.3403  0.1315  0.6416
 3367TIP3   OH210064   6.550   0.476   5.252  0.4534 -0.0800 -0.0004
 3367TIP3    H110065   6.601   0.526   5.315 -0.1129  0.2347  0.2139
 3367TIP3    H210066   6.611   0.456   5.182  1.7474 -2.4240  1.6646
 3368TIP3   OH210067   3.178   0.455   1.552 -0.5130 -0.0807  0.1792
 3368TIP3    H110068   3.166   0.406   1.471  2.0983  2.0480 -1.7021
 3368TIP3    H210069   3.090   0.459   1.591 -2.0880 -0.5288 -2.9663
 3369TIP3   OH210070   5.800   2.647   5.033  0.2642  0.1641  0.7602
 3369TIP3    H110071   5.776   2.738   5.012  0.5281  0.0561 -0.0286
 3369TIP3    H210072   5.888   2.654   5.068  1.1385  0.0169 -1.2654
 3370TIP3   OH210073   5.046   4.169   5.216  0.2675  0.4751  0.1605
 3370TIP3    H110074   5.055   4.259   5.185 -1.9995  0.2361 -1.4267
 3370TIP3    H210075   5.014   4.178   5.306 -0.3863  1.2883 -0.1355
 3371TIP3   OH210076   5.374   5.723   3.600 -0.7810  0.1500  0.1629
 3371TIP3    H110077   5.392   5.814   3.578 -1.1370  0.0999 -0.3497
 3371TIP3    H210078   5.299   5.699   3.546  0.9146 -1.2503 -1.7361
 3372TIP3   OH210079   6.178   4.679   5.249 -0.2131 -0.9530 -0.3535
 3372TIP3    H110080   6.144   4.659   5.336  0.7543 -0.8024  0.0771
 3372TIP3    H210081   6.245   4.746   5.265 -0.5509 -0.3726 -1.3007
 3373TIP3   OH210082   4.583   3.777   3.515 -0.8431  0.1116  0.2987
 3373TIP3    H110083   4.524   3.780   3.591 -1.3117  0.6658 -0.0853
 3373TIP3    H210084   4.541   3.715   3.455 -0.2763 -0.6248  0.6419
 3374TIP3   OH210085   6.752   3.891   5.699  0.3070 -0.0092  0.3087
 3374TIP3    H110086   6.687   3.936   5.645  0.5786  1.7815  1.4003
 3374TIP3    H210087   6.825   3.953   5.706  0.6599 -0.5654  1.9715
 3375TIP3   OH210088   5.240   1.399   2.940  0.9014  0.3556 -0.0711
 3375TIP3    H110089   5.281   1.475   2.899  0.9589  0.1713 -0.3582
 3375TIP3    H210090   5.159   1.433   2.980  1.1417  0.6450  0.1711
 3376TIP3   OH210091   4.533   2.358   3.629 -0.5637 -0.9120 -0.0958
 3376TIP3    H110092   4.536   2.454   3.623 -0.1348 -0.8548  0.7798
 3376TIP3    H210093   4.444   2.339   3.660 -1.2064 -0.9223 -1.8427
 3377TIP3   OH210094   1.225   3.879   5.233 -0.6429  0.1421  0.8197
 3377TIP3    H110095   1.229   3.799   5.181 -2.6102  0.4341  0.1281
 3377TIP3    H210096   1.274   3.859   5.313  0.4506 -1.1091 -0.1306
 3378TIP3   OH210097   7.163   5.776   2.815 -0.2637  0.1496  0.2733
 3378TIP3    H110098   7.168   5.681   2.825 -1.6556 -0.0548 -0.6364
 3378TIP3    H210099   7.227   5.811   2.878 -2.2730 -1.2456  3.3426
 3379TIP3   OH210100   3.320   5.076   5.431  0.3217 -0.2396 -0.2693
 3379TIP3    H110101   3.408   5.106   5.454 -0.1971  0.8685  0.3334
 3379TIP3    H210102   3.299   5.121   5.350  0.2189 -0.3244 -0.2909
 3380TIP3   OH210103   4.315   3.779   4.544  0.4504  0.0973  0.6387
 3380TIP3    H110104   4.403   3.807   4.520  1.4578 -2.3322  1.1712
 3380TIP3    H210105   4.262   3.795   4.466  1.2854  1.7377  0.3641
 3381TIP3   OH210106   5.002   0.193   2.120  0.3662  0.2628  0.3983
 3381TIP3    H110107   4.943   0.240   2.062 -1.7387 -3.4922 -0.8314
 3381TIP3    H210108   5.079   0.174   2.067  0.1735  0.2553  0.1223
 3382TIP3   OH210109   3.724   3.923   3.944 -0.4439  0.9555 -0.7783
 3382TIP3    H110110   3.678   3.982   4.002 -1.2176  0.2085 -0.6034
 3382TIP3    H210111   3.814   3.956   3.941 -0.2843  0.7747  1.1474
 3383TIP3   OH210112   4.111   1.507   3.533  0.0810 -0.2645 -0.2498
 3383TIP3    H110113   4.017   1.490   3.521 -0.5908  2.7054  0.0192
 3383TIP3    H210114   4.154   1.447   3.473 -1.9071 -2.4610  0.4015
 3384TIP3   OH210115   5.148   0.716   1.298  0.1646 -0.1394 -0.6518
 3384TIP3    H110116   5.210   0.668   1.354 -0.1047 -1.5015 -1.4864
 3384TIP3    H210117   5.088   0.758   1.360  1.1972  0.2196  0.1345
 3385TIP3   OH210118   4.179   4.223   2.512 -0.7196  0.0623 -0.1817
 3385TIP3    H110119   4.155   4.167   2.586  0.0339  1.9105  1.5546
 3385TIP3    H210120   4.233   4.292   2.551 -1.6228  2.0258 -2.1870
 3386TIP3   OH210121   0.769   0.760   4.359 -0.2963 -0.6698 -0.3441
 3386TIP3    H110122   0.799   0.708   4.434  2.5358 -1.7287 -2.0591
 3386TIP3    H210123   0.849   0.791   4.318 -1.8279  2.2287 -1.4317
 3387TIP3   OH210124   6.458   0.941   1.683  0.1567  0.2078  0.0222
 3387TIP3    H110125   6.535   0.889   1.662 -0.6246 -1.3118  0.7394
 3387TIP3    H210126   6.479   0.983   1.767 -0.0307 -0.7789  0.5827
 3388TIP3   OH210127   5.565   4.727   2.616 -0.1685 -0.0337 -0.5494
 3388TIP3    H110128   5.498   4.751   2.552 -0.7113  1.9123  0.6325
 3388TIP3    H210129   5.633   4.794   2.606 -0.1014  0.1023  0.6196
 3389TIP3   OH210130   3.151   3.097   1.601  0.2048  0.2228 -0.1048
 3389TIP3    H110131   3.162   3.056   1.515 -1.4637  0.2877 -0.3809
 3389TIP3    H210132   3.155   3.024   1.662  0.0368 -0.0099 -0.3655
 3390TIP3   OH210133   2.255   4.413   2.384  0.0686  0.6751 -0.2602
 3390TIP3    H110134   2.342   4.406   2.345 -0.2057 -0.5196 -0.6916
 3390TIP3    H210135   2.198   4.439   2.311 -0.4406 -1.5426 -0.7135
 3391TIP3   OH210136   0.709   0.021   0.637 -0.3936 -0.0185 -0.1315
 3391TIP3    H110137   0.734   0.085   0.571 -1.4910  0.3583 -0.1968
 3391TIP3    H210138   0.719   0.067   0.720 -0.2806 -0.0633 -0.1207
 3392TIP3   OH210139   3.944   4.311   3.155  0.4172 -0.3146  0.4763
 3392TIP3    H110140   3.984   4.393   3.182 -0.1164  0.1566 -0.1292
 3392TIP3    H210141   3.850   4.330   3.151  0.4233 -0.4784 -1.2204
 3393TIP3   OH210142   4.430   5.318   1.629  0.4260  0.2222 -0.3483
 3393TIP3    H110143   4.483   5.272   1.695  2.6373  2.4059 -0.4657
 3393TIP3    H210144   4.479   5.399   1.612 -1.4890  0.9693 -2.7067
 3394TIP3   OH210145   4.845   0.859   5.762  0.2060  0.6043 -0.4246
 3394TIP3    H110146   4.857   0.830   5.852 -0.3672  0.7442 -0.3060
 3394TIP3    H210147   4.931   0.843   5.721 -0.0150 -1.1006 -0.3221
 3395TIP3   OH210148   5.663   4.657   5.518  0.2114 -0.3828 -0.3340
 3395TIP3    H110149   5.754   4.667   5.547  0.4313  1.3850 -1.4760
 3395TIP3    H210150   5.621   4.739   5.545 -1.1606 -1.3345  0.5111
 3396TIP3   OH210151   5.060   1.717   0.060  0.1029  0.2848 -0.3790
 3396TIP3    H110152   5.145   1.761   0.056 -0.8045  2.1512 -0.5691
 3396TIP3    H210153   5.035   1.702  -0.031 -0.0671  0.3639 -0.3468
 3397TIP3   OH210154   6.229   2.414   2.381  0.0332 -0.0906 -0.9377
 3397TIP3    H110155   6.287   2.356   2.332  0.5873  0.5001 -1.0051
 3397TIP3    H210156   6.183   2.357   2.442  0.9560 -0.5314 -0.6297
 3398TIP3   OH210157   0.152   4.654   4.555 -0.0714  0.0158 -0.4451
 3398TIP3    H110158   0.134   4.562   4.535  0.4429 -0.4264  0.9993
 3398TIP3    H210159   0.067   4.690   4.582 -0.2733 -0.0324 -1.0165
 3399TIP3   OH210160   7.128   5.055   3.084 -0.7479  0.3088  0.1000
 3399TIP3    H110161   7.185   5.125   3.052 -1.2192  0.0530 -1.3563
 3399TIP3    H210162   7.049   5.101   3.113 -0.9608  0.4108 -0.6263
 3400TIP3   OH210163   4.699   3.527   4.220  0.4483  0.1232 -0.4778
 3400TIP3    H110164   4.764   3.597   4.219  0.0780  0.4812 -0.0981
 3400TIP3    H210165   4.627   3.562   4.274  0.0181 -0.3271 -0.7498
 3401TIP3   OH210166   2.315   4.714   0.201 -0.7353  0.2747 -0.0025
 3401TIP3    H110167   2.368   4.634   0.198 -1.9294 -0.5238 -0.8676
 3401TIP3    H210168   2.305   4.740   0.109 -2.6097 -0.1611  0.0383
 3402TIP3   OH210169   4.184   5.013   2.680 -0.2124  0.0637  0.4164
 3402TIP3    H110170   4.221   4.974   2.600 -0.2801  4.0180 -1.8073
 3402TIP3    H210171   4.261   5.040   2.731 -0.0910  0.4158  0.0599
 3403TIP3   OH210172   4.678   1.862   4.273 -0.6342 -0.1910  0.0192
 3403TIP3    H110173   4.663   1.821   4.358  1.4782 -0.7377  0.1919
 3403TIP3    H210174   4.646   1.797   4.210 -1.9964  0.1170  0.3522
 3404TIP3   OH210175   1.429   1.453   2.038 -0.1342  0.2134  0.4314
 3404TIP3    H110176   1.506   1.405   2.067  0.4997 -0.8260 -2.6044
 3404TIP3    H210177   1.405   1.413   1.955 -2.4902  2.1078  0.0669
 3405TIP3   OH210178   5.633   5.027   3.184 -0.7421  0.3641  0.4341
 3405TIP3    H110179   5.717   5.038   3.140 -0.5882  1.5610  0.9689
 3405TIP3    H210180   5.602   4.940   3.158  1.0140 -0.4162  0.8629
 3406TIP3   OH210181   3.297   6.042   4.212 -0.5134 -0.1170 -0.2704
 3406TIP3    H110182   3.276   5.966   4.265  0.6219 -0.2614  0.0006
 3406TIP3    H210183   3.299   6.008   4.122 -1.7741 -0.0107 -0.3577
 3407TIP3   OH210184   0.610   0.926   1.720 -0.5591 -0.0961  0.1010
 3407TIP3    H110185   0.564   1.004   1.689 -0.5560  0.4456  1.4090
 3407TIP3    H210186   0.647   0.952   1.805  2.4304 -0.3875 -1.0007
 3408TIP3   OH210187   3.455   4.227   2.297 -0.3001 -0.2263 -0.0096
 3408TIP3    H110188   3.375   4.250   2.249 -0.1758 -0.2583 -0.2364
 3408TIP3    H210189   3.517   4.202   2.228 -0.1111 -0.2482  0.1690
 3409TIP3   OH210190   7.073   1.258   1.001  0.1635 -0.0850  0.3794
 3409TIP3    H110191   7.062   1.274   1.094 -0.4334 -0.2264  0.3380
 3409TIP3    H210192   7.127   1.178   0.997  2.6053  1.4508  0.5792
 3410TIP3   OH210193   0.891   3.888   4.670 -0.3436 -0.3754 -0.4539
 3410TIP3    H110194   0.973   3.842   4.655  0.0812 -0.3117  1.4032
 3410TIP3    H210195   0.913   3.958   4.731 -1.3330  1.1944 -1.8410
 3411TIP3   OH210196   5.169   4.855   2.195  0.2833 -0.1220  0.6741
 3411TIP3    H110197   5.255   4.877   2.231  0.4739 -0.3737  0.3738
 3411TIP3    H210198   5.109   4.862   2.270  0.2897  1.6128  0.5664
 3412TIP3   OH210199   2.747   0.562   0.149  0.2912  0.3714 -0.1952
 3412TIP3    H110200   2.696   0.558   0.229 -0.5960 -1.2090 -0.7819
 3412TIP3    H210201   2.834   0.531   0.174 -0.2516 -1.0765 -0.0002
 3413TIP3   OH210202   1.495   5.708   1.481  0.2751  0.1226  0.2753
 3413TIP3    H110203   1.535   5.766   1.546 -0.6054  1.2888 -0.1959
 3413TIP3    H210204   1.527   5.740   1.397 -0.8800  0.4859 -0.0464
 3414TIP3   OH210205   2.062   4.612   0.357  0.1114 -0.4269 -0.0595
 3414TIP3    H110206   2.131   4.646   0.301  1.0795 -1.7752  0.2613
 3414TIP3    H210207   2.051   4.678   0.425  1.1316 -0.2274 -0.0726
 3415TIP3   OH210208   4.208   0.122   5.713 -0.1663 -0.2728 -0.8568
 3415TIP3    H110209   4.123   0.077   5.714 -0.3817  0.1258 -0.0762
 3415TIP3    H210210   4.216   0.159   5.801  0.1269  0.9901 -1.3930
 3416TIP3   OH210211   6.279   6.319   3.636  0.2222 -0.1198  0.4549
 3416TIP3    H110212   6.184   6.313   3.641 -0.0767  0.7778 -2.3657
 3416TIP3    H210213   6.298   6.411   3.655  0.7111 -0.5208  2.1456
 3417TIP3   OH210214   0.169   3.398   3.421 -0.5068 -0.9212 -0.2798
 3417TIP3    H110215   0.236   3.337   3.389 -0.5972 -1.0586 -0.2042
 3417TIP3    H210216   0.147   3.367   3.508  0.8023  0.2972  0.5313
 3418TIP3   OH210217   3.853   1.338   5.330 -0.4964  0.2792  0.0090
 3418TIP3    H110218   3.936   1.369   5.293 -0.1684  0.7350  1.0791
 3418TIP3    H210219   3.799   1.416   5.339 -0.9649  0.0140 -0.4931
 3419TIP3   OH210220   0.028   0.448   0.937 -0.0984  0.0705 -0.1336
 3419TIP3    H110221   0.047   0.359   0.966  1.6297 -0.0302 -1.4565
 3419TIP3    H210222  -0.054   0.471   0.982 -0.4970 -2.1132  0.3476
 3420TIP3   OH210223   6.616   1.218   2.665 -0.1520  0.2883  0.5216
 3420TIP3    H110224   6.532   1.205   2.620  0.4438 -0.5205 -0.4055
 3420TIP3    H210225   6.606   1.172   2.748 -1.2146  1.6702  1.1902
 3421TIP3   OH210226   5.961   2.699   0.430  0.4376 -0.0994 -0.4942
 3421TIP3    H110227   5.917   2.778   0.464  0.5323 -0.0094 -0.5815
 3421TIP3    H210228   6.037   2.688   0.487 -0.4031 -1.0115  0.5009
 3422TIP3   OH210229   4.108   0.370   4.448 -0.7293  0.1962 -0.7343
 3422TIP3    H110230   4.106   0.342   4.356 -1.5508 -0.1710 -0.6119
 3422TIP3    H210231   4.191   0.334   4.481 -1.5020 -1.6763 -0.7267
 3423TIP3   OH210232   6.367   1.439   1.278  0.0927 -0.4497  0.3028
 3423TIP3    H110233   6.289   1.457   1.330  0.1986  0.2763  0.2179
 3423TIP3    H210234   6.347   1.357   1.233 -0.7823 -0.0651 -0.0342
 3424TIP3   OH210235   3.630   0.035   2.086 -0.1934  0.9042 -0.2489
 3424TIP3    H110236   3.656  -0.044   2.037  0.2701  1.2117 -0.5044
 3424TIP3    H210237   3.672   0.107   2.039  0.9618  1.1318  1.0583
 3425TIP3   OH210238   2.681   6.258   2.361 -0.2244 -0.4098  0.6108
 3425TIP3    H110239   2.757   6.285   2.412  0.0478 -0.6011  0.3065
 3425TIP3    H210240   2.659   6.334   2.307 -0.5101 -0.2088  1.0053
 3426TIP3   OH210241   5.008   4.537   4.310  0.1551 -0.6009  0.1877
 3426TIP3    H110242   5.097   4.509   4.288  0.6461  1.0697 -0.0959
 3426TIP3    H210243   5.003   4.627   4.278 -2.0468 -1.0332 -0.8702
 3427TIP3   OH210244   4.038   1.170   2.036 -0.1801 -0.3454  0.1251
 3427TIP3    H110245   4.077   1.253   2.065  0.2485 -0.8391  0.9955
 3427TIP3    H210246   3.957   1.196   1.992  1.0406  0.6974 -1.5960
 3428TIP3   OH210247   5.247   2.168   0.500  0.0233  0.3334 -0.6176
 3428TIP3    H110248   5.300   2.178   0.579 -0.5463 -0.1883 -0.1533
 3428TIP3    H210249   5.207   2.254   0.486  0.3552  0.5048 -0.5029
 3429TIP3   OH210250   5.747   2.890   2.006  0.0966 -0.1120 -0.5785
 3429TIP3    H110251   5.798   2.945   1.947  0.8822 -0.6394 -0.4085
 3429TIP3    H210252   5.672   2.944   2.030  1.0803  1.0660 -0.0492
 3430TIP3   OH210253   6.995   2.512   5.737  0.3463 -0.2544 -0.1612
 3430TIP3    H110254   6.923   2.453   5.759 -0.6986 -0.5382 -3.6892
 3430TIP3    H210255   7.074   2.461   5.751 -0.4006 -1.5121 -0.4164
 3431TIP3   OH210256   3.064   2.806   0.689 -0.2033  0.7195  0.2296
 3431TIP3    H110257   3.016   2.723   0.690  1.1781 -0.1944 -2.3886
 3431TIP3    H210258   2.997   2.872   0.670 -0.6412 -0.4550 -2.7429
 3432TIP3   OH210259   0.739   1.045   4.051 -0.2482 -0.3691  0.5775
 3432TIP3    H110260   0.756   0.959   4.012  2.1146  0.3881 -0.2126
 3432TIP3    H210261   0.646   1.042   4.075 -0.2035 -3.1980  0.7790
 3433TIP3   OH210262   3.448   1.849   2.814 -0.3280 -0.2440  0.1011
 3433TIP3    H110263   3.505   1.869   2.888 -0.3571  1.1084 -0.2266
 3433TIP3    H210264   3.481   1.903   2.743 -1.7738  0.2765 -0.1998
 3434TIP3   OH210265   1.170   1.976   1.879 -0.2037 -0.1329 -0.0177
 3434TIP3    H110266   1.239   1.909   1.880  0.3774  0.4651  1.0826
 3434TIP3    H210267   1.097   1.935   1.926 -1.1130 -1.2405 -2.2394
 3435TIP3   OH210268   6.160   2.869   0.725  0.2120  0.2441 -0.2679
 3435TIP3    H110269   6.067   2.881   0.706  0.3620  1.6830 -0.1751
 3435TIP3    H210270   6.161   2.821   0.808 -0.4600  0.6026 -0.0390
 3436TIP3   OH210271   6.595   0.769   2.746 -0.1846  0.2301  0.9135
 3436TIP3    H110272   6.682   0.809   2.734 -0.7601  1.0956 -0.6591
 3436TIP3    H210273   6.614   0.681   2.780  1.4726 -0.3978 -1.3365
 3437TIP3   OH210274   6.969   0.944   1.932 -0.0636 -0.0449  0.0300
 3437TIP3    H110275   6.980   0.892   1.852 -2.0382 -0.4285 -0.0585
 3437TIP3    H210276   6.915   0.890   1.989 -1.3197  1.4457  0.3484
 3438TIP3   OH210277   0.266   6.240   5.059  0.1388 -0.3220 -0.2440
 3438TIP3    H110278   0.301   6.221   5.146 -0.8844  0.0745  0.2701
 3438TIP3    H210279   0.172   6.226   5.067 -0.1790  1.2257 -0.8507
 3439TIP3   OH210280   5.331   0.689   1.055 -0.3772  0.4311  0.3740
 3439TIP3    H110281   5.281   0.658   1.130  1.7840 -0.8629  1.3952
 3439TIP3    H210282   5.414   0.720   1.092  1.5321 -1.9260 -1.5024
 3440TIP3   OH210283   6.421   1.965   5.226  0.3555 -0.1651  0.2854
 3440TIP3    H110284   6.348   2.020   5.255  0.1374 -0.4735  0.3306
 3440TIP3    H210285   6.465   1.940   5.307  0.3344 -0.2229  0.2789
 3441TIP3   OH210286   3.047   4.684   1.062 -0.3173  0.0184 -0.0369
 3441TIP3    H110287   3.028   4.713   1.150 -1.8674  0.7742 -0.5941
 3441TIP3    H210288   2.962   4.662   1.024  0.3818 -1.0036 -1.1141
 3442TIP3   OH210289   4.203   1.317   4.099  0.2651  0.8460 -0.0082
 3442TIP3    H110290   4.256   1.242   4.128 -2.4441 -1.8739 -1.5095
 3442TIP3    H210291   4.220   1.323   4.005 -0.1762  1.5901 -0.0462
 3443TIP3   OH210292   3.033   3.849   1.783  0.2603 -0.6279 -0.5017
 3443TIP3    H110293   3.087   3.882   1.855  0.6569  1.2696 -1.5875
 3443TIP3    H210294   2.988   3.773   1.820 -0.3031  0.8044  2.0744
 3444TIP3   OH210295   2.599   1.630   0.960  0.0677  0.0844  0.4602
 3444TIP3    H110296   2.614   1.707   0.905  0.6659  0.7767  1.5547
 3444TIP3    H210297   2.663   1.565   0.929  1.4596  1.0000  1.2900
 3445TIP3   OH210298   3.384   6.426   2.273 -0.0916  0.0399 -0.2576
 3445TIP3    H110299   3.309   6.471   2.235 -0.0792 -0.3863 -0.8080
 3445TIP3    H210300   3.438   6.496   2.310 -1.3167  0.2554  1.1887
 3446TIP3   OH210301   5.046   1.912   5.598  0.0186 -0.5738 -0.7065
 3446TIP3    H110302   5.094   1.902   5.680 -0.0326  0.4112 -0.5486
 3446TIP3    H210303   5.015   1.824   5.578  0.0462 -0.8336  0.3213
 3447TIP3   OH210304   3.560   0.634   4.224 -0.0007  0.0411 -0.3195
 3447TIP3    H110305   3.491   0.647   4.289 -0.0610 -0.0010 -0.3748
 3447TIP3    H210306   3.513   0.609   4.144  0.0182  0.7571 -0.5646
 3448TIP3   OH210307   0.475   2.324   5.690  0.5438  0.1275 -0.2787
 3448TIP3    H110308   0.385   2.348   5.666  0.1321 -0.4569  0.6270
 3448TIP3    H210309   0.483   2.232   5.664  0.3281 -0.2984  1.0715
 3449TIP3   OH210310   0.512   0.461   4.618 -0.2210 -0.2779 -0.6098
 3449TIP3    H110311   0.530   0.405   4.694  0.1015  0.0148 -0.4663
 3449TIP3    H210312   0.436   0.513   4.645  0.5540  0.5964 -0.0597
 3450TIP3   OH210313   6.862   2.374   3.474  0.5706  0.3285 -0.8017
 3450TIP3    H110314   6.902   2.334   3.551 -1.7361 -0.4947  0.0636
 3450TIP3    H210315   6.875   2.468   3.487  2.8583  0.0897 -0.9978
 3451TIP3   OH210316   4.054   3.311   4.323 -1.1471 -0.3183  0.6278
 3451TIP3    H110317   4.105   3.324   4.403 -0.6031 -2.2341  0.6353
 3451TIP3    H210318   4.025   3.220   4.327 -1.5538 -0.3002 -1.1173
 3452TIP3   OH210319   6.734   4.957   0.121  0.4400 -0.2836 -0.8660
 3452TIP3    H110320   6.716   5.013   0.197 -1.7892 -0.8072 -0.9228
 3452TIP3    H210321   6.829   4.959   0.111  0.9804 -1.2895  2.7868
 3453TIP3   OH210322   0.712   3.217   1.299  0.2295 -0.0205 -0.1077
 3453TIP3    H110323   0.641   3.181   1.353  0.3931 -2.3298 -1.3112
 3453TIP3    H210324   0.696   3.311   1.299 -1.2164 -0.1926  1.8918
 3454TIP3   OH210325   0.179   6.300   0.909 -0.0157 -0.3921  0.1472
 3454TIP3    H110326   0.119   6.239   0.953  0.5138  0.3777  2.0421
 3454TIP3    H210327   0.121   6.361   0.863 -0.5936 -1.0554 -0.0308
 3455TIP3   OH210328   1.669   1.157   1.632  0.3399 -0.2020 -0.3976
 3455TIP3    H110329   1.599   1.092   1.626  2.5410 -2.6557 -0.9018
 3455TIP3    H210330   1.684   1.184   1.541 -0.1281  0.5797 -0.2546
 3456TIP3   OH210331   7.060   6.255   4.346  0.2555  0.1819 -0.3162
 3456TIP3    H110332   6.993   6.323   4.355 -0.2553 -0.3193 -0.2595
 3456TIP3    H210333   7.065   6.239   4.252 -0.0033 -0.0633 -0.2919
 3457TIP3   OH210334   2.268   3.701   5.063 -0.5143 -0.2631 -0.0313
 3457TIP3    H110335   2.268   3.686   4.969  0.7049 -2.2862  0.2323
 3457TIP3    H210336   2.182   3.739   5.082 -1.0025 -0.3955 -1.8542
 3458TIP3   OH210337   3.154   4.958   0.090  0.5100 -0.2836  0.0788
 3458TIP3    H110338   3.185   5.027   0.149  1.1014  1.0283 -1.6806
 3458TIP3    H210339   3.078   4.920   0.134  1.5924 -0.1293  2.1702
 3459TIP3   OH210340   0.644   2.214   5.223 -0.1294  0.1613 -0.1077
 3459TIP3    H110341   0.609   2.298   5.250 -0.9599 -0.5603  1.1758
 3459TIP3    H210342   0.739   2.224   5.228 -0.2313  0.8952  0.4336
 3460TIP3   OH210343   3.132   1.152   4.582  0.5129 -0.1693 -0.2167
 3460TIP3    H110344   3.072   1.126   4.651 -1.5377  0.8484 -1.5030
 3460TIP3    H210345   3.105   1.100   4.506  0.0537  1.5575 -1.2948
 3461TIP3   OH210346   4.340   0.924   3.657  0.0892  0.1018 -0.2895
 3461TIP3    H110347   4.366   0.865   3.728 -1.2565  0.9394  0.9470
 3461TIP3    H210348   4.299   0.867   3.592  0.4440 -0.5483  0.0419
 3462TIP3   OH210349   2.452   2.134   2.531 -0.4643 -0.0517 -0.6386
 3462TIP3    H110350   2.412   2.070   2.590  0.1453 -0.0374 -0.2047
 3462TIP3    H210351   2.385   2.201   2.519 -1.2012 -0.8818 -1.2873
 3463TIP3   OH210352   5.530   4.786   3.063 -0.6981 -0.2098 -0.2651
 3463TIP3    H110353   5.581   4.734   3.002  0.2037  0.3259  0.0190
 3463TIP3    H210354   5.468   4.834   3.007 -2.1241 -2.1675 -0.4606
 3464TIP3   OH210355   0.194   5.947   1.870  0.4751 -0.3801 -0.2241
 3464TIP3    H110356   0.168   5.926   1.960  1.7361 -0.5709  0.1185
 3464TIP3    H210357   0.136   5.893   1.815 -0.2498 -0.3263  0.4694
 3465TIP3   OH210358   5.412   0.830   3.751 -0.1792 -0.1777 -0.3018
 3465TIP3    H110359   5.457   0.747   3.767  1.7787  0.9682  0.3832
 3465TIP3    H210360   5.324   0.816   3.787  0.7998 -1.2327  1.9148
 3466TIP3   OH210361   6.016   2.359   4.458  0.2568  0.1203 -0.0563
 3466TIP3    H110362   5.985   2.406   4.536  1.1186 -0.2828  0.5434
 3466TIP3    H210363   6.009   2.424   4.387 -3.3486 -0.3546 -0.3393
 3467TIP3   OH210364   0.670   4.123   0.089 -0.0688 -0.3694 -0.5430
 3467TIP3    H110365   0.707   4.135   0.177  1.1252  1.0312 -1.1874
 3467TIP3    H210366   0.746   4.100   0.035 -0.3218  1.3224 -1.6792
 3468TIP3   OH210367   1.234   2.908   1.514  0.3556  0.1656  0.2591
 3468TIP3    H110368   1.233   3.003   1.500  1.1229  0.3546  1.3836
 3468TIP3    H210369   1.220   2.871   1.426 -1.3262  1.3073 -0.0119
 3469TIP3   OH210370   6.513   2.158   1.070  0.4427  0.3143 -0.1592
 3469TIP3    H110371   6.570   2.126   1.139 -0.2661 -0.1809  0.2095
 3469TIP3    H210372   6.549   2.121   0.990 -0.0177 -0.9282  0.1938
 3470TIP3   OH210373   4.307   4.724   1.714 -0.1390  0.2527 -0.3879
 3470TIP3    H110374   4.361   4.801   1.729  1.1219 -0.7551  0.4747
 3470TIP3    H210375   4.354   4.653   1.758  0.0136 -1.4896 -3.1263
 3471TIP3   OH210376   3.041   5.344   2.539  0.1064 -0.1867  0.5632
 3471TIP3    H110377   3.122   5.391   2.522  1.3812 -2.3278  0.2830
 3471TIP3    H210378   2.976   5.384   2.482  0.9695  1.4969  0.7089
 3472TIP3   OH210379   5.882   6.694   4.973 -0.3421  0.4477  0.3741
 3472TIP3    H110380   5.847   6.748   4.902 -4.0374 -0.0159  1.6272
 3472TIP3    H210381   5.911   6.756   5.040  0.9040  0.8389 -0.4858
 3473TIP3   OH210382   1.228   1.397   1.478 -0.6982  0.2121  0.1288
 3473TIP3    H110383   1.321   1.418   1.486  0.0008 -2.1915 -0.6108
 3473TIP3    H210384   1.200   1.439   1.397 -0.2950  0.9904  0.3834
 3474TIP3   OH210385   1.633   2.898   5.366 -0.1810  0.2919 -0.4360
 3474TIP3    H110386   1.630   2.992   5.385  0.4961  0.6188 -1.7996
 3474TIP3    H210387   1.673   2.892   5.279 -1.3721 -1.1954 -0.9382
 3475TIP3   OH210388   2.302   6.170   5.802  0.2612  0.2487  0.3898
 3475TIP3    H110389   2.395   6.181   5.820  0.1329  1.6064  0.3195
 3475TIP3    H210390   2.294   6.079   5.773  1.6621  0.3107 -0.2818
 3476TIP3   OH210391   4.038   0.650   3.861  0.3973  0.2177 -0.0612
 3476TIP3    H110392   3.956   0.699   3.869  0.1405 -0.0089 -1.1740
 3476TIP3    H210393   4.073   0.648   3.950 -1.2855 -0.5260  0.6271
 3477TIP3   OH210394   4.407   1.399   3.561 -0.2454  0.1610  0.6793
 3477TIP3    H110395   4.338   1.338   3.536 -1.0830  1.4065 -0.0758
 3477TIP3    H210396   4.380   1.433   3.647 -0.3648  0.3555  0.5635
 3478TIP3   OH210397   1.084   2.775   2.549 -0.0971  1.2260  0.7263
 3478TIP3    H110398   1.115   2.785   2.459 -0.3476 -0.4447  0.4327
 3478TIP3    H210399   1.022   2.703   2.546  1.3582 -0.2092  2.5738
 3479TIP3   OH210400   4.783   4.229   0.233  0.2153 -0.0718  0.0707
 3479TIP3    H110401   4.804   4.314   0.271 -2.2279  0.2243  0.9282
 3479TIP3    H210402   4.764   4.248   0.141  1.1871  0.0460 -0.1103
 3480TIP3   OH210403   1.566   4.771   0.552  0.4812 -0.5673  0.0408
 3480TIP3    H110404   1.657   4.803   0.557  0.0997  0.4028  1.4193
 3480TIP3    H210405   1.568   4.704   0.484  1.9426  0.3958 -0.9175
 3481TIP3   OH210406   1.821   2.373   5.242  0.1370 -0.0010  0.4002
 3481TIP3    H110407   1.863   2.458   5.257  1.0362  0.0428 -1.9933
 3481TIP3    H210408   1.756   2.391   5.174  0.1672 -1.1777  0.0511
 3482TIP3   OH210409   5.752   3.340   3.524 -0.2727  0.2559  0.4884
 3482TIP3    H110410   5.842   3.312   3.506 -0.8022  0.0468 -2.1963
 3482TIP3    H210411   5.757   3.435   3.531  0.2313  0.1964  1.0514
 3483TIP3   OH210412   0.970   4.470   4.628  0.4348  0.0879 -0.4223
 3483TIP3    H110413   1.049   4.514   4.661  2.1062 -2.8540 -0.1215
 3483TIP3    H210414   0.950   4.515   4.547  1.8402  1.5561 -0.0144
 3484TIP3   OH210415   2.458   0.237   4.499  0.0164 -0.2622  0.0660
 3484TIP3    H110416   2.462   0.333   4.503 -2.1350 -0.1266  0.1975
 3484TIP3    H210417   2.501   0.208   4.579  3.4395  0.3962 -1.3512
 3485TIP3   OH210418   3.973   2.938   2.763  0.0962  0.1715  0.2422
 3485TIP3    H110419   3.928   2.855   2.749  0.0597  0.3763 -1.0309
 3485TIP3    H210420   4.024   2.925   2.843 -1.0473 -0.5648  0.8803
 3486TIP3   OH210421   5.313   0.700   5.468  0.3827  0.0665  0.5104
 3486TIP3    H110422   5.351   0.756   5.535 -1.6783  2.5189 -0.2300
 3486TIP3    H210423   5.218   0.711   5.478 -0.0265 -1.0151 -1.5683
 3487TIP3   OH210424   0.347   5.397   3.786 -0.5677  0.8171  0.2785
 3487TIP3    H110425   0.276   5.380   3.724 -0.5073 -0.1490  0.4490
 3487TIP3    H210426   0.415   5.334   3.762 -0.9381 -0.2897  1.9296
 3488TIP3   OH210427   0.336   4.713   4.331  0.4575 -0.4563 -0.3345
 3488TIP3    H110428   0.258   4.739   4.381 -0.0270 -1.0717 -0.7470
 3488TIP3    H210429   0.325   4.756   4.246  0.9073 -0.0067 -0.1669
 3489TIP3   OH210430   2.434   4.955   2.860 -0.5437 -0.4074  0.4675
 3489TIP3    H110431   2.507   4.947   2.799 -2.5033  1.2158 -2.2876
 3489TIP3    H210432   2.448   4.883   2.923  2.3954 -1.2359 -0.9415
 3490TIP3   OH210433   0.832   0.913   3.799 -0.4739 -0.4183 -0.1234
 3490TIP3    H110434   0.746   0.942   3.771 -1.2360 -0.3825  2.0515
 3490TIP3    H210435   0.855   0.842   3.738 -2.2080 -0.6914 -0.5046
 3491TIP3   OH210436   3.376   1.947   5.858  0.2613  0.0457  0.1174
 3491TIP3    H110437   3.420   1.886   5.799  0.2894 -0.0411  0.2257
 3491TIP3    H210438   3.406   2.034   5.831  0.5080 -0.0132  0.1955
 3492TIP3   OH210439   6.899   0.685   2.087  0.6563 -0.0037 -0.1146
 3492TIP3    H110440   6.847   0.611   2.058  1.3742 -0.7584  0.4637
 3492TIP3    H210441   6.837   0.743   2.131  0.3116 -0.9549  0.6948
 3493TIP3   OH210442   5.636   5.417   1.627 -0.3385 -0.2005 -0.2938
 3493TIP3    H110443   5.684   5.334   1.630 -0.2944 -0.2018 -0.9190
 3493TIP3    H210444   5.544   5.390   1.626 -0.3168 -0.2858 -1.3665
 3494TIP3   OH210445   1.149   2.677   1.073 -0.4187 -0.3823 -0.9362
 3494TIP3    H110446   1.240   2.654   1.091 -1.2828 -1.6764  2.6503
 3494TIP3    H210447   1.099   2.598   1.093 -2.5743  1.2590  0.7748
 3495TIP3   OH210448   4.423   0.875   3.202  0.2261 -0.4385 -0.1317
 3495TIP3    H110449   4.477   0.927   3.142 -0.9661  0.4149 -0.4970
 3495TIP3    H210450   4.468   0.790   3.207  0.3056 -0.5892 -2.3522
 3496TIP3   OH210451   2.019   0.058   0.637 -0.3189 -0.5238 -0.1754
 3496TIP3    H110452   2.031   0.035   0.729  0.1346  0.6639  0.0707
 3496TIP3    H210453   2.000   0.151   0.637  0.5606 -0.3162 -1.3451
 3497TIP3   OH210454   1.394   2.095   2.708 -0.6337 -0.3564 -0.2594
 3497TIP3    H110455   1.489   2.087   2.699 -0.6030  0.0723 -0.3312
 3497TIP3    H210456   1.368   2.153   2.637 -1.0165 -0.8519 -0.5316
 3498TIP3   OH210457   3.614   5.579   2.220 -0.5972 -0.0407 -0.0146
 3498TIP3    H110458   3.581   5.513   2.282  0.5714 -0.6735 -0.0470
 3498TIP3    H210459   3.709   5.568   2.221 -0.5726 -0.5662 -2.4774
 3499TIP3   OH210460   4.482   3.997   5.846  0.0270  0.3610 -0.1474
 3499TIP3    H110461   4.521   4.079   5.877  1.4893 -0.7926  1.2548
 3499TIP3    H210462   4.554   3.951   5.803 -0.3818 -0.7781  0.3341
 3500TIP3   OH210463   3.315   0.688   3.984 -0.4523 -0.3752  0.6910
 3500TIP3    H110464   3.260   0.758   3.947 -0.9135 -0.7950  0.5696
 3500TIP3    H210465   3.293   0.611   3.931  1.5538 -0.1676 -0.5488
 3501TIP3   OH210466   4.059   6.674   0.342  0.1351  0.3798 -0.1213
 3501TIP3    H110467   3.991   6.628   0.390 -0.4552 -0.9560 -2.1257
 3501TIP3    H210468   4.028   6.764   0.337 -0.9203  0.0322 -0.0205
 3502TIP3   OH210469   2.882   3.284   2.739 -0.4881 -0.2132  0.2009
 3502TIP3    H110470   2.890   3.237   2.656 -1.2703  0.0873 -0.0511
 3502TIP3    H210471   2.864   3.215   2.804  1.6130 -0.6302  0.3976
 3503TIP3   OH210472   2.314   1.926   5.015  0.0859  0.5555 -0.3795
 3503TIP3    H110473   2.250   1.964   4.954 -0.2554 -0.3663 -0.6181
 3503TIP3    H210474   2.265   1.856   5.059  0.7947  0.1688 -0.2025
 3504TIP3   OH210475   4.861   6.038   3.476  0.1735 -0.3872 -0.1560
 3504TIP3    H110476   4.792   6.007   3.535  0.2058 -1.5431 -0.6862
 3504TIP3    H210477   4.887   5.960   3.427  1.0560  0.2760 -0.7786
 3505TIP3   OH210478   3.675   4.644   5.139  0.2844 -0.3082  0.2055
 3505TIP3    H110479   3.637   4.574   5.087  3.4207 -1.1197 -1.2375
 3505TIP3    H210480   3.673   4.611   5.229  0.4083 -1.6253 -0.2575
 3506TIP3   OH210481   3.717   3.435   5.493 -0.8576  0.1397 -0.5865
 3506TIP3    H110482   3.775   3.420   5.419  1.7618 -0.8228  1.5099
 3506TIP3    H210483   3.657   3.360   5.493  0.4948 -0.9747 -0.5553
 3507TIP3   OH210484   2.439   3.261   0.739  0.0376 -0.0388  0.1598
 3507TIP3    H110485   2.492   3.300   0.670  0.7531 -0.4163  0.4908
 3507TIP3    H210486   2.454   3.167   0.730  0.9725 -0.0359  1.4857
 3508TIP3   OH210487   5.404   6.019   2.745 -0.0044 -0.8459 -0.0193
 3508TIP3    H110488   5.408   6.085   2.814 -1.1323  0.1861 -0.9229
 3508TIP3    H210489   5.462   5.949   2.777 -0.2748 -0.2902  1.8445
 3509TIP3   OH210490   1.371   1.819   4.180 -0.0883 -0.2801 -0.0028
 3509TIP3    H110491   1.362   1.863   4.264 -1.1130 -0.4409 -0.0154
 3509TIP3    H210492   1.386   1.727   4.202  0.6919 -0.1541  0.0093
 3510TIP3   OH210493   3.334   3.764   1.326  0.2114 -0.2587  0.1102
 3510TIP3    H110494   3.423   3.732   1.338  0.0659 -0.5611  0.3856
 3510TIP3    H210495   3.302   3.781   1.414 -0.7943 -2.3232  0.2136
 3511TIP3   OH210496   3.737   4.534   5.394 -0.6037 -0.4724  0.4521
 3511TIP3    H110497   3.815   4.478   5.393 -0.0431  0.2996  0.0459
 3511TIP3    H210498   3.681   4.497   5.463  0.1260 -1.0231  0.7558
 3512TIP3   OH210499   3.476   4.165   1.848  0.1110  0.9835  0.2895
 3512TIP3    H110500   3.456   4.073   1.830  0.8785  0.9514 -0.4687
 3512TIP3    H210501   3.549   4.186   1.789 -0.2050  2.1422  0.2837
 3513TIP3   OH210502   1.284   1.050   4.090  0.2682 -0.8582  0.0294
 3513TIP3    H110503   1.198   1.012   4.072 -0.8675  0.9245  1.3392
 3513TIP3    H210504   1.308   1.094   4.008 -0.2926 -0.9615 -0.1941
 3514TIP3   OH210505   0.043   6.252   1.453 -0.3825 -0.3812 -0.0205
 3514TIP3    H110506   0.052   6.188   1.383  4.0702 -0.1870  0.0843
 3514TIP3    H210507   0.076   6.334   1.415  1.9146 -0.2141  2.0510
 3515TIP3   OH210508   5.881   4.296   0.041  0.6705  0.1326  0.4470
 3515TIP3    H110509   5.951   4.326  -0.017 -0.5906  1.0655 -0.6553
 3515TIP3    H210510   5.819   4.253  -0.018  0.9091 -1.8919  1.5781
 3516TIP3   OH210511   1.882   3.599   3.913 -0.0977 -0.1524 -0.6385
 3516TIP3    H110512   1.797   3.622   3.873 -0.3881 -1.1285 -0.6044
 3516TIP3    H210513   1.895   3.667   3.979 -1.2611 -0.4442 -0.0744
 3517TIP3   OH210514   2.543   2.087   0.735  0.3128  0.1309 -0.2604
 3517TIP3    H110515   2.527   2.128   0.821 -0.2551 -0.8408  0.1159
 3517TIP3    H210516   2.584   2.156   0.683 -3.9071  2.5520 -0.9132
 3518TIP3   OH210517   0.272   5.671   3.637  0.4915 -0.1114  0.1618
 3518TIP3    H110518   0.190   5.635   3.671 -0.6865  0.7904 -1.5692
 3518TIP3    H210519   0.321   5.696   3.715 -0.2454 -1.9360  1.2902
 3519TIP3   OH210520   1.475   5.657   4.543  0.0438 -0.6222  0.2896
 3519TIP3    H110521   1.455   5.572   4.504 -0.7276 -1.1542  1.7735
 3519TIP3    H210522   1.425   5.659   4.624 -0.6749  1.6295 -0.1196
 3520TIP3   OH210523   4.915   0.673   0.185 -0.1063  0.7402  0.3900
 3520TIP3    H110524   5.000   0.712   0.168  0.6988 -1.4425 -0.9734
 3520TIP3    H210525   4.865   0.689   0.106 -1.0288  2.0224  1.1880
 3521TIP3   OH210526   0.082   2.325   4.353  0.3263 -1.2235  0.2468
 3521TIP3    H110527   0.130   2.308   4.434  0.7967 -1.4610 -0.0736
 3521TIP3    H210528   0.137   2.288   4.284  0.1756 -0.5732 -0.2363
 3522TIP3   OH210529   4.841   2.552   3.158  0.3883 -0.0264 -0.6046
 3522TIP3    H110530   4.747   2.540   3.167  0.3105  0.3661 -0.8892
 3522TIP3    H210531   4.875   2.541   3.247  0.0087  0.4228 -0.3967
 3523TIP3   OH210532   4.726   2.998   5.148  0.2923  0.2600  0.3910
 3523TIP3    H110533   4.726   3.083   5.192  1.0543 -0.7585  2.5551
 3523TIP3    H210534   4.673   3.011   5.070  0.2608  2.6653  0.7200
 3524TIP3   OH210535   1.378   4.792   5.538  0.5452 -0.0166  0.3818
 3524TIP3    H110536   1.445   4.727   5.562  0.7185 -0.1359 -0.4109
 3524TIP3    H210537   1.302   4.740   5.513  0.1351  0.1195  1.3000
 3525TIP3   OH210538   1.225   1.323   3.326  0.1915 -0.6813  0.4946
 3525TIP3    H110539   1.170   1.348   3.252 -0.3094 -0.9460  0.7660
 3525TIP3    H210540   1.246   1.231   3.309  0.6123 -0.5613  0.3575
 3526TIP3   OH210541   3.116   2.172   0.672  0.2145  0.5124  0.0634
 3526TIP3    H110542   3.211   2.162   0.677  0.4861  2.1354 -1.1546
 3526TIP3    H210543   3.084   2.087   0.642  1.2646 -0.0661  0.5380
 3527TIP3   OH210544   3.515   1.221   1.648 -0.6017 -0.4314 -0.1665
 3527TIP3    H110545   3.520   1.216   1.553  0.4108  0.1411 -0.1568
 3527TIP3    H210546   3.427   1.254   1.666 -0.8763 -0.7567 -0.8901
 3528TIP3   OH210547   4.377   2.447   1.609  0.2011  0.0778  0.1238
 3528TIP3    H110548   4.454   2.498   1.634  0.3440 -0.0587 -0.0351
 3528TIP3    H210549   4.303   2.503   1.630  0.3816  0.7585 -1.0040
 3529TIP3   OH210550   3.764   6.050   2.704 -0.2204 -0.2005  0.9208
 3529TIP3    H110551   3.795   5.967   2.741 -0.0374 -0.1280  0.9356
 3529TIP3    H210552   3.806   6.055   2.618 -0.6153 -0.3512  0.7160
 3530TIP3   OH210553   6.046   5.962   3.442 -0.4676 -0.0015  0.2781
 3530TIP3    H110554   5.968   5.935   3.394  0.6723 -0.5170 -1.3582
 3530TIP3    H210555   6.018   6.038   3.493 -1.8729  0.2075 -0.7615
 3531TIP3   OH210556   4.570   1.086   1.002 -0.4613  0.2534  0.0774
 3531TIP3    H110557   4.661   1.070   0.980 -0.6759 -0.3924 -0.3669
 3531TIP3    H210558   4.563   1.064   1.095  0.4589  3.0348  0.9285
 3532TIP3   OH210559   6.246   5.386   1.189 -0.0297  0.3957 -0.8937
 3532TIP3    H110560   6.306   5.461   1.193  0.2164  0.1480  0.6130
 3532TIP3    H210561   6.246   5.351   1.278 -0.1093 -1.4301 -1.5726
 3533TIP3   OH210562   1.206   2.339   2.813  0.0488  0.0597 -0.5350
 3533TIP3    H110563   1.164   2.404   2.868  0.5903 -0.6311  0.7206
 3533TIP3    H210564   1.297   2.366   2.808 -0.4517  1.7057 -3.4694
 3534TIP3   OH210565   6.946   0.319   3.944  0.2403 -0.0506  0.3087
 3534TIP3    H110566   7.013   0.303   4.011  3.0201  1.8193 -1.8137
 3534TIP3    H210567   6.938   0.414   3.940 -0.2907 -0.1410 -1.5735
 3535TIP3   OH210568   2.858   3.699   4.225  0.1933  0.2876 -0.1224
 3535TIP3    H110569   2.914   3.676   4.300  1.2995  0.4774 -0.8667
 3535TIP3    H210570   2.780   3.736   4.265 -0.1114 -1.4406  1.0013
 3536TIP3   OH210571   5.844   6.693   4.655  0.1128  0.0839 -0.0946
 3536TIP3    H110572   5.880   6.772   4.695  0.1142 -0.1388  0.3480
 3536TIP3    H210573   5.749   6.707   4.656  0.1617  0.5035 -0.9104
 3537TIP3   OH210574   0.342   2.111   2.665 -0.2511  0.2839  0.3058
 3537TIP3    H110575   0.370   2.149   2.748 -0.6621  1.5372 -0.1057
 3537TIP3    H210576   0.423   2.102   2.614 -0.0797  0.0809  0.6139
 3538TIP3   OH210577   1.006   0.969   1.908  0.2011  0.0410 -0.0277
 3538TIP3    H110578   1.052   1.013   1.980  0.2678  0.1925 -0.1631
 3538TIP3    H210579   0.953   1.037   1.868  2.3929  0.7275 -2.0124
 3539TIP3   OH210580   5.006   6.112   1.834  0.1959  0.0211 -0.3981
 3539TIP3    H110581   5.081   6.134   1.890 -0.0644 -0.4394  0.1474
 3539TIP3    H210582   4.968   6.197   1.810  1.2563  0.2824 -1.2037
 3540TIP3   OH210583   1.868   2.196   0.469  0.1716  0.4021 -0.1204
 3540TIP3    H110584   1.877   2.201   0.564  2.6685  0.7426 -0.2918
 3540TIP3    H210585   1.919   2.270   0.436 -1.8745  1.1847 -1.7417
 3541TIP3   OH210586   0.607   6.180   1.894  0.3883 -0.2662 -0.9611
 3541TIP3    H110587   0.653   6.119   1.837 -1.1041 -0.5547 -1.9216
 3541TIP3    H210588   0.559   6.237   1.834 -1.1292 -0.4967 -0.0205
 3542TIP3   OH210589   4.535   3.745   4.743 -0.2564 -0.3841  0.5480
 3542TIP3    H110590   4.602   3.788   4.689 -0.6556 -0.2068  0.1883
 3542TIP3    H210591   4.456   3.746   4.689 -0.5810 -0.4967  1.0128
 3543TIP3   OH210592   6.406   1.679   2.842  0.4473 -0.1543 -0.4936
 3543TIP3    H110593   6.355   1.718   2.771  0.0529  0.5947  0.1846
 3543TIP3    H210594   6.407   1.586   2.823  1.5841  0.1675 -2.2744
 3544TIP3   OH210595   4.649   5.874   3.253  0.0031  0.1974  0.5419
 3544TIP3    H110596   4.711   5.922   3.198 -1.1609  0.3077 -0.7107
 3544TIP3    H210597   4.634   5.931   3.328  1.0397  0.3700  0.6442
 3545TIP3   OH210598   0.109   0.305   1.811  0.2366  0.0385 -0.3292
 3545TIP3    H110599   0.126   0.358   1.889 -1.1795 -2.4132  1.8246
 3545TIP3    H210600   0.195   0.289   1.773  1.2131 -0.2676  1.8801
 3546TIP3   OH210601   1.724   1.262   3.132  0.2328  0.3557 -0.3751
 3546TIP3    H110602   1.717   1.254   3.037  0.1867 -0.3465 -0.3175
 3546TIP3    H210603   1.739   1.355   3.147 -1.6726  0.8019 -0.9464
 3547TIP3   OH210604   6.186   3.906   0.744  0.2658  0.4410  0.1127
 3547TIP3    H110605   6.251   3.955   0.694  0.9378  1.1027  1.5758
 3547TIP3    H210606   6.203   3.930   0.836  0.3984 -2.2400  0.8779
 3548TIP3   OH210607   1.745   5.742   0.382  0.6842 -0.9790  0.4825
 3548TIP3    H110608   1.707   5.722   0.468  1.8524 -2.7325  0.6369
 3548TIP3    H210609   1.671   5.767   0.328 -0.4706 -2.5197  1.2764
 3549TIP3   OH210610   6.139   3.975   3.412  0.7934  0.1242  0.2213
 3549TIP3    H110611   6.050   4.011   3.410  0.1225 -1.4848 -0.3802
 3549TIP3    H210612   6.196   4.051   3.398 -0.5092  1.0714 -0.1452
 3550TIP3   OH210613   1.632   0.645   5.122  0.4991 -0.2395  0.8307
 3550TIP3    H110614   1.607   0.556   5.098 -0.6495  0.4478 -0.6490
 3550TIP3    H210615   1.656   0.639   5.215  0.2017 -2.0331  0.8189
 3551TIP3   OH210616   2.345   0.218   1.891 -0.8818 -0.1892 -0.0586
 3551TIP3    H110617   2.434   0.184   1.894 -0.8028 -0.0110 -0.3275
 3551TIP3    H210618   2.302   0.180   1.967 -0.0703  1.1692  1.1112
 3552TIP3   OH210619   2.914   4.790   1.330 -0.1183 -0.6544 -0.1385
 3552TIP3    H110620   2.950   4.875   1.358 -0.9750 -0.3719  0.1394
 3552TIP3    H210621   2.955   4.727   1.389  2.1836 -0.7575 -1.6799
 3553TIP3   OH210622   6.575   3.794   0.942 -0.2403 -0.1897 -0.0930
 3553TIP3    H110623   6.622   3.835   0.869  1.5725  0.8678  1.5692
 3553TIP3    H210624   6.513   3.861   0.971 -1.0053 -0.6337 -0.6771
 3554TIP3   OH210625   0.811   1.181   1.424 -0.3474 -0.2307  0.2505
 3554TIP3    H110626   0.844   1.185   1.334  0.0823  1.3319  0.4418
 3554TIP3    H210627   0.741   1.246   1.426  0.0694  0.2052  1.1971
 3555TIP3   OH210628   3.718   3.199   0.308  0.1595  0.1781  0.2013
 3555TIP3    H110629   3.750   3.232   0.392  0.8386  1.4494 -0.5253
 3555TIP3    H210630   3.675   3.116   0.329 -0.8241  1.0856  1.9928
 3556TIP3   OH210631   6.780   4.671   1.848  0.1280  0.0678 -0.0302
 3556TIP3    H110632   6.756   4.646   1.759  0.0171 -0.6405  0.1938
 3556TIP3    H210633   6.872   4.696   1.841 -0.2148  1.2588 -0.5819
 3557TIP3   OH210634   3.830   0.370   0.480 -0.0763 -0.3883  0.3167
 3557TIP3    H110635   3.863   0.421   0.554  0.2212  0.1870 -0.2020
 3557TIP3    H210636   3.742   0.403   0.464  0.9932  1.8652 -1.6480
 3558TIP3   OH210637   1.576   0.431   4.278  0.5147 -0.3695  0.3003
 3558TIP3    H110638   1.658   0.422   4.230  0.9530  2.8710  0.2153
 3558TIP3    H210639   1.522   0.487   4.222 -0.4486  0.3020  1.8360
 3559TIP3   OH210640   2.580   5.080   0.210 -0.2421 -0.9888  0.4958
 3559TIP3    H110641   2.633   5.157   0.192  0.9134 -1.7938  0.3235
 3559TIP3    H210642   2.521   5.073   0.135 -0.0442 -0.5335  0.2930
 3560TIP3   OH210643   5.998   3.319   4.217 -0.0138 -0.0763  0.0188
 3560TIP3    H110644   6.069   3.355   4.164  0.1615  1.5257  1.2523
 3560TIP3    H210645   6.020   3.344   4.307 -1.5420 -0.5637  0.5643
 3561TIP3   OH210646  -0.014   1.471   4.380 -0.2883 -0.2605 -0.5794
 3561TIP3    H110647   0.080   1.461   4.366  0.0531  1.2091  0.3785
 3561TIP3    H210648  -0.047   1.506   4.298  0.2957  0.7434 -0.3986
 3562TIP3   OH210649   1.359   3.844   0.454  0.7337 -0.2061 -0.2197
 3562TIP3    H110650   1.313   3.893   0.523 -1.0441  0.6480 -1.9274
 3562TIP3    H210651   1.311   3.762   0.447  1.8514 -0.9512  0.5483
 3563TIP3   OH210652   6.195   1.312   3.654  0.1255 -0.6644  0.2290
 3563TIP3    H110653   6.200   1.238   3.714 -1.3027 -0.8326  0.1749
 3563TIP3    H210654   6.165   1.385   3.708 -0.6527 -0.6901 -0.1475
 3564TIP3   OH210655   1.398   4.589   2.079  0.2854  0.0295 -0.0415
 3564TIP3    H110656   1.336   4.618   2.146  0.2272 -1.1776  0.4470
 3564TIP3    H210657   1.481   4.628   2.105 -0.0251  0.7405 -0.0786
 3565TIP3   OH210658   1.847   6.401   1.647  0.5565  0.3157 -0.2725
 3565TIP3    H110659   1.941   6.418   1.641  0.8503 -0.9794  0.2945
 3565TIP3    H210660   1.811   6.437   1.566  1.5318  0.8463 -0.4882
 3566TIP3   OH210661   2.904   3.389   1.123 -0.4447  0.4395 -0.3810
 3566TIP3    H110662   2.993   3.405   1.154  0.2294  0.4028 -2.1545
 3566TIP3    H210663   2.851   3.383   1.202  1.0794  0.7614  0.7008
 3567TIP3   OH210664   3.517   3.772   0.500 -0.3096  0.5407 -0.0242
 3567TIP3    H110665   3.499   3.758   0.593 -0.9489 -1.3785 -0.4011
 3567TIP3    H210666   3.611   3.754   0.491 -0.7209 -1.8376 -0.1365
 3568TIP3   OH210667   4.987   6.583   1.897  0.1474  0.0104 -0.1488
 3568TIP3    H110668   5.079   6.564   1.880 -0.3116 -0.3713 -2.7254
 3568TIP3    H210669   4.982   6.596   1.991  3.2910  2.7495 -0.1945
 3569TIP3   OH210670   7.079   0.651   3.167  0.5206  0.8363  0.1708
 3569TIP3    H110671   7.090   0.558   3.151 -0.0491  0.8318 -0.2548
 3569TIP3    H210672   7.163   0.680   3.203  1.2656  0.4659 -1.1643
 3570TIP3   OH210673   4.061   0.800   4.311 -0.2171  0.1266  0.1713
 3570TIP3    H110674   3.968   0.812   4.328 -0.2965 -0.0151 -0.1616
 3570TIP3    H210675   4.065   0.729   4.247  0.0005  1.4892 -1.3937
 3571TIP3   OH210676   4.534   5.021   1.470 -0.8551  0.3182 -0.2508
 3571TIP3    H110677   4.562   4.977   1.390 -1.8522  1.1740 -1.1018
 3571TIP3    H210678   4.612   5.067   1.501 -0.2609 -0.6514 -0.2961
 3572TIP3   OH210679   0.739   2.999   0.372 -0.7187  0.4225  0.4374
 3572TIP3    H110680   0.709   3.025   0.285  0.2108  2.3690  0.6476
 3572TIP3    H210681   0.692   3.056   0.432 -1.2726 -0.8326  1.2326
 3573TIP3   OH210682   6.535   5.143   4.124 -0.2225  0.2047 -0.2321
 3573TIP3    H110683   6.456   5.196   4.118  0.2014  0.8483 -0.2843
 3573TIP3    H210684   6.596   5.196   4.174  1.3419  1.2373 -2.9854
 3574TIP3   OH210685   2.291   6.651   2.560 -0.3861 -0.2675 -0.2060
 3574TIP3    H110686   2.280   6.594   2.637 -0.7495 -0.4041 -0.3578
 3574TIP3    H210687   2.214   6.632   2.506 -1.5050  1.7052  0.5988
 3575TIP3   OH210688   5.963   4.908   1.667  0.5537 -0.3427  0.0001
 3575TIP3    H110689   5.934   4.856   1.592  1.4093 -0.3146 -0.3762
 3575TIP3    H210690   5.953   4.850   1.742 -1.3205 -0.0144  0.0478
 3576TIP3   OH210691   2.365   6.241   0.656  0.1307  0.2626  0.8166
 3576TIP3    H110692   2.350   6.247   0.750 -0.9298 -1.9121  0.8331
 3576TIP3    H210693   2.322   6.318   0.619  1.2153  1.5495  2.1402
 3577TIP3   OH210694   1.247   6.303   1.446  0.2306  0.7083  0.2786
 3577TIP3    H110695   1.179   6.279   1.508 -0.0066  1.1678  0.1930
 3577TIP3    H210696   1.282   6.386   1.478 -1.5621  2.2564 -1.5130
 3578TIP3   OH210697   5.904   0.597   5.379 -0.0542  0.5799  0.2307
 3578TIP3    H110698   5.993   0.631   5.388  0.7863 -1.4137 -0.0131
 3578TIP3    H210699   5.913   0.503   5.393 -2.0012  0.2248 -0.6185
 3579TIP3   OH210700   5.237   4.443   4.880 -0.0645  0.1396  0.1058
 3579TIP3    H110701   5.188   4.477   4.805  1.3082  0.9691 -0.4539
 3579TIP3    H210702   5.270   4.521   4.925  0.3497 -0.3834  0.7346
 3580TIP3   OH210703   6.361   0.514   2.651  0.0354  0.1536  1.0991
 3580TIP3    H110704   6.300   0.440   2.648  0.2804 -0.0107 -0.7340
 3580TIP3    H210705   6.445   0.476   2.676  0.2836 -0.3188 -0.3531
 3581TIP3   OH210706   2.125   6.186   2.205  0.1395  0.1005  0.4096
 3581TIP3    H110707   2.047   6.141   2.171 -0.1651 -0.4119  1.7134
 3581TIP3    H210708   2.196   6.159   2.147 -0.6769  0.7415 -0.9334
 3582TIP3   OH210709   1.818   3.429   5.537  0.2088 -0.1114 -0.2820
 3582TIP3    H110710   1.763   3.444   5.614  1.8524 -0.0968  0.9469
 3582TIP3    H210711   1.904   3.404   5.573  1.4657  1.3784 -2.0703
 3583TIP3   OH210712   0.601   4.223   4.736 -0.6029  0.3765  0.0602
 3583TIP3    H110713   0.514   4.249   4.707 -1.2753 -0.6895  1.0410
 3583TIP3    H210714   0.608   4.130   4.712  0.0960  0.3361  0.3823
 3584TIP3   OH210715   6.814   6.377   3.842  0.1403 -0.5876 -0.3537
 3584TIP3    H110716   6.870   6.401   3.767  0.8480 -0.6078  0.1588
 3584TIP3    H210717   6.753   6.451   3.851  1.7682  0.7093  0.6939
 3585TIP3   OH210718   0.097   0.990   5.659 -0.4940  0.1849  0.2902
 3585TIP3    H110719   0.008   1.003   5.626 -0.6425  1.2402  1.0720
 3585TIP3    H210720   0.124   1.076   5.691  0.6560 -0.2180  0.4484
 3586TIP3   OH210721   4.973   5.154   3.768 -0.1905 -0.4462  0.3089
 3586TIP3    H110722   4.923   5.186   3.843  0.5432  0.9854  0.2255
 3586TIP3    H210723   4.946   5.063   3.758 -0.9878 -0.3932  1.7344
 3587TIP3   OH210724   1.775   0.131   0.017 -0.1687  0.0509  0.3016
 3587TIP3    H110725   1.794   0.201   0.080 -0.6941  1.2391 -0.8089
 3587TIP3    H210726   1.861   0.092  -0.002  0.1148  0.2990  1.0325
 3588TIP3   OH210727   3.509   2.422   4.050 -0.0982 -0.8219 -0.2520
 3588TIP3    H110728   3.434   2.419   4.110  0.3066 -0.1366  0.2992
 3588TIP3    H210729   3.585   2.435   4.108  0.0780  2.5151 -1.0339
 3589TIP3   OH210730   1.836   6.190   1.833 -0.1981 -0.3780  0.4846
 3589TIP3    H110731   1.856   6.114   1.778 -1.6194 -0.1001 -0.4716
 3589TIP3    H210732   1.816   6.260   1.771 -0.4959  0.3314  1.3555
 3590TIP3   OH210733   2.911   6.704   2.221  0.0104 -0.4983 -0.5817
 3590TIP3    H110734   2.919   6.698   2.316  0.6350 -0.2139 -0.6115
 3590TIP3    H210735   2.862   6.625   2.196 -1.0223 -0.0792  0.0644
 3591TIP3   OH210736   0.251   6.110   5.335 -0.3932  0.2883 -0.6208
 3591TIP3    H110737   0.319   6.046   5.315 -0.6265  0.2390 -1.2993
 3591TIP3    H210738   0.173   6.058   5.352 -0.6448  0.3834 -1.4151
 3592TIP3   OH210739   5.815   0.617   4.432  0.3249 -0.0236  0.7314
 3592TIP3    H110740   5.848   0.539   4.387  2.8477  0.3831  1.7416
 3592TIP3    H210741   5.728   0.591   4.463 -0.6977 -0.9788 -2.4871
 3593TIP3   OH210742   0.370   1.188   2.027 -0.1490 -0.5896  0.0160
 3593TIP3    H110743   0.338   1.278   2.031 -1.5076 -1.0796  1.1609
 3593TIP3    H210744   0.293   1.135   2.007  0.0959 -1.7180  1.7711
 3594TIP3   OH210745   4.290   5.555   1.412  0.3269  0.2717  0.2461
 3594TIP3    H110746   4.207   5.563   1.457  1.6955  0.5921  2.8847
 3594TIP3    H210747   4.335   5.639   1.426  1.6717 -0.3912  0.1355
 3595TIP3   OH210748   2.284   6.727   2.895 -0.2560 -0.2472 -0.3191
 3595TIP3    H110749   2.228   6.672   2.840 -0.9808 -1.7327  1.7744
 3595TIP3    H210750   2.291   6.810   2.847 -4.3699  0.0949 -0.7189
 3596TIP3   OH210751   7.134   1.702   1.699 -0.2532 -0.0191  0.6458
 3596TIP3    H110752   7.084   1.685   1.779 -0.0872  1.1249  1.0081
 3596TIP3    H210753   7.104   1.788   1.670 -0.4263 -0.4892 -0.6303
 3597TIP3   OH210754   6.119   0.417   1.336  0.6179  0.2058  0.0702
 3597TIP3    H110755   6.031   0.430   1.301 -0.3582 -0.7120  1.9929
 3597TIP3    H210756   6.146   0.503   1.368  0.0070  0.3057  0.3209
 3598TIP3   OH210757   5.465   3.002   4.286 -0.2038  0.2158  0.1623
 3598TIP3    H110758   5.520   3.031   4.213 -0.3940 -1.9184 -0.8945
 3598TIP3    H210759   5.522   3.004   4.362  1.3412 -1.7373 -0.8716
 3599TIP3   OH210760   5.654   3.449   0.587 -0.1651 -0.2362 -0.3527
 3599TIP3    H110761   5.743   3.422   0.611 -0.5843 -2.5449 -1.1272
 3599TIP3    H210762   5.619   3.489   0.666  1.2120 -0.2078  0.2773
 3600TIP3   OH210763   3.831   3.617   2.831  0.2336  0.4499  0.1704
 3600TIP3    H110764   3.921   3.585   2.841 -0.3519 -1.0782  1.0761
 3600TIP3    H210765   3.827   3.650   2.742  1.5427  0.0430 -0.0734
 3601TIP3   OH210766   2.544   4.228   0.404 -0.9421  0.0245 -0.1086
 3601TIP3    H110767   2.520   4.151   0.352 -0.8467  0.0794 -0.2363
 3601TIP3    H210768   2.636   4.213   0.427 -0.8473  0.2215 -0.3516
 3602TIP3   OH210769   4.682   4.105   4.135 -0.1919 -0.0513 -0.1191
 3602TIP3    H110770   4.655   4.031   4.190 -2.0617  0.2458 -0.5798
 3602TIP3    H210771   4.649   4.182   4.180  0.2216  0.3719 -0.5284
 3603TIP3   OH210772   4.496   4.340   2.654  0.4312 -0.0868  0.1651
 3603TIP3    H110773   4.572   4.319   2.599  0.0143 -0.9533 -0.0876
 3603TIP3    H210774   4.441   4.394   2.598  0.3424 -0.3713 -0.0191
 3604TIP3   OH210775   1.053   2.330   1.362 -0.7761 -0.6739 -0.1997
 3604TIP3    H110776   1.134   2.381   1.360 -0.9001 -0.4471 -2.5498
 3604TIP3    H210777   1.076   2.249   1.406 -0.4061  1.0371  3.0531
 3605TIP3   OH210778   1.260   3.606   3.597  0.4847 -0.4657  0.5368
 3605TIP3    H110779   1.269   3.512   3.585 -0.7377 -0.6317  0.8407
 3605TIP3    H210780   1.315   3.626   3.674 -0.3198 -1.1560  1.3078
 3606TIP3   OH210781   2.292   0.604   3.399  0.6141  0.9740  0.4148
 3606TIP3    H110782   2.325   0.566   3.318  0.4007  1.2989  0.1699
 3606TIP3    H210783   2.298   0.699   3.385 -1.2317  1.0652  0.0066
 3607TIP3   OH210784   4.572   3.611   4.447 -0.8720  0.3825  0.5283
 3607TIP3    H110785   4.657   3.574   4.473 -0.7581 -0.0161 -0.3983
 3607TIP3    H210786   4.590   3.703   4.431 -0.6658  0.3453  0.5443
 3608TIP3   OH210787   7.110   6.154   3.381  0.1365 -0.3443 -0.4284
 3608TIP3    H110788   7.050   6.205   3.327  0.0126  0.5932  0.5579
 3608TIP3    H210789   7.054   6.093   3.429 -0.1287  0.8443  0.8411
 3609TIP3   OH210790   0.052   6.485   0.499 -0.0891 -0.2303 -0.2412
 3609TIP3    H110791   0.063   6.530   0.415  0.4629 -0.5555 -0.3478
 3609TIP3    H210792   0.004   6.547   0.553 -0.3721  0.0170 -0.7706
 3610TIP3   OH210793   3.153   5.502   1.300 -0.0405  0.0347  0.2572
 3610TIP3    H110794   3.176   5.544   1.383 -0.7885  1.7104 -0.3437
 3610TIP3    H210795   3.214   5.540   1.236 -1.5402  1.2034 -0.5262
 3611TIP3   OH210796   3.525   3.236   2.552 -0.5770  0.6364 -0.0334
 3611TIP3    H110797   3.573   3.303   2.601  0.6184  0.7855 -1.3662
 3611TIP3    H210798   3.474   3.285   2.487 -1.1970  0.3592  0.2346
 3612TIP3   OH210799   3.241   5.560   5.632  0.2603  0.1911  0.0129
 3612TIP3    H110800   3.206   5.534   5.547 -1.6368  0.2431  0.7131
 3612TIP3    H210801   3.243   5.655   5.629 -2.3188  0.3665  0.8428
 3613TIP3   OH210802   0.283   1.695   5.105 -0.7025  0.6064 -0.0240
 3613TIP3    H110803   0.207   1.751   5.091 -0.8628  0.4015  0.0251
 3613TIP3    H210804   0.249   1.619   5.154 -0.6996 -0.0490 -1.0113
 3614TIP3   OH210805   3.219   2.668   1.163 -0.4917  0.1530  0.1565
 3614TIP3    H110806   3.139   2.720   1.154 -0.6710  0.2282  1.8855
 3614TIP3    H210807   3.203   2.591   1.107 -1.2210  0.7714 -0.5243
 3615TIP3   OH210808   6.399   2.751   4.001  0.0301  0.3642  0.1082
 3615TIP3    H110809   6.308   2.780   3.993  0.6792  2.1313 -1.6256
 3615TIP3    H210810   6.443   2.822   4.046  0.5681 -0.5198  1.0037
 3616TIP3   OH210811   1.952   5.812   0.600  0.6564 -0.2669 -0.0346
 3616TIP3    H110812   1.925   5.785   0.512  1.8116  1.8487 -1.1068
 3616TIP3    H210813   1.879   5.865   0.632  0.1410 -1.2123  0.4364
 3617TIP3   OH210814   4.368   6.001   5.162 -0.0310  0.7411  0.5265
 3617TIP3    H110815   4.375   5.946   5.240 -0.0713  1.3874  0.9914
 3617TIP3    H210816   4.458   6.027   5.143  0.2308 -0.8618 -0.7238
 3618TIP3   OH210817   5.641   4.734   3.492 -0.0483 -0.1639  0.6760
 3618TIP3    H110818   5.558   4.761   3.451  1.2898  1.2319 -1.2960
 3618TIP3    H210819   5.656   4.646   3.457  1.3191  1.1785 -2.5811
 3619TIP3   OH210820   2.773   5.805   0.336  0.0116 -0.2805 -0.1382
 3619TIP3    H110821   2.836   5.796   0.265 -0.7751 -0.9013 -0.7739
 3619TIP3    H210822   2.688   5.799   0.293 -0.4890  0.5424  0.7047
 3620TIP3   OH210823   2.813   5.869   1.918 -0.3904  0.1132  0.3127
 3620TIP3    H110824   2.799   5.794   1.976  0.6814  2.0109  3.2345
 3620TIP3    H210825   2.906   5.863   1.893  0.3092  1.4933  2.3157
 3621TIP3   OH210826   1.591   4.764   0.887 -0.2083 -0.1724 -0.1194
 3621TIP3    H110827   1.576   4.676   0.852  0.3303 -0.2693 -0.1105
 3621TIP3    H210828   1.511   4.812   0.865 -0.8795 -0.9050  0.6699
 3622TIP3   OH210829   0.116   1.292   4.002  0.6991  0.6502  0.2547
 3622TIP3    H110830   0.022   1.290   4.023  0.9183 -1.2887  1.2859
 3622TIP3    H210831   0.159   1.260   4.081  2.0209 -0.9175 -1.0210
 3623TIP3   OH210832   3.950   4.275   4.109  0.4320  0.3683  0.4384
 3623TIP3    H110833   3.927   4.327   4.032  1.2847  2.1147  1.2935
 3623TIP3    H210834   3.911   4.323   4.182  2.6484  0.7852  1.4197
 3624TIP3   OH210835   1.372   4.931   0.446  0.2335 -0.0970  0.0972
 3624TIP3    H110836   1.415   5.014   0.425  0.7596 -0.3079  0.3414
 3624TIP3    H210837   1.441   4.876   0.483 -0.1387 -0.6059  0.0474
 3625TIP3   OH210838   7.150   2.130   0.052 -0.0309 -0.2264  0.3992
 3625TIP3    H110839   7.095   2.059   0.019  0.4524 -0.1446 -0.6168
 3625TIP3    H210840   7.190   2.094   0.131 -0.1726 -0.9131  0.1668
 3626TIP3   OH210841   2.695   0.997   3.070  0.4269 -0.3870 -0.1609
 3626TIP3    H110842   2.738   1.023   2.988  1.1696 -1.1616 -0.0362
 3626TIP3    H210843   2.758   1.023   3.138  1.0320 -2.1256 -0.0160
 3627TIP3   OH210844   5.336   5.106   5.452 -0.1424 -0.0102  0.1055
 3627TIP3    H110845   5.364   5.073   5.366 -2.9349 -1.6665 -0.3064
 3627TIP3    H210846   5.273   5.040   5.483  0.8551  0.4536  3.5299
 3628TIP3   OH210847   1.398   2.450   5.291 -0.1600  0.0296 -0.2862
 3628TIP3    H110848   1.305   2.429   5.295 -0.4241  0.8001 -1.7300
 3628TIP3    H210849   1.403   2.544   5.308  0.2366  0.1837 -1.1773
 3629TIP3   OH210850   1.707   5.033   1.409 -0.5762  0.1365 -0.2898
 3629TIP3    H110851   1.617   5.042   1.439 -0.4036  0.6900  0.0887
 3629TIP3    H210852   1.706   5.067   1.320 -0.6691  0.5016 -0.1520
 3630TIP3   OH210853   3.585   4.745   2.410  0.5808  0.2181 -0.0567
 3630TIP3    H110854   3.610   4.697   2.331  0.7286 -0.0112  0.1283
 3630TIP3    H210855   3.637   4.826   2.406  0.8081  0.0738 -0.0441
 3631TIP3   OH210856   6.373   3.665   1.999 -0.1618 -0.6109  0.4227
 3631TIP3    H110857   6.362   3.678   2.093  0.6533 -0.4095  0.4922
 3631TIP3    H210858   6.295   3.706   1.960 -2.2478 -3.5014  1.1547
 3632TIP3   OH210859   3.437   1.564   2.866 -0.0863  0.1091  0.3845
 3632TIP3    H110860   3.448   1.652   2.828 -1.0698 -0.3894 -1.1376
 3632TIP3    H210861   3.343   1.548   2.864 -0.0406 -0.5031  1.8417
 3633TIP3   OH210862   3.261   4.939   3.818  0.1945 -0.3181 -0.1647
 3633TIP3    H110863   3.232   4.902   3.902 -1.5590  1.1453 -0.0747
 3633TIP3    H210864   3.259   4.865   3.757  3.1233 -1.8254  1.3360
 3634TIP3   OH210865   6.886   5.033   1.434 -0.2987  0.1432 -0.1757
 3634TIP3    H110866   6.848   4.983   1.507  0.0290 -0.4615 -0.4153
 3634TIP3    H210867   6.967   4.987   1.414 -0.0196  0.7489 -0.4374
 3635TIP3   OH210868   5.983   2.961   1.629  0.2757  0.2012  0.0170
 3635TIP3    H110869   5.966   3.007   1.711 -3.2042  2.0490 -1.5280
 3635TIP3    H210870   6.068   2.994   1.600  0.8783  0.6178  2.1064
 3636TIP3   OH210871   5.803   5.831   0.704 -0.4198  0.7025 -0.0142
 3636TIP3    H110872   5.783   5.897   0.770  1.3523  1.4811 -0.2030
 3636TIP3    H210873   5.799   5.878   0.621 -1.4111  0.0180 -0.3692
 3637TIP3   OH210874   2.344   2.474   2.602 -0.3095 -0.4530  0.2331
 3637TIP3    H110875   2.249   2.482   2.605 -0.1992  1.9037 -0.9602
 3637TIP3    H210876   2.359   2.388   2.562 -1.9782  0.0322 -1.5894
 3638TIP3   OH210877   4.189   5.106   1.241 -0.2489  0.1820 -0.3426
 3638TIP3    H110878   4.257   5.167   1.269 -0.8834  0.5231  0.4874
 3638TIP3    H210879   4.219   5.021   1.274 -1.4315  0.7020  2.3162
 3639TIP3   OH210880   3.245   2.940   5.469  0.1540 -0.4294  0.4334
 3639TIP3    H110881   3.329   2.916   5.430 -0.1542  0.1204 -0.6175
 3639TIP3    H210882   3.243   3.036   5.463 -1.4526 -0.5210 -1.5946
 3640TIP3   OH210883   1.464   3.420   0.555 -0.6679  0.4490  0.3268
 3640TIP3    H110884   1.423   3.485   0.612  0.6871  0.4113  1.3892
 3640TIP3    H210885   1.453   3.337   0.602  0.4580  0.4173  0.5456
 3641TIP3   OH210886   2.732   4.372   4.980 -0.4917 -0.0122  0.2710
 3641TIP3    H110887   2.671   4.443   4.962 -0.6149  0.6752  2.9479
 3641TIP3    H210888   2.818   4.414   4.985 -0.5481 -0.0158  1.7335
 3642TIP3   OH210889   4.471   3.676   4.067 -0.5044  0.2242  0.4929
 3642TIP3    H110890   4.519   3.601   4.031 -1.8953 -0.4383 -0.0583
 3642TIP3    H210891   4.538   3.742   4.084  0.6083 -0.7206 -0.0950
 3643TIP3   OH210892   0.028   0.210   3.246  0.5275 -0.0999 -0.0014
 3643TIP3    H110893   0.074   0.148   3.190 -0.8067 -0.0685 -1.2109
 3643TIP3    H210894  -0.041   0.158   3.288  0.5723  0.1907  0.4396
 3644TIP3   OH210895   6.099   5.367   4.772 -0.1693  0.0758 -0.0603
 3644TIP3    H110896   6.193   5.369   4.794  0.2672 -1.7463 -1.5248
 3644TIP3    H210897   6.089   5.437   4.707  0.4060 -0.3037 -0.5830
 3645TIP3   OH210898   2.459   1.572   2.745 -0.2968  0.6670  0.6021
 3645TIP3    H110899   2.518   1.625   2.800  2.1171 -1.4646  0.2324
 3645TIP3    H210900   2.461   1.485   2.785 -0.3890 -0.3462 -1.4874
 3646TIP3   OH210901   6.103   1.402   0.066  0.0187 -0.4831 -0.8814
 3646TIP3    H110902   6.193   1.423   0.089 -0.7437  1.8590  0.3737
 3646TIP3    H210903   6.069   1.353   0.141 -0.6078  1.4696  0.1825
 3647TIP3   OH210904   0.605   0.374   2.903  0.4547 -0.0744 -0.0621
 3647TIP3    H110905   0.699   0.392   2.894  0.5023 -0.7147 -1.0381
 3647TIP3    H210906   0.575   0.362   2.813 -0.5140 -0.1246  0.2635
 3648TIP3   OH210907   4.202   5.857   0.272  0.0677  0.0714  0.2242
 3648TIP3    H110908   4.177   5.855   0.364  2.7069  0.6020  1.0581
 3648TIP3    H210909   4.200   5.950   0.249 -0.8229 -0.0796 -0.3564
 3649TIP3   OH210910   4.114   2.035   5.816  0.5182  0.0558 -0.0527
 3649TIP3    H110911   4.192   2.081   5.784  0.3542  0.8901  0.7053
 3649TIP3    H210912   4.041   2.082   5.776  0.3962 -1.7277 -2.0885
 3650TIP3   OH210913   6.279   4.953   5.024 -0.3304 -0.2086 -0.1923
 3650TIP3    H110914   6.186   4.969   5.005 -0.9678 -2.4147  0.7386
 3650TIP3    H210915   6.282   4.935   5.118  1.0610 -0.0484 -0.1866
 3651TIP3   OH210916   0.747   5.755   0.771 -0.2060 -0.2226 -0.1741
 3651TIP3    H110917   0.805   5.702   0.824 -1.0569 -0.2141  0.7941
 3651TIP3    H210918   0.681   5.694   0.739  1.0521 -0.5200 -2.4331
 3652TIP3   OH210919   6.993   5.804   5.606  0.2740 -0.2516 -0.2187
 3652TIP3    H110920   7.037   5.855   5.673 -1.6534  1.0027  0.1833
 3652TIP3    H210921   7.010   5.713   5.630  0.1878  0.1747  1.6160
 3653TIP3   OH210922   4.928   6.249   0.728 -0.3636 -0.2629  0.2583
 3653TIP3    H110923   4.881   6.253   0.644 -2.0979  0.1118  1.2050
 3653TIP3    H210924   4.919   6.337   0.765  1.1201 -0.1852  0.4865
 3654TIP3   OH210925   0.086   2.947   5.050  0.4466 -0.4764 -0.2398
 3654TIP3    H110926   0.177   2.938   5.079  0.8503  0.7446 -1.0061
 3654TIP3    H210927   0.092   3.004   4.973 -1.1581  1.4320  0.9575
 3655TIP3   OH210928   5.355   4.506   0.768  0.3449  0.1650 -1.0905
 3655TIP3    H110929   5.323   4.425   0.807 -0.4521  0.6270 -0.7535
 3655TIP3    H210930   5.450   4.502   0.778  0.3475 -0.9083 -1.4450
 3656TIP3   OH210931   0.196   5.815   2.126  0.6696 -0.5493  0.0410
 3656TIP3    H110932   0.249   5.845   2.199  1.2211 -3.3039  0.8729
 3656TIP3    H210933   0.259   5.779   2.063  0.0365 -0.4783 -0.6497
 3657TIP3   OH210934   7.035   3.645   4.388  0.1947  0.5822 -0.3854
 3657TIP3    H110935   6.998   3.644   4.299  2.8867 -0.9848 -1.6168
 3657TIP3    H210936   7.022   3.556   4.420  2.9183 -0.0990 -0.9611
 3658TIP3   OH210937   6.660   4.942   0.998 -0.0068  0.4141 -0.0010
 3658TIP3    H110938   6.714   4.892   1.058  1.0840  0.0634 -1.2270
 3658TIP3    H210939   6.572   4.905   1.008  0.3341 -0.2152  0.7357
 3659TIP3   OH210940   3.553   5.967   4.360  0.1934  0.6783  0.1429
 3659TIP3    H110941   3.599   6.021   4.296  0.3253 -0.5592 -0.8478
 3659TIP3    H210942   3.465   6.006   4.366  0.6672  1.7439  0.4202
 3660TIP3   OH210943   2.377   6.477   3.492 -0.3460  0.2567 -0.3320
 3660TIP3    H110944   2.408   6.405   3.437  0.4077  0.9438 -0.8338
 3660TIP3    H210945   2.282   6.480   3.477 -0.4168 -0.7578 -0.1353
 3661TIP3   OH210946   3.792   5.235   5.030 -0.0221  0.1532 -0.1304
 3661TIP3    H110947   3.764   5.145   5.014  0.8038 -0.6331  2.3406
 3661TIP3    H210948   3.715   5.288   5.008 -0.3984 -1.0626 -1.9978
 3662TIP3   OH210949   6.950   2.714   0.966  0.5664  0.1480  0.2184
 3662TIP3    H110950   6.958   2.701   1.060  0.5479 -1.1243  0.0643
 3662TIP3    H210951   7.040   2.709   0.934  0.5745  0.5921  0.1596
 3663TIP3   OH210952   2.189   3.373   0.582 -0.0482  0.2534 -0.3046
 3663TIP3    H110953   2.132   3.447   0.603  0.3782  0.6795 -0.6246
 3663TIP3    H210954   2.203   3.328   0.665 -1.9209 -0.6431 -0.4255
 3664TIP3   OH210955   4.718   6.036   2.069  0.0911  0.4064  0.3696
 3664TIP3    H110956   4.700   5.997   1.983 -0.9418  0.8571  0.3756
 3664TIP3    H210957   4.649   6.101   2.082 -0.4161 -0.3750  1.9887
 3665TIP3   OH210958   1.673   1.632   1.577  0.3296 -0.0369 -0.1868
 3665TIP3    H110959   1.634   1.716   1.551  3.7315  1.8285  0.1000
 3665TIP3    H210960   1.648   1.621   1.668  0.0581  0.8402 -0.1449
 3666TIP3   OH210961   4.352   4.530   1.169  0.3302 -0.0957  0.5207
 3666TIP3    H110962   4.401   4.452   1.142 -0.1456 -0.6776  1.3091
 3666TIP3    H210963   4.355   4.588   1.092  3.8019  0.7070  1.0426
 3667TIP3   OH210964   3.921   1.022   2.577 -0.3682 -0.9616  0.2879
 3667TIP3    H110965   3.855   0.978   2.630 -0.6925 -0.0658  0.6510
 3667TIP3    H210966   3.937   0.963   2.504 -1.0016 -1.5426  0.6111
 3668TIP3   OH210967   4.496   3.840   2.633  0.4057  0.4821 -0.2351
 3668TIP3    H110968   4.554   3.861   2.559  1.6500  0.5022  0.7230
 3668TIP3    H210969   4.464   3.925   2.663  1.2233  0.6107  0.2904
 3669TIP3   OH210970   5.363   6.314   5.377  0.0994 -0.3039  0.3209
 3669TIP3    H110971   5.304   6.326   5.303  0.5018  1.5371  0.2547
 3669TIP3    H210972   5.387   6.221   5.374 -1.2635 -0.6493 -0.7831
 3670TIP3   OH210973   5.432   0.144   2.192  0.4325 -0.0199  0.3029
 3670TIP3    H110974   5.523   0.143   2.164  0.9331  2.2865  1.5876
 3670TIP3    H210975   5.401   0.055   2.176  3.2022 -1.1719  0.7412
 3671TIP3   OH210976   4.058   4.863   1.767 -0.2074 -0.5518  0.3485
 3671TIP3    H110977   4.073   4.954   1.794  1.7355 -0.7986  0.2836
 3671TIP3    H210978   4.145   4.831   1.742 -1.3040 -1.4928 -2.6563
 3672TIP3   OH210979   1.176   5.931   5.145  0.0392  0.7309 -0.2661
 3672TIP3    H110980   1.212   5.995   5.083  0.2357  0.8012 -0.0828
 3672TIP3    H210981   1.102   5.976   5.185  0.4651  1.0278  0.2085
 3673TIP3   OH210982   0.910   4.846   2.415  0.6578  0.3013 -0.3144
 3673TIP3    H110983   0.847   4.780   2.386  0.3214  1.6324 -2.9813
 3673TIP3    H210984   0.993   4.799   2.421 -0.2790 -1.2260  2.0866
 3674TIP3   OH210985   3.658   5.286   0.588  0.0301  0.2114 -0.3930
 3674TIP3    H110986   3.695   5.199   0.574 -1.0294 -0.5249  1.1008
 3674TIP3    H210987   3.571   5.269   0.625 -0.2607  1.9014 -0.2351
 3675TIP3   OH210988   5.655   3.135   0.394  0.1279  0.0702  0.0375
 3675TIP3    H110989   5.735   3.168   0.352 -0.1709  1.4416  0.4758
 3675TIP3    H210990   5.584   3.163   0.335 -0.1687  0.6233  0.6419
 3676TIP3   OH210991   3.016   6.255   0.136  0.1085 -0.4934 -0.8052
 3676TIP3    H110992   2.970   6.172   0.147  0.4849 -0.6832 -0.6526
 3676TIP3    H210993   2.994   6.306   0.214  0.8643 -0.9244 -0.3005
 3677TIP3   OH210994   5.041   4.708   0.020  0.2134 -0.0105  0.1233
 3677TIP3    H110995   4.953   4.742   0.033  0.2448  0.1174  0.0061
 3677TIP3    H210996   5.060   4.659   0.100  0.1951  0.3137  0.3294
 3678TIP3   OH210997   2.015   4.040   4.010  0.5896 -0.4158  0.0073
 3678TIP3    H110998   1.951   4.073   4.072 -1.2626 -3.8585  0.2007
 3678TIP3    H210999   2.096   4.086   4.032 -1.3308  2.7649  0.9760
 3679TIP3   OH211000   2.119   1.223   5.579 -0.3228  0.3043  0.6524
 3679TIP3    H111001   2.109   1.313   5.610 -0.1681  0.5305  0.0576
 3679TIP3    H211002   2.177   1.182   5.644  1.1774  1.1682 -0.0712
 3680TIP3   OH211003   3.342   4.961   2.268 -0.2518  0.0874  0.3494
 3680TIP3    H111004   3.351   5.056   2.275 -1.1678  0.1851  0.1947
 3680TIP3    H211005   3.258   4.947   2.225 -1.1588 -0.8312  2.3213
 3681TIP3   OH211006   6.782   1.340   3.886  0.1997 -0.1251  0.0493
 3681TIP3    H111007   6.785   1.301   3.799 -1.9361 -0.6945  0.1876
 3681TIP3    H211008   6.819   1.273   3.944  0.4040 -0.2635 -0.2363
 3682TIP3   OH211009   4.049   5.587   1.544 -0.3154  0.1776  0.6186
 3682TIP3    H111010   4.013   5.519   1.602 -0.3931 -0.6390 -0.3600
 3682TIP3    H211011   3.996   5.581   1.465 -0.2171  1.2902  0.4621
 3683TIP3   OH211012   4.868   6.477   3.528 -0.4738  0.5192 -0.7383
 3683TIP3    H111013   4.939   6.505   3.586  0.1519 -0.0136 -1.2230
 3683TIP3    H211014   4.797   6.451   3.587  0.7469 -1.6158 -0.0985
 3684TIP3   OH211015   3.037   0.585   1.122  0.4550  0.2263 -0.4192
 3684TIP3    H111016   3.010   0.655   1.182  1.4178  0.8006 -0.6311
 3684TIP3    H211017   3.098   0.532   1.173 -0.8420 -0.9323 -0.0131
 3685TIP3   OH211018   1.803   3.763   1.928  0.1061  0.0049  0.3410
 3685TIP3    H111019   1.839   3.839   1.882 -0.6120 -0.6156 -1.3351
 3685TIP3    H211020   1.749   3.719   1.862 -2.0211 -0.2449  2.1524
 3686TIP3   OH211021   3.007   5.708   4.622  0.4185 -0.4067  0.1361
 3686TIP3    H111022   2.973   5.787   4.580 -0.5836 -0.4601  0.8121
 3686TIP3    H211023   3.102   5.722   4.625  0.1400  1.8582  2.3044
 3687TIP3   OH211024   1.230   0.739   1.833 -0.5166 -0.4900 -0.0336
 3687TIP3    H111025   1.275   0.720   1.751  1.0182 -1.1363  0.9010
 3687TIP3    H211026   1.252   0.830   1.852  1.7477 -1.1918  1.1313
 3688TIP3   OH211027   6.398   1.479   2.428  0.0582  0.2662  0.1857
 3688TIP3    H111028   6.359   1.461   2.343 -1.5994  1.4084  0.6330
 3688TIP3    H211029   6.383   1.399   2.479  0.7790 -0.3051 -0.4827
 3689TIP3   OH211030   7.098   1.375   0.764  0.9953 -0.1377  0.0097
 3689TIP3    H111031   7.086   1.333   0.849  1.0825  2.2059  1.2331
 3689TIP3    H211032   7.011   1.373   0.724  0.5839  0.2087  0.8713
 3690TIP3   OH211033   0.053   4.394   4.516 -1.2737  0.0944  0.0584
 3690TIP3    H111034   0.125   4.363   4.462 -0.4521  1.4068  0.3655
 3690TIP3    H211035   0.004   4.453   4.458 -0.7989  0.9481  0.5077
 3691TIP3   OH211036   4.913   5.370   2.505 -0.1058 -0.1242 -0.5777
 3691TIP3    H111037   4.820   5.356   2.488  0.1639 -0.8037 -1.5912
 3691TIP3    H211038   4.956   5.352   2.421  0.7483  2.5553 -0.8095
 3692TIP3   OH211039   2.934   5.920   4.205  0.7041  0.7365  0.4440
 3692TIP3    H111040   2.859   5.862   4.193  0.9895  0.1737  1.2835
 3692TIP3    H211041   2.966   5.899   4.293  0.8634  2.1090  0.7371
 3693TIP3   OH211042   5.559   2.923   1.767  0.1632 -0.1656 -0.2930
 3693TIP3    H111043   5.624   2.857   1.743 -1.6122 -1.6036 -1.4620
 3693TIP3    H211044   5.482   2.873   1.793 -0.1478  1.4601  2.2523
 3694TIP3   OH211045   0.758   4.614   1.000 -0.1192 -0.4625 -0.5596
 3694TIP3    H111046   0.803   4.606   0.917 -0.9362 -3.3031 -0.8496
 3694TIP3    H211047   0.668   4.638   0.977  0.1012  0.6583 -0.3168
 3695TIP3   OH211048   0.149   2.476   3.714 -0.0557 -0.0226 -0.1190
 3695TIP3    H111049   0.241   2.466   3.690 -0.2757  0.4763 -1.2086
 3695TIP3    H211050   0.148   2.463   3.809  1.1630  0.1361 -0.0675
 3696TIP3   OH211051   3.750   6.766   0.363 -0.2009  0.3887  0.6648
 3696TIP3    H111052   3.719   6.809   0.443 -3.4546 -0.4504  0.0128
 3696TIP3    H211053   3.775   6.678   0.390  2.5023  1.2754  1.3140
 3697TIP3   OH211054   6.069   2.826   1.190 -0.1457 -0.5173 -0.0258
 3697TIP3    H111055   6.108   2.882   1.122 -0.2957 -1.0741 -0.5826
 3697TIP3    H211056   6.011   2.884   1.238 -0.7715 -0.3256 -0.9874
 3698TIP3   OH211057   4.944   6.503   2.155  0.2633  0.2179  0.7552
 3698TIP3    H111058   5.030   6.491   2.194  0.0345  1.1146  1.5855
 3698TIP3    H211059   4.891   6.543   2.225 -0.8168 -0.2846  0.2552
 3699TIP3   OH211060   5.123   2.307   0.281 -0.7561 -0.7005 -0.2967
 3699TIP3    H111061   5.105   2.395   0.316  2.0524 -0.4113  0.6729
 3699TIP3    H211062   5.045   2.257   0.302 -2.4492  1.5294 -0.8728
 3700TIP3   OH211063   4.497   5.238   3.848  0.1646 -0.1229  0.3098
 3700TIP3    H111064   4.515   5.145   3.862  0.1319 -0.1154  0.3956
 3700TIP3    H211065   4.404   5.242   3.828  0.0644 -0.0489  0.7964
 3701TIP3   OH211066   0.709   2.401   1.076  0.6707 -0.1497  0.2920
 3701TIP3    H111067   0.661   2.483   1.084  1.2806  0.3907 -1.1299
 3701TIP3    H211068   0.648   2.334   1.104 -0.4093  0.6548 -0.0721
 3702TIP3   OH211069   2.770   1.543   3.041  0.0448  0.3662  0.1923
 3702TIP3    H111070   2.756   1.633   3.011  2.1224  0.4068 -0.8519
 3702TIP3    H211071   2.801   1.553   3.131 -0.3700  0.6489  0.3058
 3703TIP3   OH211072   2.699   5.644   4.494 -0.0280 -0.9394 -0.2170
 3703TIP3    H111073   2.622   5.593   4.470 -0.7298 -0.0073 -0.0044
 3703TIP3    H211074   2.685   5.729   4.454  0.4251 -0.4583  0.6269
 3704TIP3   OH211075   5.697   3.274   2.527 -0.1459 -0.1729 -0.2201
 3704TIP3    H111076   5.675   3.212   2.597  0.2046  1.2846  1.2571
 3704TIP3    H211077   5.668   3.358   2.561  1.4432  0.8000 -1.1839
 3705TIP3   OH211078   4.787   0.311   3.514  0.6631 -0.0076  0.2017
 3705TIP3    H111079   4.809   0.403   3.503  1.7183 -0.3194 -0.4333
 3705TIP3    H211080   4.844   0.281   3.585 -1.2814  0.3377  2.0186
 3706TIP3   OH211081   1.892   5.924   2.808 -0.4896  0.3412 -0.1241
 3706TIP3    H111082   1.945   5.844   2.803  3.3448  2.6115 -0.3338
 3706TIP3    H211083   1.897   5.961   2.720 -1.4866  1.2321  0.1767
 3707TIP3   OH211084   2.630   2.729   2.113  0.2232  0.1114  0.0264
 3707TIP3    H111085   2.569   2.785   2.065  0.7718  0.8117  0.1350
 3707TIP3    H211086   2.716   2.748   2.076  0.3387 -1.2233 -0.4574
 3708TIP3   OH211087   4.082   4.689   3.925  0.1210 -0.0042 -0.6273
 3708TIP3    H111088   4.106   4.680   4.017  1.8343  1.6107 -0.8615
 3708TIP3    H211089   4.005   4.745   3.925 -0.8642 -1.2949 -0.1388
 3709TIP3   OH211090   1.663   0.208   5.271  0.1321 -0.2735 -0.6614
 3709TIP3    H111091   1.607   0.285   5.262 -0.3156 -0.3819  0.8833
 3709TIP3    H211092   1.616   0.139   5.224 -0.4071 -0.0484 -0.4607
 3710TIP3   OH211093   3.689   2.597   1.244 -0.0939  0.2817 -0.1648
 3710TIP3    H111094   3.782   2.617   1.229 -0.1437 -0.8877 -2.5440
 3710TIP3    H211095   3.651   2.593   1.156 -2.0602 -0.7975  0.6718
 3711TIP3   OH211096   6.503   0.988   3.112 -0.9087 -0.5611 -0.0374
 3711TIP3    H111097   6.536   0.929   3.181  1.8040  0.8890 -0.0014
 3711TIP3    H211098   6.437   1.041   3.157  1.2102  0.7483  1.6956
 3712TIP3   OH211099   3.378   1.517   1.932 -0.6175  0.1356  0.1807
 3712TIP3    H111100   3.449   1.573   1.903  0.4258 -0.1895  1.9972
 3712TIP3    H211101   3.384   1.516   2.027 -2.0380 -1.2107  0.3071
 3713TIP3   OH211102   1.245   3.635   5.476  0.4162 -0.0207  0.4211
 3713TIP3    H111103   1.260   3.567   5.541  4.0579 -0.5422 -0.7550
 3713TIP3    H211104   1.183   3.695   5.517 -0.4819 -2.3594  2.7257
 3714TIP3   OH211105   4.275   3.222   0.885  0.0387 -0.0886  0.4229
 3714TIP3    H111106   4.367   3.207   0.863 -0.4714 -1.3574 -0.9749
 3714TIP3    H211107   4.250   3.145   0.936 -1.0857 -1.4005 -1.9811
 3715TIP3   OH211108   2.324   2.191   4.487  0.0601 -0.4859  0.5731
 3715TIP3    H111109   2.237   2.223   4.511  1.1553  0.8732  3.0393
 3715TIP3    H211110   2.384   2.237   4.545  2.5687 -0.7084 -1.6362
 3716TIP3   OH211111   2.006   0.412   3.028  1.0570  0.7549 -0.3740
 3716TIP3    H111112   1.998   0.390   3.121 -1.3027 -1.5532 -1.0128
 3716TIP3    H211113   1.987   0.506   3.023  0.0997  0.6795  1.3468
 3717TIP3   OH211114   1.514   6.399   2.063 -0.2036 -0.1477 -0.4492
 3717TIP3    H111115   1.519   6.307   2.039 -0.6555 -0.2432 -0.1850
 3717TIP3    H211116   1.588   6.440   2.017  0.4270 -0.7593 -0.0077
 3718TIP3   OH211117   2.792   3.016   4.734 -0.6268 -0.4643 -0.0152
 3718TIP3    H111118   2.831   3.101   4.716  0.1918 -0.5634  1.1377
 3718TIP3    H211119   2.698   3.031   4.731 -0.4912  0.5437  0.4060
 3719TIP3   OH211120   5.900   0.249   1.836 -0.0786 -0.3433 -0.1756
 3719TIP3    H111121   5.967   0.277   1.774  0.4800  0.0951  0.6027
 3719TIP3    H211122   5.928   0.287   1.920 -2.1082  1.1516 -0.0972
 3720TIP3   OH211123   1.379   1.767   0.194 -0.3313  0.2884  0.0480
 3720TIP3    H111124   1.444   1.830   0.162  0.9868 -0.7214  0.6438
 3720TIP3    H211125   1.388   1.771   0.289  0.8833 -1.8669  0.0748
 3721TIP3   OH211126   2.191   2.308   5.738  0.2867  0.2283 -0.2183
 3721TIP3    H111127   2.230   2.303   5.651  0.6336  0.0573 -0.0523
 3721TIP3    H211128   2.252   2.361   5.789  0.7001 -0.6781  0.2503
 3722TIP3   OH211129   6.777   5.451   2.673 -0.2560  0.3245  0.2810
 3722TIP3    H111130   6.721   5.375   2.657  0.3158 -0.0285 -0.0711
 3722TIP3    H211131   6.737   5.522   2.622 -1.5948  0.6523  1.7098
 3723TIP3   OH211132   2.126   5.688   3.156 -0.2502 -0.1566 -0.4107
 3723TIP3    H111133   2.111   5.613   3.213 -2.3279 -0.2576 -1.0132
 3723TIP3    H211134   2.209   5.669   3.112 -0.5166 -1.8783 -0.2267
 3724TIP3   OH211135   1.507   3.665   4.974 -0.1648  0.1095  0.4704
 3724TIP3    H111136   1.551   3.748   4.994 -0.3083  0.0462  1.0846
 3724TIP3    H211137   1.456   3.646   5.053 -1.1268  0.0784 -0.1399
 3725TIP3   OH211138   4.854   1.340   4.250  0.4498 -0.0871 -0.2888
 3725TIP3    H111139   4.791   1.384   4.308  1.5713  1.3857 -0.1486
 3725TIP3    H211140   4.924   1.404   4.238  1.1419 -1.0886 -1.7667
 3726TIP3   OH211141   5.409   4.381   3.445 -0.2982  0.5564  0.1137
 3726TIP3    H111142   5.403   4.445   3.374  1.4779  0.7843  0.1253
 3726TIP3    H211143   5.384   4.430   3.523  0.0088  0.9413 -0.0253
 3727TIP3   OH211144   0.257   5.261   2.732  0.2958  0.5220 -0.5476
 3727TIP3    H111145   0.258   5.354   2.711 -2.1948  0.1616 -2.7976
 3727TIP3    H211146   0.242   5.217   2.648  3.2347 -2.1107  0.1097
 3728TIP3   OH211147   4.423   1.695   4.936 -0.2155 -0.0483 -0.3998
 3728TIP3    H111148   4.392   1.700   4.845 -1.1527  0.9387 -0.0490
 3728TIP3    H211149   4.453   1.784   4.956 -0.5827 -0.1053  0.4448
 3729TIP3   OH211150   6.057   2.388   5.790  0.4663  0.0487 -0.1261
 3729TIP3    H111151   6.030   2.357   5.876 -2.3202  2.4681  0.0425
 3729TIP3    H211152   6.096   2.312   5.747  0.2059 -1.7146  2.5622
 3730TIP3   OH211153   4.830   3.421   3.239  0.1289  0.0472 -0.4773
 3730TIP3    H111154   4.887   3.497   3.225  0.1354  0.1112 -0.1195
 3730TIP3    H211155   4.812   3.388   3.151 -0.6667  1.0422 -0.7018
 3731TIP3   OH211156   3.227   2.124  -0.004 -0.0448 -0.3662 -0.0273
 3731TIP3    H111157   3.220   2.110   0.090  0.2898  0.0412  0.0613
 3731TIP3    H211158   3.198   2.214  -0.018  0.7331 -0.1336 -0.1968
 3732TIP3   OH211159   4.493   5.065   0.659 -0.2207 -0.2382  0.4003
 3732TIP3    H111160   4.447   5.137   0.615  2.3453 -0.4164 -2.9704
 3732TIP3    H211161   4.538   5.107   0.733 -0.2247  1.2496 -0.4059
 3733TIP3   OH211162   3.841   6.798   3.093 -0.0696  0.4728  0.3319
 3733TIP3    H111163   3.832   6.703   3.100  2.0832  0.1820 -0.3234
 3733TIP3    H211164   3.751   6.831   3.098 -0.8156 -1.5453  1.0935
 3734TIP3   OH211165   1.462   4.746   1.338 -0.4461  0.9290  0.4997
 3734TIP3    H111166   1.487   4.771   1.250  0.0313  0.7805  0.5881
 3734TIP3    H211167   1.423   4.659   1.328 -0.9820  1.1892  0.3512
 3735TIP3   OH211168   6.059   2.376   5.243 -0.0551 -0.2863 -0.4533
 3735TIP3    H111169   5.982   2.409   5.287 -0.2949 -1.3081 -0.0707
 3735TIP3    H211170   6.026   2.308   5.184  0.2589  1.0016 -2.2001
 3736TIP3   OH211171   3.155   4.477   5.529  0.6904 -0.0713 -0.1605
 3736TIP3    H111172   3.218   4.407   5.516 -0.3583 -1.2418  0.7802
 3736TIP3    H211173   3.079   4.451   5.476 -0.0062 -0.0633  0.8133
 3737TIP3   OH211174   6.616   3.636   0.115  0.2507 -0.2498  0.3343
 3737TIP3    H111175   6.646   3.558   0.162 -2.1812  0.2517  3.0187
 3737TIP3    H211176   6.660   3.709   0.159  0.5482  0.0701 -0.4723
 3738TIP3   OH211177   6.997   4.987   2.232 -0.4496 -0.2814 -0.3900
 3738TIP3    H111178   6.974   5.054   2.297  0.6349  1.3714 -1.6095
 3738TIP3    H211179   7.069   4.938   2.272 -0.7501 -0.2264  0.2275
 3739TIP3   OH211180   4.898   5.118   5.510  0.2645  0.1669  0.2953
 3739TIP3    H111181   4.828   5.100   5.448 -0.7166 -1.0406  1.6931
 3739TIP3    H211182   4.948   5.190   5.470 -0.7252 -0.1034 -1.5320
 3740TIP3   OH211183   6.176   1.082   3.815  0.4925 -0.4443 -0.2118
 3740TIP3    H111184   6.248   1.028   3.782  0.5908 -1.3120  1.2951
 3740TIP3    H211185   6.098   1.047   3.774  0.5470 -1.8397  0.8102
 3741TIP3   OH211186   3.217   3.317   1.450  0.1360  0.1750 -0.5848
 3741TIP3    H111187   3.276   3.327   1.375  0.3692 -1.7338 -0.6918
 3741TIP3    H211188   3.224   3.225   1.474 -0.5361  0.5813  1.3091
 3742TIP3   OH211189   4.102   4.654   4.233  0.8034 -0.0096 -0.0025
 3742TIP3    H111190   4.117   4.565   4.265  0.4678  0.0526  0.3321
 3742TIP3    H211191   4.007   4.664   4.232  0.8428  0.3997  0.1080
 3743TIP3   OH211192   1.305   4.320   0.126  0.1607 -0.2654  0.0742
 3743TIP3    H111193   1.329   4.307   0.034 -3.2777  1.0526 -1.1522
 3743TIP3    H211194   1.267   4.237   0.153  1.5320 -0.7854  0.5082
 3744TIP3   OH211195   5.061   4.687   3.337 -0.2933 -0.3090  0.4167
 3744TIP3    H111196   5.087   4.706   3.427  0.7447 -3.5630  0.9430
 3744TIP3    H211197   4.977   4.642   3.345 -0.1201 -0.7658 -0.1906
 3745TIP3   OH211198   7.064   1.242   3.506 -0.3357  0.0254 -0.5721
 3745TIP3    H111199   7.011   1.186   3.450 -1.4267 -0.3594  0.7937
 3745TIP3    H211200   7.015   1.324   3.511  0.1433  0.3287 -0.8008
 3746TIP3   OH211201   2.280   3.281   1.791  0.1123  0.1107  0.9450
 3746TIP3    H111202   2.275   3.329   1.708 -0.6005 -0.9813  0.3193
 3746TIP3    H211203   2.250   3.344   1.857  1.6755  1.3224  0.5459
 3747TIP3   OH211204   4.643   4.213   5.889  0.5849  0.2218  0.1404
 3747TIP3    H111205   4.657   4.247   5.801 -0.5543 -1.4619 -0.7555
 3747TIP3    H211206   4.726   4.170   5.912  0.7842  0.3969 -0.2496
 3748TIP3   OH211207   5.443   6.087   0.642  0.0485  0.1307  0.0950
 3748TIP3    H111208   5.366   6.121   0.688  0.0210  0.5233 -0.2294
 3748TIP3    H211209   5.449   6.142   0.564  1.8089  1.4077  1.0643
 3749TIP3   OH211210   2.920   6.310   2.477 -0.4635  0.0415  0.0029
 3749TIP3    H111211   2.968   6.302   2.394  0.4919 -1.1087  0.6416
 3749TIP3    H211212   2.978   6.362   2.533 -0.0440 -1.1605  0.7025
 3750TIP3   OH211213   2.880   2.990   0.728  1.3507  0.0531 -0.2403
 3750TIP3    H111214   2.821   2.992   0.803 -0.0845 -1.1368 -1.2933
 3750TIP3    H211215   2.824   3.006   0.653  2.7055  0.8375 -1.1275
 3751TIP3   OH211216   3.151   3.388   0.583 -0.5937 -0.2294  0.9310
 3751TIP3    H111217   3.223   3.373   0.645 -1.0202 -0.4090  1.3859
 3751TIP3    H211218   3.130   3.301   0.549  0.3120 -0.0240 -0.2474
 3752TIP3   OH211219   0.688   0.482   0.139  0.1277 -0.1209  0.2639
 3752TIP3    H111220   0.705   0.474   0.233 -0.0868  0.7217  0.3803
 3752TIP3    H211221   0.669   0.574   0.126 -0.1576 -0.2912 -0.5641
 3753TIP3   OH211222   1.490   2.262   0.570  0.0364 -0.1903 -0.1135
 3753TIP3    H111223   1.581   2.291   0.562  0.2650 -0.9789 -0.4523
 3753TIP3    H211224   1.480   2.194   0.503 -0.5997 -0.6004  0.3783
 3754TIP3   OH211225   6.770   2.264   1.615 -0.0144  0.1014  0.1743
 3754TIP3    H111226   6.796   2.349   1.580 -1.0759 -0.2726 -1.6119
 3754TIP3    H211227   6.827   2.252   1.692  1.4743  1.5580 -0.6234
 3755TIP3   OH211228   1.741   2.908   5.082 -0.4612  0.0389 -0.5427
 3755TIP3    H111229   1.687   2.832   5.062  0.8893 -1.3049  0.6141
 3755TIP3    H211230   1.828   2.871   5.101 -0.0862  1.7292  1.3956
 3756TIP3   OH211231   1.285   0.439   5.296 -0.2641  0.3615 -0.9718
 3756TIP3    H111232   1.347   0.394   5.353 -0.5338  1.8633  0.5910
 3756TIP3    H211233   1.292   0.393   5.212  1.1917 -1.0148 -0.1568
 3757TIP3   OH211234   1.416   2.853   4.740  0.7314 -0.3358  0.2046
 3757TIP3    H111235   1.502   2.894   4.742  0.7199 -0.3483  1.3391
 3757TIP3    H211236   1.380   2.879   4.655  1.1487  1.1132  0.4375
 3758TIP3   OH211237   3.111   6.189   3.213  0.2038  0.1722  0.6972
 3758TIP3    H111238   3.095   6.281   3.235  0.9321  0.1145  1.4895
 3758TIP3    H211239   3.025   6.149   3.215 -0.0961  0.7879  0.5478
 3759TIP3   OH211240   2.634   3.797   1.070 -0.4590  0.0840 -0.2225
 3759TIP3    H111241   2.549   3.774   1.109  0.0758  0.7698  1.4372
 3759TIP3    H211242   2.649   3.730   1.003 -1.1460 -1.5193  1.1685
 3760TIP3   OH211243   0.296   2.353   1.231 -0.0580 -0.1518  0.4700
 3760TIP3    H111244   0.223   2.409   1.205  1.5467  1.1476 -1.5208
 3760TIP3    H211245   0.338   2.400   1.302  0.2614  0.3313 -0.0317
 3761TIP3   OH211246   4.233   4.784   2.430  0.1216 -0.7024 -0.0833
 3761TIP3    H111247   4.238   4.768   2.335 -0.0637 -1.7606  0.0685
 3761TIP3    H211248   4.146   4.823   2.443  0.4427  0.1462 -0.4328
 3762TIP3   OH211249   4.728   5.059   5.285  0.5534  0.2446 -0.1905
 3762TIP3    H111250   4.709   5.087   5.195  0.5914 -0.1512 -0.3259
 3762TIP3    H211251   4.721   4.963   5.281  1.6636  0.1442 -0.0259
 3763TIP3   OH211252   1.859   2.033   4.824 -0.3074  0.1942  0.6691
 3763TIP3    H111253   1.940   1.998   4.860 -0.6600 -0.2153  1.0786
 3763TIP3    H211254   1.874   2.127   4.816  0.5778 -0.0051 -0.2349
 3764TIP3   OH211255   6.796   0.584   5.743 -0.0109  0.2571 -0.2970
 3764TIP3    H111256   6.749   0.665   5.759  0.4579  0.2943  1.0633
 3764TIP3    H211257   6.765   0.525   5.812  0.8188 -0.1904 -0.2932
 3765TIP3   OH211258   3.307   2.019   4.885 -0.0824  0.4677  0.3236
 3765TIP3    H111259   3.230   2.071   4.862 -1.0744 -1.4825 -1.0847
 3765TIP3    H211260   3.274   1.929   4.891  1.9776 -0.3363  0.2788
 3766TIP3   OH211261   2.465   2.092   3.571  0.4666 -0.1540 -0.0484
 3766TIP3    H111262   2.555   2.060   3.567  0.8541  0.9995 -1.5151
 3766TIP3    H211263   2.474   2.188   3.575 -0.6920  0.0162 -1.0513
 3767TIP3   OH211264   4.776   0.191   1.006  0.5024  0.2862  0.3118
 3767TIP3    H111265   4.710   0.185   1.076  0.4327  0.9810  0.3091
 3767TIP3    H211266   4.766   0.279   0.971 -0.4852 -0.5272 -1.5889
 3768TIP3   OH211267   3.689   2.007   0.097  0.0186  0.0095 -0.1957
 3768TIP3    H111268   3.732   2.092   0.106 -0.6869  0.1804  2.8471
 3768TIP3    H211269   3.761   1.943   0.100  0.4703  0.4260 -1.4837
 3769TIP3   OH211270   5.801   5.697   2.986  0.3829 -0.1469  0.3351
 3769TIP3    H111271   5.881   5.665   3.027  0.4890 -1.6824 -0.9623
 3769TIP3    H211272   5.738   5.626   2.997 -0.1289  0.1550 -0.5528
 3770TIP3   OH211273   6.971   3.140   0.252 -0.8389  0.3190 -0.0633
 3770TIP3    H111274   6.999   3.082   0.182  1.7032  0.3562  0.8280
 3770TIP3    H211275   7.022   3.220   0.239  0.0258  0.1635  2.0506
 3771TIP3   OH211276   6.101   1.621   5.758 -0.0419  0.0350  0.3603
 3771TIP3    H111277   6.148   1.704   5.758 -1.7061  1.0325  1.1429
 3771TIP3    H211278   6.153   1.563   5.813  1.0520  0.6118 -0.0472
 3772TIP3   OH211279   6.607   2.850   0.286 -0.2699 -0.3303 -0.0976
 3772TIP3    H111280   6.542   2.785   0.315 -0.1625 -0.4730 -0.1786
 3772TIP3    H211281   6.684   2.798   0.264  0.2747 -0.0610  1.1145
 3773TIP3   OH211282   7.192   4.075   0.967  0.8162  0.2531  0.1059
 3773TIP3    H111283   7.103   4.107   0.951  0.4642 -1.0245 -0.5975
 3773TIP3    H211284   7.181   3.983   0.993  1.8943  0.2556  0.6687
 3774TIP3   OH211285   0.391   0.626   4.085 -0.5499  0.0482  0.3383
 3774TIP3    H111286   0.437   0.570   4.148  0.2211 -0.7520 -0.9132
 3774TIP3    H211287   0.403   0.583   4.001 -3.1445  0.1013 -0.1337
 3775TIP3   OH211288   5.036   0.324   0.979  0.0182  0.5461 -0.1877
 3775TIP3    H111289   5.041   0.384   1.053 -1.2159  0.4912 -0.0376
 3775TIP3    H211290   4.946   0.291   0.981 -0.0940  0.6867 -1.8283
 3776TIP3   OH211291   3.483   1.125   5.502  0.3077 -0.3606 -0.1038
 3776TIP3    H111292   3.440   1.143   5.585 -0.1555 -1.6357 -0.0432
 3776TIP3    H211293   3.506   1.033   5.506 -1.0703 -0.8706 -1.9544
 3777TIP3   OH211294   6.295   4.942   4.611  0.2504  0.0681  0.1062
 3777TIP3    H111295   6.298   4.846   4.619 -3.4165 -0.3883 -1.8064
 3777TIP3    H211296   6.224   4.969   4.669  0.7133  1.5428  0.0211
 3778TIP3   OH211297   5.575   2.945   3.651 -0.3901 -0.0088 -0.0735
 3778TIP3    H111298   5.487   2.952   3.615 -0.4008  3.0679  0.2940
 3778TIP3    H211299   5.633   2.973   3.579  0.2518 -1.3528 -0.1021
 3779TIP3   OH211300   2.207   0.087   2.096 -0.0874  0.2194 -0.1066
 3779TIP3    H111301   2.123   0.042   2.085  0.6883 -1.2012 -0.4716
 3779TIP3    H211302   2.189   0.156   2.160 -1.3910 -0.4294  0.2707
 3780TIP3   OH211303   0.671   4.266   0.817 -0.6866 -0.6575  0.1818
 3780TIP3    H111304   0.668   4.251   0.911 -1.5103  0.2597  0.3173
 3780TIP3    H211305   0.635   4.354   0.805 -0.5995 -0.7577 -0.9911
 3781TIP3   OH211306   3.459   5.692   4.070 -0.8934  0.0567 -0.0349
 3781TIP3    H111307   3.526   5.680   4.003 -1.7972 -1.4456 -0.7199
 3781TIP3    H211308   3.420   5.605   4.081 -3.4668  1.0419 -0.4889
 3782TIP3   OH211309   1.532   5.658   0.957 -0.3645 -0.0845  0.4944
 3782TIP3    H111310   1.454   5.604   0.945  1.3671 -2.2167 -2.3491
 3782TIP3    H211311   1.589   5.605   1.012  0.9275 -0.7695 -1.4280
 3783TIP3   OH211312   4.024   6.780   2.087  0.4875 -0.1137  0.0834
 3783TIP3    H111313   4.070   6.763   2.169 -1.1365 -1.9748  0.6816
 3783TIP3    H211314   4.092   6.777   2.020  2.0088  2.3541  1.3408
 3784TIP3   OH211315   0.759   1.618   4.429 -0.3298 -0.6544  0.1409
 3784TIP3    H111316   0.769   1.551   4.361 -0.1210 -0.6775  0.1946
 3784TIP3    H211317   0.835   1.606   4.486 -0.2005 -0.2547  0.0536
 3785TIP3   OH211318   1.199   2.064   2.884 -0.3246  0.4358 -0.1385
 3785TIP3    H111319   1.190   2.158   2.870 -0.7419  0.3113 -0.7250
 3785TIP3    H211320   1.281   2.040   2.839  0.4653  0.7312  1.1001
 3786TIP3   OH211321   5.519   1.792   1.773  0.0127 -0.0698 -0.2196
 3786TIP3    H111322   5.512   1.779   1.868 -0.7346  2.6393  0.1710
 3786TIP3    H211323   5.487   1.710   1.735 -0.9221 -0.7232  1.8562
 3787TIP3   OH211324   1.346   2.832   3.893  0.6560  0.4784 -0.4614
 3787TIP3    H111325   1.310   2.867   3.811  0.2817 -0.2591 -0.6238
 3787TIP3    H211326   1.330   2.738   3.887  0.0462  0.4877  0.7475
 3788TIP3   OH211327   4.216   1.280   2.901 -0.1617  0.1170 -0.2567
 3788TIP3    H111328   4.309   1.259   2.913  0.1328  1.8136  0.7216
 3788TIP3    H211329   4.191   1.231   2.822  2.0899  1.1453 -1.7271
 3789TIP3   OH211330   0.439   5.631   2.393 -0.0085 -0.2911  0.7936
 3789TIP3    H111331   0.437   5.707   2.335 -3.0928 -1.1791 -0.4768
 3789TIP3    H211332   0.361   5.641   2.449 -0.8268 -2.6888  0.2187
 3790TIP3   OH211333   3.866   6.011   1.360 -0.3698  0.1031 -0.3126
 3790TIP3    H111334   3.930   6.075   1.392  0.2681 -0.9894  0.6555
 3790TIP3    H211335   3.891   5.929   1.402 -1.9666 -0.5060 -0.4963
 3791TIP3   OH211336   4.646   5.557   5.557 -0.0674  0.2734 -0.7554
 3791TIP3    H111337   4.690   5.490   5.504 -0.2312 -1.0832  0.7434
 3791TIP3    H211338   4.557   5.524   5.567  0.2468 -0.0750  1.2451
 3792TIP3   OH211339   6.029   2.839   2.678  0.0909 -0.2157  0.0160
 3792TIP3    H111340   5.934   2.829   2.683 -0.0831  1.4700  3.2774
 3792TIP3    H211341   6.060   2.761   2.633 -2.7991 -0.9469 -0.8997
 3793TIP3   OH211342   2.778   1.430   3.649  0.5077  0.0934 -0.2775
 3793TIP3    H111343   2.847   1.374   3.686  1.2672  1.5467  0.5872
 3793TIP3    H211344   2.698   1.398   3.691  1.2992  1.4467  2.4822
 3794TIP3   OH211345   5.878   0.330   2.568  0.0969  0.2251  1.0597
 3794TIP3    H111346   5.936   0.394   2.526  0.4079 -0.2805  0.7118
 3794TIP3    H211347   5.897   0.338   2.661  1.0085 -0.2033  0.9172
 3795TIP3   OH211348   6.700   4.755   2.345 -0.1436 -0.9067  0.1208
 3795TIP3    H111349   6.653   4.676   2.369  1.0959 -1.6231  0.2639
 3795TIP3    H211350   6.783   4.749   2.391 -0.0382  0.5040  0.1676
 3796TIP3   OH211351   2.948   0.996   4.793  0.4038  0.0240  0.2993
 3796TIP3    H111352   3.016   0.947   4.840  0.7124 -0.0242 -0.1844
 3796TIP3    H211353   2.918   0.935   4.725 -0.9318 -0.3706  1.2128
 3797TIP3   OH211354   6.396   1.451   5.084  0.5188 -0.2840 -0.4584
 3797TIP3    H111355   6.401   1.423   4.993  0.6481  2.5068 -1.4071
 3797TIP3    H211356   6.304   1.439   5.109  0.4408 -0.8580 -1.0168
 3798TIP3   OH211357   6.618   0.866   0.619  0.4377 -0.2712  0.0170
 3798TIP3    H111358   6.555   0.834   0.554  1.1786 -1.3233 -0.2136
 3798TIP3    H211359   6.698   0.881   0.569  0.7700 -0.2625  0.5427
 3799TIP3   OH211360   6.767   1.147   3.682  0.2408  0.4917  0.2527
 3799TIP3    H111361   6.737   1.057   3.668  2.2354 -0.1946  0.1045
 3799TIP3    H211362   6.796   1.177   3.596 -1.9912  1.9634 -0.0805
 3800TIP3   OH211363   1.549   1.418   4.708  0.1920 -0.7096  0.4788
 3800TIP3    H111364   1.528   1.487   4.645  1.1801 -2.1011 -1.4600
 3800TIP3    H211365   1.465   1.374   4.724  0.0141 -0.6458 -0.2443
 3801TIP3   OH211366   1.793   2.414   3.543 -0.4828  0.2758 -0.2335
 3801TIP3    H111367   1.881   2.446   3.524  0.4948 -0.3837  2.7258
 3801TIP3    H211368   1.788   2.329   3.499  0.0717  0.6243 -0.9896
 3802TIP3   OH211369   5.156   6.227   4.736 -0.2083  0.2137  0.4023
 3802TIP3    H111370   5.123   6.137   4.730  1.1770 -0.2981  0.2871
 3802TIP3    H211371   5.233   6.228   4.679  0.0818  1.3372  0.8031
 3803TIP3   OH211372   3.213   5.671   3.697 -0.4171 -0.5055  0.1593
 3803TIP3    H111373   3.181   5.761   3.685  0.8266 -0.1346 -0.5463
 3803TIP3    H211374   3.179   5.624   3.621 -0.7242 -0.5331  0.3132
 3804TIP3   OH211375   3.534   1.582   1.275  0.1497  0.1735  0.3599
 3804TIP3    H111376   3.504   1.604   1.362  1.6601 -1.4490  1.3695
 3804TIP3    H211377   3.618   1.628   1.265  0.7853 -0.9149  0.4587
 3805TIP3   OH211378   1.867   2.307   4.754 -0.1352  0.4679  0.1168
 3805TIP3    H111379   1.926   2.366   4.801  1.6449 -0.4377 -0.8896
 3805TIP3    H211380   1.811   2.366   4.704  1.8023  1.3821 -1.1209
 3806TIP3   OH211381   3.264   1.017   0.903 -0.4379  0.0111 -0.0941
 3806TIP3    H111382   3.220   0.932   0.903  0.3551 -0.4144 -1.0394
 3806TIP3    H211383   3.302   1.025   0.816  2.4864 -0.2375  1.0348
 3807TIP3   OH211384   1.996   1.532   3.659  0.4273  0.2816 -0.0386
 3807TIP3    H111385   2.060   1.597   3.633  1.5480 -0.2234  1.3040
 3807TIP3    H211386   2.041   1.479   3.725 -0.8352 -1.1109 -0.2273
 3808TIP3   OH211387   3.009   0.682   0.539  0.4942 -0.2527  0.1640
 3808TIP3    H111388   3.046   0.760   0.497  1.3669 -0.8668 -0.2276
 3808TIP3    H211389   2.955   0.642   0.470  0.8692 -0.5444  0.0365
 3809TIP3   OH211390   2.780   0.184   3.286 -0.2496  0.4238 -0.1869
 3809TIP3    H111391   2.860   0.171   3.336  0.4980 -1.4152 -1.7261
 3809TIP3    H211392   2.808   0.229   3.207 -0.8539  0.4415 -0.3955
 3810TIP3   OH211393   4.657   6.488   3.705 -0.2904  0.2578  0.5988
 3810TIP3    H111394   4.687   6.414   3.759 -0.3136  0.4869  0.9271
 3810TIP3    H211395   4.684   6.566   3.753 -0.2412  0.4668  0.2372
 3811TIP3   OH211396   4.573   2.136   2.086  0.0795 -0.0785 -0.1272
 3811TIP3    H111397   4.589   2.165   1.996  0.9517  0.3675  0.1685
 3811TIP3    H211398   4.477   2.127   2.091  0.0892 -2.1517 -1.7338
 3812TIP3   OH211399   0.111   6.464   4.281  0.5746  0.3856  0.0230
 3812TIP3    H111400   0.070   6.378   4.276  0.3048  0.5422 -0.4933
 3812TIP3    H211401   0.054   6.514   4.340  0.5458  0.3186  0.0528
 3813TIP3   OH211402   1.361   5.063   1.348 -0.6241 -0.0120 -0.3660
 3813TIP3    H111403   1.421   5.107   1.409 -0.9558  0.2308 -0.2083
 3813TIP3    H211404   1.382   4.970   1.357 -1.2057 -0.0621  0.7303
 3814TIP3   OH211405   4.467   0.222   0.143 -0.1576  0.0896  0.0324
 3814TIP3    H111406   4.379   0.256   0.130 -1.1046 -1.6447  1.3990
 3814TIP3    H211407   4.496   0.258   0.227  0.1534  0.1100 -0.0807
 3815TIP3   OH211408   1.499   1.060   2.475  0.0788 -0.3940 -0.5940
 3815TIP3    H111409   1.421   1.112   2.458  1.0434  1.2309 -0.3042
 3815TIP3    H211410   1.476   1.007   2.551 -0.0750  1.7290  0.9486
 3816TIP3   OH211411   0.068   2.516   1.214  0.0910  0.9796  0.3277
 3816TIP3    H111412   0.022   2.546   1.292  1.2326  0.4050  1.2376
 3816TIP3    H211413   0.000   2.515   1.146 -1.2359  0.1997  1.6104
 3817TIP3   OH211414   6.982   4.564   1.212  0.2641  0.4181 -0.5739
 3817TIP3    H111415   7.003   4.594   1.124 -0.2519  0.9344 -0.5217
 3817TIP3    H211416   7.001   4.638   1.269 -0.6434  0.5276 -0.4012
 3818TIP3   OH211417   2.378   0.055   0.587 -0.0479  0.2988 -0.1490
 3818TIP3    H111418   2.331  -0.006   0.644  1.5609  0.5004  1.4909
 3818TIP3    H211419   2.344   0.141   0.611 -0.9062  0.2332 -1.0654
 3819TIP3   OH211420   4.620   2.113   3.412  0.6399 -0.1901  0.0454
 3819TIP3    H111421   4.532   2.099   3.447  0.6737 -1.6809 -0.4218
 3819TIP3    H211422   4.675   2.125   3.490  0.1113  0.3586  0.3495
 3820TIP3   OH211423   2.623   6.165   2.845  0.3013 -0.2074  0.6383
 3820TIP3    H111424   2.668   6.165   2.929 -1.5656  0.8642  1.7294
 3820TIP3    H211425   2.646   6.249   2.805  0.1508 -0.1437  0.6847
 3821TIP3   OH211426   5.217   3.531   1.505  0.3824 -0.2671 -0.2173
 3821TIP3    H111427   5.165   3.523   1.585  0.7593  1.0203  0.1900
 3821TIP3    H211428   5.292   3.473   1.518  1.2557  1.0713  1.0808
 3822TIP3   OH211429   3.006   1.639   4.790 -0.0542  0.0226 -0.4909
 3822TIP3    H111430   2.920   1.604   4.813  1.0342 -1.2086  2.1582
 3822TIP3    H211431   3.061   1.561   4.779  1.0337  0.8082 -0.7649
 3823TIP3   OH211432   5.926   2.779   4.290  0.4243  0.1019  0.0338
 3823TIP3    H111433   5.953   2.844   4.354 -0.0622  1.8496 -1.4548
 3823TIP3    H211434   5.846   2.741   4.327  0.0315  1.2390  0.3924
 3824TIP3   OH211435   0.642   1.973   1.267 -0.0883  0.0501 -0.2545
 3824TIP3    H111436   0.594   1.913   1.324 -0.8443 -0.5241 -1.4523
 3824TIP3    H211437   0.662   1.922   1.189  1.4899  0.6286 -0.2665
 3825TIP3   OH211438   4.403   1.524   4.305  0.2565  0.3014  0.1902
 3825TIP3    H111439   4.442   1.601   4.264  1.6024  0.3151  1.4120
 3825TIP3    H211440   4.310   1.547   4.315  0.2803  1.0241 -1.0832
 3826TIP3   OH211441   1.581   0.606   4.804 -0.3476  0.2274  0.3203
 3826TIP3    H111442   1.517   0.545   4.841 -0.9891  1.2064  0.8784
 3826TIP3    H211443   1.562   0.689   4.847  0.0631  0.9833 -0.9102
 3827TIP3   OH211444   2.822   3.031   3.967  0.0265 -0.1997 -0.2558
 3827TIP3    H111445   2.873   2.954   3.992  2.8059  0.9876 -1.7936
 3827TIP3    H211446   2.768   3.001   3.893  0.7129 -0.7906 -0.5310
 3828TIP3   OH211447   1.699   5.361   0.340  0.2141  0.4129  0.4387
 3828TIP3    H111448   1.644   5.342   0.416 -0.7907  0.7053 -0.1935
 3828TIP3    H211449   1.782   5.392   0.377 -0.3125  0.6934  1.4102
 3829TIP3   OH211450   6.817   1.883   4.902  0.3925  0.7142  0.1741
 3829TIP3    H111451   6.807   1.977   4.915  2.4488  1.3085 -1.7768
 3829TIP3    H211452   6.767   1.864   4.823 -0.1730  0.1015  0.6648
 3830TIP3   OH211453   2.319   5.089   0.892 -0.0199 -0.4496 -0.3989
 3830TIP3    H111454   2.262   5.030   0.942  0.5271 -0.4082  0.2894
 3830TIP3    H211455   2.329   5.045   0.807 -1.2171 -0.3623 -0.6008
 3831TIP3   OH211456   6.118   6.104   1.534  0.8566 -0.4312 -0.2520
 3831TIP3    H111457   6.181   6.035   1.554 -1.4047 -2.0804  1.7656
 3831TIP3    H211458   6.154   6.147   1.456  3.0427 -3.0094 -0.8291
 3832TIP3   OH211459   4.507   3.081   4.778  0.7802 -0.9035 -0.0263
 3832TIP3    H111460   4.497   3.085   4.873  2.1997 -2.1746  0.2103
 3832TIP3    H211461   4.507   3.172   4.750  1.4218 -0.4720  1.3179
 3833TIP3   OH211462   0.558   2.743   5.162 -0.5602  0.0259 -0.0488
 3833TIP3    H111463   0.505   2.810   5.119  0.2098  0.7265  0.0676
 3833TIP3    H211464   0.498   2.698   5.220 -1.1507  0.4403 -0.3323
 3834TIP3   OH211465   3.794   1.657   3.731  0.4127 -0.0755 -0.0145
 3834TIP3    H111466   3.812   1.580   3.786 -1.8408 -0.9397 -0.3762
 3834TIP3    H211467   3.814   1.732   3.788 -0.4050 -0.9512  1.5044
 3835TIP3   OH211468   0.727   5.844   2.590  0.4303 -0.1040  0.6881
 3835TIP3    H111469   0.686   5.909   2.532  0.6724  0.6980  1.3903
 3835TIP3    H211470   0.654   5.808   2.640  0.2515 -0.6264  0.0724
 3836TIP3   OH211471   5.413   5.935   1.953  0.1133  0.3879 -0.5141
 3836TIP3    H111472   5.391   5.859   2.007  0.4076  0.2276 -0.6188
 3836TIP3    H211473   5.354   6.004   1.984  0.7577  0.5127  0.5023
 3837TIP3   OH211474   0.838   0.777   4.932 -0.9929 -0.0507  0.7085
 3837TIP3    H111475   0.842   0.687   4.964  1.6182  0.6143  2.5895
 3837TIP3    H211476   0.929   0.808   4.934 -1.2548  1.5915 -3.2664
 3838TIP3   OH211477   4.069   5.257   5.058  0.1618  0.2320 -0.1064
 3838TIP3    H111478   4.122   5.200   5.002  0.7388  1.3114 -0.6960
 3838TIP3    H211479   3.980   5.222   5.050  0.8080 -1.8822  1.2626
 3839TIP3   OH211480   2.677   5.736   3.565  0.3433  0.1735 -0.7208
 3839TIP3    H111481   2.697   5.651   3.603  0.4947 -0.1511 -1.5064
 3839TIP3    H211482   2.582   5.741   3.563  0.3304 -0.1355 -1.0006
 3840TIP3   OH211483   3.340   1.058   2.476  0.2963 -0.3654 -0.7710
 3840TIP3    H111484   3.386   1.006   2.410  0.5911 -1.1340  0.0129
 3840TIP3    H211485   3.255   1.077   2.437  0.2748 -1.2459 -1.1804
 3841TIP3   OH211486   1.727   6.074   3.456  0.0193 -0.3214 -0.2337
 3841TIP3    H111487   1.637   6.062   3.423  0.3618 -2.1617 -0.6394
 3841TIP3    H211488   1.716   6.094   3.548 -0.8803  2.5380 -0.8673
 3842TIP3   OH211489   3.990   2.905   1.069 -0.6305  0.0614  0.0251
 3842TIP3    H111490   3.986   2.913   0.974 -0.1852 -1.1183 -0.1101
 3842TIP3    H211491   4.068   2.954   1.094  0.3080 -1.1435 -0.4353
 3843TIP3   OH211492   5.282   3.668   2.831 -0.7479 -0.4585  0.6484
 3843TIP3    H111493   5.251   3.734   2.769 -0.0989 -1.2424 -0.5348
 3843TIP3    H211494   5.354   3.624   2.786 -0.1701 -0.9711  2.0057
 3844TIP3   OH211495   4.989   4.336   2.682 -0.1277  0.2933  0.2043
 3844TIP3    H111496   4.904   4.379   2.675  0.3951  1.4739  0.7542
 3844TIP3    H211497   5.042   4.397   2.734  1.2834 -0.0415 -0.7962
 3845TIP3   OH211498   2.274   5.946   4.290  0.1147 -0.5838 -0.3885
 3845TIP3    H111499   2.313   5.866   4.325 -0.4142 -0.8028 -0.2920
 3845TIP3    H211500   2.183   5.942   4.318 -0.1333 -0.3979 -1.1613
 3846TIP3   OH211501   4.585   6.214   5.340 -0.2010 -0.6222 -0.0915
 3846TIP3    H111502   4.591   6.129   5.384 -1.1752 -0.9321 -0.5453
 3846TIP3    H211503   4.576   6.277   5.411  1.1722 -0.8169  0.2824
 3847TIP3   OH211504   5.698   2.772   4.430 -0.3440  0.1040 -0.2774
 3847TIP3    H111505   5.641   2.758   4.355 -0.2172 -1.8490 -0.0448
 3847TIP3    H211506   5.639   2.796   4.502 -0.9305 -1.9939 -0.0098
 3848TIP3   OH211507   0.176   1.720   4.191 -0.0252  0.4683 -0.1718
 3848TIP3    H111508   0.239   1.663   4.147  1.0937  0.7675  0.9815
 3848TIP3    H211509   0.093   1.674   4.184  0.8905 -1.4887  1.0147
 3849TIP3   OH211510   1.823   1.415   4.513 -0.0383 -0.1372 -0.1436
 3849TIP3    H111511   1.797   1.506   4.500 -1.2226 -0.6469 -1.6736
 3849TIP3    H211512   1.837   1.407   4.608 -2.9553  0.8805  0.4826
 3850TIP3   OH211513   1.407   2.289   3.891  0.2753 -0.1781  0.6378
 3850TIP3    H111514   1.474   2.265   3.955  3.2328 -2.0148 -2.7485
 3850TIP3    H211515   1.360   2.207   3.875 -0.0166  0.0999  0.0479
 3851TIP3   OH211516   4.994   3.964   5.001 -0.1547  0.1128 -0.2447
 3851TIP3    H111517   4.962   4.013   4.926 -1.2899  0.5877  0.5351
 3851TIP3    H211518   4.962   4.012   5.077  0.6467 -0.5788  0.5520
 3852TIP3   OH211519   2.845   5.478   0.965 -0.0165 -0.1754 -0.3179
 3852TIP3    H111520   2.832   5.418   0.891  1.0350 -0.5455 -0.2175
 3852TIP3    H211521   2.767   5.467   1.019  0.4415 -1.9391  0.0290
 3853TIP3   OH211522   3.813   6.537   3.470  0.2182  0.1116 -0.2193
 3853TIP3    H111523   3.795   6.485   3.548  0.3286 -0.5285 -0.6025
 3853TIP3    H211524   3.859   6.614   3.501 -1.7241  1.0023  0.6093
 3854TIP3   OH211525   1.013   0.090   0.496 -0.2572  0.4276 -0.2273
 3854TIP3    H111526   0.936   0.108   0.441 -0.8048  1.1933  0.7625
 3854TIP3    H211527   1.040   0.176   0.528  0.7900  0.1173 -0.2524
 3855TIP3   OH211528   6.504   4.573   1.408 -0.2040 -0.0745 -0.3806
 3855TIP3    H111529   6.488   4.574   1.314  1.4943 -1.7748 -0.7359
 3855TIP3    H211530   6.424   4.537   1.445 -0.8596  0.5343 -1.1485
 3856TIP3   OH211531   0.295   1.917   1.590  0.2500  0.5554 -0.1131
 3856TIP3    H111532   0.237   1.873   1.528 -1.7321  0.5036  1.6616
 3856TIP3    H211533   0.283   1.870   1.672  2.4311  0.9196  0.4867
 3857TIP3   OH211534   6.592   2.126   2.925 -0.0754  0.0700 -0.0473
 3857TIP3    H111535   6.514   2.135   2.870 -0.6011 -0.1270  0.6524
 3857TIP3    H211536   6.594   2.034   2.950  1.1596 -0.2401 -1.1616
 3858TIP3   OH211537   4.218   5.157   5.660 -0.2043 -0.2294 -0.0253
 3858TIP3    H111538   4.132   5.197   5.648  1.6279  4.4878  0.5201
 3858TIP3    H211539   4.250   5.193   5.743  1.6809 -3.2892  0.7323
 3859TIP3   OH211540   0.907   2.661   3.634 -0.0147  0.1231  0.2090
 3859TIP3    H111541   0.834   2.604   3.608  1.2559 -1.7084  0.4921
 3859TIP3    H211542   0.879   2.700   3.717 -1.7242  1.5533 -0.9582
 3860TIP3   OH211543   5.967   0.703   3.553 -0.2846 -0.2528 -0.2608
 3860TIP3    H111544   5.943   0.612   3.538  0.4125 -0.5720  0.4678
 3860TIP3    H211545   5.956   0.745   3.468 -0.5615 -1.0278 -0.6195
 3861TIP3   OH211546   1.721   2.800   1.526  0.1033  0.1857  0.2641
 3861TIP3    H111547   1.761   2.873   1.572  0.2651  0.8950 -0.9505
 3861TIP3    H211548   1.656   2.840   1.469  1.8306 -0.2802 -2.2265
 3862TIP3   OH211549   3.562   1.494   3.331 -0.1283  0.2583  0.6844
 3862TIP3    H111550   3.490   1.433   3.314  0.6056 -0.3748 -0.2328
 3862TIP3    H211551   3.566   1.548   3.251 -0.0731  0.8114  1.0521
 3863TIP3   OH211552   0.218   1.698   5.721  0.1596  0.0907  0.0827
 3863TIP3    H111553   0.230   1.741   5.805 -0.2343 -0.0015  0.1933
 3863TIP3    H211554   0.140   1.739   5.683 -0.3894 -0.6968  0.3160
 3864TIP3   OH211555   6.861   1.033   1.187 -0.2257  0.0566  0.2099
 3864TIP3    H111556   6.784   1.061   1.139 -0.0652 -1.8387 -1.2448
 3864TIP3    H211557   6.907   1.114   1.208  0.2333  1.0189 -3.7857
 3865TIP3   OH211558   1.316   0.865   4.293 -0.0375  0.2541 -0.0376
 3865TIP3    H111559   1.314   0.931   4.224 -2.9860 -1.0261 -1.3361
 3865TIP3    H211560   1.243   0.888   4.351  1.1465  0.1525  1.5704
 3866TIP3   OH211561   5.590   2.302   1.846  0.2420  0.0325  0.3303
 3866TIP3    H111562   5.611   2.381   1.797  0.2157  1.2130  2.1110
 3866TIP3    H211563   5.664   2.291   1.907 -1.1995  0.5452  2.2645
 3867TIP3   OH211564   3.572   5.371   2.396  0.4718  0.4508  0.0961
 3867TIP3    H111565   3.572   5.361   2.491  0.0176 -0.7885 -0.0046
 3867TIP3    H211566   3.635   5.306   2.365  0.5110  0.7467 -0.4535
 3868TIP3   OH211567   5.762   5.390   2.598  0.4043  0.2232  0.0252
 3868TIP3    H111568   5.671   5.367   2.619  1.1750 -3.2701  0.0497
 3868TIP3    H211569   5.777   5.352   2.512  2.1525 -0.1872  0.4738
 3869TIP3   OH211570   2.739   4.013   3.446 -0.2044  0.6202 -0.3174
 3869TIP3    H111571   2.786   4.016   3.529 -0.5276 -0.9580 -0.0495
 3869TIP3    H211572   2.666   4.074   3.457  1.3627  2.6319 -0.5212
 3870TIP3   OH211573   3.116   2.722   1.563 -0.4498  0.3860 -0.3089
 3870TIP3    H111574   3.196   2.712   1.510 -0.2712 -1.4168  0.2330
 3870TIP3    H211575   3.144   2.773   1.639 -0.4261  1.9224 -1.3011
 3871TIP3   OH211576   1.476   0.830   3.981 -0.4068  0.1369  0.4853
 3871TIP3    H111577   1.469   0.764   3.911 -1.5726  1.0662 -0.3014
 3871TIP3    H211578   1.389   0.834   4.019 -0.2778  1.0565  0.6863
 3872TIP3   OH211579   0.377   4.019   3.515 -0.2521  0.0227 -0.5759
 3872TIP3    H111580   0.307   4.071   3.554 -0.7823 -0.2241 -1.1626
 3872TIP3    H211581   0.365   3.931   3.552 -0.2015  0.0035 -0.6046
 3873TIP3   OH211582   4.984   4.919   2.403 -0.3600  0.0449  0.5846
 3873TIP3    H111583   4.985   4.981   2.476 -0.5449  1.6583 -0.7267
 3873TIP3    H211584   4.900   4.935   2.359 -0.7933 -1.7361  0.6652
 3874TIP3   OH211585   3.392   4.255   3.124  0.4598 -0.3035  0.6168
 3874TIP3    H111586   3.337   4.295   3.057 -0.4088 -0.8855  0.9557
 3874TIP3    H211587   3.465   4.217   3.076  0.4149  0.2331  0.1230
 3875TIP3   OH211588   4.059   4.246   0.586 -0.3591 -0.6755 -0.0258
 3875TIP3    H111589   4.109   4.206   0.658  0.3299 -2.6814 -1.5434
 3875TIP3    H211590   4.093   4.205   0.507 -2.3075  0.1826 -1.3870
 3876TIP3   OH211591   0.738   5.861   3.485 -0.4366 -0.1885  0.0989
 3876TIP3    H111592   0.658   5.910   3.503 -0.1229  0.9731 -1.5134
 3876TIP3    H211593   0.799   5.888   3.555 -0.9940 -0.0185  0.5273
 3877TIP3   OH211594   2.990   1.533   2.179 -0.0821  0.2928 -0.1730
 3877TIP3    H111595   3.034   1.567   2.101 -0.2128  0.0137 -0.3687
 3877TIP3    H211596   2.952   1.611   2.220  0.2866  0.4892 -0.1936
 3878TIP3   OH211597   0.882   3.056   3.136 -0.4367 -0.2330 -0.5832
 3878TIP3    H111598   0.918   3.144   3.150 -0.8947  0.0920 -1.3745
 3878TIP3    H211599   0.943   2.998   3.181 -0.5838  0.5527  0.6938
 3879TIP3   OH211600   0.046   3.204   4.888 -0.2183 -0.1998  0.0198
 3879TIP3    H111601  -0.014   3.272   4.859 -0.7000 -0.7842 -0.3601
 3879TIP3    H211602   0.011   3.176   4.973  1.1638  1.4775  1.2328
 3880TIP3   OH211603   6.343   2.400   5.263 -0.4863 -0.2316  0.1189
 3880TIP3    H111604   6.252   2.376   5.247 -0.4987 -0.0166 -0.1295
 3880TIP3    H211605   6.340   2.493   5.282 -0.2328 -0.0806 -0.5806
 3881TIP3   OH211606   4.915   0.672   2.586 -0.0319 -0.2000 -0.4343
 3881TIP3    H111607   4.993   0.650   2.536  0.7461 -1.2317  1.1492
 3881TIP3    H211608   4.890   0.759   2.555  2.2041  0.4822 -0.4448
 3882TIP3   OH211609   0.991   3.140   0.266  0.0494 -0.1465 -0.5986
 3882TIP3    H111610   0.987   3.180   0.179 -0.7755  0.6773 -0.2032
 3882TIP3    H211611   0.923   3.073   0.264  1.5001 -1.6523 -1.2948
 3883TIP3   OH211612   0.689   1.183   3.540 -0.3638 -0.0678 -0.1449
 3883TIP3    H111613   0.779   1.188   3.507  0.0999 -2.0161  0.7391
 3883TIP3    H211614   0.689   1.239   3.618  0.0977 -0.1407 -0.0901
 3884TIP3   OH211615   5.999   6.242   3.303  0.5013  0.0798  0.2930
 3884TIP3    H111616   5.917   6.194   3.317  0.3533  0.2497  0.0204
 3884TIP3    H211617   5.971   6.331   3.284  0.7624  0.1924  0.4375
 3885TIP3   OH211618   6.502   1.437   0.749  1.2055  0.1469 -0.4308
 3885TIP3    H111619   6.494   1.343   0.735  3.2333  0.1571 -2.0518
 3885TIP3    H211620   6.500   1.447   0.844  1.0049 -1.5273 -0.2272
 3886TIP3   OH211621   2.650   6.712   1.808 -0.4849 -0.0619 -0.3013
 3886TIP3    H111622   2.606   6.753   1.733  1.7909  1.2377 -1.0629
 3886TIP3    H211623   2.581   6.696   1.871 -1.9891  2.3877 -1.1608
 3887TIP3   OH211624   5.712   1.592   2.575 -0.4532  0.5626  0.3402
 3887TIP3    H111625   5.644   1.533   2.608  0.4427  0.3217  1.8889
 3887TIP3    H211626   5.672   1.636   2.501 -1.5682 -1.1162 -0.1261
 3888TIP3   OH211627   6.664   2.662   2.614  0.0107  0.1550  0.3962
 3888TIP3    H111628   6.713   2.606   2.674  0.1397 -0.9355 -0.7008
 3888TIP3    H211629   6.640   2.605   2.541  0.9708  1.7312 -1.2324
 3889TIP3   OH211630   5.070   4.103   5.659 -0.1963  0.5093 -0.0085
 3889TIP3    H111631   5.016   4.112   5.737 -1.2546  1.4979 -0.8208
 3889TIP3    H211632   5.106   4.190   5.645  0.2632  0.2549 -0.4376
 3890TIP3   OH211633   2.239   4.299   0.441 -0.3078 -0.0006 -0.7418
 3890TIP3    H111634   2.222   4.253   0.359 -0.3200 -0.1642 -0.6481
 3890TIP3    H211635   2.300   4.370   0.418  0.2623 -0.4899 -0.7621
 3891TIP3   OH211636  -0.011   0.598   5.578  0.2061  0.3048 -0.5514
 3891TIP3    H111637  -0.056   0.654   5.514  0.4796  1.8219  0.5233
 3891TIP3    H211638   0.072   0.576   5.535 -0.1567  0.2250 -1.2299
 3892TIP3   OH211639   3.383   1.248   4.835 -0.2479  0.2279  0.3639
 3892TIP3    H111640   3.449   1.206   4.781 -0.5747 -1.6385  1.3115
 3892TIP3    H211641   3.317   1.179   4.850 -1.3035  1.3710  1.2179
 3893TIP3   OH211642   0.953   0.343   3.858 -0.3515 -0.2749 -0.0243
 3893TIP3    H111643   1.008   0.388   3.922 -0.9428  1.1820 -0.4957
 3893TIP3    H211644   0.956   0.251   3.884  1.2647 -0.0536  0.7128
 3894TIP3   OH211645   3.577   1.101   4.283 -0.2646  0.2634  0.1785
 3894TIP3    H111646   3.643   1.133   4.344 -1.4277  1.1742  1.0044
 3894TIP3    H211647   3.574   1.167   4.214 -1.3841  1.0356  0.9445
 3895TIP3   OH211648   6.819   4.250   5.035  0.6694  0.0074 -0.4183
 3895TIP3    H111649   6.728   4.275   5.019 -0.1028 -0.5435  2.5797
 3895TIP3    H211650   6.857   4.326   5.079  1.0562 -0.5397  0.1992
 3896TIP3   OH211651   6.970   6.695   1.454 -0.0984  0.4945  0.6942
 3896TIP3    H111652   6.989   6.771   1.507 -1.0476  2.5893 -1.7578
 3896TIP3    H211653   6.895   6.653   1.496 -1.0509  2.2838  0.8662
 3897TIP3   OH211654   5.973   4.426   5.856  0.1240 -0.4085  0.0680
 3897TIP3    H111655   6.050   4.370   5.846  0.3512  0.2227 -2.7003
 3897TIP3    H211656   5.911   4.374   5.906  1.6161 -1.7266  0.6167
 3898TIP3   OH211657   3.021   5.742   5.843  0.1307  0.2390 -0.1541
 3898TIP3    H111658   3.100   5.731   5.790  1.3105  1.6903  1.1958
 3898TIP3    H211659   2.960   5.789   5.786  0.5762 -0.0868 -0.9159
 3899TIP3   OH211660   1.716   0.415   4.520  0.5954 -0.0927  0.3585
 3899TIP3    H111661   1.705   0.399   4.427  1.8482 -0.2762  0.2238
 3899TIP3    H211662   1.808   0.394   4.537  0.3999  0.0093  1.6173
 3900TIP3   OH211663   1.617   3.411   0.864 -0.4996 -0.4478  0.2591
 3900TIP3    H111664   1.578   3.469   0.929 -1.7740  0.0483 -0.8803
 3900TIP3    H211665   1.544   3.356   0.835  0.0970 -0.8410 -0.5395
 3901TIP3   OH211666   3.830   3.878   4.451  0.0526  0.4089  0.0130
 3901TIP3    H111667   3.921   3.889   4.423 -0.0267 -1.4751 -1.1332
 3901TIP3    H211668   3.823   3.930   4.531  1.7552  1.6752 -0.5971
 3902TIP3   OH211669   5.054   1.824   1.663 -0.1917 -0.4270  0.7314
 3902TIP3    H111670   5.093   1.799   1.747  0.2057 -0.9583  0.3933
 3902TIP3    H211671   4.976   1.769   1.655 -0.7054  0.2267  1.1398
 3903TIP3   OH211672   2.094   4.356   4.669 -0.3918  0.3188 -0.1318
 3903TIP3    H111673   2.020   4.365   4.608  0.8690 -2.0883 -2.2339
 3903TIP3    H211674   2.171   4.381   4.617  0.8260 -2.5659  0.0778
 3904TIP3   OH211675   2.439   0.801   4.576  0.3858  0.3481  0.1607
 3904TIP3    H111676   2.425   0.797   4.670  1.2479 -1.0637  0.2624
 3904TIP3    H211677   2.366   0.752   4.539 -0.1412  1.1936  0.0547
 3905TIP3   OH211678   3.974   4.493   0.070 -0.1317  0.8067  0.4084
 3905TIP3    H111679   3.893   4.540   0.091 -0.8547 -0.3386  0.2605
 3905TIP3    H211680   3.958   4.457  -0.018 -0.0225 -0.6158  0.9544
 3906TIP3   OH211681   5.314   0.475   4.840 -0.1028 -0.6225 -0.2253
 3906TIP3    H111682   5.387   0.414   4.832  0.4684  0.0078  0.0311
 3906TIP3    H211683   5.311   0.520   4.756 -0.1555 -0.6112 -0.2173
 3907TIP3   OH211684   2.994   0.239   0.810  0.1690  0.0622 -0.0395
 3907TIP3    H111685   2.944   0.247   0.728  1.8733  0.6658 -1.0880
 3907TIP3    H211686   3.024   0.149   0.811 -2.4346 -0.8912  1.5824
 3908TIP3   OH211687   3.895   3.076   5.049  0.1230 -0.0880  0.0093
 3908TIP3    H111688   3.966   3.030   5.005  2.1171 -0.1102  2.9729
 3908TIP3    H211689   3.900   3.165   5.015 -0.8730 -0.8888 -2.4584
 3909TIP3   OH211690   0.976   3.977   3.621  0.2773  0.1534  0.5959
 3909TIP3    H111691   1.011   3.913   3.559 -0.0315 -1.1234  1.6970
 3909TIP3    H211692   1.019   3.957   3.704 -0.0656  1.1799  1.0440
 3910TIP3   OH211693   6.022   0.533   3.759  0.4179 -0.4523  0.4509
 3910TIP3    H111694   6.017   0.620   3.720  0.6473 -0.3941  0.5505
 3910TIP3    H211695   6.044   0.550   3.851  1.3228 -0.6498  0.2827
 3911TIP3   OH211696   2.985   3.223   5.844  0.0602  0.1141  0.0986
 3911TIP3    H111697   2.932   3.154   5.884 -1.4838  1.8573  1.2698
 3911TIP3    H211698   3.039   3.256   5.916 -0.4330  1.2041 -0.0144
 3912TIP3   OH211699   0.199   0.817   0.460  0.1994 -0.0608  0.2171
 3912TIP3    H111700   0.168   0.869   0.385 -1.3659 -1.3737 -0.1104
 3912TIP3    H211701   0.264   0.758   0.422 -1.1109 -1.2307 -0.3441
 3913TIP3   OH211702   6.840   2.947   3.102  0.0774  0.0552 -0.2516
 3913TIP3    H111703   6.801   2.865   3.073  1.0123 -0.3679 -0.3594
 3913TIP3    H211704   6.934   2.934   3.091  0.2261  1.2375 -0.5213
 3914TIP3   OH211705   6.364   1.676   1.138 -0.4893  0.7681  0.1335
 3914TIP3    H111706   6.375   1.751   1.196  0.2073  0.0940  0.9000
 3914TIP3    H211707   6.376   1.600   1.194 -4.4340 -0.0737  0.0879
 3915TIP3   OH211708   3.986   3.722   1.764  0.2600 -0.2028  0.4372
 3915TIP3    H111709   4.047   3.768   1.821  1.7843 -2.2564  0.5743
 3915TIP3    H211710   3.921   3.685   1.824 -0.9701  1.6672  0.3258
 3916TIP3   OH211711   4.108   1.507   4.284  0.0338 -0.7859 -0.0609
 3916TIP3    H111712   4.122   1.435   4.222 -1.6576 -1.7037  0.5663
 3916TIP3    H211713   4.064   1.575   4.232  0.1725 -0.8540 -0.2688
 3917TIP3   OH211714   3.579   5.122   5.542 -0.1322 -0.6632 -1.1176
 3917TIP3    H111715   3.590   5.209   5.579  2.9441 -2.1918  2.1298
 3917TIP3    H211716   3.654   5.111   5.484 -0.2562 -1.3413 -1.1531
 3918TIP3   OH211717   4.265   6.497   0.280  0.5044  0.2432  0.4024
 3918TIP3    H111718   4.194   6.551   0.312  0.6559  0.3639  0.5377
 3918TIP3    H211719   4.222   6.429   0.228  0.2844  0.2616  0.5573
 3919TIP3   OH211720   2.742   2.626   4.467 -0.1842 -0.0342  0.4311
 3919TIP3    H111721   2.769   2.619   4.558 -0.2212 -1.5112  0.3479
 3919TIP3    H211722   2.722   2.719   4.455  1.2838  0.4624  1.5019
 3920TIP3   OH211723   4.187   4.401   0.207 -0.2581  0.4026  0.5458
 3920TIP3    H111724   4.102   4.430   0.175 -0.4236 -2.5066 -2.0486
 3920TIP3    H211725   4.172   4.313   0.241  1.8071 -0.5174 -0.7554
 3921TIP3   OH211726   4.109   3.220   4.685  0.1564  0.0503  0.1608
 3921TIP3    H111727   4.035   3.226   4.625 -0.0273  1.3878  0.4749
 3921TIP3    H211728   4.086   3.279   4.757  1.9576  1.3626 -0.2465
 3922TIP3   OH211729   3.053   6.473   4.836  0.8251 -0.6233  0.3160
 3922TIP3    H111730   2.975   6.431   4.802 -0.3186  2.1267 -0.7725
 3922TIP3    H211731   3.023   6.521   4.913  1.8413 -0.9107  0.9163
 3923TIP3   OH211732   5.828   6.484   0.618  0.0603 -0.1781  0.0699
 3923TIP3    H111733   5.843   6.390   0.621 -0.8231 -0.3192  0.1034
 3923TIP3    H211734   5.879   6.514   0.542 -0.1890 -0.7798 -0.3370
 3924TIP3   OH211735   3.863   1.406   3.442 -0.0895 -0.2899 -0.1018
 3924TIP3    H111736   3.801   1.444   3.380 -0.6323  2.3024  1.8398
 3924TIP3    H211737   3.808   1.370   3.512  0.5473 -1.6406 -0.2654
 3925TIP3   OH211738   5.401   5.704   2.108  0.4343 -0.1334  0.2349
 3925TIP3    H111739   5.395   5.609   2.109 -0.6138 -0.1294 -1.4274
 3925TIP3    H211740   5.494   5.722   2.109  0.6410 -1.1574  0.9901
 3926TIP3   OH211741   1.465   5.491   2.496  0.7392 -0.1207  0.2886
 3926TIP3    H111742   1.408   5.562   2.466  0.1118 -1.2320 -1.3283
 3926TIP3    H211743   1.545   5.534   2.524 -0.1840  1.3305  0.8081
 3927TIP3   OH211744   3.570   0.105   2.613 -0.7572 -0.3066 -0.5208
 3927TIP3    H111745   3.573   0.197   2.587  1.5797  0.2152  1.3274
 3927TIP3    H211746   3.639   0.063   2.562 -1.1890 -0.8523 -0.6676
 3928TIP3   OH211747   6.514   2.236   3.265  0.0593  0.1259  0.4264
 3928TIP3    H111748   6.530   2.272   3.177 -1.5018 -1.5472 -0.6363
 3928TIP3    H211749   6.449   2.295   3.304 -1.9262 -0.9744 -1.0041
 3929TIP3   OH211750   2.862   3.101   2.539 -0.3181 -0.1343  0.2209
 3929TIP3    H111751   2.937   3.128   2.485 -0.3066  0.6679  0.6190
 3929TIP3    H211752   2.789   3.094   2.478 -0.2646  0.5894  0.0709
 3930TIP3   OH211753   4.113   2.804   3.748 -0.1270 -0.3384  0.1701
 3930TIP3    H111754   4.035   2.830   3.797  0.0194 -0.0556  0.2575
 3930TIP3    H211755   4.123   2.872   3.682  0.1888 -0.2361  0.3187
 3931TIP3   OH211756   0.613   4.643   5.173  0.0703 -0.0766 -0.2753
 3931TIP3    H111757   0.529   4.631   5.216  0.3429  1.2014  0.6807
 3931TIP3    H211758   0.631   4.737   5.180  1.0909 -0.1569 -1.3820
 3932TIP3   OH211759   4.391   5.693   1.112  0.4768 -0.0908  0.1537
 3932TIP3    H111760   4.315   5.732   1.154 -0.1298  2.4328 -2.8478
 3932TIP3    H211761   4.463   5.752   1.135  0.5252  0.1987 -0.7063
 3933TIP3   OH211762   1.701   0.094   1.924 -0.0715 -0.0302 -0.2617
 3933TIP3    H111763   1.733   0.043   1.850 -0.3530  0.2514 -0.5804
 3933TIP3    H211764   1.684   0.029   1.992  0.2760 -0.2795 -0.4102
 3934TIP3   OH211765   0.349   5.153   4.722 -0.1418 -0.1697 -0.0341
 3934TIP3    H111766   0.323   5.204   4.645  0.9905 -0.3004 -0.5222
 3934TIP3    H211767   0.387   5.073   4.687  5.0400  1.7733  0.2784
 3935TIP3   OH211768   6.223   1.650   2.022 -0.0259 -0.3174 -0.3191
 3935TIP3    H111769   6.142   1.600   2.009 -0.1560 -0.7382  1.6681
 3935TIP3    H211770   6.262   1.656   1.935 -2.6891  0.8150 -1.5570
 3936TIP3   OH211771   4.888   1.398   1.494 -0.0680  0.1638 -0.2489
 3936TIP3    H111772   4.984   1.404   1.498 -0.0477 -0.2928  0.0648
 3936TIP3    H211773   4.872   1.313   1.452 -0.3376  0.3446 -0.5198
 3937TIP3   OH211774   5.253   2.036   0.237 -0.5686 -0.2901  0.4172
 3937TIP3    H111775   5.161   2.014   0.250  0.0867 -3.0359  1.1749
 3937TIP3    H211776   5.287   2.053   0.325  0.3504 -2.9317  0.6823
 3938TIP3   OH211777   4.741   5.048   3.211  0.8607 -0.0039  0.1030
 3938TIP3    H111778   4.763   5.141   3.209  0.7732  0.0222  0.4047
 3938TIP3    H211779   4.742   5.025   3.304  0.2188 -0.1507  0.0732
 3939TIP3   OH211780   5.016   3.325   2.824 -0.4467 -0.6076 -0.0504
 3939TIP3    H111781   5.028   3.251   2.884  1.1207 -0.2253  0.1417
 3939TIP3    H211782   5.017   3.285   2.737 -0.6672 -0.9185  0.0837
 3940TIP3   OH211783   0.546   4.503   0.855 -0.1485 -0.3641  0.3261
 3940TIP3    H111784   0.524   4.499   0.761 -0.5955 -1.2302  0.4589
 3940TIP3    H211785   0.476   4.454   0.898 -0.9144  1.4695  1.2989
 3941TIP3   OH211786   2.895   6.562   0.610 -0.2169 -0.3992 -0.0689
 3941TIP3    H111787   2.899   6.467   0.616  2.6709 -0.2721  2.3259
 3941TIP3    H211788   2.852   6.590   0.690 -1.2188  0.3612 -0.8419
 3942TIP3   OH211789   4.017   6.518   4.770 -0.1746  0.2699  0.0008
 3942TIP3    H111790   4.058   6.490   4.688 -1.8804  1.2689 -1.2668
 3942TIP3    H211791   3.988   6.436   4.811 -1.8736 -0.1528 -1.8719
 3943TIP3   OH211792   2.900   3.798   5.818  0.1785 -0.1157 -0.4644
 3943TIP3    H111793   2.984   3.818   5.860  0.4567 -2.6939  0.3559
 3943TIP3    H211794   2.915   3.717   5.769 -2.0837 -1.3143  0.6444
 3944TIP3   OH211795   1.396   4.802   2.700 -0.4654 -0.5000 -0.3173
 3944TIP3    H111796   1.367   4.738   2.765 -1.3875 -0.3268 -0.5427
 3944TIP3    H211797   1.361   4.769   2.617  0.9671 -0.8854 -0.7867
 3945TIP3   OH211798   4.861   4.914   4.739  0.1042  0.4433 -0.0331
 3945TIP3    H111799   4.882   4.880   4.651  1.7781  1.3093  0.0042
 3945TIP3    H211800   4.929   4.978   4.757  0.1008 -0.0855  2.1320
 3946TIP3   OH211801   6.388   3.342   3.503 -0.5847  0.0864  0.5386
 3946TIP3    H111802   6.305   3.327   3.457 -0.9004 -0.4278  1.2642
 3946TIP3    H211803   6.434   3.259   3.497 -1.1836 -0.4170  2.2412
 3947TIP3   OH211804   3.957   3.414   5.801  0.5241  0.1729  0.1063
 3947TIP3    H111805   3.979   3.333   5.756  0.7136  0.6470 -0.6855
 3947TIP3    H211806   4.042   3.454   5.822  0.4356  0.3287  0.1711
 3948TIP3   OH211807   3.946   1.706   4.985 -0.5288  0.1548  0.5324
 3948TIP3    H111808   3.904   1.620   4.987  0.8821 -0.5661  2.2176
 3948TIP3    H211809   3.993   1.708   4.902 -0.0154 -1.0271  0.7680
 3949TIP3   OH211810   1.967   0.532   5.584 -0.0845  0.1430 -0.2398
 3949TIP3    H111811   1.882   0.487   5.583 -0.1909  0.3399 -0.2240
 3949TIP3    H211812   2.030   0.465   5.561 -0.4599  0.4008 -2.2644
 3950TIP3   OH211813   4.341   0.407   5.681 -0.1031  0.5236 -0.6471
 3950TIP3    H111814   4.417   0.380   5.733 -0.1366  0.1227 -0.8058
 3950TIP3    H211815   4.347   0.355   5.601 -2.1720 -1.7925  0.5438
 3951TIP3   OH211816   6.353  -0.017   5.170 -0.2387 -0.0448 -0.1643
 3951TIP3    H111817   6.419  -0.038   5.235 -1.4400 -1.6727  0.6138
 3951TIP3    H211818   6.352   0.079   5.166  0.3314  0.0768  1.7271
 3952TIP3   OH211819   3.259   6.198   2.362 -0.9921  0.2461  0.9093
 3952TIP3    H111820   3.316   6.168   2.432  0.3090 -1.4943 -0.7740
 3952TIP3    H211821   3.310   6.266   2.318  0.4035 -1.9796 -1.1990
 3953TIP3   OH211822   2.688   2.339   2.943 -0.0982 -0.0187  0.2448
 3953TIP3    H111823   2.672   2.399   2.869  0.0042  0.3912  0.5489
 3953TIP3    H211824   2.602   2.328   2.984  0.0141  0.5458  0.6507
 3954TIP3   OH211825   3.055   5.811   3.994  0.4243  0.0125  0.0349
 3954TIP3    H111826   3.133   5.838   3.946  0.2863  2.2078  0.9291
 3954TIP3    H211827   3.071   5.841   4.084 -0.9731 -0.5214  0.4825
 3955TIP3   OH211828   4.602   4.341   2.051 -0.0477  1.0111 -0.0450
 3955TIP3    H111829   4.627   4.303   2.135  1.4126 -2.1692 -1.7553
 3955TIP3    H211830   4.507   4.330   2.047  0.0576 -0.2291  0.5536
 3956TIP3   OH211831   6.634   4.076   2.056  0.2803 -0.2951 -0.4822
 3956TIP3    H111832   6.701   4.058   1.990 -0.9065 -1.2821 -1.4516
 3956TIP3    H211833   6.551   4.070   2.008 -0.5719 -0.3503  0.9614
 3957TIP3   OH211834   5.026   1.756   4.796 -0.0927 -0.1874 -0.1167
 3957TIP3    H111835   5.056   1.827   4.739  0.2185 -0.0007  0.2770
 3957TIP3    H211836   4.930   1.757   4.788 -0.0374 -0.4355 -0.9608
 3958TIP3   OH211837   5.419   0.210   1.210  1.1347 -0.6809  0.0687
 3958TIP3    H111838   5.357   0.144   1.177 -0.6958 -0.1458  2.2095
 3958TIP3    H211839   5.426   0.273   1.139  0.1443 -1.3756 -0.6886
 3959TIP3   OH211840   7.113   6.479   0.255 -0.4801  0.9537  0.2181
 3959TIP3    H111841   7.077   6.471   0.167 -0.6077  0.3869  0.3168
 3959TIP3    H211842   7.207   6.489   0.241 -0.4762  0.6713  0.0190
 3960TIP3   OH211843   4.762   1.158   4.831 -0.0239 -0.0697  0.3515
 3960TIP3    H111844   4.776   1.179   4.739 -0.6893  1.7498  0.6307
 3960TIP3    H211845   4.790   1.067   4.840  1.3212  0.1498 -1.3429
 3961TIP3   OH211846   2.846   6.187   3.315  0.1279 -1.0154  0.2043
 3961TIP3    H111847   2.846   6.102   3.270 -0.2391 -0.4605 -0.8748
 3961TIP3    H211848   2.813   6.167   3.403  0.5444 -2.0690  0.1400
 3962TIP3   OH211849   1.852   4.479   0.180  0.0429 -0.3410  1.0598
 3962TIP3    H111850   1.901   4.518   0.252 -0.6100  1.7196  0.4751
 3962TIP3    H211851   1.860   4.543   0.109 -3.4060  0.1178  0.9153
 3963TIP3   OH211852   0.030   0.294   5.747  0.2389 -0.1950  0.3303
 3963TIP3    H111853  -0.056   0.327   5.720  1.2712  1.7492 -0.7847
 3963TIP3    H211854   0.073   0.271   5.665  1.5531  0.8857  0.6904
 3964TIP3   OH211855   6.522   6.231   2.878 -0.0447 -0.1283  0.3670
 3964TIP3    H111856   6.454   6.164   2.882 -0.2219  0.0557  0.3835
 3964TIP3    H211857   6.546   6.236   2.786  0.9455 -1.2069  0.5412
 3965TIP3   OH211858   1.781   1.981   3.069 -0.1907  0.0624 -0.1727
 3965TIP3    H111859   1.848   1.913   3.064 -0.1540 -0.1821  2.2336
 3965TIP3    H211860   1.782   2.009   3.161 -1.0258  2.5000 -0.8298
 3966TIP3   OH211861   1.357   1.302   4.194 -0.1739 -0.7932 -0.4067
 3966TIP3    H111862   1.309   1.239   4.140 -0.5612 -1.9945  1.2590
 3966TIP3    H211863   1.440   1.259   4.212  0.5950  0.2716 -1.3166
 3967TIP3   OH211864   1.027   0.307   3.078  0.1880  0.5394  0.5602
 3967TIP3    H111865   1.115   0.296   3.043  0.0233 -0.2295  0.3816
 3967TIP3    H211866   1.039   0.311   3.173  0.2696 -1.1481  0.6383
 3968TIP3   OH211867   0.049   3.804   0.726 -0.0773  0.1649  0.0955
 3968TIP3    H111868   0.097   3.722   0.717  2.2482  1.4386  0.0299
 3968TIP3    H211869   0.020   3.806   0.817  2.1203  0.3748  0.8427
 3969TIP3   OH211870   0.797   3.460   5.753 -0.3256 -0.4742 -0.1325
 3969TIP3    H111871   0.752   3.377   5.746 -1.8437  0.3285 -0.3017
 3969TIP3    H211872   0.729   3.526   5.739  0.6122  0.8259  1.0796
 3970TIP3   OH211873   0.558   1.373   4.104 -1.1143 -0.4691 -0.4114
 3970TIP3    H111874   0.537   1.280   4.095 -2.9578 -0.0607 -0.6992
 3970TIP3    H211875   0.547   1.409   4.016 -0.0014 -0.0280 -0.3895
 3971TIP3   OH211876   5.600   5.434   3.643 -0.1119  0.3249 -0.1591
 3971TIP3    H111877   5.510   5.465   3.635 -0.0485  0.0963 -2.4384
 3971TIP3    H211878   5.599   5.375   3.718 -1.8046  0.4939 -0.0221
 3972TIP3   OH211879   5.555   4.797   4.965  0.0513  0.0609 -0.6105
 3972TIP3    H111880   5.613   4.731   4.926  0.1164 -1.3176  1.6356
 3972TIP3    H211881   5.481   4.747   4.999 -1.1529  1.4884 -1.0215
 3973TIP3   OH211882   1.544   0.597   5.684  0.0225 -0.3972  0.2805
 3973TIP3    H111883   1.456   0.636   5.683  0.5808  1.0144 -1.8272
 3973TIP3    H211884   1.582   0.624   5.768 -1.5416 -1.0834  1.2532
 3974TIP3   OH211885   2.865   4.691   5.503  0.2099  0.0162  0.1430
 3974TIP3    H111886   2.898   4.611   5.462  1.0708  0.2964  0.2688
 3974TIP3    H211887   2.823   4.662   5.583  0.5741 -0.3139  0.2193
 3975TIP3   OH211888   4.872   4.206   3.107 -0.4512  0.1473 -0.1428
 3975TIP3    H111889   4.823   4.184   3.028 -2.8332 -1.3532  1.6020
 3975TIP3    H211890   4.933   4.275   3.080 -0.5441 -0.9050 -3.4186
 3976TIP3   OH211891   0.713   0.470   0.406 -0.2095 -0.0304  0.0950
 3976TIP3    H111892   0.787   0.500   0.459  1.9117 -1.8892 -1.6162
 3976TIP3    H211893   0.642   0.457   0.469  2.0696 -1.8709  2.5048
 3977TIP3   OH211894   4.344   2.543   0.642 -0.1302 -0.4057  0.2269
 3977TIP3    H111895   4.418   2.596   0.613 -0.4896  0.5495  0.9943
 3977TIP3    H211896   4.286   2.539   0.565 -0.0169  0.1781  0.1047
 3978TIP3   OH211897   0.689   2.989   5.084  0.5361  0.1884 -0.4846
 3978TIP3    H111898   0.604   3.015   5.118  0.8373 -0.0415  0.4560
 3978TIP3    H211899   0.672   2.909   5.035  0.5077 -0.9711  1.3427
 3979TIP3   OH211900   3.657   1.352   3.617 -0.3003  0.0600  0.5536
 3979TIP3    H111901   3.563   1.346   3.598 -0.4157  0.6860  0.8865
 3979TIP3    H211902   3.661   1.388   3.706  0.2518 -0.0101  0.5594
 3980TIP3   OH211903   2.286   4.872   5.280  0.3024  0.1232 -0.7175
 3980TIP3    H111904   2.212   4.932   5.290  0.5542  0.3882 -0.4198
 3980TIP3    H211905   2.313   4.883   5.189  1.7508  2.1462 -0.1184
 3981TIP3   OH211906   5.651   5.615   0.770 -0.4924  0.1435  0.3528
 3981TIP3    H111907   5.703   5.688   0.738  0.2411 -0.6450 -0.3165
 3981TIP3    H211908   5.582   5.604   0.705  0.5213 -0.9412 -0.6016
 3982TIP3   OH211909   4.763   1.816   3.382 -0.4310  0.3354 -0.1770
 3982TIP3    H111910   4.698   1.832   3.450  1.2503  1.4017  1.2879
 3982TIP3    H211911   4.846   1.806   3.431  0.9145  1.5567 -2.0825
 3983TIP3   OH211912   0.623   4.273   1.497 -0.5021  0.1888  0.4750
 3983TIP3    H111913   0.564   4.251   1.425 -0.5693  1.3899  0.1360
 3983TIP3    H211914   0.644   4.366   1.483  0.6026  0.0654  1.2059
 3984TIP3   OH211915   5.819   5.471   4.634 -0.1594  0.2301 -0.0576
 3984TIP3    H111916   5.790   5.525   4.707 -1.7396 -0.3804 -0.2019
 3984TIP3    H211917   5.802   5.381   4.662  0.2743 -0.0729 -0.7375
 3985TIP3   OH211918   3.290   6.476   0.395  0.0572 -0.0626 -0.5476
 3985TIP3    H111919   3.260   6.446   0.309  3.0560  0.0580 -1.7589
 3985TIP3    H211920   3.281   6.400   0.452 -0.6866 -0.5577 -1.3045
 3986TIP3   OH211921   0.585   4.055   1.987 -0.3456 -0.2572 -0.4530
 3986TIP3    H111922   0.671   4.077   2.021 -0.5381 -0.6249  0.3029
 3986TIP3    H211923   0.583   4.093   1.899  0.5236 -0.1181 -0.4210
 3987TIP3   OH211924   2.975   1.122   5.483 -0.0481  0.2719  0.0249
 3987TIP3    H111925   3.047   1.060   5.475 -1.7991 -1.9998  0.6480
 3987TIP3    H211926   2.959   1.129   5.578 -0.9441  0.3590 -0.1203
 3988TIP3   OH211927   2.319   1.690   5.200 -0.3508 -0.3604 -0.3268
 3988TIP3    H111928   2.320   1.605   5.245 -0.4120 -0.4142 -0.4274
 3988TIP3    H211929   2.227   1.715   5.199 -0.2076  0.2540  0.7344
 3989TIP3   OH211930   4.505   6.004   5.495  0.2623  0.1436 -0.1689
 3989TIP3    H111931   4.453   6.049   5.561 -0.0315  0.4636 -0.6143
 3989TIP3    H211932   4.441   5.954   5.444  0.1692  1.7185 -1.6766
 3990TIP3   OH211933   6.665   5.167   2.834 -0.0513 -0.0092  0.4365
 3990TIP3    H111934   6.604   5.107   2.790  0.4367 -0.3133  0.1687
 3990TIP3    H211935   6.608   5.233   2.875 -0.5812 -0.4682  0.4607
 3991TIP3   OH211936   2.804   1.623   5.704 -0.0905 -0.0201  0.6415
 3991TIP3    H111937   2.840   1.600   5.790  0.7509 -1.8363 -0.1571
 3991TIP3    H211938   2.797   1.719   5.706  0.4556  0.0164  2.5147
 3992TIP3   OH211939   4.435   6.210   0.553  0.1214 -0.1691  0.0377
 3992TIP3    H111940   4.354   6.243   0.514  0.3576  0.0238 -0.3014
 3992TIP3    H211941   4.498   6.281   0.541 -0.1582  0.4875  2.0788
 3993TIP3   OH211942   5.481   4.450   5.202 -0.0066 -0.1050 -0.2042
 3993TIP3    H111943   5.538   4.373   5.199  0.5009  0.2759 -0.4917
 3993TIP3    H211944   5.541   4.524   5.214 -0.1167  0.5783 -3.0507
 3994TIP3   OH211945   3.235   3.542   2.998  0.1907  0.6462 -0.2077
 3994TIP3    H111946   3.165   3.558   2.934  1.0678 -0.3448 -1.4624
 3994TIP3    H211947   3.315   3.568   2.952  0.8354 -0.0880  0.4968
 3995TIP3   OH211948   3.314   0.905   3.768 -0.1480  0.0785 -0.1977
 3995TIP3    H111949   3.311   0.825   3.716 -0.9468 -1.2246  1.7142
 3995TIP3    H211950   3.399   0.944   3.750  0.4395 -1.4595 -0.8298
 3996TIP3   OH211951   6.651   0.677   2.369  0.6176 -0.5759  0.0048
 3996TIP3    H111952   6.666   0.765   2.335 -0.6601 -0.2369  0.2829
 3996TIP3    H211953   6.697   0.676   2.453  2.4881 -0.9163 -0.9691
 3997TIP3   OH211954   5.793   2.780   1.616 -0.5095  0.2659 -0.0217
 3997TIP3    H111955   5.752   2.797   1.532  1.2416  0.4024 -0.8973
 3997TIP3    H211956   5.868   2.840   1.619  0.4412 -0.9080  0.8709
 3998TIP3   OH211957   4.102   0.598   4.134  0.7696  0.2689 -0.3317
 3998TIP3    H111958   4.063   0.532   4.190 -1.3315  1.2410 -0.5600
 3998TIP3    H211959   4.170   0.551   4.085  0.8266 -1.1848  1.0678
 3999TIP3   OH211960   2.921   4.677   1.764  0.1554 -0.0244 -0.2204
 3999TIP3    H111961   2.845   4.701   1.711  1.1670 -0.5697 -2.0093
 3999TIP3    H211962   2.908   4.584   1.783  0.3401 -0.1172 -0.5239
 4000TIP3   OH211963   1.810   4.606   4.870 -0.6718  0.4210 -0.2298
 4000TIP3    H111964   1.791   4.546   4.798  0.5575  1.0326 -1.1091
 4000TIP3    H211965   1.834   4.688   4.827 -0.6569  1.0340  0.9041
 4001TIP3   OH211966   4.803   1.386   5.694 -0.4122 -0.2133  0.2034
 4001TIP3    H111967   4.872   1.415   5.752 -0.0762  1.6880 -1.0580
 4001TIP3    H211968   4.839   1.309   5.650  0.4423  0.0489  0.4309
 4002TIP3   OH211969   2.652   5.458   2.992 -0.2644  0.1521 -0.0112
 4002TIP3    H111970   2.564   5.485   2.966 -0.2208 -0.9813 -1.4565
 4002TIP3    H211971   2.698   5.540   3.011 -1.0552  0.8843 -1.1732
 4003TIP3   OH211972   6.605   3.810   3.588 -0.1019 -0.8732  0.0467
 4003TIP3    H111973   6.576   3.719   3.594  0.8668 -1.1380  0.8681
 4003TIP3    H211974   6.552   3.856   3.653  1.7515 -1.4992  2.1178
 4004TIP3   OH211975   6.416   3.732   4.324  0.0331  0.4969 -0.7239
 4004TIP3    H111976   6.496   3.759   4.370  0.6549  1.3136 -2.1946
 4004TIP3    H211977   6.345   3.768   4.377  0.7857  3.2217 -1.3980
 4005TIP3   OH211978   3.660   5.010   4.962 -0.4960 -0.0601 -0.0893
 4005TIP3    H111979   3.704   5.010   4.877 -0.5983  0.8156 -0.1500
 4005TIP3    H211980   3.577   5.056   4.946 -0.7266 -0.2967  0.3842
 4006TIP3   OH211981   2.381   5.117   0.035 -0.0708 -0.0946  0.1739
 4006TIP3    H111982   2.292   5.082   0.029 -0.6437  1.3381 -0.2391
 4006TIP3    H211983   2.401   5.147  -0.054  0.9480 -0.6633  0.2032
 4007TIP3   OH211984   2.709   1.527   4.220  0.4088 -0.3508  0.0467
 4007TIP3    H111985   2.722   1.578   4.140  1.9438  0.3405  0.7027
 4007TIP3    H211986   2.715   1.436   4.191  0.2647 -0.1257 -0.7253
 4008TIP3   OH211987   3.365   5.430   3.679 -0.1820  0.1447 -0.0503
 4008TIP3    H111988   3.313   5.350   3.688  0.7542 -0.3082  2.0266
 4008TIP3    H211989   3.307   5.500   3.707 -1.0978  0.3000 -2.1383
 4009TIP3   OH211990   1.352   3.128   0.408 -0.3369 -0.3515  0.7804
 4009TIP3    H111991   1.403   3.047   0.414 -1.7785 -1.2103  2.2015
 4009TIP3    H211992   1.416   3.194   0.380  1.4114 -1.4839  1.8721
 4010TIP3   OH211993   2.774   6.140   4.567 -0.3090  0.2811  0.5033
 4010TIP3    H111994   2.700   6.091   4.533  0.5766 -1.6026  1.0993
 4010TIP3    H211995   2.787   6.211   4.505 -2.3590  0.4421  0.1992
 4011TIP3   OH211996   4.429   2.258   2.354  0.5081  0.0312 -0.0201
 4011TIP3    H111997   4.397   2.191   2.414  0.8721 -0.8390 -0.7766
 4011TIP3    H211998   4.519   2.275   2.383 -0.1988  1.6765  1.4140
 4012TIP3   OH211999   3.950   3.035   0.304  0.3617  0.6871 -0.1593
 4012TIP3    H112000   3.976   3.073   0.220 -0.9474 -0.7330 -1.2627
 4012TIP3    H212001   3.860   3.066   0.316  0.2728  0.2385  0.3244
 4013TIP3   OH212002   6.816   5.502   4.371  0.0001 -0.1897  0.5169
 4013TIP3    H112003   6.862   5.504   4.455 -0.3573 -0.0139  0.7128
 4013TIP3    H212004   6.770   5.586   4.366  2.1286  0.9794 -1.0903
 4014TIP3   OH212005   5.998   4.201   5.550 -0.0747 -0.0800 -0.7024
 4014TIP3    H112006   6.033   4.215   5.462 -0.1718 -0.4898 -0.8108
 4014TIP3    H212007   5.931   4.269   5.561 -0.7424 -0.6145 -1.3259
 4015TIP3   OH212008   6.411   0.628   5.533 -0.3383 -0.0523  0.3673
 4015TIP3    H112009   6.397   0.715   5.570  2.7161  0.6011  0.2514
 4015TIP3    H212010   6.493   0.636   5.485  0.2584 -3.1138  0.6961
 4016TIP3   OH212011   6.260   5.007   0.159 -0.1024 -0.3675  0.1110
 4016TIP3    H112012   6.321   5.045   0.096  0.4942 -2.2121 -0.4783
 4016TIP3    H212013   6.282   5.048   0.243  0.6549  0.3853 -0.4505
 4017TIP3   OH212014   2.423   5.280   1.444  0.1779 -0.1777 -0.1810
 4017TIP3    H112015   2.372   5.361   1.442 -0.5198 -0.5892 -2.5405
 4017TIP3    H212016   2.378   5.225   1.508  0.2769  1.0329  0.9684
 4018TIP3   OH212017   1.349   2.168   5.874 -0.0549 -0.0073  0.2939
 4018TIP3    H112018   1.262   2.164   5.834 -1.7270  1.9317  3.3664
 4018TIP3    H212019   1.371   2.261   5.875  2.0689 -0.4466 -0.3172
 4019TIP3   OH212020   5.463   1.814   5.650 -0.0762 -0.2257  0.3621
 4019TIP3    H112021   5.556   1.818   5.672  0.1631 -1.3969 -0.3352
 4019TIP3    H212022   5.420   1.864   5.719  1.1293  1.0236  0.2582
 4020TIP3   OH212023   1.754   2.577   1.681 -0.0064  0.2411  0.2367
 4020TIP3    H112024   1.662   2.564   1.702 -0.1583 -1.3543 -1.1982
 4020TIP3    H212025   1.757   2.663   1.638 -0.9083  0.1355 -0.0676
 4021TIP3   OH212026   5.536   3.879   4.633 -0.0560 -0.5051  0.1070
 4021TIP3    H112027   5.623   3.894   4.595  0.4436 -1.2695  0.9189
 4021TIP3    H212028   5.553   3.857   4.724 -1.2993  2.7932  1.3036
 4022TIP3   OH212029   3.862   4.131   1.018 -0.3554 -0.4357  0.3932
 4022TIP3    H112030   3.798   4.139   1.089  0.3674 -1.0240  1.1418
 4022TIP3    H212031   3.810   4.111   0.941 -1.3312  1.8860  0.3549
 4023TIP3   OH212032   1.134   3.279   3.062  0.3395  0.2936 -0.6304
 4023TIP3    H112033   1.050   3.320   3.081 -0.4808 -1.4082 -0.3856
 4023TIP3    H212034   1.194   3.315   3.128 -0.3728  0.9929 -0.3532
 4024TIP3   OH212035   5.882   2.529   1.898 -0.6564  0.5001 -0.0525
 4024TIP3    H112036   5.855   2.610   1.941 -1.2753 -0.1403  0.7959
 4024TIP3    H212037   5.978   2.532   1.898 -0.6023  2.5634 -2.6468
 4025TIP3   OH212038   5.335   4.651   3.885  0.3178 -0.1098  0.0811
 4025TIP3    H112039   5.280   4.592   3.937  0.4746  1.1573  1.7751
 4025TIP3    H212040   5.289   4.735   3.888  1.6460  0.6291  0.3875
 4026TIP3   OH212041   0.960   0.684   0.513  0.5413 -0.2687 -0.3781
 4026TIP3    H112042   0.946   0.677   0.607 -0.6403 -0.2599 -0.5425
 4026TIP3    H212043   0.939   0.775   0.492 -0.3235 -0.5608 -0.8191
 4027TIP3   OH212044   4.855   6.354   1.733  0.3446 -0.2253  0.4701
 4027TIP3    H112045   4.891   6.420   1.793  1.3764 -0.7415  0.4498
 4027TIP3    H212046   4.802   6.404   1.671  0.1428  0.4406  1.1633
 4028TIP3   OH212047   2.884   5.878   2.482  0.1855 -0.6517  0.0267
 4028TIP3    H112048   2.819   5.933   2.526 -0.1372 -0.7985 -0.2614
 4028TIP3    H212049   2.841   5.849   2.402  0.5692 -0.8401 -0.1144
 4029TIP3   OH212050   1.829   1.587   3.449  0.4219 -0.3105 -0.0120
 4029TIP3    H112051   1.771   1.515   3.425  2.9560 -1.5927 -3.1217
 4029TIP3    H212052   1.900   1.546   3.499  0.6672  0.4648  0.2966
 4030TIP3   OH212053   1.445   5.701   2.828  0.2979  0.3010  0.4907
 4030TIP3    H112054   1.442   5.610   2.855  0.4663  0.1781  0.1006
 4030TIP3    H212055   1.419   5.750   2.906  1.7461  0.0102  1.1903
 4031TIP3   OH212056   5.129   6.656   0.510 -0.7741 -0.0777  0.0560
 4031TIP3    H112057   5.139   6.569   0.470 -0.9936 -0.3545  0.6022
 4031TIP3    H212058   5.036   6.661   0.534 -0.2896 -0.6563  2.2300
 4032TIP3   OH212059   5.841   2.563   4.614  0.1320  0.4417  0.3189
 4032TIP3    H112060   5.798   2.518   4.687  0.1236 -0.9784 -0.5295
 4032TIP3    H212061   5.773   2.574   4.548  0.8389 -1.1950 -0.7516
 4033TIP3   OH212062   6.270   4.472   1.464  0.1186 -0.3526 -0.4900
 4033TIP3    H112063   6.242   4.514   1.545 -1.0773 -0.4200 -0.8455
 4033TIP3    H212064   6.188   4.445   1.422  0.7679 -1.3337 -1.1742
 4034TIP3   OH212065   3.497   5.035   5.798 -0.5635 -0.8524 -0.3807
 4034TIP3    H112066   3.510   5.054   5.705 -0.1160 -2.4101 -0.6611
 4034TIP3    H212067   3.410   4.994   5.802 -0.8324 -0.2631 -0.0183
 4035TIP3   OH212068   6.090   0.609   4.021 -0.0366 -0.0475  0.4285
 4035TIP3    H112069   6.163   0.669   4.005  0.3349 -0.2210  1.3714
 4035TIP3    H212070   6.123   0.550   4.089 -0.9778 -0.2763  0.6957
 4036TIP3   OH212071   1.459   6.114   4.448  0.4469  0.1503 -0.5765
 4036TIP3    H112072   1.545   6.155   4.458  0.5466 -0.3428  0.8046
 4036TIP3    H212073   1.446   6.066   4.530 -0.9581 -0.1390 -0.9488
 4037TIP3   OH212074   3.471   6.641   2.435 -0.3187 -0.2886 -0.5276
 4037TIP3    H112075   3.528   6.679   2.502  1.2445 -1.2950 -1.2317
 4037TIP3    H212076   3.431   6.716   2.392  1.7060  0.5507 -1.0360
 4038TIP3   OH212077   0.043   3.321   1.857 -0.2026 -0.0455 -0.5893
 4038TIP3    H112078   0.002   3.265   1.923  1.5157 -0.6772 -0.0083
 4038TIP3    H212079   0.129   3.282   1.842  0.7138  1.9361 -0.8036
 4039TIP3   OH212080   0.617   3.205   0.521 -0.5991  0.2513 -0.1366
 4039TIP3    H112081   0.529   3.235   0.497 -0.0179  1.1935 -1.1987
 4039TIP3    H212082   0.661   3.283   0.554  0.2420  0.1056 -0.8524
 4040TIP3   OH212083   1.813   6.500   4.280  0.4295 -0.2821  0.4624
 4040TIP3    H112084   1.756   6.571   4.309  2.0314  1.3141 -0.0894
 4040TIP3    H212085   1.861   6.536   4.205  2.8439 -1.1486  1.4781
 4041TIP3   OH212086   1.229   2.367   0.973  0.5123 -0.0184 -0.5052
 4041TIP3    H112087   1.292   2.395   1.039 -0.0897 -1.2693  0.6572
 4041TIP3    H212088   1.144   2.399   1.005  0.2276 -0.5317 -0.7277
 4042TIP3   OH212089   1.770   4.857   4.735 -0.3875 -0.1380 -0.0749
 4042TIP3    H112090   1.692   4.820   4.693  0.5000  0.3873 -2.3249
 4042TIP3    H212091   1.796   4.929   4.678  1.6325 -0.1615  0.7330
 4043TIP3   OH212092   5.370   2.309   4.810 -0.4411  0.6348  0.5521
 4043TIP3    H112093   5.277   2.302   4.832 -0.2999  0.2083  1.0443
 4043TIP3    H212094   5.415   2.275   4.887  0.1047  0.1063  0.0080
 4044TIP3   OH212095   5.093   1.354   4.068 -0.8024 -0.0088 -0.0207
 4044TIP3    H112096   5.046   1.272   4.055 -1.8906  0.3588  1.2817
 4044TIP3    H212097   5.119   1.381   3.981 -1.0684 -1.3691 -0.5472
 4045TIP3   OH212098   4.051   0.548   3.420 -1.0286 -0.1109  0.1999
 4045TIP3    H112099   4.078   0.470   3.469  2.0997  1.4206  1.1728
 4045TIP3    H212100   3.986   0.589   3.477  1.1578  0.6332  2.3763
 4046TIP3   OH212101   3.364   4.428   2.869  0.2575  0.7182 -0.0293
 4046TIP3    H112102   3.311   4.431   2.789  1.6817 -0.8912 -1.1065
 4046TIP3    H212103   3.454   4.442   2.838  0.7291  1.1028  1.4468
 4047TIP3   OH212104   5.875   2.994   1.314 -0.4674  0.1128  0.0129
 4047TIP3    H112105   5.934   3.014   1.387 -1.1203 -2.2828  1.2783
 4047TIP3    H212106   5.793   3.037   1.336 -0.8892 -1.2092  1.0983
 4048TIP3   OH212107   2.472   2.689   2.913 -0.1678 -0.1719 -0.1962
 4048TIP3    H112108   2.536   2.646   2.856  1.7713  0.9183  1.0343
 4048TIP3    H212109   2.521   2.711   2.992 -2.2927  0.0535  1.1406
 4049TIP3   OH212110   2.873   6.376   0.819 -0.5471  0.2783 -0.3412
 4049TIP3    H112111   2.894   6.282   0.826  0.4963  0.5675  0.7823
 4049TIP3    H212112   2.857   6.403   0.910  0.1241  1.3938 -0.5457
 4050TIP3   OH212113   0.816   1.014   2.194  0.2030 -0.1241 -0.4778
 4050TIP3    H112114   0.907   0.988   2.206  1.4539  2.6562 -2.6395
 4050TIP3    H212115   0.805   1.089   2.254 -0.1586  0.4597 -1.2530
 4051TIP3   OH212116   3.975   4.031   4.003  0.0913 -0.5746 -0.3852
 4051TIP3    H112117   3.966   4.112   4.054  1.9768 -0.1367 -0.6773
 4051TIP3    H212118   4.042   4.051   3.938 -1.2458 -1.5897 -2.1502
 4052TIP3   OH212119   0.224   3.837   1.498  0.0790 -0.1817 -0.0568
 4052TIP3    H112120   0.172   3.773   1.448  0.6068 -1.6261  1.1647
 4052TIP3    H212121   0.166   3.865   1.569  1.1563 -2.5987  1.9508
 4053TIP3   OH212122   3.563   4.212   2.675  0.2048  0.3475  0.0581
 4053TIP3    H112123   3.607   4.202   2.590  3.2504 -0.3270  1.5937
 4053TIP3    H212124   3.575   4.304   2.697  0.9073  0.1550  0.4953
 4054TIP3   OH212125   0.117   3.754   5.839  0.0673  0.0439 -0.2822
 4054TIP3    H112126   0.091   3.683   5.781  1.5190 -1.6588  1.0359
 4054TIP3    H212127   0.035   3.796   5.863 -0.6548  0.1041 -2.6245
 4055TIP3   OH212128   6.528   3.632   5.399  0.0197  0.0605 -0.0059
 4055TIP3    H112129   6.504   3.631   5.492  0.5817 -0.0466  0.1436
 4055TIP3    H212130   6.556   3.722   5.382  2.7559 -0.5517  0.7039
 4056TIP3   OH212131   0.111   2.135   4.623  0.2676  0.0468 -0.8365
 4056TIP3    H112132   0.027   2.156   4.582 -0.2696 -1.2678 -0.4687
 4056TIP3    H212133   0.130   2.209   4.680 -0.5700  0.4150 -1.0251
 4057TIP3   OH212134   0.100   4.813   0.766  0.7086  0.3823 -0.3281
 4057TIP3    H112135   0.014   4.850   0.747  1.4120  1.5770 -1.3413
 4057TIP3    H212136   0.096   4.723   0.733 -0.3421  0.2306  0.2029
 4058TIP3   OH212137   2.462   3.332   1.008  0.2496  0.3271 -0.3954
 4058TIP3    H112138   2.544   3.283   0.997 -0.3845 -0.8010 -0.2244
 4058TIP3    H212139   2.397   3.283   0.957 -0.0971  1.8648 -1.5087
 4059TIP3   OH212140   1.689   3.780   0.942  0.0132 -0.3858  0.4953
 4059TIP3    H112141   1.750   3.792   0.869  1.4095  0.4085  1.7217
 4059TIP3    H212142   1.684   3.867   0.983 -2.5697 -0.2289  0.0200
 4060TIP3   OH212143   3.874   6.211   0.175  0.0110 -0.0207 -0.2876
 4060TIP3    H112144   3.843   6.287   0.126 -1.0182 -0.3676 -0.1915
 4060TIP3    H212145   3.863   6.137   0.115  1.2203 -0.0881 -0.4641
 4061TIP3   OH212146   6.822   5.576   0.747  0.5919 -0.1559 -0.6231
 4061TIP3    H112147   6.735   5.578   0.705  0.3672  2.1367 -0.1764
 4061TIP3    H212148   6.875   5.521   0.689 -1.1030 -1.5123 -0.9691
 4062TIP3   OH212149   2.459   5.580   0.001 -0.5534 -0.5914  0.2498
 4062TIP3    H112150   2.437   5.666   0.035  4.0851  2.0373 -2.4572
 4062TIP3    H212151   2.524   5.545   0.063 -1.5872 -1.7171  0.7398
 4063TIP3   OH212152   5.063   6.484   3.707  0.1943 -0.6732 -0.0836
 4063TIP3    H112153   5.066   6.396   3.744  1.5243 -0.5797  0.0790
 4063TIP3    H212154   5.075   6.542   3.782  0.8963 -0.4123 -0.3916
 4064TIP3   OH212155   6.650   6.045   0.609 -0.2185 -0.1168  0.6219
 4064TIP3    H112156   6.616   6.119   0.558  1.0155  1.9023  2.5061
 4064TIP3    H212157   6.580   6.025   0.671  0.0647  0.6737  1.2222
 4065TIP3   OH212158   1.825   0.520   1.121  0.4071 -0.2246  0.4270
 4065TIP3    H112159   1.772   0.466   1.063  1.7250 -0.2151 -0.8400
 4065TIP3    H212160   1.775   0.601   1.132 -0.7324 -0.9654  0.8712
 4066TIP3   OH212161   5.805   6.321   5.506 -0.4709  0.3896  0.6723
 4066TIP3    H112162   5.900   6.328   5.501 -0.5538  0.9998 -1.4884
 4066TIP3    H212163   5.788   6.250   5.567  1.4733 -1.5747 -0.9043
 4067TIP3   OH212164   0.222   2.687   1.010 -0.0396  0.1028 -0.3947
 4067TIP3    H112165   0.204   2.660   1.100  0.6043  0.7004 -0.0786
 4067TIP3    H212166   0.162   2.634   0.957 -1.0835  0.3994  0.4409
 4068TIP3   OH212167   5.326   0.009   4.028  0.0274 -0.3035 -0.0405
 4068TIP3    H112168   5.395  -0.049   4.062  1.5165  1.4326  0.0611
 4068TIP3    H212169   5.334   0.089   4.081 -1.1198  0.4733 -1.0008
 4069TIP3   OH212170   1.328   6.534   2.216 -0.7033 -0.3285  0.3383
 4069TIP3    H112171   1.375   6.456   2.185  1.3080  1.5953 -1.7762
 4069TIP3    H212172   1.391   6.579   2.272 -1.7569 -0.0462  1.3324
 4070TIP3   OH212173   4.220   2.527   2.885 -0.4366  0.4960  0.2046
 4070TIP3    H112174   4.161   2.562   2.819 -0.2540  0.6461  0.1188
 4070TIP3    H212175   4.251   2.444   2.849  0.7925  1.2551 -0.5656
 4071TIP3   OH212176   6.893   2.807   5.305  0.0789 -0.0122  0.2465
 4071TIP3    H112177   6.963   2.872   5.298  0.1502 -0.0497  0.5953
 4071TIP3    H212178   6.915   2.757   5.383  0.2718 -0.7520 -0.2747
 4072TIP3   OH212179   0.815   0.438   4.297 -0.2600 -0.4594  0.2394
 4072TIP3    H112180   0.888   0.474   4.348  0.1665  0.0711 -0.7283
 4072TIP3    H212181   0.811   0.492   4.219 -1.0035 -1.1762 -0.2363
 4073TIP3   OH212182   5.205   4.001   0.430  0.2623 -0.0649  0.4670
 4073TIP3    H112183   5.224   3.930   0.370 -0.7213  0.3829 -0.4058
 4073TIP3    H212184   5.120   4.035   0.402  0.9728  1.8566  0.4423
 4074TIP3   OH212185   0.036   2.858   2.318  0.2342 -0.0030 -0.6169
 4074TIP3    H112186   0.081   2.934   2.280  0.7463  0.8717  1.6032
 4074TIP3    H212187  -0.032   2.896   2.374 -0.3073 -1.2250 -0.4120
 4075TIP3   OH212188   6.939   3.119   1.891  0.2543  0.4978 -0.5485
 4075TIP3    H112189   6.887   3.068   1.953 -0.7029  1.2103 -0.7345
 4075TIP3    H212190   7.028   3.085   1.900 -0.3986 -1.4656 -0.9402
 4076TIP3   OH212191   1.067   4.164   0.181  0.6296  0.8106  0.2924
 4076TIP3    H112192   1.090   4.244   0.228  0.9150  0.1135  1.3777
 4076TIP3    H212193   1.011   4.116   0.242 -1.3720  1.1543 -1.1863
 4077TIP3   OH212194   5.936   6.607   0.103 -0.5638 -0.1160  0.2104
 4077TIP3    H112195   6.006   6.569   0.049 -0.7475  0.7420 -0.6660
 4077TIP3    H212196   5.858   6.556   0.081 -1.1545  1.6121 -2.1069
 4078TIP3   OH212197   2.459   5.351   3.903 -0.2027  0.2606 -0.2065
 4078TIP3    H112198   2.364   5.343   3.892  0.0370 -0.6668 -1.9483
 4078TIP3    H212199   2.470   5.408   3.980 -2.1482 -0.4778  0.6736
 4079TIP3   OH212200   4.524   3.484   0.608  0.3262 -0.1700 -0.0087
 4079TIP3    H112201   4.498   3.498   0.699  1.0484 -0.7085  0.2867
 4079TIP3    H212202   4.583   3.556   0.588  0.9509 -0.6027  0.2670
 4080TIP3   OH212203   4.040   0.510   2.260 -0.0276  0.1338  0.4278
 4080TIP3    H112204   4.030   0.554   2.344 -0.6243 -0.0462  0.4554
 4080TIP3    H212205   4.130   0.477   2.261 -0.3898 -0.8814  1.4843
 4081TIP3   OH212206   4.058   0.382   3.874  0.5468  0.3565  0.1669
 4081TIP3    H112207   4.006   0.440   3.930  0.3046  0.1149  0.1965
 4081TIP3    H212208   3.995   0.351   3.808 -0.1169 -2.1634  1.8189
 4082TIP3   OH212209   3.844   0.240   1.250 -0.7653  0.5745 -0.2625
 4082TIP3    H112210   3.810   0.218   1.163 -0.2738 -0.3206 -0.2423
 4082TIP3    H212211   3.916   0.178   1.264 -2.4854 -1.1132  1.8783
 4083TIP3   OH212212   0.010   5.774   5.210  0.6978  0.1994 -0.6178
 4083TIP3    H112213  -0.077   5.785   5.170  0.2210  5.7051  1.1466
 4083TIP3    H212214   0.070   5.772   5.135 -0.6434  2.6061 -1.8863
 4084TIP3   OH212215   3.322   4.590   5.735 -0.1030  0.7131  0.1660
 4084TIP3    H112216   3.311   4.509   5.784  1.6104  1.1198  1.3093
 4084TIP3    H212217   3.266   4.579   5.658  1.1425 -2.1406 -0.4671
 4085TIP3   OH212218   4.485   2.927   2.495 -0.1893  0.2394  0.0803
 4085TIP3    H112219   4.537   2.895   2.421  1.4689 -0.4873  1.4859
 4085TIP3    H212220   4.451   2.848   2.537  1.0636  0.4470  1.5686
 4086TIP3   OH212221   4.768   6.471   0.270 -0.2981  0.4143  0.6059
 4086TIP3    H112222   4.778   6.438   0.181  0.0272  1.7372  0.1352
 4086TIP3    H212223   4.677   6.501   0.275 -0.7870 -1.0864  1.2391
 4087TIP3   OH212224   6.103   0.149   4.886 -0.0658  0.3985 -0.5639
 4087TIP3    H112225   6.175   0.211   4.899  0.9933 -0.8039 -0.5066
 4087TIP3    H212226   6.146   0.067   4.862 -1.3268 -0.7005  0.7311
 4088TIP3   OH212227   3.887   1.272   2.764  0.6390  0.4172 -0.1855
 4088TIP3    H112228   3.799   1.236   2.753 -0.1514  1.3424  2.4883
 4088TIP3    H212229   3.934   1.244   2.685 -2.5505  1.5104 -2.6975
 4089TIP3   OH212230   1.874   4.693   5.129  1.2206 -0.0428 -0.4133
 4089TIP3    H112231   1.886   4.788   5.130 -0.3012  0.1855 -0.5589
 4089TIP3    H212232   1.856   4.673   5.037 -2.0874  0.1128  0.0738
 4090TIP3   OH212233   5.204   0.354   0.371  0.3111  0.1737  0.1662
 4090TIP3    H112234   5.247   0.312   0.296  2.3542  1.4224  0.5417
 4090TIP3    H212235   5.129   0.400   0.333  1.2602  0.7161 -1.1578
 4091TIP3   OH212236   3.806   2.910   4.848  0.0745 -0.1969  0.1924
 4091TIP3    H112237   3.803   2.987   4.905  1.0749  0.7617 -0.9924
 4091TIP3    H212238   3.826   2.838   4.908 -0.6701  0.4763  1.3014
 4092TIP3   OH212239   1.046   4.630   3.161 -0.2400 -0.2177  0.9765
 4092TIP3    H112240   0.965   4.600   3.120  0.0966 -0.1469  0.2386
 4092TIP3    H212241   1.111   4.564   3.138  0.4871  0.9785 -0.5894
 4093TIP3   OH212242   0.757   5.464   1.751 -0.4137 -0.2289  0.0381
 4093TIP3    H112243   0.799   5.549   1.769 -1.5861  0.4932 -0.5309
 4093TIP3    H212244   0.736   5.467   1.658  0.3700 -1.5566 -0.2093
 4094TIP3   OH212245   6.237   5.630   1.702 -0.5397 -0.0406 -0.1290
 4094TIP3    H112246   6.179   5.564   1.664  0.5432 -0.6582 -0.7673
 4094TIP3    H212247   6.199   5.649   1.788 -2.4078  0.5450 -1.0238
 4095TIP3   OH212248   3.760   3.740   3.083 -0.4781  0.2676 -0.1695
 4095TIP3    H112249   3.806   3.684   3.146 -2.2950 -1.1232  0.0235
 4095TIP3    H212250   3.773   3.695   2.999 -0.8247  0.2975 -0.2372
 4096TIP3   OH212251   3.923   1.265   4.145 -0.5037 -0.3011 -0.2310
 4096TIP3    H112252   4.013   1.234   4.131 -0.5293 -1.0116  1.0703
 4096TIP3    H212253   3.869   1.187   4.133 -0.7855 -0.2511  0.6590
 4097TIP3   OH212254   4.642   2.496   1.622  0.1291  0.2889 -0.5682
 4097TIP3    H112255   4.716   2.512   1.680  0.2274 -0.0550 -0.5957
 4097TIP3    H212256   4.681   2.462   1.542 -0.1626 -1.9916  0.1729
 4098TIP3   OH212257   1.899   3.004   1.651  0.0961  0.4192 -0.1555
 4098TIP3    H112258   1.958   3.013   1.726 -0.2255  1.0321  0.0269
 4098TIP3    H212259   1.839   3.078   1.658  0.6969  1.0898 -1.5944
 4099TIP3   OH212260   2.140   0.969   2.595 -0.4074 -0.3409  0.2028
 4099TIP3    H112261   2.190   1.047   2.621 -1.3492  0.3392  0.0103
 4099TIP3    H212262   2.140   0.914   2.673 -0.0708  0.0272  0.4667
 4100TIP3   OH212263   5.563   1.877   0.313  0.1336 -0.0374  0.0045
 4100TIP3    H112264   5.657   1.863   0.325  0.0571 -0.2199  0.4115
 4100TIP3    H212265   5.524   1.854   0.397 -0.1010  1.8169  0.4371
 4101TIP3   OH212266   4.468   1.242   4.363 -0.0411  0.3789 -0.5065
 4101TIP3    H112267   4.443   1.330   4.336 -1.6253 -0.6154 -2.5783
 4101TIP3    H212268   4.514   1.205   4.287 -1.4341 -1.3068 -0.6109
 4102TIP3   OH212269   0.691   2.261   0.785  0.1517 -0.0157  0.3925
 4102TIP3    H112270   0.767   2.301   0.828 -0.3078  0.4992  0.7390
 4102TIP3    H212271   0.668   2.188   0.842  0.7488 -0.5488 -0.0319
 4103TIP3   OH212272   5.770   1.043   4.083 -0.3711 -0.8936  0.0260
 4103TIP3    H112273   5.822   0.964   4.094 -0.1644 -0.7503  0.0663
 4103TIP3    H212274   5.687   1.023   4.128  0.5836 -0.1682  2.2245
 4104TIP3   OH212275   4.448   5.377   0.255 -0.3977  1.1538 -0.0028
 4104TIP3    H112276   4.356   5.381   0.228  0.1348  0.3354 -2.1167
 4104TIP3    H212277   4.492   5.440   0.198  0.3437  1.6704  1.1182
 4105TIP3   OH212278   2.023   3.788   3.602 -0.4380 -0.2610  0.6870
 4105TIP3    H112279   1.938   3.821   3.576  0.3329  0.3735 -1.1735
 4105TIP3    H212280   2.065   3.861   3.648  0.1405  0.4012 -0.8459
 4106TIP3   OH212281   1.875   3.803   4.910  0.1958 -0.0100 -0.3430
 4106TIP3    H112282   1.875   3.708   4.903 -0.8122 -0.1055  0.6014
 4106TIP3    H212283   1.905   3.821   4.999 -1.0237  0.4631  0.0031
 4107TIP3   OH212284   0.692   4.787   5.733  0.6434  0.7092 -0.0368
 4107TIP3    H112285   0.647   4.871   5.730  1.1465  0.9988  0.3808
 4107TIP3    H212286   0.775   4.806   5.775  1.9485  0.5494 -2.3482
 4108TIP3   OH212287   4.993   1.925   0.240 -0.1988 -0.3418  0.3014
 4108TIP3    H112288   4.916   1.981   0.240  0.6157  0.8285 -0.1374
 4108TIP3    H212289   4.969   1.851   0.184 -1.3741 -0.5600  1.0674
 4109TIP3   OH212290   0.072   4.134   4.600  0.3364  0.0918  0.2593
 4109TIP3    H112291   0.054   4.142   4.693  0.0612  0.5417  0.1727
 4109TIP3    H212292   0.037   4.214   4.562 -0.9698 -0.7619 -0.4393
 4110TIP3   OH212293   4.794   0.145   0.425 -0.3515 -0.0686 -0.4274
 4110TIP3    H112294   4.797   0.143   0.521 -1.6932 -2.0171 -0.3749
 4110TIP3    H212295   4.839   0.226   0.402 -0.3522  0.6646  1.8603
 4111TIP3   OH212296   6.471   2.433   1.269 -0.3763  0.4541 -0.1269
 4111TIP3    H112297   6.555   2.478   1.262  0.7454 -1.0020  2.4763
 4111TIP3    H212298   6.412   2.484   1.213  1.7648  2.6061 -0.6216
 4112TIP3   OH212299   0.368   3.481   3.707  0.0072  0.7009  0.5853
 4112TIP3    H112300   0.289   3.428   3.707  0.8300 -0.5961 -0.1848
 4112TIP3    H212301   0.388   3.494   3.800 -0.6570  0.3489  0.7828
 4113TIP3   OH212302   0.601   1.021   3.766 -0.5275 -0.2736  1.2684
 4113TIP3    H112303   0.617   1.050   3.676 -2.0587  0.8530  1.3170
 4113TIP3    H212304   0.617   1.100   3.819 -0.8746 -0.5852  1.8463
 4114TIP3   OH212305   0.133   6.402   2.423  0.0199  0.0016 -0.2356
 4114TIP3    H112306   0.220   6.430   2.451 -0.1408 -0.2112  0.5019
 4114TIP3    H212307   0.118   6.448   2.341  0.1821  1.3091  0.4346
 4115TIP3   OH212308   5.456   0.933   0.859 -0.0279 -0.1702  0.6786
 4115TIP3    H112309   5.450   0.974   0.946  0.6448 -0.8466  1.0523
 4115TIP3    H212310   5.376   0.881   0.852 -1.1184  1.4876  0.0188
 4116TIP3   OH212311   6.876   0.178   5.834  0.0893 -0.1457 -0.3585
 4116TIP3    H112312   6.948   0.115   5.827 -0.1256 -0.3801 -0.4365
 4116TIP3    H212313   6.901   0.249   5.776  0.9549  0.4398  0.6865
 4117TIP3   OH212314   4.860   3.531   1.240  0.6162 -0.6934  0.1415
 4117TIP3    H112315   4.856   3.437   1.257  0.6998 -0.8216 -0.5224
 4117TIP3    H212316   4.793   3.547   1.174  1.8294 -0.6146 -1.1223
 4118TIP3   OH212317   3.559   2.505   0.984 -0.1917 -0.1671 -0.5331
 4118TIP3    H112318   3.492   2.542   0.926 -0.4719  1.9508  1.0330
 4118TIP3    H212319   3.514   2.435   1.031 -1.7623  1.9180  1.2861
 4119TIP3   OH212320   2.898   5.340   3.003  0.4654 -0.2813  0.0255
 4119TIP3    H112321   2.806   5.362   2.986  0.5311 -0.7013 -0.9233
 4119TIP3    H212322   2.922   5.281   2.931  0.8125 -2.0038  1.4876
 4120TIP3   OH212323   1.070   3.332   2.672  0.1072 -0.1172 -0.0744
 4120TIP3    H112324   0.997   3.342   2.611  0.8532 -0.3010 -1.0258
 4120TIP3    H212325   1.079   3.237   2.683 -0.9739 -0.0753  1.5323
 4121TIP3   OH212326   6.758   2.407   2.735 -0.0146  0.3294 -0.0752
 4121TIP3    H112327   6.773   2.318   2.703 -0.0366 -0.2691  1.4804
 4121TIP3    H212328   6.845   2.439   2.760 -0.1535  0.2763  0.4933
 4122TIP3   OH212329   1.878   2.172   5.412 -0.7147 -0.3290 -0.5356
 4122TIP3    H112330   1.841   2.245   5.362 -1.1341  0.1031  0.3772
 4122TIP3    H212331   1.954   2.144   5.360 -1.5138 -0.3427 -1.7481
 4123TIP3   OH212332   2.848   4.963   5.347 -0.0196  0.0971 -0.3544
 4123TIP3    H112333   2.752   4.964   5.338 -0.1094 -0.4859  0.4459
 4123TIP3    H212334   2.866   4.886   5.400  1.0828 -1.1516 -2.4151
 4124TIP3   OH212335   2.743   2.067   5.287  0.0499  0.3684 -0.0036
 4124TIP3    H112336   2.831   2.029   5.283  0.4542  1.2212  0.5318
 4124TIP3    H212337   2.720   2.082   5.196 -0.0504 -0.9849 -0.2200
 4125TIP3   OH212338   6.083   4.900   5.731  0.2935  0.0103 -0.6977
 4125TIP3    H112339   6.018   4.958   5.772  0.4488 -0.0685 -0.3374
 4125TIP3    H212340   6.031   4.829   5.695  0.1218  0.2603 -0.9537
 4126TIP3   OH212341   3.194   4.764   1.654 -0.1180 -0.1701 -0.1745
 4126TIP3    H112342   3.244   4.684   1.670  1.0253  0.7125  0.8440
 4126TIP3    H212343   3.103   4.739   1.672  0.3537 -0.9665  1.2711
 4127TIP3   OH212344   2.154   1.723   1.435  0.0344 -0.4802 -0.0337
 4127TIP3    H112345   2.221   1.778   1.394  0.3640 -1.3443 -0.6620
 4127TIP3    H212346   2.071   1.759   1.403  0.2134  0.0831  0.1110
 4128TIP3   OH212347   0.295   0.883   2.772 -0.5425  0.5863 -0.2181
 4128TIP3    H112348   0.328   0.925   2.692 -0.7163  1.2090  0.0262
 4128TIP3    H212349   0.356   0.910   2.840  0.6872 -1.4480 -0.4380
 4129TIP3   OH212350   1.811   6.722   3.856 -0.1502  0.5155 -0.1059
 4129TIP3    H112351   1.742   6.687   3.911  0.1225 -1.6824 -1.0765
 4129TIP3    H212352   1.853   6.645   3.818  1.2818  1.8760 -1.4123
 4130TIP3   OH212353   6.911   2.454   5.143  0.4233 -0.6018 -0.0238
 4130TIP3    H112354   6.973   2.460   5.070  3.1933 -0.6828  2.1672
 4130TIP3    H212355   6.848   2.525   5.126  2.3386  0.9119 -1.2979
 4131TIP3   OH212356   2.540   2.661   3.765 -0.2732 -0.0011 -0.2813
 4131TIP3    H112357   2.603   2.635   3.697  0.4466 -1.8286  1.0034
 4131TIP3    H212358   2.460   2.681   3.716  0.8517  0.9334 -1.8323
 4132TIP3   OH212359   2.653   5.774   4.237 -0.1159 -0.2223 -0.2575
 4132TIP3    H112360   2.666   5.684   4.206  0.3439 -0.2026 -0.1224
 4132TIP3    H212361   2.588   5.811   4.177  1.0928 -0.0342 -1.4847
 4133TIP3   OH212362   1.923   1.055   2.465  0.2929 -0.4863 -0.2358
 4133TIP3    H112363   1.955   1.102   2.388 -0.1036  0.2270  0.0241
 4133TIP3    H212364   2.002   1.019   2.506  0.4455 -1.5285 -1.3808
 4134TIP3   OH212365   6.183   2.106   3.322  0.0381 -0.4666  0.0630
 4134TIP3    H112366   6.116   2.123   3.256 -1.7766 -1.8729  1.4352
 4134TIP3    H212367   6.208   2.015   3.307 -0.6923 -0.9384  1.5044
 4135TIP3   OH212368   4.978   3.271   4.872  0.1020 -0.0890 -0.0778
 4135TIP3    H112369   4.999   3.349   4.923  0.5860 -0.5661  0.4617
 4135TIP3    H212370   4.884   3.280   4.852  0.0286  0.3580  0.4412
 4136TIP3   OH212371   3.515   5.301   5.024 -0.4822 -0.1371  0.4855
 4136TIP3    H112372   3.528   5.376   4.965  2.9757 -1.1241 -0.2143
 4136TIP3    H212373   3.454   5.244   4.977  0.6555  0.0317 -1.2891
 4137TIP3   OH212374   1.726   6.051   3.730 -0.4567  0.1660 -0.0685
 4137TIP3    H112375   1.767   6.135   3.749 -0.6621  0.3296 -0.3378
 4137TIP3    H212376   1.703   6.015   3.816  1.5267 -0.5980  0.2002
 4138TIP3   OH212377   4.027   0.007   3.266  0.3570 -0.2548 -0.2902
 4138TIP3    H112378   3.977   0.025   3.346 -2.4322 -2.6036 -1.3263
 4138TIP3    H212379   4.026   0.090   3.218 -1.0757  0.2385  0.5383
 4139TIP3   OH212380   2.135   2.744   4.678  0.1728 -0.6668 -0.1444
 4139TIP3    H112381   2.164   2.803   4.747 -2.4257  1.2581 -0.5464
 4139TIP3    H212382   2.126   2.801   4.601 -0.6288 -1.9531 -1.0370
 4140TIP3   OH212383   2.629   5.402   1.111 -0.2269 -0.0455  0.4588
 4140TIP3    H112384   2.554   5.373   1.060 -0.5535 -0.4897  1.1732
 4140TIP3    H212385   2.600   5.485   1.150  0.4629  0.9355 -1.0380
 4141TIP3   OH212386   0.410   6.164   4.793 -0.1774 -0.2966  0.1150
 4141TIP3    H112387   0.380   6.176   4.883 -0.9654 -1.2226 -0.0043
 4141TIP3    H212388   0.377   6.078   4.768  1.7799 -0.9659 -0.3795
 4142TIP3   OH212389   2.745   0.380   4.450  0.3901  0.0021 -0.2991
 4142TIP3    H112390   2.742   0.288   4.477 -0.2385  0.5505  1.6668
 4142TIP3    H212391   2.832   0.390   4.410  0.4181 -1.4663 -0.6487
 4143TIP3   OH212392   0.690   3.616   4.665 -0.2781 -0.1814  0.1476
 4143TIP3    H112393   0.615   3.660   4.706  0.8918  1.3294  0.7241
 4143TIP3    H212394   0.766   3.649   4.711  0.7389 -2.1813 -0.0055
 4144TIP3   OH212395   4.156   1.816   2.212  0.3351 -0.2062  0.2842
 4144TIP3    H112396   4.162   1.804   2.118 -0.3486  1.1649  0.0537
 4144TIP3    H212397   4.226   1.878   2.233 -1.1818  1.6026  0.2466
 4145TIP3   OH212398   5.552   3.621   1.774  0.0508 -0.0945 -0.1440
 4145TIP3    H112399   5.581   3.534   1.803  1.6570  1.2286  2.6068
 4145TIP3    H212400   5.509   3.659   1.851  0.0662  1.8452 -1.0436
 4146TIP3   OH212401   5.134   0.438   5.251 -0.4211  0.1015 -0.2479
 4146TIP3    H112402   5.118   0.425   5.345  0.9577 -0.7291 -0.1134
 4146TIP3    H212403   5.207   0.380   5.230  0.0173  1.0909 -1.6063
 4147TIP3   OH212404   6.665   1.733   1.356 -0.0283  0.4545 -0.0525
 4147TIP3    H112405   6.586   1.682   1.377  0.3178  1.0039  3.0280
 4147TIP3    H212406   6.632   1.806   1.303 -1.4749  0.2058  0.4458
 4148TIP3   OH212407   0.997   0.208   3.600 -0.0023 -0.3109  0.1614
 4148TIP3    H112408   0.975   0.266   3.527 -1.0639 -0.9694 -0.0545
 4148TIP3    H212409   0.986   0.262   3.678 -1.2059 -0.2680 -0.0213
 4149TIP3   OH212410   2.254   3.944   5.769 -0.5293 -0.4173  0.2361
 4149TIP3    H112411   2.255   3.907   5.680 -0.3045  1.4771 -0.5865
 4149TIP3    H212412   2.256   4.039   5.756 -2.9102  0.0046  2.2068
 4150TIP3   OH212413   0.584   5.112   0.132 -0.0206 -0.5304 -0.2563
 4150TIP3    H112414   0.527   5.141   0.203 -0.0335 -0.8380 -0.1387
 4150TIP3    H212415   0.668   5.155   0.148 -0.3707  0.3574 -0.7350
 4151TIP3   OH212416   4.679   2.585   4.756  0.1395  1.0487  0.0610
 4151TIP3    H112417   4.689   2.678   4.774  0.4239  1.5536 -2.3581
 4151TIP3    H212418   4.648   2.547   4.839 -0.2734  3.3138  1.0034
 4152TIP3   OH212419   0.731   3.452   4.456  0.7570  0.2641  0.5217
 4152TIP3    H112420   0.717   3.527   4.515 -1.4118 -0.1159  0.5666
 4152TIP3    H212421   0.741   3.491   4.369 -1.6850  0.6190  0.3385
 4153TIP3   OH212422   2.078   5.640   4.274  0.7694 -0.3938  0.3437
 4153TIP3    H112423   2.158   5.677   4.311  0.9261 -2.3040  2.0205
 4153TIP3    H212424   2.071   5.553   4.311 -0.6555 -1.3512 -1.9193
 4154TIP3   OH212425   2.984   3.307   3.647  0.9737 -0.1042 -0.2471
 4154TIP3    H112426   3.015   3.379   3.592  0.5213  0.0031 -0.3680
 4154TIP3    H212427   2.912   3.345   3.698  0.4981 -0.5596 -0.5679
 4155TIP3   OH212428   6.559   6.503   3.917  0.6563 -0.2551  0.6481
 4155TIP3    H112429   6.553   6.588   3.961 -0.5021  0.4188 -0.7407
 4155TIP3    H212430   6.506   6.445   3.972 -1.6864  0.8307 -0.2996
 4156TIP3   OH212431   3.883   4.486   3.471 -0.2080 -0.4133  0.1628
 4156TIP3    H112432   3.807   4.520   3.423 -1.6582 -0.5728  2.2159
 4156TIP3    H212433   3.956   4.494   3.409 -1.5581  1.2756 -1.3268
 4157TIP3   OH212434   6.099   3.202   1.426 -0.1560 -0.4558  0.0457
 4157TIP3    H112435   6.005   3.221   1.435 -0.3575 -0.7109 -1.3004
 4157TIP3    H212436   6.120   3.227   1.336  1.4044  0.9278  0.7351
 4158TIP3   OH212437   6.404   0.181   2.411 -0.2988  0.1202  0.0923
 4158TIP3    H112438   6.485   0.165   2.363  0.3340 -0.9707  1.4490
 4158TIP3    H212439   6.399   0.277   2.417 -1.0262  0.3947 -3.0553
 4159TIP3   OH212440   7.009   3.983   1.484  0.3710 -0.2427  0.5984
 4159TIP3    H112441   7.006   3.888   1.496  2.3618 -0.2472  1.4475
 4159TIP3    H212442   6.993   4.019   1.571  1.8771  0.1140  0.7507
 4160TIP3   OH212443   0.571   6.403   2.170 -0.3120 -0.3166 -0.4443
 4160TIP3    H112444   0.590   6.419   2.077 -1.3271  1.8730 -0.3552
 4160TIP3    H212445   0.655   6.412   2.214 -0.2479  1.6763 -0.8663
 4161TIP3   OH212446   0.831   6.498   0.551  0.1234 -0.7001  0.0800
 4161TIP3    H112447   0.823   6.591   0.531  1.1413 -0.3647  1.0954
 4161TIP3    H212448   0.926   6.483   0.560 -0.0553 -1.6869  0.5136
 4162TIP3   OH212449   4.248   1.322   1.566  0.4532 -0.5833  0.1990
 4162TIP3    H112450   4.156   1.343   1.585  0.3925 -0.9780  0.3552
 4162TIP3    H212451   4.279   1.397   1.515 -0.6331 -1.4604 -1.8921
 4163TIP3   OH212452   1.980   3.332   1.501 -0.2483 -0.0217 -0.4626
 4163TIP3    H112453   1.889   3.355   1.521 -0.5228 -0.8657 -0.6693
 4163TIP3    H212454   1.999   3.377   1.419  0.3011  2.0375  0.7265
 4164TIP3   OH212455   2.395   2.150   5.155 -0.3342  0.1925 -0.0055
 4164TIP3    H112456   2.379   2.073   5.101  0.7891  0.2119 -0.3984
 4164TIP3    H212457   2.465   2.197   5.110 -0.3382  0.9412  0.7377
 4165TIP3   OH212458   1.738   4.387   4.688 -0.4917  0.0400 -0.6739
 4165TIP3    H112459   1.773   4.372   4.600  1.1078 -1.9615  0.2058
 4165TIP3    H212460   1.644   4.376   4.680 -0.3056 -0.7383 -2.0533
 4166TIP3   OH212461   3.750   2.046   5.539  0.4823  0.2492 -0.0137
 4166TIP3    H112462   3.705   2.104   5.600 -2.1282 -2.2661  0.7133
 4166TIP3    H212463   3.817   2.003   5.592  2.2680  2.3234 -0.5016
 4167TIP3   OH212464   5.460   6.332   2.813 -0.4592 -0.1058  0.1623
 4167TIP3    H112465   5.471   6.407   2.872  2.0897  1.9531 -2.6334
 4167TIP3    H212466   5.546   6.290   2.811 -1.5742 -2.6335  0.8779
 4168TIP3   OH212467   3.742   0.485   4.015  0.1177  0.2121  0.4595
 4168TIP3    H112468   3.775   0.396   4.016  1.3580  0.6505  0.3022
 4168TIP3    H212469   3.735   0.510   4.108 -0.1880 -0.0216  0.5015
 4169TIP3   OH212470   6.744   2.514   1.457  0.4975 -0.1581  0.2892
 4169TIP3    H112471   6.727   2.512   1.363  1.7589 -1.3995  0.0612
 4169TIP3    H212472   6.771   2.604   1.475 -0.4758  0.2875 -0.3759
 4170TIP3   OH212473   6.883   3.356   5.594 -0.0219 -0.1592  0.3336
 4170TIP3    H112474   6.936   3.355   5.674 -0.1461  0.9272  0.4476
 4170TIP3    H212475   6.817   3.423   5.609 -0.5963 -0.5557 -0.3435
 4171TIP3   OH212476   3.118   2.450   4.437  0.4306  0.6303 -0.1625
 4171TIP3    H112477   3.099   2.522   4.498 -0.7281 -0.2174  0.5226
 4171TIP3    H212478   3.074   2.475   4.356  0.8083  1.1241 -0.2167
 4172TIP3   OH212479   4.200   0.968   5.193  0.0979 -0.2835 -0.4147
 4172TIP3    H112480   4.204   0.875   5.171 -1.2534 -0.1672 -1.2984
 4172TIP3    H212481   4.137   1.005   5.131  1.7192  1.5352 -1.0700
 4173TIP3   OH212482   0.960   2.066   5.439  0.1339 -0.0664 -0.6375
 4173TIP3    H112483   0.947   2.039   5.348 -0.6937 -0.0735 -0.5280
 4173TIP3    H212484   0.872   2.087   5.470  0.1394 -1.7605  0.7017
 4174TIP3   OH212485   6.397   5.557   2.868 -0.1805  0.7081 -0.4049
 4174TIP3    H112486   6.469   5.606   2.909 -0.9920 -0.1050  2.1870
 4174TIP3    H212487   6.372   5.610   2.793  0.3766  3.1795  1.0437
 4175TIP3   OH212488   4.568   3.834   1.255 -0.2718  0.0900  0.1351
 4175TIP3    H112489   4.516   3.907   1.289 -1.7075 -0.0469 -1.5967
 4175TIP3    H212490   4.551   3.762   1.316  0.5759  0.9578  1.4449
 4176TIP3   OH212491   4.553   3.331   4.619  0.6460  0.2125  0.1322
 4176TIP3    H112492   4.470   3.370   4.594  0.6167 -0.5849 -1.1100
 4176TIP3    H212493   4.597   3.313   4.536  0.7070 -2.2464  0.6349
 4177TIP3   OH212494   3.506   1.557   2.185  0.1591 -0.1950 -0.1082
 4177TIP3    H112495   3.555   1.637   2.166  1.3231 -0.6962  0.6751
 4177TIP3    H212496   3.572   1.495   2.216 -0.8639 -1.1435  0.2419
 4178TIP3   OH212497   2.966   3.679   1.495  0.0754 -0.3777  0.2843
 4178TIP3    H112498   2.964   3.722   1.409  3.0770  0.7593  0.6590
 4178TIP3    H212499   2.890   3.716   1.541 -0.7020  0.1653 -1.3427
 4179TIP3   OH212500   0.723   3.939   3.046  0.7171  0.6081  0.0949
 4179TIP3    H112501   0.628   3.931   3.055  0.6077  0.8702 -0.7024
 4179TIP3    H212502   0.758   3.858   3.082  0.3996  1.6939  3.2037
 4180TIP3   OH212503   0.297   3.237   4.066 -0.0419 -0.1913  0.9002
 4180TIP3    H112504   0.325   3.192   4.146  1.4899 -1.5289 -0.3265
 4180TIP3    H212505   0.285   3.328   4.093  2.0840 -0.2641  2.3190
 4181TIP3   OH212506   4.053   1.988   2.630 -0.1787 -0.4152 -0.1712
 4181TIP3    H112507   3.993   1.977   2.704  2.0492 -0.7344  1.6916
 4181TIP3    H212508   4.029   1.919   2.569 -0.5940 -1.6518  1.3397
 4182TIP3   OH212509   2.093   4.798   1.174 -0.0664  0.0182 -0.7825
 4182TIP3    H112510   2.033   4.723   1.183  0.7411 -0.5169  0.4235
 4182TIP3    H212511   2.100   4.811   1.080 -0.9479 -0.8367 -0.9902
 4183TIP3   OH212512   5.063   1.608   3.106  0.1394  0.3638  0.4430
 4183TIP3    H112513   5.001   1.575   3.171 -0.3795  1.1681  0.3718
 4183TIP3    H212514   5.130   1.653   3.157 -0.4119  1.2305  0.4198
 4184TIP3   OH212515   3.015   2.482   3.154  0.0125 -0.3763  0.6949
 4184TIP3    H112516   3.002   2.474   3.059  0.0007  3.9579  0.1440
 4184TIP3    H212517   2.929   2.510   3.188  0.7970  1.3320  1.3874
 4185TIP3   OH212518   3.301   2.511   2.604 -0.3283  0.1008 -0.3375
 4185TIP3    H112519   3.340   2.535   2.688  0.2001  1.5770 -0.9723
 4185TIP3    H212520   3.212   2.546   2.608 -0.1089  0.7019 -0.6105
 4186TIP3   OH212521   3.490   3.145   4.931 -0.2271 -0.6974 -0.2406
 4186TIP3    H112522   3.498   3.057   4.895 -1.6307 -1.6747  1.6605
 4186TIP3    H212523   3.396   3.154   4.950 -0.3225  1.7099 -1.5198
 4187TIP3   OH212524   6.651   0.866   5.727 -0.3085 -0.0367  0.6627
 4187TIP3    H112525   6.652   0.885   5.633  1.1891  0.6435  0.7923
 4187TIP3    H212526   6.731   0.906   5.761 -1.1242  0.2690  2.3408
 4188TIP3   OH212527   5.969   5.420   1.137  0.3699 -0.5404  0.1896
 4188TIP3    H112528   6.060   5.394   1.148  1.0758  2.1353  1.5123
 4188TIP3    H212529   5.958   5.431   1.042  2.0508  1.0351  0.1419
 4189TIP3   OH212530   5.803   6.561   3.622  0.8961  0.5463  0.3116
 4189TIP3    H112531   5.811   6.640   3.569 -0.1293 -0.2467 -1.0755
 4189TIP3    H212532   5.718   6.571   3.666  1.4417  0.8883  1.3321
 4190TIP3   OH212533   3.483   5.135   3.883  0.3543 -0.1259 -0.0017
 4190TIP3    H112534   3.404   5.087   3.857  1.1015 -1.2777 -0.1882
 4190TIP3    H212535   3.549   5.067   3.897  1.9929  0.9172 -2.1218
 4191TIP3   OH212536   1.175   3.519   1.942  0.0392  0.1506 -0.6205
 4191TIP3    H112537   1.115   3.555   1.877  1.2869  1.4784 -1.1017
 4191TIP3    H212538   1.262   3.529   1.903  0.6914 -0.4961  0.5940
 4192TIP3   OH212539   5.237   3.152   4.193  0.7457 -0.4028 -0.1585
 4192TIP3    H112540   5.239   3.210   4.269  1.9771 -0.6838  0.0518
 4192TIP3    H212541   5.316   3.099   4.202  1.3211  0.0651 -2.0379
 4193TIP3   OH212542   4.348   2.741   4.058  0.3220  0.4012 -0.0320
 4193TIP3    H112543   4.388   2.665   4.100  1.7106  1.1260  0.0216
 4193TIP3    H212544   4.274   2.763   4.115  1.3514  0.5411  1.3020
 4194TIP3   OH212545   2.591   3.553   0.899  0.1889 -0.7083  0.3467
 4194TIP3    H112546   2.516   3.585   0.848  1.1371 -0.0005 -0.6415
 4194TIP3    H212547   2.554   3.484   0.955 -1.4065  0.3416  0.6570
 4195TIP3   OH212548   1.542   3.322   0.218 -0.4819 -0.3247  0.4408
 4195TIP3    H112549   1.622   3.328   0.271  0.0871 -1.3274 -0.2711
 4195TIP3    H212550   1.481   3.383   0.260 -0.0796 -1.1224  2.2933
 4196TIP3   OH212551   4.271   1.917   4.288  0.4903  0.1065 -0.2134
 4196TIP3    H112552   4.333   1.981   4.252  0.7932 -0.7496 -1.2896
 4196TIP3    H212553   4.189   1.934   4.241  0.7958 -0.7929 -1.1291
 4197TIP3   OH212554   3.917   5.010   3.347  0.6728 -0.3791 -0.2662
 4197TIP3    H112555   3.926   4.951   3.272 -1.0695 -0.4005 -0.5107
 4197TIP3    H212556   3.939   5.096   3.312 -1.8960 -0.0696 -1.4036
 4198TIP3   OH212557   3.257   4.097   5.826  0.0535 -0.0032 -0.3565
 4198TIP3    H112558   3.166   4.083   5.854  0.2332 -0.2217  0.1230
 4198TIP3    H212559   3.267   4.040   5.749 -0.3457  0.3636 -0.6886
 4199TIP3   OH212560   3.475   3.255   1.205 -0.0393  0.2304  0.4398
 4199TIP3    H112561   3.529   3.210   1.139  0.3865  1.6978 -0.2501
 4199TIP3    H212562   3.489   3.205   1.285  0.2680 -0.9757 -0.3405
 4200TIP3   OH212563   2.723   5.303   0.109 -0.3853 -0.2449 -0.3002
 4200TIP3    H112564   2.810   5.315   0.072 -0.2857 -1.4125 -0.4723
 4200TIP3    H212565   2.702   5.388   0.149  1.1610 -0.2067  0.4747
 4201TIP3   OH212566   1.229   0.209   2.366  0.0743 -0.5710 -0.0251
 4201TIP3    H112567   1.245   0.243   2.454  1.2410 -0.3697 -0.2964
 4201TIP3    H212568   1.201   0.285   2.316  0.8422 -0.3799 -0.1745
 4202TIP3   OH212569   5.880   4.167   1.176 -0.1081  0.2381  0.4110
 4202TIP3    H112570   5.941   4.157   1.250 -0.0535  1.0659  0.4878
 4202TIP3    H212571   5.919   4.114   1.106  0.5321  0.4910  0.5640
 4203TIP3   OH212572   0.885   0.886   2.498  0.4068  0.2326  0.3323
 4203TIP3    H112573   0.858   0.800   2.531 -0.1184 -0.3263 -1.4330
 4203TIP3    H212574   0.937   0.866   2.420  1.1284  1.4996  0.4732
 4204TIP3   OH212575   0.657   1.442   1.535 -0.7838  0.1440 -0.0358
 4204TIP3    H112576   0.582   1.411   1.485 -0.7819 -0.4055  0.2900
 4204TIP3    H212577   0.625   1.520   1.580 -0.9685  0.2821 -0.4045
 4205TIP3   OH212578   4.879   0.760   4.335  0.2278  0.2355 -0.2230
 4205TIP3    H112579   4.876   0.743   4.429 -0.4086 -0.2405 -0.3213
 4205TIP3    H212580   4.871   0.673   4.295 -0.8603  0.5575 -0.7248
 4206TIP3   OH212581   6.898   0.772   0.103  0.7283  0.3334 -0.0115
 4206TIP3    H112582   6.947   0.737   0.177  1.2858  1.2473  0.0702
 4206TIP3    H212583   6.965   0.811   0.046  0.2933 -0.1781 -0.9134
 4207TIP3   OH212584   3.919   5.745   3.918 -0.1497  0.1659  0.2848
 4207TIP3    H112585   3.963   5.691   3.983  1.4296 -0.3632 -1.1454
 4207TIP3    H212586   3.851   5.688   3.882 -0.4506  0.1644  0.8465
 4208TIP3   OH212587   3.727   5.679   5.448 -0.1195  0.1689  0.0323
 4208TIP3    H112588   3.818   5.701   5.465 -0.1715  0.5405 -0.1669
 4208TIP3    H212589   3.691   5.657   5.534 -0.5571  2.6945  0.5706
 4209TIP3   OH212590   6.663   3.360   4.333 -0.4780 -0.1087  0.1648
 4209TIP3    H112591   6.679   3.439   4.280  1.0372  0.0660  0.8314
 4209TIP3    H212592   6.728   3.297   4.302 -1.4235 -0.9796 -0.0853
 4210TIP3   OH212593   3.422   4.572   5.360  0.5490  0.6295 -0.4249
 4210TIP3    H112594   3.449   4.572   5.452 -0.7171 -0.8343 -0.0092
 4210TIP3    H212595   3.408   4.664   5.339 -0.8150  0.8904  1.3911
 4211TIP3   OH212596   0.143   2.392   4.742  0.1351  0.4247 -0.1768
 4211TIP3    H112597   0.059   2.435   4.725  0.6266  1.2713 -0.5426
 4211TIP3    H212598   0.144   2.379   4.837 -0.3884  0.4407 -0.1640
 4212TIP3   OH212599   0.149   0.728   4.051  0.2208 -0.1054  0.0875
 4212TIP3    H112600   0.221   0.672   4.078  0.3596  0.8709  1.9247
 4212TIP3    H212601   0.155   0.731   3.956  0.7843 -2.3841 -0.0035
 4213TIP3   OH212602   4.306   0.417   1.423 -0.1021  0.0557 -0.3710
 4213TIP3    H112603   4.335   0.429   1.514  0.3744 -2.6295 -0.1020
 4213TIP3    H212604   4.218   0.456   1.421  0.5828  1.7826  0.7138
 4214TIP3   OH212605   4.120   6.156   4.457  0.2781 -0.4529 -0.0724
 4214TIP3    H112606   4.046   6.198   4.413  0.5748  0.3416  0.1571
 4214TIP3    H212607   4.188   6.150   4.390  1.6459  3.0515  0.7619
 4215TIP3   OH212608   1.462   1.399   5.255  0.1666  0.2243  0.2284
 4215TIP3    H112609   1.414   1.411   5.337 -0.4351 -1.1019  0.0912
 4215TIP3    H212610   1.537   1.345   5.280 -1.2476 -2.1556 -0.4648
 4216TIP3   OH212611   3.330   3.760   3.981 -0.3719 -0.2668  0.2068
 4216TIP3    H112612   3.282   3.772   4.063 -0.5516 -0.3063  0.1062
 4216TIP3    H212613   3.329   3.666   3.966  0.4302 -0.3578  0.6236
 4217TIP3   OH212614   5.262   0.874   2.568  0.6201 -0.0803  0.0613
 4217TIP3    H112615   5.233   0.941   2.505  0.5474  1.2457  1.4415
 4217TIP3    H212616   5.335   0.830   2.524  0.1776  0.3753 -1.1885
 4218TIP3   OH212617   5.301   3.184   3.538 -0.4577  0.4312 -0.4800
 4218TIP3    H112618   5.246   3.247   3.492 -0.2642  0.0631 -1.2315
 4218TIP3    H212619   5.357   3.238   3.593 -1.0047  0.8544 -0.3256
 4219TIP3   OH212620   4.804   0.114   3.244  0.3315  0.7225  0.3376
 4219TIP3    H112621   4.774   0.147   3.329  0.2964  4.4508 -0.9169
 4219TIP3    H212622   4.874   0.175   3.218  1.5616 -1.3466 -1.5706
 4220TIP3   OH212623   6.211   0.500   0.604  0.5261 -0.1593  0.1934
 4220TIP3    H112624   6.142   0.433   0.605  1.1449 -0.8266  1.8558
 4220TIP3    H212625   6.169   0.578   0.642  0.9784 -0.9754  2.5829
 4221TIP3   OH212626   1.402   6.251   1.224 -0.0662 -0.3951  0.5983
 4221TIP3    H112627   1.345   6.287   1.156  1.2951  0.7258 -0.0155
 4221TIP3    H212628   1.349   6.252   1.304 -0.9702  0.3884 -0.0004
 4222TIP3   OH212629   2.543   4.709   4.423 -0.2075 -0.5385  0.0690
 4222TIP3    H112630   2.475   4.741   4.483  0.4852 -0.1001  0.6324
 4222TIP3    H212631   2.505   4.717   4.336 -1.0725 -0.7850  0.4133
 4223TIP3   OH212632   0.254   3.097   3.829  0.6246 -0.2082  0.1211
 4223TIP3    H112633   0.284   3.157   3.897 -1.2879  1.3751 -0.3080
 4223TIP3    H212634   0.332   3.074   3.779  1.4806  1.8010  0.4504
 4224TIP3   OH212635   6.264   3.803   3.740  0.0524 -0.2141 -0.1209
 4224TIP3    H112636   6.283   3.726   3.688  0.6455  0.2594 -0.6165
 4224TIP3    H212637   6.325   3.870   3.708 -1.4589  0.9230 -0.7646
 4225TIP3   OH212638   0.627   3.642   3.159  0.3632 -0.3409  0.2546
 4225TIP3    H112639   0.573   3.712   3.121  2.0117 -0.4845 -2.6751
 4225TIP3    H212640   0.637   3.668   3.250 -0.8243  2.1331 -0.2054
 4226TIP3   OH212641   4.720   0.110   2.690  0.1245 -0.2400  0.3223
 4226TIP3    H112642   4.738   0.024   2.653  0.8175  0.3409 -0.7412
 4226TIP3    H212643   4.651   0.146   2.635 -0.3633 -0.2118  0.9366
 4227TIP3   OH212644   1.639   1.935   0.237  0.1572 -0.0210  0.2054
 4227TIP3    H112645   1.724   1.897   0.259  0.0508 -0.5989 -0.3622
 4227TIP3    H212646   1.661   2.019   0.196  0.4116  0.2698  0.9082
 4228TIP3   OH212647   2.738   4.729   0.298 -0.3716  0.4394  0.0683
 4228TIP3    H112648   2.770   4.678   0.372  0.4076  0.9861  0.1179
 4228TIP3    H212649   2.798   4.709   0.226 -0.4820  0.7369 -0.1098
 4229TIP3   OH212650   5.640   4.692   5.229 -0.5088  0.4050 -0.4865
 4229TIP3    H112651   5.627   4.785   5.213  2.2650  0.8928 -0.5272
 4229TIP3    H212652   5.656   4.686   5.324 -1.6640 -0.1995 -0.3175
 4230TIP3   OH212653   1.107   3.607   2.389 -0.6341 -0.4025 -0.5430
 4230TIP3    H112654   1.047   3.539   2.421 -0.7700  0.0365  0.1705
 4230TIP3    H212655   1.189   3.589   2.434 -1.3361  1.3287  1.6020
 4231TIP3   OH212656   0.354   5.651   3.212  0.4494  0.1161 -0.4092
 4231TIP3    H112657   0.406   5.618   3.285  0.2862 -0.0474 -0.3670
 4231TIP3    H212658   0.348   5.745   3.227  0.0884  0.0310 -0.0026
 4232TIP3   OH212659   3.180   5.417   1.814  0.3566 -0.1130 -0.2215
 4232TIP3    H112660   3.186   5.339   1.759 -0.4531 -1.2117  1.1844
 4232TIP3    H212661   3.271   5.443   1.828  0.6323 -0.7400 -0.8001
 4233TIP3   OH212662   1.341   5.171   0.887  0.2752  0.1395 -0.0335
 4233TIP3    H112663   1.351   5.153   0.981  2.3394  0.0395 -0.2102
 4233TIP3    H212664   1.421   5.219   0.864  0.7678 -1.5244 -2.1048
 4234TIP3   OH212665   5.327   3.118   1.378  0.0692  0.0434 -0.3500
 4234TIP3    H112666   5.296   3.203   1.346 -2.7115 -0.5850  0.4512
 4234TIP3    H212667   5.272   3.100   1.454  1.3299 -2.0181  0.1412
 4235TIP3   OH212668   3.738   6.493   1.166 -0.3255  0.2094  0.3418
 4235TIP3    H112669   3.773   6.409   1.197  0.5366  0.9063  1.2775
 4235TIP3    H212670   3.752   6.491   1.071  1.7161  0.2017  0.6071
 4236TIP3   OH212671   0.928   3.840   5.229  0.3559  0.0675  0.1804
 4236TIP3    H112672   1.020   3.853   5.208  0.5581  1.5359  1.7846
 4236TIP3    H212673   0.894   3.928   5.246 -0.9608 -0.5817  1.0895
 4237TIP3   OH212674   1.905   1.823   0.286  0.1805 -0.4188 -0.2430
 4237TIP3    H112675   1.964   1.748   0.274 -0.1098 -0.4685 -1.5812
 4237TIP3    H212676   1.964   1.899   0.291  0.5485 -0.7801  2.2386
 4238TIP3   OH212677   3.755   5.785   2.562 -0.2121 -0.3348  0.1494
 4238TIP3    H112678   3.748   5.860   2.502  0.6072  0.5855  1.1752
 4238TIP3    H212679   3.849   5.773   2.574 -0.2816 -2.2698 -0.8672
 4239TIP3   OH212680   6.198   1.994   4.949 -0.3767 -0.5851  0.2119
 4239TIP3    H112681   6.174   1.971   4.859 -0.0892  0.4742 -0.1450
 4239TIP3    H212682   6.123   1.964   5.001 -0.5703 -1.1627 -0.3752
 4240TIP3   OH212683   2.879   2.223   0.532 -0.1721 -0.2027  0.6567
 4240TIP3    H112684   2.888   2.233   0.438 -0.7189 -1.9302  0.3723
 4240TIP3    H212685   2.969   2.219   0.565  0.0464 -0.8396  0.0227
 4241TIP3   OH212686   0.933   6.549   1.077 -0.9261 -0.4981 -0.1172
 4241TIP3    H112687   0.957   6.488   1.007 -0.6234  0.7823 -1.1682
 4241TIP3    H212688   0.846   6.520   1.104  0.2696 -3.0861  1.3714
 4242TIP3   OH212689   5.924  -0.013   1.722 -0.4180 -0.2095  0.1363
 4242TIP3    H112690   5.922   0.071   1.769  1.8589  1.0732 -1.8256
 4242TIP3    H212691   5.867  -0.000   1.646  0.5013 -0.1323 -0.5593
 4243TIP3   OH212692   0.538   1.188   1.781  0.1897 -0.8579 -0.0563
 4243TIP3    H112693   0.513   1.272   1.743  1.6638  0.3318  1.4247
 4243TIP3    H212694   0.479   1.177   1.855  1.8265  0.3895  1.5226
 4244TIP3   OH212695   1.724   0.105   1.495  0.2667  0.3680  0.4660
 4244TIP3    H112696   1.783   0.070   1.429  1.1830  0.9076  0.9766
 4244TIP3    H212697   1.639   0.110   1.451  0.3913 -1.2511 -0.0053
 4245TIP3   OH212698   0.917   5.090   2.271  0.1593 -0.7901  0.6783
 4245TIP3    H112699   0.933   5.006   2.315 -0.5804 -0.4920  1.5522
 4245TIP3    H212700   0.823   5.090   2.253  0.4378 -0.8731 -0.8936
 4246TIP3   OH212701   2.877   1.447   0.571 -0.2031  0.5491 -0.0192
 4246TIP3    H112702   2.926   1.511   0.519 -1.8443  1.4616 -0.5452
 4246TIP3    H212703   2.863   1.373   0.511 -0.2264  0.6666 -0.1591
 4247TIP3   OH212704   0.725   5.600   3.198  0.0455 -0.2718  0.2734
 4247TIP3    H112705   0.690   5.679   3.158  0.0568  0.6246  1.9438
 4247TIP3    H212706   0.649   5.543   3.211 -0.0751 -0.2323 -0.2610
 4248TIP3   OH212707   5.901   5.639   1.554 -0.0141 -0.5076  0.2713
 4248TIP3    H112708   5.837   5.694   1.598  0.9793  2.1053 -1.3634
 4248TIP3    H212709   5.981   5.692   1.551  0.5776 -1.3806 -2.7600
 4249TIP3   OH212710   5.474   3.663   0.334 -0.3779 -0.5321  0.4182
 4249TIP3    H112711   5.543   3.601   0.311  0.0367  0.4108 -0.9739
 4249TIP3    H212712   5.518   3.730   0.386 -0.4557 -0.4598  0.3915
 4250TIP3   OH212713   3.563   3.849   2.700 -0.0721  0.1562  0.5454
 4250TIP3    H112714   3.540   3.850   2.607 -0.9481 -0.2710  0.7462
 4250TIP3    H212715   3.639   3.908   2.707  0.2328 -0.0883 -0.4928
 4251TIP3   OH212716   1.186   0.462   3.386  0.0748  0.3449 -0.1992
 4251TIP3    H112717   1.100   0.448   3.346 -0.7879 -0.0371  1.6826
 4251TIP3    H212718   1.167   0.497   3.473  1.7008 -1.7126  1.0875
 4252TIP3   OH212719   6.411   0.132   4.486  0.2563  0.0029 -0.2822
 4252TIP3    H112720   6.489   0.081   4.507 -0.5477 -0.4854  1.7141
 4252TIP3    H212721   6.351   0.069   4.444  0.4437  0.0760 -0.6647
 4253TIP3   OH212722   6.043   0.016   2.142  0.0931  0.4826 -0.4244
 4253TIP3    H112723   6.083   0.048   2.061  0.5233 -0.2714 -0.5242
 4253TIP3    H212724   6.116  -0.022   2.191 -0.5446 -1.2887 -0.7849
 4254TIP3   OH212725   4.419   0.541   3.472 -0.2513 -0.2340  0.3404
 4254TIP3    H112726   4.421   0.447   3.456 -0.2245 -0.2757  0.5866
 4254TIP3    H212727   4.348   0.554   3.534 -0.0401 -0.1319  0.5653
 4255TIP3   OH212728   7.162   4.531   1.863  0.2588 -0.1739  0.1978
 4255TIP3    H112729   7.220   4.606   1.852 -1.5856  1.5195  1.3455
 4255TIP3    H212730   7.199   4.482   1.936  2.0377 -1.0227 -1.1932
 4256TIP3   OH212731   6.446   2.652   3.741  0.3467 -0.5309 -0.3341
 4256TIP3    H112732   6.450   2.701   3.823 -0.1454 -1.9047  0.5497
 4256TIP3    H212733   6.366   2.683   3.698  0.3678 -0.1296 -0.0891
 4257TIP3   OH212734   2.487   6.373   3.078 -0.3585  0.1705  0.6615
 4257TIP3    H112735   2.574   6.347   3.047  0.4348  1.1153  2.0285
 4257TIP3    H212736   2.439   6.290   3.085 -0.3008 -0.2065 -2.0676
 4258TIP3   OH212737   0.226   4.238   3.608  0.1837 -0.3588  0.6699
 4258TIP3    H112738   0.136   4.249   3.575 -0.0504 -0.9348  1.0948
 4258TIP3    H212739   0.218   4.251   3.702  0.7114  0.4974  0.5974
 4259TIP3   OH212740   4.937   4.474   2.259 -0.0786  0.2578 -0.4166
 4259TIP3    H112741   4.949   4.549   2.200 -0.8729  1.8344  1.3355
 4259TIP3    H212742   5.009   4.481   2.321 -0.6013  0.0198  0.2241
 4260TIP3   OH212743   0.655   6.573   3.707  0.1329 -0.3357 -0.4684
 4260TIP3    H112744   0.674   6.488   3.666  1.2157  0.1200 -0.9550
 4260TIP3    H212745   0.653   6.554   3.801 -0.8783 -1.1146 -0.6280
 4261TIP3   OH212746   5.362   6.195   0.077  0.3034  0.1384 -1.0115
 4261TIP3    H112747   5.337   6.287   0.083  0.0172  0.0496 -0.8689
 4261TIP3    H212748   5.455   6.198   0.054  0.4424  0.4640 -0.4336
 4262TIP3   OH212749   4.065   2.657   2.705  0.0940 -0.2251  0.3803
 4262TIP3    H112750   3.990   2.689   2.655  0.9396 -0.2769 -0.9965
 4262TIP3    H212751   4.118   2.610   2.640  1.0874 -0.5830  1.4158
 4263TIP3   OH212752   7.159   3.371   1.169 -0.1772 -0.0185 -0.1477
 4263TIP3    H112753   7.111   3.288   1.164  0.3467 -0.4304  1.2179
 4263TIP3    H212754   7.212   3.363   1.248  3.0476 -0.0685 -2.1390
 4264TIP3   OH212755   1.100   1.843   2.724  0.1744 -0.3025 -0.7912
 4264TIP3    H112756   1.146   1.853   2.808  1.4537  0.0686 -1.5108
 4264TIP3    H212757   1.170   1.838   2.659 -0.8088 -0.2883 -1.8758
 4265TIP3   OH212758   5.416   6.660   1.603 -0.3869  0.5716  0.3523
 4265TIP3    H112759   5.360   6.704   1.540  0.4110  1.1147  0.0036
 4265TIP3    H212760   5.359   6.639   1.677 -1.5944 -1.0294 -0.9658
 4266TIP3   OH212761   6.565   5.121   3.597  0.0230 -0.4309 -0.7002
 4266TIP3    H112762   6.557   5.095   3.689 -2.0095  0.3925 -0.6045
 4266TIP3    H212763   6.481   5.160   3.576  0.2408 -1.1527 -3.1160
 4267TIP3   OH212764   4.325   2.036   4.759 -0.5357  0.6663  0.3738
 4267TIP3    H112765   4.255   2.093   4.726 -1.4590 -0.7052 -0.1134
 4267TIP3    H212766   4.405   2.089   4.752 -1.3976  1.9855  0.2044
 4268TIP3   OH212767   1.528   2.941   0.268 -0.0054  0.0380 -0.3421
 4268TIP3    H112768   1.483   2.856   0.274  0.3092 -0.0718  0.6944
 4268TIP3    H212769   1.552   2.949   0.176 -1.2020 -0.3866 -0.7065
 4269TIP3   OH212770   0.323   4.685   1.052  0.0840  0.3020 -0.3847
 4269TIP3    H112771   0.343   4.715   0.963 -1.0770  3.8385  0.3897
 4269TIP3    H212772   0.405   4.694   1.100  0.6977 -1.5573 -0.9767
 4270TIP3   OH212773   6.224   3.688   1.044 -0.7645 -0.1570  0.3111
 4270TIP3    H112774   6.247   3.679   1.136 -1.9870 -0.6748  0.5849
 4270TIP3    H212775   6.133   3.716   1.044 -1.2658 -1.6127 -0.7349
 4271TIP3   OH212776   1.166   2.680   0.499 -0.1376  0.6323 -0.3897
 4271TIP3    H112777   1.134   2.625   0.571  2.1896  0.1189  0.3436
 4271TIP3    H212778   1.087   2.720   0.463 -1.6180 -0.9031  0.9506
 4272TIP3   OH212779   4.926   1.489   2.661  1.0354  0.2661 -0.2859
 4272TIP3    H112780   4.934   1.421   2.728  0.8009  0.4926 -0.0242
 4272TIP3    H212781   4.959   1.568   2.704  0.2246  0.5669 -0.1910
 4273TIP3   OH212782   2.614   4.481   0.523 -0.5072  0.3690  0.2035
 4273TIP3    H112783   2.541   4.495   0.463 -0.2157  1.8409  0.1526
 4273TIP3    H212784   2.670   4.418   0.478 -1.9905 -1.2317  0.4933
 4274TIP3   OH212785   5.826   6.593   1.937  0.1646 -0.0528 -0.1523
 4274TIP3    H112786   5.856   6.585   1.846  0.9466 -0.7778  0.1492
 4274TIP3    H212787   5.759   6.525   1.946 -2.8185  2.4927 -1.2392
 4275TIP3   OH212788   2.846   0.495   3.712 -0.1603  0.4579  0.5211
 4275TIP3    H112789   2.787   0.570   3.705 -1.0354 -0.3115 -0.6794
 4275TIP3    H212790   2.907   0.506   3.639  1.1809  1.2008  1.7030
 4276TIP3   OH212791   4.908   1.928   4.541 -0.0966 -0.2361 -0.5540
 4276TIP3    H112792   4.851   1.857   4.513 -0.7659 -0.1177  0.4842
 4276TIP3    H212793   4.996   1.899   4.517 -0.4851 -0.8413 -1.2889
 4277TIP3   OH212794   1.000   4.454   3.931 -0.5351 -0.1600  0.2430
 4277TIP3    H112795   1.013   4.478   3.839 -1.3401 -0.5065  0.0312
 4277TIP3    H212796   1.024   4.362   3.935 -0.6939 -0.1973  0.3340
 4278TIP3   OH212797   4.252   5.932   2.743 -0.1259 -0.5730 -0.6718
 4278TIP3    H112798   4.291   5.858   2.697  1.5318 -0.1697  0.0078
 4278TIP3    H212799   4.319   6.000   2.741 -1.0198  0.3749  0.0659
 4279TIP3   OH212800   6.812   0.791   1.049  0.5325  0.4267  0.3962
 4279TIP3    H112801   6.726   0.822   1.023  0.8173  0.6097 -0.3632
 4279TIP3    H212802   6.843   0.855   1.113  1.2678  1.9818 -1.4201
 4280TIP3   OH212803   6.559   4.539   2.316  0.0143 -0.1898 -0.4455
 4280TIP3    H112804   6.603   4.562   2.234 -0.3219 -1.7073 -1.0787
 4280TIP3    H212805   6.526   4.450   2.302  0.0325 -0.5231  1.3786
 4281TIP3   OH212806   4.598   2.127   5.583  0.1119  0.1481  0.6821
 4281TIP3    H112807   4.529   2.108   5.646 -1.2878  1.1121 -0.4718
 4281TIP3    H212808   4.606   2.047   5.531 -0.6674  0.2680  0.3671
 4282TIP3   OH212809   1.754   1.971   3.616 -0.1741 -0.3737 -0.5347
 4282TIP3    H112810   1.694   1.943   3.547 -0.3043  2.1013 -1.5151
 4282TIP3    H212811   1.840   1.943   3.586 -0.3546 -0.2214 -1.2031
 4283TIP3   OH212812   3.478   2.875   5.346  0.0683 -0.4858  0.0851
 4283TIP3    H112813   3.500   2.925   5.268 -1.7432 -2.5157 -1.8443
 4283TIP3    H212814   3.548   2.809   5.352  0.5645  0.0807  0.5793
 4284TIP3   OH212815   3.873   0.285   2.621 -0.0478 -0.0530  0.7271
 4284TIP3    H112816   3.940   0.234   2.575 -1.0004 -0.0767 -0.6880
 4284TIP3    H212817   3.867   0.366   2.571 -1.0217 -0.0214  0.8858
 4285TIP3   OH212818   4.524   4.119   3.757 -0.0316 -0.3656  0.2346
 4285TIP3    H112819   4.544   4.208   3.786 -0.6974 -0.7285  1.9268
 4285TIP3    H212820   4.448   4.094   3.808 -0.5184 -1.5433 -1.0037
 4286TIP3   OH212821   1.612   1.870   2.619  0.0440 -0.1200  0.1171
 4286TIP3    H112822   1.559   1.842   2.693 -0.5376 -0.0574 -0.2625
 4286TIP3    H212823   1.652   1.952   2.647 -0.4035  0.0500  0.2566
 4287TIP3   OH212824   5.810   4.099   0.515 -0.0854 -0.1978  0.3867
 4287TIP3    H112825   5.898   4.109   0.478 -0.0725 -0.8220  0.2511
 4287TIP3    H212826   5.752   4.095   0.440 -0.0149 -1.9246  0.3987
 4288TIP3   OH212827   1.257   4.297   5.419 -0.3651 -0.1818  1.0065
 4288TIP3    H112828   1.273   4.266   5.330 -2.2848  2.9419 -0.6193
 4288TIP3    H212829   1.172   4.260   5.442 -0.6053  0.2751  0.8669
 4289TIP3   OH212830   5.458   5.475   5.513  0.1822 -0.5870  0.1925
 4289TIP3    H112831   5.422   5.404   5.567  1.2286 -2.5068 -1.5270
 4289TIP3    H212832   5.541   5.498   5.556  0.3233 -1.1002  0.1922
 4290TIP3   OH212833   5.978   5.393   1.431 -0.3115 -0.7548  0.5393
 4290TIP3    H112834   5.984   5.402   1.336 -1.1833 -3.0506  0.2040
 4290TIP3    H212835   5.935   5.474   1.460  1.5566  0.8146 -0.7318
 4291TIP3   OH212836   3.230   5.060   2.753 -0.0478 -0.2289 -0.1562
 4291TIP3    H112837   3.223   5.100   2.840 -1.3444  1.2602 -0.8980
 4291TIP3    H212838   3.304   5.000   2.760 -0.9611 -1.2037  2.3663
 4292TIP3   OH212839   6.369   1.921   2.990 -0.4712  0.1053  0.3189
 4292TIP3    H112840   6.281   1.959   2.986 -0.2106  0.6435 -0.6024
 4292TIP3    H212841   6.358   1.832   2.955 -0.5928  0.2884 -0.1221
 4293TIP3   OH212842   2.453   6.140   0.348  0.1423  0.1487  0.0687
 4293TIP3    H112843   2.458   6.048   0.322  0.7733  0.1334  0.2225
 4293TIP3    H212844   2.363   6.166   0.331  0.1414 -0.3078 -0.6237
 4294TIP3   OH212845   1.082   6.060   3.589  0.6785  0.2241 -0.0749
 4294TIP3    H112846   1.029   6.025   3.661  0.9577  0.2029  0.1216
 4294TIP3    H212847   1.049   6.149   3.577  0.8044  0.3168  0.2543
 4295TIP3   OH212848   4.085   5.546   3.088  0.0480 -0.4645  0.3499
 4295TIP3    H112849   4.058   5.559   3.179  0.9807  0.9955  0.4460
 4295TIP3    H212850   4.005   5.560   3.037 -0.0264  0.9605  0.8104
 4296TIP3   OH212851   4.852   5.591   4.729 -0.0682 -0.7390  0.5036
 4296TIP3    H112852   4.889   5.503   4.732  1.4740 -0.1224  0.3327
 4296TIP3    H212853   4.912   5.641   4.673 -0.0148  0.8168  1.8615
 4297TIP3   OH212854   4.617   0.200   5.213 -0.2682 -0.0121  0.6959
 4297TIP3    H112855   4.705   0.187   5.178 -0.7149  0.5518 -0.7145
 4297TIP3    H212856   4.568   0.241   5.141 -2.3667 -2.5033  0.5367
 4298TIP3   OH212857   3.755   2.242   1.789  0.2397 -0.2954 -0.1669
 4298TIP3    H112858   3.771   2.211   1.878 -1.4253 -1.6135 -0.2817
 4298TIP3    H212859   3.799   2.178   1.733  0.2397 -0.1579 -0.3247
 4299TIP3   OH212860   2.129   3.913   4.816  0.1901 -1.0639  0.1627
 4299TIP3    H112861   2.055   3.874   4.770  1.3115 -1.4548 -1.4216
 4299TIP3    H212862   2.197   3.845   4.814  0.0998 -1.3526  3.0484
 4300TIP3   OH212863   2.782   0.474   4.847  0.7409  0.4330  0.1565
 4300TIP3    H112864   2.729   0.499   4.771 -0.4203 -0.4385  0.6319
 4300TIP3    H212865   2.717   0.458   4.916  1.6186 -0.8972  0.7036
 4301TIP3   OH212866   1.794   5.127   3.308  0.1543 -0.0822  0.3609
 4301TIP3    H112867   1.872   5.099   3.356 -0.2160 -1.1905  0.3489
 4301TIP3    H212868   1.822   5.131   3.217  0.3479  0.0921  0.4278
 4302TIP3   OH212869   4.959   6.428   4.234 -0.4512  0.2291 -0.0762
 4302TIP3    H112870   4.927   6.350   4.279  1.6458 -0.9215 -0.4192
 4302TIP3    H212871   4.950   6.499   4.298 -1.3201 -0.5399  0.6606
 4303TIP3   OH212872   4.204   0.597   0.208 -0.7831 -0.4334  0.9345
 4303TIP3    H112873   4.244   0.671   0.162 -1.4301 -1.9118 -2.3662
 4303TIP3    H212874   4.170   0.634   0.289  1.6742  2.1660  0.9385
 4304TIP3   OH212875   0.744   4.428   3.431 -0.3626 -0.7090 -0.3069
 4304TIP3    H112876   0.732   4.353   3.490 -0.7010 -0.9722 -0.7106
 4304TIP3    H212877   0.829   4.413   3.390  0.5459  0.1965  1.1521
 4305TIP3   OH212878   6.676   4.330   1.502  0.0295  0.7916  0.4196
 4305TIP3    H112879   6.637   4.411   1.471 -0.8905 -0.0591 -0.7704
 4305TIP3    H212880   6.769   4.336   1.479  0.0738  1.7070  0.8207
 4306TIP3   OH212881   0.403   4.536   1.809 -0.0252 -0.3249  0.1954
 4306TIP3    H112882   0.413   4.513   1.717 -0.6529 -0.0342  0.0491
 4306TIP3    H212883   0.374   4.627   1.808  0.4573 -0.1602  0.7008
 4307TIP3   OH212884   2.803   5.452   1.638 -0.0231  0.3121  0.2712
 4307TIP3    H112885   2.838   5.536   1.667 -1.0100  0.4465  1.1283
 4307TIP3    H212886   2.874   5.413   1.586 -0.0244  2.2386 -1.2784
 4308TIP3   OH212887   7.179   1.500   3.796  0.4280 -0.4748  0.0717
 4308TIP3    H112888   7.134   1.421   3.824 -0.7572  0.4796  1.0169
 4308TIP3    H212889   7.212   1.539   3.877  1.8661 -0.4747 -0.4744
 4309TIP3   OH212890   3.575   5.975   4.996  0.5980 -0.2747 -0.0954
 4309TIP3    H112891   3.580   6.023   5.079 -2.6181 -1.5590  0.9926
 4309TIP3    H212892   3.646   5.911   5.001 -0.0914 -0.9674  2.2133
 4310TIP3   OH212893   6.271   5.270   1.426  0.0058 -0.6423  0.1810
 4310TIP3    H112894   6.324   5.312   1.494  0.3468 -0.0466 -0.4433
 4310TIP3    H212895   6.202   5.224   1.475  1.6334 -2.2525  1.0846
 4311TIP3   OH212896   5.639   0.567   5.756  0.2655  0.2774 -0.0990
 4311TIP3    H112897   5.704   0.537   5.693  0.6954  0.5336  0.2160
 4311TIP3    H212898   5.568   0.601   5.702 -0.8793 -2.5160 -0.5088
 4312TIP3   OH212899   0.568   0.129   5.169 -0.1279  0.5894 -0.6056
 4312TIP3    H112900   0.540   0.088   5.087  0.1623  0.6529 -0.7413
 4312TIP3    H212901   0.580   0.057   5.230  1.0130  0.3876 -1.0327
 4313TIP3   OH212902   0.636   2.587   3.392 -0.3020 -0.9684 -0.0051
 4313TIP3    H112903   0.713   2.533   3.376 -0.7509 -1.5688 -0.1562
 4313TIP3    H212904   0.562   2.529   3.376 -0.8476  0.2557 -2.2873
 4314TIP3   OH212905   1.054   0.955   2.827 -0.1643  0.1776 -0.2095
 4314TIP3    H112906   1.040   0.981   2.736  0.9308  1.4757 -0.0401
 4314TIP3    H212907   1.085   0.864   2.822 -0.9693 -0.0689 -1.0448
 4315TIP3   OH212908   4.606   2.728   4.511 -0.0277  0.5461 -0.4160
 4315TIP3    H112909   4.688   2.741   4.465 -0.4551  1.1917 -1.0155
 4315TIP3    H212910   4.631   2.692   4.596  0.7990 -0.2808 -0.9931
 4316TIP3   OH212911   0.315   5.129   2.454  0.9049 -0.4800 -0.2467
 4316TIP3    H112912   0.230   5.105   2.492  0.8983  1.0578  0.8036
 4316TIP3    H212913   0.319   5.079   2.372 -0.6740 -1.1540  0.0356
 4317TIP3   OH212914   5.876   0.352   4.338  0.1100  0.1449 -0.4745
 4317TIP3    H112915   5.797   0.345   4.283  0.0640  0.2986 -0.4274
 4317TIP3    H212916   5.872   0.274   4.394 -0.1651  0.3053 -0.2673
 4318TIP3   OH212917   2.769   3.322   2.211  0.1964 -0.3459 -0.5397
 4318TIP3    H112918   2.683   3.313   2.170  0.1871 -0.1740 -0.5613
 4318TIP3    H212919   2.760   3.282   2.297 -0.0235  0.0453 -0.3800
 4319TIP3   OH212920   5.032   0.887   3.645 -0.1136  0.7761  0.2489
 4319TIP3    H112921   5.074   0.801   3.637 -0.0959  0.6593  1.3613
 4319TIP3    H212922   4.955   0.871   3.701 -1.6031  1.0108 -1.6324
 4320TIP3   OH212923   5.120   0.490   2.374 -0.3732 -0.2946  0.0414
 4320TIP3    H112924   5.175   0.442   2.313  0.5368  0.2499  0.4184
 4320TIP3    H212925   5.089   0.566   2.324 -2.1928 -1.4445 -0.7056
 4321TIP3   OH212926   6.584   6.354   0.931 -1.0432  0.0268  0.3875
 4321TIP3    H112927   6.625   6.280   0.977 -1.5165 -0.0149  0.7474
 4321TIP3    H212928   6.631   6.431   0.965 -0.0944 -0.1434 -0.4798
 4322TIP3   OH212929   5.212   3.655   0.434 -0.1277  0.6156 -0.0517
 4322TIP3    H112930   5.301   3.659   0.398  0.1448  0.4295  0.5775
 4322TIP3    H212931   5.188   3.563   0.427 -0.4320  0.7324 -0.5869
 4323TIP3   OH212932   1.078   6.544   4.459 -0.2796  0.6605 -0.4981
 4323TIP3    H112933   0.987   6.514   4.455 -0.3485  0.7341  0.3598
 4323TIP3    H212934   1.076   6.618   4.519  0.1596  1.4240 -1.4034
 4324TIP3   OH212935   3.928   3.050   0.818 -0.2492 -0.0833 -0.2896
 4324TIP3    H112936   3.841   3.039   0.855 -0.1885  1.9807  0.6142
 4324TIP3    H212937   3.923   3.011   0.731 -1.8587 -0.5992  0.0074
 4325TIP3   OH212938   5.529   0.634   1.950 -0.1550  0.1966 -1.0836
 4325TIP3    H112939   5.510   0.689   2.026 -0.0930  0.1030 -1.0000
 4325TIP3    H212940   5.572   0.557   1.987 -1.7826 -0.7145 -1.0072
 4326TIP3   OH212941   3.859   6.493   5.608 -0.3568  0.1679 -0.0110
 4326TIP3    H112942   3.936   6.455   5.566 -1.1240  0.7226 -2.0746
 4326TIP3    H212943   3.836   6.567   5.551 -2.0841  0.3317  0.8524
 4327TIP3   OH212944   0.785   2.322   2.748  0.3957  0.7197 -0.0126
 4327TIP3    H112945   0.817   2.241   2.710  1.3175  0.4519  1.2811
 4327TIP3    H212946   0.808   2.316   2.841 -1.4728  1.4963  0.5472
 4328TIP3   OH212947   3.582   6.339   3.748 -0.1443 -0.0430 -0.1640
 4328TIP3    H112948   3.576   6.433   3.764 -1.1289  0.5395 -3.2991
 4328TIP3    H212949   3.662   6.329   3.695  1.7367 -1.5101  2.6747
 4329TIP3   OH212950   2.882   2.945   3.611  0.1619  0.0124 -0.0352
 4329TIP3    H112951   2.892   3.038   3.628 -0.0241  0.1437 -0.6127
 4329TIP3    H212952   2.944   2.902   3.671  0.5713  0.5293 -0.0851
 4330TIP3   OH212953   3.824   4.646   4.241  0.2249  0.2087  0.2477
 4330TIP3    H112954   3.765   4.639   4.317 -0.2975  1.1409 -0.0606
 4330TIP3    H212955   3.826   4.558   4.205  0.2597 -0.1889  1.1764
 4331TIP3   OH212956   0.358   4.070   5.385 -0.1130  0.0586 -0.1713
 4331TIP3    H112957   0.379   4.000   5.323  0.4347  0.0927 -0.0204
 4331TIP3    H212958   0.431   4.071   5.446 -0.9902 -0.4482  0.9125
 4332TIP3   OH212959   4.454   3.984   3.200 -0.4145  0.3029 -0.0900
 4332TIP3    H112960   4.504   4.015   3.276  0.4284 -0.3640 -0.3505
 4332TIP3    H212961   4.396   3.917   3.235 -0.9190  0.8646  0.1647
 4333TIP3   OH212962   5.566   0.673   3.502  0.3518  0.4233  0.3100
 4333TIP3    H112963   5.594   0.645   3.589 -0.0398 -2.5517 -0.4218
 4333TIP3    H212964   5.620   0.622   3.442 -0.8260  0.8473 -1.1706
 4334TIP3   OH212965   6.530   1.853   2.368 -0.5428 -0.3349 -0.0592
 4334TIP3    H112966   6.559   1.773   2.411 -1.9629 -1.2993 -0.8213
 4334TIP3    H212967   6.537   1.835   2.275  0.8896  1.1275 -0.2721
 4335TIP3   OH212968   3.851   0.640   0.259  0.0261  0.3838 -0.0594
 4335TIP3    H112969   3.814   0.587   0.329 -1.2502  3.9803  2.2351
 4335TIP3    H212970   3.936   0.669   0.292  1.4697 -1.3382 -1.9698
 4336TIP3   OH212971   3.046   2.183   2.524  0.0870  0.2056  0.0755
 4336TIP3    H112972   3.141   2.195   2.527  0.2012 -0.3553 -0.9495
 4336TIP3    H212973   3.018   2.232   2.447 -0.2805 -0.6757 -0.3699
 4337TIP3   OH212974   2.407   4.563   5.176  1.0873 -1.1607  0.6126
 4337TIP3    H112975   2.313   4.544   5.184  0.5812  0.7890 -0.2093
 4337TIP3    H212976   2.425   4.624   5.248  0.6672  1.8697 -1.6443
 4338TIP3   OH212977   1.101   5.070   3.635 -0.6562 -0.1495 -0.3924
 4338TIP3    H112978   1.112   5.056   3.541 -0.6094 -0.4739 -0.3401
 4338TIP3    H212979   1.087   5.164   3.644  3.0383  0.5490 -0.3943
 4339TIP3   OH212980   5.764   0.957   0.269 -0.5950  0.5065  0.2318
 4339TIP3    H112981   5.786   0.867   0.248  1.3636  1.0831 -0.4064
 4339TIP3    H212982   5.713   0.952   0.350 -0.8822 -1.1759 -0.0215
 4340TIP3   OH212983   5.198   1.147   0.637 -0.4336  0.3406  0.2636
 4340TIP3    H112984   5.145   1.175   0.712 -1.1536 -0.3514  0.0368
 4340TIP3    H212985   5.155   1.188   0.562 -0.2202  0.3521  0.1499
 4341TIP3   OH212986   2.480   1.564   1.999  0.0016  0.0003 -0.1787
 4341TIP3    H112987   2.489   1.614   1.918  3.0608 -1.0767 -0.6371
 4341TIP3    H212988   2.387   1.541   2.003 -1.0864  3.5484 -1.1672
 4342TIP3   OH212989   3.831   6.562   2.187 -0.5045 -0.7389 -0.1599
 4342TIP3    H112990   3.854   6.632   2.249 -0.1031 -2.7441  2.0949
 4342TIP3    H212991   3.852   6.598   2.101 -0.8859  2.1183  0.8413
 4343TIP3   OH212992   0.732   3.656   4.230 -0.4734  0.3454  0.2337
 4343TIP3    H112993   0.664   3.666   4.164  0.3592  0.8290 -0.5823
 4343TIP3    H212994   0.714   3.724   4.295 -0.4162  0.8729 -0.2953
 4344TIP3   OH212995   0.045   5.771   4.011 -0.5669 -0.2295  0.1426
 4344TIP3    H112996  -0.008   5.784   3.932  0.6166 -0.2368 -0.6822
 4344TIP3    H212997   0.134   5.792   3.984 -0.1538 -0.0893  1.5331
 4345TIP3   OH212998   2.801   1.035   2.813 -0.1195  0.1950 -0.2875
 4345TIP3    H112999   2.890   1.064   2.830 -0.1118  0.4593 -0.7532
 4345TIP3    H213000   2.811   0.954   2.764 -0.1368 -0.0517  0.1183
 4346TIP3   OH213001   7.123   2.219   4.017 -0.3962  0.1811 -0.1367
 4346TIP3    H113002   7.160   2.178   4.095 -0.1502 -0.3501 -0.5271
 4346TIP3    H213003   7.146   2.160   3.945 -1.0395  0.4131 -0.5447
 4347TIP3   OH213004   6.177   2.061   0.608 -0.0973  0.3030  0.1074
 4347TIP3    H113005   6.244   2.110   0.560  0.4971 -0.8097 -0.2284
 4347TIP3    H213006   6.226   2.015   0.677 -0.5978 -0.0207  0.2496
 4348TIP3   OH213007   0.339   6.749   1.676 -0.6473 -0.3378  0.9138
 4348TIP3    H113008   0.258   6.757   1.625 -0.4608 -2.2758  0.2505
 4348TIP3    H213009   0.316   6.783   1.762 -2.0163 -0.3596  0.5808
 4349TIP3   OH213010   4.254   4.790   2.174  0.1066  0.6590 -0.4931
 4349TIP3    H113011   4.342   4.828   2.170 -0.1121  1.2226  0.0580
 4349TIP3    H213012   4.204   4.838   2.108  0.2034  0.3403 -0.8049
 4350TIP3   OH213013   3.266   6.171   0.150  0.2087 -0.0188 -0.4671
 4350TIP3    H113014   3.284   6.085   0.110 -0.4837  0.1831 -1.2439
 4350TIP3    H213015   3.179   6.194   0.118 -0.1937  0.3614  0.8434
 4351TIP3   OH213016   5.104   1.407   3.556 -0.4758 -0.5202  0.2296
 4351TIP3    H113017   5.123   1.350   3.482 -2.5869 -2.9474  1.4186
 4351TIP3    H213018   5.009   1.411   3.561 -0.4033  2.0002  1.1006
 4352TIP3   OH213019   1.359   4.627   3.121  0.0504 -0.2664  0.0459
 4352TIP3    H113020   1.385   4.673   3.201 -0.9972 -0.0112  0.2637
 4352TIP3    H213021   1.431   4.567   3.103  0.9512  0.6864  0.3668
 4353TIP3   OH213022   6.686   1.502   2.800 -0.0116 -0.6487  0.0286
 4353TIP3    H113023   6.728   1.419   2.775 -0.0028 -1.2802  1.9183
 4353TIP3    H213024   6.660   1.542   2.718 -0.5531 -2.8192 -0.9243
 4354TIP3   OH213025   0.903   1.398   1.622  0.0872  0.2897 -0.1146
 4354TIP3    H113026   0.829   1.378   1.566  0.7754  0.0193 -0.9561
 4354TIP3    H213027   0.941   1.477   1.585 -0.7959  1.4446  1.3639
 4355TIP3   OH213028   5.910   0.169   4.536 -0.8625 -1.1001  0.2758
 4355TIP3    H113029   5.918   0.074   4.524 -0.0540 -0.9201 -0.7487
 4355TIP3    H213030   5.878   0.179   4.626  1.8243 -2.2654  1.4841
 4356TIP3   OH213031   3.065   4.974   1.468 -0.3462  0.0053 -0.3315
 4356TIP3    H113032   3.074   5.067   1.489 -0.9684 -0.2494  1.1299
 4356TIP3    H213033   3.059   4.930   1.552 -0.6842 -1.3109 -1.0136
 4357TIP3   OH213034   5.871   2.019   1.707  0.0183 -0.2049 -1.1982
 4357TIP3    H113035   5.913   2.104   1.722 -0.1400 -0.1002 -1.3402
 4357TIP3    H213036   5.780   2.041   1.687  0.3298 -0.2897 -2.8466
 4358TIP3   OH213037   5.080   1.592   2.200 -0.3732  0.1600  0.3194
 4358TIP3    H113038   4.996   1.607   2.244 -0.3894 -0.2009  0.4133
 4358TIP3    H213039   5.076   1.647   2.122 -1.0954 -0.5953 -0.1875
 4359TIP3   OH213040   2.091   1.108   3.495  0.0774 -0.4776 -0.0632
 4359TIP3    H113041   2.053   1.052   3.562 -1.1115 -0.4245 -0.6607
 4359TIP3    H213042   2.017   1.160   3.462  0.8390  0.2516 -0.6731
 4360TIP3   OH213043   5.966   5.114   0.913  0.2104  0.3631 -0.4222
 4360TIP3    H113044   5.879   5.103   0.876 -0.0374 -0.1278  0.2878
 4360TIP3    H213045   6.011   5.031   0.894 -0.0782 -0.0895  0.7586
 4361TIP3   OH213046   5.439   5.295   1.222 -0.1068 -0.0014  0.4056
 4361TIP3    H113047   5.532   5.298   1.247 -0.1761  2.5915  0.5855
 4361TIP3    H213048   5.441   5.295   1.127  0.0818  0.5730  0.4063
 4362TIP3   OH213049   4.272   3.103   3.458 -0.3637 -0.2020  0.4255
 4362TIP3    H113050   4.203   3.036   3.464  0.9501 -1.7126 -0.5887
 4362TIP3    H213051   4.295   3.121   3.549  0.5622 -2.5846  0.7291
 4363TIP3   OH213052   4.585   4.978   3.926 -0.4308  0.3673 -0.0065
 4363TIP3    H113053   4.509   4.930   3.892 -1.9985  1.4260  1.7571
 4363TIP3    H213054   4.627   4.917   3.986  0.2437 -0.2890 -1.1275
 4364TIP3   OH213055   0.784   6.732   2.982 -0.1652 -0.3149  0.0606
 4364TIP3    H113056   0.754   6.817   3.016 -0.1692 -0.5033  0.5354
 4364TIP3    H213057   0.879   6.740   2.980 -0.0779 -0.7677  1.3955
 4365TIP3   OH213058   6.968   5.326   4.684 -0.7078  0.0226  0.7262
 4365TIP3    H113059   7.003   5.303   4.770 -0.7994 -1.6047  0.3457
 4365TIP3    H213060   7.030   5.288   4.622 -1.8617 -0.8171  0.0602
 4366TIP3   OH213061   5.124   2.384   4.285 -0.2109 -0.5679 -0.4045
 4366TIP3    H113062   5.077   2.429   4.355  0.9389 -0.7657  0.5465
 4366TIP3    H213063   5.056   2.349   4.229 -1.1635  0.3693  0.1126
 4367TIP3   OH213064   2.844   4.889   3.931 -0.2329 -0.8223 -0.7671
 4367TIP3    H113065   2.796   4.970   3.943  2.6277  1.0896 -1.0939
 4367TIP3    H213066   2.875   4.893   3.840  3.1627 -0.2193  0.2647
 4368TIP3   OH213067   5.983   2.272   2.256  0.2930  0.3276  0.2747
 4368TIP3    H113068   5.981   2.249   2.349  0.5736  1.5343  0.6044
 4368TIP3    H213069   5.962   2.366   2.254  0.2457  0.3100 -0.8830
 4369TIP3   OH213070   5.087   3.091   5.048 -0.0794 -0.0495 -0.0265
 4369TIP3    H113071   5.031   3.136   4.985  0.2730 -1.9461 -1.7923
 4369TIP3    H213072   5.058   3.000   5.046  0.8199 -0.4248  1.6076
 4370TIP3   OH213073   6.402   6.582   5.385 -0.6672 -1.1148 -0.0698
 4370TIP3    H113074   6.475   6.586   5.447 -0.3183 -1.0844 -0.4773
 4370TIP3    H213075   6.418   6.503   5.334 -0.5275 -0.7276 -0.6349
 4371TIP3   OH213076   1.819   3.411   3.098 -0.3165  0.3157  0.1934
 4371TIP3    H113077   1.851   3.478   3.037  1.1234 -0.9822 -0.5365
 4371TIP3    H213078   1.737   3.380   3.060  0.2070  0.0217 -0.7152
 4372TIP3   OH213079   5.961   4.195   1.908  0.0927 -0.3138  0.1852
 4372TIP3    H113080   5.940   4.242   1.988 -1.3553 -0.5284 -0.0301
 4372TIP3    H213081   5.946   4.258   1.838 -2.1278 -1.0851 -0.1241
 4373TIP3   OH213082   1.526   0.568   2.346 -0.3603  0.5925 -0.0384
 4373TIP3    H113083   1.573   0.641   2.386  0.4895 -0.6103  1.2711
 4373TIP3    H213084   1.493   0.602   2.263  1.0772  2.0866 -0.0345
 4374TIP3   OH213085   2.069   1.986   0.841 -0.0362  0.1597 -0.1481
 4374TIP3    H113086   2.051   2.073   0.875  1.2191 -0.2471  1.7349
 4374TIP3    H213087   2.046   1.927   0.914  0.8251 -0.9268 -0.7322
 4375TIP3   OH213088   4.263   1.068   4.234 -0.3773  0.0580  0.2306
 4375TIP3    H113089   4.282   0.974   4.236 -0.4762  0.0448  1.2765
 4375TIP3    H213090   4.335   1.107   4.284  0.4626  0.7034 -1.4205
 4376TIP3   OH213091   5.955   6.642   0.411  0.0664 -0.1824 -0.3733
 4376TIP3    H113092   5.939   6.734   0.431  1.0182 -0.0856  0.0051
 4376TIP3    H213093   5.932   6.634   0.318 -1.1940  0.1399 -0.1089
 4377TIP3   OH213094   6.438   1.269   5.380  0.0943 -0.0167  0.3526
 4377TIP3    H113095   6.477   1.325   5.313  0.3733 -0.3315  0.2479
 4377TIP3    H213096   6.453   1.316   5.463  1.1256 -0.3447  0.3741
 4378TIP3   OH213097   3.337   3.235   5.418 -0.2007 -0.5001 -0.1633
 4378TIP3    H113098   3.258   3.224   5.365 -0.1568  2.5866 -1.0520
 4378TIP3    H213099   3.394   3.291   5.366  1.5930 -0.7001  1.4609
 4379TIP3   OH213100   1.158   5.918   3.381 -0.1731  0.3097  0.4929
 4379TIP3    H113101   1.121   5.944   3.465 -0.1627  0.1353  0.5503
 4379TIP3    H213102   1.161   6.000   3.331  0.6556  0.5787  0.9759
 4380TIP3   OH213103   1.611   3.358   5.213  0.3223 -0.1441  0.2947
 4380TIP3    H113104   1.627   3.275   5.169  0.3661 -1.0762  1.9963
 4380TIP3    H213105   1.516   3.371   5.206  0.6047  1.0404 -2.2649
 4381TIP3   OH213106   2.264   6.674   3.178  0.1683 -1.2641 -0.5657
 4381TIP3    H113107   2.269   6.656   3.084 -0.1303 -2.9234 -0.2971
 4381TIP3    H213108   2.302   6.761   3.188  0.7988 -1.3279 -2.1364
 4382TIP3   OH213109   3.857   5.600   2.026  0.8639 -0.2799 -0.2908
 4382TIP3    H113110   3.831   5.512   2.049  1.3419 -0.8281 -1.7129
 4382TIP3    H213111   3.949   5.606   2.052  0.8404 -0.2203 -0.2218
 4383TIP3   OH213112   5.603   6.565   0.138  0.2157  0.2276  0.1130
 4383TIP3    H113113   5.647   6.509   0.074  0.8902 -1.3012  1.8245
 4383TIP3    H213114   5.641   6.539   0.222 -1.8065  1.0069  1.3278
 4384TIP3   OH213115   2.047   0.830   3.628 -0.4977 -0.0399 -0.0296
 4384TIP3    H113116   2.039   0.749   3.679 -0.4586 -0.4558 -0.6719
 4384TIP3    H213117   2.062   0.898   3.694  1.2203 -0.8024  0.4046
 4385TIP3   OH213118   0.923   5.019   4.103 -0.2155 -0.6925 -0.0306
 4385TIP3    H113119   0.986   5.010   4.031  0.8673 -1.1615  0.9430
 4385TIP3    H213120   0.897   4.929   4.123  1.1911 -0.7784  1.6037
 4386TIP3   OH213121   2.918   4.124   1.650 -0.0113 -0.3461 -0.6828
 4386TIP3    H113122   2.835   4.084   1.625 -0.4483 -0.1453  0.3675
 4386TIP3    H213123   2.931   4.194   1.587 -1.3699  0.5340 -0.0523
 4387TIP3   OH213124   4.968   3.557   4.303 -0.6252  0.3501 -0.0901
 4387TIP3    H113125   4.943   3.556   4.395  0.4387  0.4921  0.2222
 4387TIP3    H213126   4.973   3.464   4.279 -2.5384  0.3137 -0.5072
 4388TIP3   OH213127   4.895   0.163   0.700  0.4244 -0.4683  0.1232
 4388TIP3    H113128   4.969   0.217   0.674 -0.8930  1.7178  0.5888
 4388TIP3    H213129   4.820   0.222   0.697 -1.1406 -2.2973  0.7008
 4389TIP3   OH213130   3.682   5.307   3.250  0.7923  0.2504 -0.1021
 4389TIP3    H113131   3.731   5.232   3.284  0.0416  0.7346  2.2863
 4389TIP3    H213132   3.723   5.383   3.292 -0.8527  0.7989  0.5997
 4390TIP3   OH213133   2.972   4.410   4.578  0.1318  0.4745  0.2469
 4390TIP3    H113134   2.946   4.477   4.641 -0.2339  0.7217 -0.1648
 4390TIP3    H213135   2.959   4.327   4.624  1.6536  0.7061  1.1694
 4391TIP3   OH213136   2.727   4.374   3.980  0.0491  0.5805 -0.4310
 4391TIP3    H113137   2.748   4.421   4.060 -0.2566 -1.0388  0.6409
 4391TIP3    H213138   2.777   4.419   3.912  1.9642  0.7143  0.9989
 4392TIP3   OH213139   0.224   2.152   3.353  0.3471 -0.0785 -0.5816
 4392TIP3    H113140   0.257   2.102   3.278  2.1822  1.3449 -0.7973
 4392TIP3    H213141   0.131   2.167   3.333  0.3722 -1.2459 -1.6867
 4393TIP3   OH213142   7.097   3.949   4.246  0.2339  0.8079  0.3100
 4393TIP3    H113143   7.035   4.013   4.279 -0.7907 -1.0089  2.1240
 4393TIP3    H213144   7.172   3.956   4.305  1.1762  1.9090 -0.9353
 4394TIP3   OH213145   6.854   5.582   2.008 -0.5449  0.0361  0.3875
 4394TIP3    H113146   6.773   5.567   1.959 -0.8749 -0.1119  0.9599
 4394TIP3    H213147   6.924   5.560   1.947 -0.8535  2.1009 -0.8039
 4395TIP3   OH213148   7.063   2.516   2.131  0.1369  0.1348  0.2140
 4395TIP3    H113149   7.136   2.527   2.192 -1.2232  1.4392  1.6905
 4395TIP3    H213150   6.991   2.566   2.170 -1.0545  0.3050 -2.0531
 4396TIP3   OH213151   1.253   2.142   1.449  0.4736  0.0488 -0.1520
 4396TIP3    H113152   1.280   2.102   1.367  2.3017 -1.4019  1.0687
 4396TIP3    H213153   1.326   2.197   1.475 -0.0615  0.4755  0.5031
 4397TIP3   OH213154   2.010   6.602   4.107  0.1421 -0.0597 -0.4264
 4397TIP3    H113155   2.064   6.677   4.084 -0.5865  0.2249 -1.2721
 4397TIP3    H213156   2.069   6.527   4.103  0.3633  0.1750 -1.8751
 4398TIP3   OH213157   2.125   6.452   1.671  0.2967 -0.6568  0.0669
 4398TIP3    H113158   2.183   6.518   1.633 -2.3826  1.9516  0.0951
 4398TIP3    H213159   2.144   6.454   1.765 -0.0008  0.3622  0.1126
 4399TIP3   OH213160   0.177   4.338   1.502  0.1983 -0.5252 -0.5320
 4399TIP3    H113161   0.115   4.383   1.560 -0.0991 -0.1718 -1.1132
 4399TIP3    H213162   0.136   4.341   1.416 -0.3986 -2.9751 -0.3999
 4400TIP3   OH213163   7.200   3.101   3.938  1.0779  0.7379 -0.3637
 4400TIP3    H113164   7.134   3.037   3.912 -0.9109  2.5362  0.0147
 4400TIP3    H213165   7.267   3.097   3.869  0.5210 -0.9898 -0.8530
 4401TIP3   OH213166   7.108   2.429   1.017  0.2773 -0.1813  0.1680
 4401TIP3    H113167   7.029   2.382   1.043  0.3718 -0.1187  0.5630
 4401TIP3    H213168   7.097   2.442   0.922  0.3654 -1.2169  0.0032
 4402TIP3   OH213169   4.297   3.036   2.948  0.1662 -0.5002  0.1188
 4402TIP3    H113170   4.303   3.030   2.853 -0.0751 -2.2601  0.1842
 4402TIP3    H213171   4.383   3.066   2.977  0.3616 -0.3458 -0.6213
 4403TIP3   OH213172   3.733   5.786   0.767  0.6231 -0.0019  0.1083
 4403TIP3    H113173   3.724   5.789   0.671  1.4975 -1.2293 -0.0465
 4403TIP3    H213174   3.826   5.803   0.783 -0.0734  3.7807  1.0400
 4404TIP3   OH213175   5.620   2.758   1.425  0.0086 -0.6165  0.3405
 4404TIP3    H113176   5.542   2.703   1.435  0.7986 -1.6245  1.2074
 4404TIP3    H213177   5.681   2.704   1.376 -0.5239  0.9344 -2.2003
 4405TIP3   OH213178   5.295   3.330   4.384  0.1682 -0.2313  0.3745
 4405TIP3    H113179   5.318   3.275   4.459 -0.8410  0.3739  1.1574
 4405TIP3    H213180   5.242   3.401   4.422  2.1303  1.7925 -0.4402
 4406TIP3   OH213181   4.214   3.591   4.137  0.2534 -0.6179  0.7054
 4406TIP3    H113182   4.298   3.627   4.107  1.1749 -0.8863  2.8093
 4406TIP3    H213183   4.220   3.497   4.118 -0.7612 -0.2725 -1.6634
 4407TIP3   OH213184   4.891   1.681   2.407 -0.5179  0.2987  0.3460
 4407TIP3    H113185   4.931   1.749   2.462 -0.0763  0.0516  0.3345
 4407TIP3    H213186   4.890   1.604   2.463  0.0113  0.0217 -0.0218
 4408TIP3   OH213187   0.472   6.356   1.734  0.8170 -0.0709  0.2405
 4408TIP3    H113188   0.395   6.301   1.714  2.1062 -2.0669  0.4279
 4408TIP3    H213189   0.447   6.443   1.704 -0.4184 -1.2470 -2.5597
 4409TIP3   OH213190   1.099   4.210   3.685  0.4151 -0.5681  0.6314
 4409TIP3    H113191   1.187   4.172   3.685  0.1842 -1.1115  1.7382
 4409TIP3    H213192   1.046   4.148   3.635  0.6327 -0.2641  0.0046
 4410TIP3   OH213193   0.334   0.614   4.753  0.3910  0.1293 -0.1045
 4410TIP3    H113194   0.399   0.683   4.739  1.4710 -1.0214 -0.8683
 4410TIP3    H213195   0.308   0.624   4.845  0.5497  1.5224 -0.1873
 4411TIP3   OH213196   1.552   0.823   1.354  0.3789  0.5291 -0.0162
 4411TIP3    H113197   1.575   0.737   1.319  0.5544  0.3743  0.4761
 4411TIP3    H213198   1.526   0.874   1.277  0.8202  0.2144 -0.3782
 4412TIP3   OH213199   1.579   1.133   3.800  0.2079 -0.5909 -0.2275
 4412TIP3    H113200   1.631   1.144   3.879 -0.2253  0.6555 -0.0759
 4412TIP3    H213201   1.617   1.058   3.755  1.3853 -0.4100  0.4385
 4413TIP3   OH213202   3.062   5.376   0.657  0.4015  0.1589 -0.1900
 4413TIP3    H113203   3.080   5.337   0.571  0.2828  1.4107 -0.8153
 4413TIP3    H213204   3.132   5.439   0.670 -0.2669  0.8751  0.0459
 4414TIP3   OH213205   4.703   1.477   2.988 -0.0691  0.0303  1.1714
 4414TIP3    H113206   4.741   1.564   3.005 -0.8469  0.5472  0.3619
 4414TIP3    H213207   4.622   1.496   2.940 -1.5784 -1.0062  3.1438
 4415TIP3   OH213208   6.321   3.621   0.464 -0.1029  0.2256  0.1528
 4415TIP3    H113209   6.411   3.607   0.494 -0.1935 -0.6327  0.0426
 4415TIP3    H213210   6.329   3.638   0.371 -0.2238 -2.4747 -0.4358
 4416TIP3   OH213211   5.209   0.055   1.126 -0.1060  0.0208  0.2714
 4416TIP3    H113212   5.120   0.069   1.159  0.1946  3.2118  0.0537
 4416TIP3    H213213   5.197   0.025   1.036 -0.9388  0.0789  0.3560
 4417TIP3   OH213214   1.179   4.808   2.488 -0.0589 -0.8266 -0.0073
 4417TIP3    H113215   1.177   4.904   2.490  0.4253 -0.8313  0.8918
 4417TIP3    H213216   1.143   4.781   2.572 -0.4805 -1.4470 -0.3806
 4418TIP3   OH213217   1.043   5.940   5.501  0.2116 -0.2453  0.1816
 4418TIP3    H113218   1.097   5.955   5.578  1.3976 -0.8161 -0.5036
 4418TIP3    H213219   1.077   5.859   5.463  0.0573  0.3163 -1.2478
 4419TIP3   OH213220   3.093   3.290   0.151  0.3860 -0.4307  0.3306
 4419TIP3    H113221   3.095   3.285   0.055  2.6427 -1.7506  0.3842
 4419TIP3    H213222   3.058   3.205   0.179  4.4240 -2.1715  0.6650
 4420TIP3   OH213223   0.743   0.177   2.657 -0.2370 -0.5429 -0.4215
 4420TIP3    H113224   0.789   0.136   2.584 -0.7367  1.3590 -1.9053
 4420TIP3    H213225   0.799   0.161   2.733  2.5410  0.9192 -1.9775
 4421TIP3   OH213226   5.318   5.329   2.499  0.8795  0.1009 -0.3390
 4421TIP3    H113227   5.273   5.410   2.475  0.5002  0.1873  0.6396
 4421TIP3    H213228   5.255   5.260   2.481  0.7954  0.1198 -0.1214
 4422TIP3   OH213229   3.740   3.161   4.554  0.2686  0.3581  0.2008
 4422TIP3    H113230   3.658   3.113   4.569 -0.7951  1.2303 -2.2747
 4422TIP3    H213231   3.712   3.251   4.537  1.6922  0.6188 -0.9600
 4423TIP3   OH213232   0.417   0.675   2.360 -0.1325  0.6006 -0.4932
 4423TIP3    H113233   0.491   0.726   2.391 -0.6509  2.0097 -1.4715
 4423TIP3    H213234   0.411   0.696   2.267 -1.1723 -0.2478 -0.6406
 4424TIP3   OH213235   3.195   3.926   5.589  0.0061 -0.0270 -0.1993
 4424TIP3    H113236   3.130   3.912   5.657 -0.3600  1.0167 -0.3192
 4424TIP3    H213237   3.160   3.999   5.537  0.8340 -0.0505 -0.8056
 4425TIP3   OH213238   1.472   5.792   0.300 -0.5712  0.3101  0.3444
 4425TIP3    H113239   1.442   5.749   0.381  1.4259 -1.7291  0.0852
 4425TIP3    H213240   1.395   5.792   0.243 -1.1935 -1.0609  1.1401
 4426TIP3   OH213241   3.078   3.507   2.785 -0.1339  0.6159  0.4529
 4426TIP3    H113242   3.032   3.430   2.752  0.4579  0.4012  0.1042
 4426TIP3    H213243   3.092   3.562   2.707 -0.8170  1.2165  0.7504
 4427TIP3   OH213244   1.120   6.489   0.561 -0.0395  0.6740 -0.0780
 4427TIP3    H113245   1.146   6.517   0.473  0.8472  0.7730  0.2098
 4427TIP3    H213246   1.123   6.569   0.614 -0.5548  0.6117  0.0523
 4428TIP3   OH213247   2.607   4.292   0.898  0.2762  0.0304 -0.2113
 4428TIP3    H113248   2.652   4.283   0.981 -0.8199  0.9974  0.5137
 4428TIP3    H213249   2.555   4.371   0.906 -0.1019 -0.0193 -1.7063
 4429TIP3   OH213250   2.585   1.316   2.522 -0.2885  0.1639  0.5931
 4429TIP3    H113251   2.565   1.230   2.559  0.2643  0.1443  0.8533
 4429TIP3    H213252   2.545   1.314   2.435 -1.3584  0.1057  1.0586
 4430TIP3   OH213253   4.818   3.335   0.950  0.5344  0.2762  0.1034
 4430TIP3    H113254   4.743   3.394   0.958  1.5362  1.8283 -1.1046
 4430TIP3    H213255   4.812   3.276   1.025 -2.1697 -0.0150 -0.2720
 4431TIP3   OH213256   5.569   0.529   4.568 -0.2881  0.1908 -0.3147
 4431TIP3    H113257   5.580   0.465   4.639 -0.3432  0.1813 -0.3145
 4431TIP3    H213258   5.569   0.614   4.612  3.4072  0.4923 -0.6194
 4432TIP3   OH213259   2.969   5.013   2.952  0.6264  0.0430 -0.3860
 4432TIP3    H113260   2.943   4.933   2.907 -1.2193  0.2196  0.2716
 4432TIP3    H213261   2.981   5.077   2.883  1.4361 -0.6126 -0.8686
 4433TIP3   OH213262   5.105   2.666   3.645 -0.4286 -0.9501  0.2025
 4433TIP3    H113263   5.134   2.732   3.708 -0.9359 -1.6415  1.1857
 4433TIP3    H213264   5.184   2.642   3.597 -0.1004 -0.1676  0.3323
 4434TIP3   OH213265   5.389   5.418   5.252 -0.1236 -1.2662  0.1448
 4434TIP3    H113266   5.424   5.441   5.338 -0.3993 -2.0890  0.4880
 4434TIP3    H213267   5.454   5.451   5.190 -0.7325  0.8354  0.5608
 4435TIP3   OH213268   2.179   6.154   4.035 -0.1948 -0.3149  0.2789
 4435TIP3    H113269   2.257   6.105   4.061  0.1517  1.1710  2.2991
 4435TIP3    H213270   2.110   6.089   4.031  1.1752 -1.7286 -1.9004
 4436TIP3   OH213271   0.937   5.074   1.956  0.2517  0.3787 -0.1106
 4436TIP3    H113272   0.968   5.098   2.043 -0.5352  0.2493  0.2054
 4436TIP3    H213273   0.842   5.079   1.961  0.1167 -1.4320 -0.4467
 4437TIP3   OH213274   3.265   3.839   2.395 -0.2662  0.0649 -0.4459
 4437TIP3    H113275   3.234   3.789   2.471 -1.0835 -1.1804 -1.5477
 4437TIP3    H213276   3.213   3.806   2.322  1.0951  0.6068 -1.7147
 4438TIP3   OH213277   7.103   0.670   3.825 -0.4079  0.1138  0.6960
 4438TIP3    H113278   7.115   0.657   3.919 -1.9835 -4.2034  0.5245
 4438TIP3    H213279   7.015   0.637   3.807  0.4138 -0.6790 -2.4772
 4439TIP3   OH213280   4.912   2.102   3.291  0.2188 -0.0628  0.1259
 4439TIP3    H113281   4.900   2.021   3.342 -1.1684  0.0814  0.0529
 4439TIP3    H213282   4.864   2.168   3.340 -0.3901  0.2700 -0.8958
 4440TIP3   OH213283   6.339   3.701   2.907 -0.0795 -0.4966  0.3647
 4440TIP3    H113284   6.296   3.763   2.966  0.3172  1.2085 -1.0313
 4440TIP3    H213285   6.422   3.681   2.950  1.4004  2.7647 -0.6471
 4441TIP3   OH213286   0.524   6.623   1.896  0.4538  0.1705 -0.0228
 4441TIP3    H113287   0.573   6.542   1.881  1.6180  0.7690  0.3807
 4441TIP3    H213288   0.569   6.688   1.843 -1.1598  0.3561 -1.2268
 4442TIP3   OH213289   2.309   5.423   0.414  0.1647 -0.3668 -0.8655
 4442TIP3    H113290   2.275   5.495   0.362  0.6308  0.2322 -0.3473
 4442TIP3    H213291   2.397   5.450   0.438 -0.4559 -0.0783  1.2586
 4443TIP3   OH213292   0.571   5.317   4.849  0.0357 -0.4997  0.0923
 4443TIP3    H113293   0.522   5.359   4.920 -1.1460  0.9545 -1.4998
 4443TIP3    H213294   0.638   5.381   4.826 -1.8647  0.7370 -2.4579
 4444TIP3   OH213295   3.698   4.392   3.179  0.5835  0.4765 -0.4951
 4444TIP3    H113296   3.672   4.464   3.236 -0.3041  1.5953 -2.2352
 4444TIP3    H213297   3.616   4.348   3.157  1.1302 -1.3240  0.7732
 4445TIP3   OH213298   3.840   5.072   1.963  0.4251  0.0237 -0.1708
 4445TIP3    H113299   3.868   5.060   1.872  1.9721 -0.9086  0.3941
 4445TIP3    H213300   3.782   4.998   1.979  0.6530 -0.1638 -0.2072
 4446TIP3   OH213301   3.057   1.765   4.092  0.0267  0.4096 -0.4984
 4446TIP3    H113302   3.099   1.679   4.098  1.8693  1.0537 -2.7033
 4446TIP3    H213303   2.970   1.752   4.130  0.5432 -2.2042 -0.0262
 4447TIP3   OH213304   5.267   4.801   4.642  0.1417  0.1088 -0.0441
 4447TIP3    H113305   5.332   4.802   4.713 -0.2431  1.1055  0.3043
 4447TIP3    H213306   5.281   4.882   4.595  1.5658 -1.3144 -2.2515
 4448TIP3   OH213307   3.856   2.521   5.204 -0.0830 -0.3662 -0.4599
 4448TIP3    H113308   3.891   2.448   5.153  1.4373  0.5519 -0.7946
 4448TIP3    H213309   3.910   2.522   5.284 -0.5836 -0.0541 -0.1221
 4449TIP3   OH213310   7.004   2.058   5.808  0.5295  0.0032  0.1148
 4449TIP3    H113311   7.052   2.001   5.748  0.6065 -0.0459  0.2223
 4449TIP3    H213312   7.072   2.097   5.864  0.6749  1.5596 -1.0772
 4450TIP3   OH213313   2.753   6.342   4.379  0.0525 -0.1499 -0.2202
 4450TIP3    H113314   2.673   6.394   4.392 -1.1761 -1.6383 -1.3446
 4450TIP3    H213315   2.821   6.407   4.362 -0.3097  1.3250  3.2154
 4451TIP3   OH213316   4.191   3.835   1.043  0.4381  0.0917 -1.0734
 4451TIP3    H113317   4.104   3.801   1.022  0.3053 -1.8911  1.9724
 4451TIP3    H213318   4.177   3.927   1.061 -0.9783 -0.1264 -0.9472
 4452TIP3   OH213319   5.061   5.139   4.358 -0.4981  0.5123  0.3836
 4452TIP3    H113320   5.025   5.227   4.347 -0.8497  0.4504  0.9441
 4452TIP3    H213321   5.100   5.118   4.274  3.0918  2.7398  1.2606
 4453TIP3   OH213322   4.421   3.446   1.945 -0.0107 -0.1079 -0.1550
 4453TIP3    H113323   4.397   3.451   1.852  0.1441  1.1364 -0.1406
 4453TIP3    H213324   4.352   3.392   1.984 -1.7712  1.8140 -0.4734
 4454TIP3   OH213325  -0.017   6.159   2.509 -0.0096  0.2086 -0.3248
 4454TIP3    H113326  -0.004   6.116   2.425 -1.0398 -1.0340  0.1247
 4454TIP3    H213327   0.028   6.243   2.500  0.2181 -0.0612 -1.9748
 4455TIP3   OH213328   5.605   3.192   1.751 -0.7848 -0.3802 -1.1148
 4455TIP3    H113329   5.627   3.212   1.842 -0.2149  1.6545 -1.6638
 4455TIP3    H213330   5.596   3.096   1.750  0.4954 -0.5855  0.7936
 4456TIP3   OH213331   4.745   1.744   3.113  0.3852  0.7581 -0.5695
 4456TIP3    H113332   4.756   1.754   3.208  0.2794  1.5070 -0.6237
 4456TIP3    H213333   4.720   1.832   3.084 -3.1446 -0.1635 -0.8005
 4457TIP3   OH213334   2.870   3.502   3.163  0.3441  0.1903 -0.1678
 4457TIP3    H113335   2.860   3.592   3.133  0.1625  0.3828  0.4636
 4457TIP3    H213336   2.789   3.482   3.209  0.0547 -0.5636 -0.9786
 4458TIP3   OH213337   2.630   2.946   2.734 -0.5171  0.2355 -0.0750
 4458TIP3    H113338   2.700   2.983   2.787  0.3660  1.3027 -1.8761
 4458TIP3    H213339   2.646   2.852   2.735  1.3732  0.4912 -0.9255
 4459TIP3   OH213340   1.509   0.148   3.222  0.0931  0.2926  0.6508
 4459TIP3    H113341   1.511   0.095   3.143 -2.4456  1.4857 -0.3357
 4459TIP3    H213342   1.591   0.198   3.220  1.0996 -1.3052  0.0280
 4460TIP3   OH213343   1.327   6.006   3.801  0.1439  0.1115 -0.1580
 4460TIP3    H113344   1.289   5.978   3.884 -1.0036 -3.6679 -1.7545
 4460TIP3    H213345   1.255   6.003   3.739  1.2480  1.5640 -1.5927
 4461TIP3   OH213346   5.337   0.072   3.431  0.1617  0.7312  0.1210
 4461TIP3    H113347   5.287   0.014   3.373  1.7945  1.2912 -1.9598
 4461TIP3    H213348   5.399   0.013   3.475  1.2837  0.7296 -1.3936
 4462TIP3   OH213349   2.477   3.397   4.400 -0.4431 -0.0626  0.9573
 4462TIP3    H113350   2.396   3.427   4.358  0.2175 -0.0675 -0.3846
 4462TIP3    H213351   2.499   3.316   4.355  0.3978  0.0298  1.1812
 4463TIP3   OH213352   5.300   5.712   1.450 -0.2938 -0.3648 -0.0108
 4463TIP3    H113353   5.312   5.784   1.388 -1.1636  0.9601  1.3015
 4463TIP3    H213354   5.385   5.702   1.492 -0.5375  0.9199  0.8334
 4464TIP3   OH213355   0.655   4.112   5.161  0.7340  0.0665  0.0099
 4464TIP3    H113356   0.708   4.098   5.241 -0.8000  0.0404  1.0606
 4464TIP3    H213357   0.653   4.206   5.150 -0.4537  0.1896  1.0288
 4465TIP3   OH213358   3.392   1.893   1.817  0.0677 -0.5100  0.2032
 4465TIP3    H113359   3.434   1.978   1.804  1.5626 -1.5308 -2.3632
 4465TIP3    H213360   3.300   1.914   1.834  0.4340  1.6115 -0.1843
 4466TIP3   OH213361   4.489   4.329   4.157  0.0351 -0.9468  0.3224
 4466TIP3    H113362   4.534   4.400   4.205 -1.2066 -0.8513  1.4013
 4466TIP3    H213363   4.453   4.273   4.226 -0.5428 -1.6393 -0.5258
 4467TIP3   OH213364   4.310   6.160   4.243 -0.1897  0.7044  0.4584
 4467TIP3    H113365   4.406   6.158   4.238 -0.2360  0.4791 -0.4648
 4467TIP3    H213366   4.281   6.125   4.159 -1.0897  0.4355  0.8751
 4468TIP3   OH213367   3.546   0.090   1.806  0.2900 -0.0607  0.0211
 4468TIP3    H113368   3.482   0.133   1.862  2.1450  1.6594  0.9293
 4468TIP3    H213369   3.494   0.050   1.736 -1.6912  2.2226  0.0704
 4469TIP3   OH213370   2.323   6.597   2.261 -0.1771 -0.0032  0.1152
 4469TIP3    H113371   2.312   6.534   2.333 -0.7902 -0.4228 -0.3416
 4469TIP3    H213372   2.234   6.623   2.237 -0.0392 -0.5895 -1.1205
 4470TIP3   OH213373   3.642   2.961   1.898  0.1322 -0.3773 -0.2498
 4470TIP3    H113374   3.557   2.976   1.856  0.3627  0.0979 -0.5635
 4470TIP3    H213375   3.660   2.868   1.885 -0.2182 -0.4201 -0.4236
 4471TIP3   OH213376   4.426   1.424   0.646  0.1203  0.1611 -0.3413
 4471TIP3    H113377   4.426   1.349   0.705  3.1139  0.1563 -0.1785
 4471TIP3    H213378   4.451   1.499   0.701  3.9536 -0.0081 -1.5546
 4472TIP3   OH213379   2.479   1.279   0.155  0.1960  0.1466  0.8559
 4472TIP3    H113380   2.454   1.299   0.245 -1.2605  0.4020  0.4207
 4472TIP3    H213381   2.405   1.231   0.120  0.7623  0.0249 -0.2097
 4473TIP3   OH213382   6.283   6.825   5.516  0.3020 -0.1275  0.5243
 4473TIP3    H113383   6.309   6.771   5.441 -1.3333  1.9358 -1.6791
 4473TIP3    H213384   6.209   6.778   5.555  0.5235 -0.7372  0.2209
 4474TIP3   OH213385   2.073   3.466   4.653  0.0263  0.4540  0.3721
 4474TIP3    H113386   2.070   3.465   4.558  0.0288  2.3121  0.3190
 4474TIP3    H213387   1.981   3.460   4.680  0.1181 -3.1366  0.4152
 4475TIP3   OH213388   5.639   5.133   2.087  0.1504 -0.3719  0.8152
 4475TIP3    H113389   5.640   5.228   2.071  0.4678 -0.5332 -0.2040
 4475TIP3    H213390   5.606   5.124   2.176 -1.5067  0.6179  0.3437
 4476TIP3   OH213391   3.613   1.150   3.390 -0.5359 -0.4119 -0.0367
 4476TIP3    H113392   3.630   1.173   3.298 -1.9853 -1.3522 -0.5747
 4476TIP3    H213393   3.616   1.234   3.436  0.9549 -0.0037 -0.7916
 4477TIP3   OH213394   1.765   1.962   1.758 -0.3159  0.3759 -0.0620
 4477TIP3    H113395   1.819   1.883   1.759 -1.9531 -0.8166 -1.1280
 4477TIP3    H213396   1.801   2.014   1.686  0.4572  0.3810  0.3212
 4478TIP3   OH213397   3.654   1.793   4.840  0.0716 -0.0826  0.2071
 4478TIP3    H113398   3.741   1.831   4.833  0.2963 -0.8335 -2.3023
 4478TIP3    H213399   3.595   1.860   4.807 -0.1150 -0.1391  0.4215
 4479TIP3   OH213400   6.605   3.248   1.958  0.1357 -0.1364 -0.0620
 4479TIP3    H113401   6.691   3.236   1.917  0.0673  2.2089 -1.0967
 4479TIP3    H213402   6.625   3.270   2.049  0.6886  0.6118 -0.3475
 4480TIP3   OH213403   0.169   4.364   5.028  0.3527  0.1275 -0.3718
 4480TIP3    H113404   0.260   4.391   5.037 -0.3116  2.6525 -0.5456
 4480TIP3    H213405   0.144   4.394   4.940 -0.7515 -0.2199 -0.1898
 4481TIP3   OH213406   1.991   1.963   2.550  0.5284  0.3343 -0.2740
 4481TIP3    H113407   2.003   1.870   2.531 -0.3114  0.1131  0.2321
 4481TIP3    H213408   1.937   1.995   2.478 -2.5998 -0.4898  1.5189
 4482TIP3   OH213409   2.938   6.687   5.030 -0.3345 -0.7070 -0.0165
 4482TIP3    H113410   2.921   6.658   5.120 -0.0377 -0.4874  0.1106
 4482TIP3    H213411   3.028   6.718   5.031 -0.4186 -0.4447 -0.3218
 4483TIP3   OH213412   5.708   5.442   2.090 -0.0363 -0.3047  0.8257
 4483TIP3    H113413   5.711   5.480   2.002  0.3787  1.8137  1.6992
 4483TIP3    H213414   5.615   5.444   2.114 -0.5848 -3.4438 -0.5243
 4484TIP3   OH213415   5.862   1.890   3.934  0.1792 -0.5965  0.1113
 4484TIP3    H113416   5.927   1.957   3.913 -0.9318  0.6566  0.5786
 4484TIP3    H213417   5.805   1.930   3.999 -0.2497 -2.1709  0.7605
 4485TIP3   OH213418   5.993   2.968   4.791  0.6912 -0.0728  0.1121
 4485TIP3    H113419   5.910   2.925   4.770 -0.0793  1.8711 -1.0121
 4485TIP3    H213420   5.990   2.983   4.885  0.0075 -0.4910  0.1578
 4486TIP3   OH213421   2.009   0.877   1.569  0.0517  0.7367  0.1131
 4486TIP3    H113422   2.044   0.792   1.596 -0.0504  0.4841 -0.5280
 4486TIP3    H213423   2.068   0.907   1.500 -1.1860  0.1109 -1.2839
 4487TIP3   OH213424   1.055   0.834   5.460  0.1415 -0.3112  0.1185
 4487TIP3    H113425   1.015   0.807   5.378 -0.0455  0.9072 -0.2130
 4487TIP3    H213426   1.149   0.836   5.443  0.0095  1.5258 -0.5957
 4488TIP3   OH213427   1.518   2.578   4.668 -0.2475  0.4849  0.1526
 4488TIP3    H113428   1.520   2.643   4.738  4.5948  0.8624  0.0274
 4488TIP3    H213429   1.542   2.628   4.589 -0.2764 -0.7937 -0.6986
 4489TIP3   OH213430   4.663   4.136   1.115 -0.3381  0.6676  0.1481
 4489TIP3    H113431   4.726   4.065   1.103 -1.3152 -0.1728 -0.1364
 4489TIP3    H213432   4.666   4.155   1.209 -0.1266  0.1869  0.2432
 4490TIP3   OH213433   0.598   5.785   3.034 -0.2553 -0.0273  0.0833
 4490TIP3    H113434   0.611   5.877   3.055  0.3311  0.2283 -1.3114
 4490TIP3    H213435   0.503   5.776   3.023 -0.4315  0.1306  1.3900
 4491TIP3   OH213436   4.059   3.218   5.627 -0.3191  0.6123  0.2836
 4491TIP3    H113437   4.114   3.252   5.557 -1.8057  2.0625 -0.2585
 4491TIP3    H213438   4.006   3.150   5.585 -0.8653  1.1431  0.0955
 4492TIP3   OH213439   2.335   1.373   1.776 -0.1472  0.4787  0.1595
 4492TIP3    H113440   2.330   1.353   1.869  2.6490  0.0835  0.3023
 4492TIP3    H213441   2.252   1.342   1.740 -1.2569  0.5712  2.4799
 4493TIP3   OH213442   1.722   1.042   3.317  0.5071  0.3465 -0.2040
 4493TIP3    H113443   1.689   1.107   3.254 -1.3515 -0.8480 -0.5292
 4493TIP3    H213444   1.702   1.079   3.402 -1.7636 -0.3057 -0.3898
 4494TIP3   OH213445   1.646   3.254   1.255 -0.4119 -0.0269  0.0675
 4494TIP3    H113446   1.594   3.332   1.276 -0.5362 -0.2850  0.7487
 4494TIP3    H213447   1.596   3.210   1.186 -0.1522  0.6843 -0.5870
 4495TIP3   OH213448   5.417   1.257   3.116 -0.0416  0.5059 -0.2864
 4495TIP3    H113449   5.495   1.209   3.090  1.5858  2.5473  0.4899
 4495TIP3    H213450   5.361   1.257   3.038  0.3335 -1.6768 -0.6084
 4496TIP3   OH213451   5.251   3.404   4.784  1.0351 -0.0905 -0.2947
 4496TIP3    H113452   5.208   3.446   4.858 -1.3444 -0.5430 -1.3197
 4496TIP3    H213453   5.253   3.311   4.807 -1.5882 -0.5417 -1.5372
 4497TIP3   OH213454   7.110   4.901   2.840  0.2708  0.3177  0.0963
 4497TIP3    H113455   7.116   4.941   2.927 -0.1001 -1.7778  1.1263
 4497TIP3    H213456   7.044   4.954   2.794 -0.0172  1.0323  1.2977
 4498TIP3   OH213457   2.767   5.720   2.962 -0.1356 -0.2322 -0.1727
 4498TIP3    H113458   2.806   5.646   2.916  0.8967  0.9630 -1.3075
 4498TIP3    H213459   2.826   5.794   2.944 -0.1577  0.5069  2.4026
 4499TIP3   OH213460   4.577   1.676   4.115 -0.3432  0.4335 -0.2705
 4499TIP3    H113461   4.601   1.598   4.064 -0.0000  0.7211 -0.5523
 4499TIP3    H213462   4.512   1.721   4.060 -1.2932 -0.1697  0.3406
 4500TIP3   OH213463   3.071   3.001   2.017 -0.5888  0.4280  0.4656
 4500TIP3    H113464   3.097   2.966   2.103 -0.7360 -0.0778  0.3120
 4500TIP3    H213465   3.061   3.095   2.031 -0.5639  0.3570  0.9928
 4501TIP3   OH213466   0.367   5.317   4.462  0.9950 -0.0909  0.9243
 4501TIP3    H113467   0.414   5.397   4.486  0.7165  0.0032  1.1620
 4501TIP3    H213468   0.275   5.340   4.469  0.9097 -0.1879  0.1573
 4502TIP3   OH213469   2.323   0.514   3.094  0.1546  0.4875  0.7490
 4502TIP3    H113470   2.416   0.497   3.106  0.0658 -1.2650 -0.6602
 4502TIP3    H213471   2.312   0.527   3.000 -0.6853  3.3146  1.1223
 4503TIP3   OH213472   1.310   3.523   2.560  0.2246  0.0530 -0.1929
 4503TIP3    H113473   1.381   3.459   2.570  0.3062  0.4072  1.9752
 4503TIP3    H213474   1.240   3.490   2.617 -0.0775  1.3920  0.2435
 4504TIP3   OH213475   2.681   3.086   0.236 -0.1525 -0.3417 -0.3007
 4504TIP3    H113476   2.726   3.055   0.156  0.8662  0.1969  0.0406
 4504TIP3    H213477   2.749   3.133   0.284 -1.3086  1.3170 -0.1863
 4505TIP3   OH213478   2.556   6.600   5.041  0.1087  0.0538  0.1284
 4505TIP3    H113479   2.540   6.677   5.095  1.2823 -1.1923  2.3562
 4505TIP3    H213480   2.633   6.623   4.988 -0.1590  0.7560  0.0369
 4506TIP3   OH213481   6.640   5.134   0.317 -0.2257  0.1161  0.2194
 4506TIP3    H113482   6.548   5.109   0.323 -0.4714  0.0591 -2.5463
 4506TIP3    H213483   6.642   5.227   0.336 -0.3932 -0.3550  2.9607
 4507TIP3   OH213484   6.810   4.246   2.212 -0.7375  0.1848  0.0519
 4507TIP3    H113485   6.736   4.216   2.159 -0.8773  0.8368 -0.1268
 4507TIP3    H213486   6.885   4.198   2.178 -0.6607  1.2208 -1.3393
 4508TIP3   OH213487   0.542   1.392   3.411  0.1276  0.4136  1.0735
 4508TIP3    H113488   0.566   1.299   3.413 -0.5479  0.1983  0.1894
 4508TIP3    H213489   0.625   1.438   3.418  0.5884 -0.2801  0.4001
 4509TIP3   OH213490   3.428   5.362   3.326  0.1975  0.0882  0.2177
 4509TIP3    H113491   3.369   5.342   3.253 -1.3029  0.5728  1.2544
 4509TIP3    H213492   3.508   5.314   3.305 -0.9635 -1.6043 -0.6631
 4510TIP3   OH213493   3.821   5.805   1.658 -0.1251 -0.7005  0.1655
 4510TIP3    H113494   3.836   5.711   1.670 -2.3100 -1.1903 -0.4515
 4510TIP3    H213495   3.801   5.814   1.565  2.6200  0.8421 -0.3866
 4511TIP3   OH213496   4.000   5.807   0.888 -0.5689 -0.3750  0.0211
 4511TIP3    H113497   4.021   5.803   0.981 -0.9903  0.0472  0.1382
 4511TIP3    H213498   4.084   5.800   0.844 -0.4092 -1.0850  0.4135
 4512TIP3   OH213499   4.199   6.488   5.250 -0.2533 -0.1177  0.7760
 4512TIP3    H113500   4.142   6.455   5.180 -1.0180  1.2240  0.7459
 4512TIP3    H213501   4.288   6.468   5.219 -0.6007 -0.0608 -0.3141
 4513TIP3   OH213502   4.570   3.336   0.377 -0.2512  0.6154 -0.4592
 4513TIP3    H113503   4.623   3.396   0.325 -0.2631  2.7056  1.7387
 4513TIP3    H213504   4.558   3.382   0.461 -1.4922 -1.8797  0.8315
 4514TIP3   OH213505   1.609   4.289   0.091  1.0654 -0.1159  0.0237
 4514TIP3    H113506   1.667   4.363   0.112  0.5636  0.2202  0.2373
 4514TIP3    H213507   1.615   4.281  -0.004  0.2101  0.9725 -0.1460
 4515TIP3   OH213508   5.015   2.256   2.645  0.0688  0.2145  0.5272
 4515TIP3    H113509   4.942   2.261   2.707 -0.4298  0.1365 -0.0459
 4515TIP3    H213510   4.976   2.218   2.566  0.4042  1.5121 -0.2807
 4516TIP3   OH213511   2.214   4.912   3.539  0.2690 -0.2884  0.1297
 4516TIP3    H113512   2.263   4.903   3.621  0.0107 -1.5947  0.1709
 4516TIP3    H213513   2.238   4.834   3.489  0.3500  0.4598 -1.0067
 4517TIP3   OH213514   3.131   5.098   3.453  0.2299  0.0987  0.0699
 4517TIP3    H113515   3.079   5.053   3.386 -0.3768 -0.2613  0.7690
 4517TIP3    H213516   3.126   5.190   3.430 -2.7002  0.3744  1.3898
 4518TIP3   OH213517   2.705   0.156   4.664 -0.1946  0.2085  0.4606
 4518TIP3    H113518   2.703   0.061   4.652  0.9249  0.0728  1.1494
 4518TIP3    H213519   2.676   0.170   4.754  1.0344  0.3828  0.8505
 4519TIP3   OH213520   0.251   4.005   4.103 -0.1916 -0.0559 -0.2891
 4519TIP3    H113521   0.311   3.979   4.173 -0.1781  2.2523  0.6585
 4519TIP3    H213522   0.164   3.991   4.139 -0.2151 -0.6184 -0.5472
 4520TIP3   OH213523   4.946   1.607   4.224 -0.2601  0.8251 -0.1646
 4520TIP3    H113524   5.035   1.633   4.198  0.8829  0.2769  2.7790
 4520TIP3    H213525   4.899   1.597   4.142  2.0969  2.1876 -1.7995
 4521TIP3   OH213526   1.666   0.154   0.488  0.2600 -0.4627 -0.1927
 4521TIP3    H113527   1.693   0.242   0.516  1.6838 -0.7952 -0.4332
 4521TIP3    H213528   1.685   0.098   0.564  1.3418 -0.8784 -0.7414
 4522TIP3   OH213529   5.920   2.864   3.765 -0.2982  0.1519 -0.1640
 4522TIP3    H113530   5.862   2.789   3.779 -0.8389  0.8185  1.3583
 4522TIP3    H213531   5.991   2.852   3.829 -0.9491  1.4501  0.8538
 4523TIP3   OH213532   3.667   6.643   0.761  0.2888  0.3723  0.4280
 4523TIP3    H113533   3.661   6.575   0.828  1.2977  0.2982  0.4591
 4523TIP3    H213534   3.580   6.645   0.720  0.0516 -0.4589  0.8794
 4524TIP3   OH213535   5.069   1.689   0.721 -0.0944 -0.4056 -0.0531
 4524TIP3    H113536   5.140   1.687   0.786 -0.9935  2.5935  1.2054
 4524TIP3    H213537   5.104   1.742   0.649 -0.5516 -0.1501 -0.0873
 4525TIP3   OH213538   1.354   6.000   4.128  0.6785  0.6649  0.0244
 4525TIP3    H113539   1.412   5.951   4.187 -1.2632 -2.7826 -0.7161
 4525TIP3    H213540   1.289   6.039   4.186 -1.2046 -2.6775  0.4074
 4526TIP3   OH213541   6.294   4.425   5.609  0.1252  0.0505 -0.3179
 4526TIP3    H113542   6.309   4.331   5.608 -0.1065 -0.0081 -1.9941
 4526TIP3    H213543   6.375   4.463   5.643 -0.1052 -0.7821  1.2060
 4527TIP3   OH213544   3.020   0.747   1.579 -0.5662  0.0723  0.6779
 4527TIP3    H113545   3.098   0.746   1.524 -0.9596  0.7400  0.0829
 4527TIP3    H213546   3.047   0.704   1.660 -0.2248 -1.7416 -0.3612
 4528TIP3   OH213547   6.603   2.195   1.911 -0.0706 -0.3298  0.2466
 4528TIP3    H113548   6.679   2.152   1.871 -1.0020 -0.2819 -1.6828
 4528TIP3    H213549   6.541   2.205   1.840 -1.4856  0.6106  1.5489
 4529TIP3   OH213550   4.293   1.118   5.619  0.1289  0.7702  0.0560
 4529TIP3    H113551   4.207   1.151   5.595  0.9489  1.6222 -1.9172
 4529TIP3    H213552   4.317   1.168   5.697 -1.2123  0.3763  0.7534
 4530TIP3   OH213553   0.676   1.856   2.580  0.2789  0.0217  0.0052
 4530TIP3    H113554   0.705   1.923   2.643  0.6121  1.7279 -1.8813
 4530TIP3    H213555   0.643   1.905   2.505 -4.2124 -1.8347  0.4237
 4531TIP3   OH213556   1.144   5.683   0.429  0.3644 -0.1223  0.7670
 4531TIP3    H113557   1.199   5.752   0.464 -1.5899  1.4734  0.8871
 4531TIP3    H213558   1.081   5.663   0.499 -1.8031  1.1176 -0.6861
 4532TIP3   OH213559   3.378   1.283   3.619  0.0625  0.7621  0.0696
 4532TIP3    H113560   3.338   1.218   3.562 -0.5986  1.8079 -0.6991
 4532TIP3    H213561   3.329   1.276   3.701  0.2855  0.0070  0.1486
 4533TIP3   OH213562   2.056   3.256   2.192  0.3187 -0.3251  0.3780
 4533TIP3    H113563   1.987   3.204   2.234 -0.2799 -0.7765 -1.0622
 4533TIP3    H213564   2.137   3.211   2.215 -0.0250 -0.7658  0.7506
 4534TIP3   OH213565   7.020   4.018   5.011 -0.2662 -0.1280  0.1464
 4534TIP3    H113566   6.988   3.931   4.986 -0.5775  0.3855 -1.3590
 4534TIP3    H213567   6.945   4.076   5.000  0.5191  0.6991 -1.1486
 4535TIP3   OH213568   5.115   5.802   5.439 -0.3264  0.7176  0.3047
 4535TIP3    H113569   5.132   5.848   5.521 -2.1605  0.4632  0.8736
 4535TIP3    H213570   5.039   5.747   5.458  0.9505 -1.5404 -0.7375
 4536TIP3   OH213571   1.435   6.292   3.755 -0.4415 -0.2261  0.1000
 4536TIP3    H113572   1.486   6.300   3.836  1.4584 -0.1716 -1.0474
 4536TIP3    H213573   1.449   6.202   3.727 -0.7982 -0.1397 -0.3663
 4537TIP3   OH213574   1.807   5.784   1.113  0.3806 -0.2403 -0.3888
 4537TIP3    H113575   1.808   5.688   1.118  1.1280 -0.2055  0.3170
 4537TIP3    H213576   1.727   5.810   1.158  0.5444 -0.5066  0.0621
 4538TIP3   OH213577   5.736   6.404   0.301  0.3758 -0.1724 -0.0112
 4538TIP3    H113578   5.822   6.361   0.302  1.1052  1.2287 -0.0166
 4538TIP3    H213579   5.685   6.357   0.368  1.5272 -0.2811  0.8148
 4539TIP3   OH213580   0.401   0.745   5.800 -0.1041  0.0769  0.2728
 4539TIP3    H113581   0.339   0.693   5.750  0.1241  0.0870 -0.0261
 4539TIP3    H213582   0.479   0.750   5.743 -0.3422  1.2613  0.0255
 4540TIP3   OH213583   1.008   3.058   5.742  0.2806 -0.2019 -0.4900
 4540TIP3    H113584   1.012   3.019   5.655  0.7592 -0.8236 -0.1999
 4540TIP3    H213585   1.064   3.002   5.796  1.1323  0.9902 -0.0865
 4541TIP3   OH213586   4.734   4.788   4.959  0.3740  0.1805  0.2858
 4541TIP3    H113587   4.696   4.874   4.973  1.4151  1.1777 -2.3823
 4541TIP3    H213588   4.673   4.743   4.901  0.6554 -0.2411  0.3095
 4542TIP3   OH213589   2.401   6.712   0.950 -0.5716  0.2308 -0.2408
 4542TIP3    H113590   2.401   6.807   0.962 -0.8582  0.2201 -0.1532
 4542TIP3    H213591   2.476   6.695   0.893 -1.8890  0.7711 -2.2469
 4543TIP3   OH213592   6.988   6.360   3.637  0.2373 -0.2288 -0.3010
 4543TIP3    H113593   6.917   6.320   3.587  0.8628 -0.9795 -0.6029
 4543TIP3    H213594   7.013   6.437   3.587 -0.9835  0.5803  0.2877
 4544TIP3   OH213595   1.356   0.567   4.187 -0.1040 -0.0312  0.0169
 4544TIP3    H113596   1.343   0.584   4.093  0.0850  0.0548  0.0061
 4544TIP3    H213597   1.367   0.654   4.225  0.3336 -0.0979  0.0431
 4545TIP3   OH213598   0.619   6.316   3.859 -0.1174 -0.2358 -0.4958
 4545TIP3    H113599   0.687   6.324   3.926  0.2587 -0.8423 -0.7979
 4545TIP3    H213600   0.541   6.354   3.900 -0.0928 -1.2999  0.5776
 4546TIP3   OH213601   0.636   5.885   0.522  0.2275  0.0123  0.4034
 4546TIP3    H113602   0.713   5.830   0.504  1.1457  1.2147  0.5322
 4546TIP3    H213603   0.603   5.908   0.435  1.5389  1.5298  0.2561
 4547TIP3   OH213604   6.279   2.971   5.617 -0.7166  0.9826 -0.5175
 4547TIP3    H113605   6.361   2.957   5.665 -0.0778 -2.1067 -2.2469
 4547TIP3    H213606   6.211   2.951   5.681 -0.0477  1.0391  0.2305
 4548TIP3   OH213607   3.881   1.550   2.759  0.0737 -0.2933  0.0616
 4548TIP3    H113608   3.859   1.566   2.667 -0.2831 -0.1903  0.1611
 4548TIP3    H213609   3.903   1.457   2.762  0.4467 -0.2150 -0.1941
 4549TIP3   OH213610   1.066   3.522   3.249 -0.4852 -0.1339 -0.2066
 4549TIP3    H113611   1.012   3.443   3.248  1.1661 -1.3313  0.5814
 4549TIP3    H213612   1.011   3.589   3.209 -1.1230 -2.2108 -3.1540
 4550TIP3   OH213613   6.327   3.121   5.122 -0.2179 -0.3436  0.1006
 4550TIP3    H113614   6.269   3.156   5.054  0.6425 -1.1867 -1.1130
 4550TIP3    H213615   6.415   3.137   5.088  0.2119 -1.9736  0.3796
 4551TIP3   OH213616   7.202   2.168   3.186  0.5459  0.0003 -0.1469
 4551TIP3    H113617   7.132   2.105   3.204  1.2123 -1.5578 -2.5923
 4551TIP3    H213618   7.156   2.248   3.159 -0.2871  0.0883  1.4395
 4552TIP3   OH213619   3.405   1.814   2.171  0.5988 -0.6188 -0.6909
 4552TIP3    H113620   3.346   1.740   2.186 -0.3864  0.4755  1.1086
 4552TIP3    H213621   3.352   1.878   2.124  1.1201 -0.5984 -1.2667
 4553TIP3   OH213622   6.851   3.307   3.636 -0.4732  0.1603 -0.3778
 4553TIP3    H113623   6.804   3.363   3.574 -0.3956  1.2338  0.4888
 4553TIP3    H213624   6.790   3.237   3.658 -1.3009  0.9794 -0.0302
 4554TIP3   OH213625   2.364   2.457   2.995  0.1544 -0.1181  0.2888
 4554TIP3    H113626   2.401   2.537   2.956 -1.0989  0.5145  0.3410
 4554TIP3    H213627   2.270   2.474   2.998 -0.1178 -1.5799  0.3926
 4555TIP3   OH213628   0.235   0.963   1.368 -0.0191  0.1184  0.0136
 4555TIP3    H113629   0.316   0.913   1.379 -0.1763  0.1002  1.2183
 4555TIP3    H213630   0.185   0.913   1.303  0.9679  0.1865 -0.8183
 4556TIP3   OH213631   2.007   1.883   5.805 -0.4110  0.0614  0.5289
 4556TIP3    H113632   2.075   1.840   5.754 -1.6413 -0.2519 -0.9264
 4556TIP3    H213633   1.989   1.964   5.756  1.1710  1.8410  2.6777
 4557TIP3   OH213634   3.555   2.371   1.343 -0.2325  0.1254 -0.2224
 4557TIP3    H113635   3.610   2.447   1.322 -1.5239  1.1031 -0.2413
 4557TIP3    H213636   3.539   2.379   1.437 -0.2727 -0.1939 -0.2032
 4558TIP3   OH213637   0.104   2.312   0.850  0.0952  0.0917  0.3093
 4558TIP3    H113638   0.036   2.248   0.826 -0.6609 -0.6092  3.8279
 4558TIP3    H213639   0.062   2.397   0.840 -0.8099 -0.2622  1.0210
 4559TIP3   OH213640   3.419   0.144   2.268  0.4621 -0.5154  0.4564
 4559TIP3    H113641   3.411   0.067   2.326  0.7651 -0.7601  0.1763
 4559TIP3    H213642   3.470   0.112   2.194  0.3505 -0.1118  0.2076
 4560TIP3   OH213643   4.910   5.297   2.227  0.0520  0.5238 -0.2659
 4560TIP3    H113644   4.827   5.253   2.211 -0.1782  0.4041  1.1159
 4560TIP3    H213645   4.972   5.255   2.168 -0.1128 -1.8417  1.1324
 4561TIP3   OH213646   4.498   1.393   2.672 -0.1282  0.0100 -0.0778
 4561TIP3    H113647   4.403   1.387   2.661 -0.2290 -1.2397  1.2181
 4561TIP3    H213648   4.517   1.338   2.748  1.5258  1.0028  0.2861
 4562TIP3   OH213649   3.542   5.357   0.186  0.4996 -0.3980  0.0940
 4562TIP3    H113650   3.595   5.410   0.246  2.4784 -2.4118  0.2636
 4562TIP3    H213651   3.561   5.266   0.212  0.1147 -1.2888 -2.4985
 4563TIP3   OH213652   2.125   4.821   4.887 -0.1599 -0.1141  0.0353
 4563TIP3    H113653   2.054   4.866   4.934 -0.9957 -0.1467 -1.1546
 4563TIP3    H213654   2.145   4.879   4.813  1.5032  0.1985  0.6716
 4564TIP3   OH213655   6.240   5.036   4.090 -0.1244  0.4461 -0.3429
 4564TIP3    H113656   6.238   5.005   4.181 -0.2257  0.9387 -0.1750
 4564TIP3    H213657   6.267   5.128   4.097 -0.2142  0.5083 -0.8069
 4565TIP3   OH213658   3.522   4.119   4.428  0.3297 -0.1407 -0.2416
 4565TIP3    H113659   3.502   4.091   4.517  1.2101 -0.5919 -0.1707
 4565TIP3    H213660   3.443   4.165   4.398 -0.5226 -1.2560  0.2423
 4566TIP3   OH213661   2.371   3.986   2.013 -0.0870 -0.0583  0.0376
 4566TIP3    H113662   2.336   4.070   2.042  0.4587  0.1622  0.0583
 4566TIP3    H213663   2.330   3.972   1.928 -0.2044  0.2087  0.0475
 4567TIP3   OH213664   5.048   0.720   5.515 -0.0506  0.3541 -0.0105
 4567TIP3    H113665   4.956   0.693   5.509 -0.2596  0.7978  1.0384
 4567TIP3    H213666   5.052   0.800   5.463 -0.6063  1.1560  1.1414
 4568TIP3   OH213667   4.390   5.027   5.864 -0.2547  0.2077 -0.3069
 4568TIP3    H113668   4.426   4.940   5.849  1.2299  0.2379  2.3211
 4568TIP3    H213669   4.443   5.085   5.811  1.2288 -0.1672  0.7013
 4569TIP3   OH213670   0.435   4.368   3.451  0.0008 -0.0949 -0.2844
 4569TIP3    H113671   0.357   4.338   3.497 -0.8463  1.6433 -0.4950
 4569TIP3    H213672   0.500   4.383   3.520  0.3144 -1.8986 -0.1433
 4570TIP3   OH213673   5.817   4.445   2.875 -0.5555  0.3976 -0.3777
 4570TIP3    H113674   5.870   4.425   2.953 -1.4590  0.5802  0.2961
 4570TIP3    H213675   5.834   4.372   2.815 -0.5516 -0.2157  0.3609
 4571TIP3   OH213676   0.740   5.326   2.027 -0.0521 -0.1756 -0.2575
 4571TIP3    H113677   0.742   5.387   1.953  1.8024  0.3908  0.2057
 4571TIP3    H213678   0.691   5.373   2.094  0.0945  0.2028 -0.4095
 4572TIP3   OH213679   4.519   4.504   2.895  0.4173  0.4627  0.5825
 4572TIP3    H113680   4.533   4.432   2.958  0.5473 -0.2875 -0.2859
 4572TIP3    H213681   4.550   4.469   2.812  1.1945  1.7996  0.2764
 4573TIP3   OH213682   0.881   0.482   3.634 -0.4844  0.3616  1.0263
 4573TIP3    H113683   0.919   0.442   3.713  0.1203 -0.2356  0.4399
 4573TIP3    H213684   0.787   0.477   3.648 -0.4498 -1.6319  0.8003
 4574TIP3   OH213685   4.698   2.685   1.347  0.6970  0.2166  0.1423
 4574TIP3    H113686   4.674   2.592   1.344  0.0449  0.3678  0.3856
 4574TIP3    H213687   4.707   2.711   1.256 -0.1171  0.1544  0.0341
 4575TIP3   OH213688   1.794   2.624   1.276 -0.5483  0.5555 -0.0870
 4575TIP3    H113689   1.761   2.711   1.295  1.1747  1.4556 -0.9528
 4575TIP3    H213690   1.818   2.587   1.361 -1.4263  0.8593  0.2940
 4576TIP3   OH213691   5.069   3.562   3.020 -0.5628  0.4757  0.4372
 4576TIP3    H113692   4.984   3.594   2.992 -1.1676 -1.3695  0.0153
 4576TIP3    H213693   5.132   3.606   2.963 -1.3187  1.0238  0.0147
 4577TIP3   OH213694   6.368   3.180   3.248  0.5785 -0.1439  0.0954
 4577TIP3    H113695   6.433   3.143   3.307 -1.1607 -1.1330  1.4954
 4577TIP3    H213696   6.311   3.106   3.227 -0.5012  0.8409 -0.5331
 4578TIP3   OH213697   6.541   1.404   3.578 -0.1468  0.0296  0.2272
 4578TIP3    H113698   6.494   1.409   3.661 -0.7601  2.2643 -0.2043
 4578TIP3    H213699   6.583   1.489   3.569 -2.0628  0.7878 -2.8811
 4579TIP3   OH213700   6.755   6.331   2.998 -0.6482 -0.3131 -0.2237
 4579TIP3    H113701   6.670   6.294   2.973 -1.3722  0.4795  0.9333
 4579TIP3    H213702   6.758   6.416   2.955 -0.2033 -0.5553 -0.6761
 4580TIP3   OH213703   4.029   0.960   3.794 -0.0021 -0.5909 -0.4920
 4580TIP3    H113704   4.115   0.922   3.813  0.1371  0.1733  0.4962
 4580TIP3    H213705   3.971   0.924   3.861 -0.4560 -1.0306 -1.0974
 4581TIP3   OH213706   6.970   6.643   2.738 -0.1969 -0.0245  0.0202
 4581TIP3    H113707   6.968   6.655   2.643  0.4584 -0.6123 -0.0753
 4581TIP3    H213708   7.037   6.576   2.752 -1.6532 -1.3887  0.7488
 4582TIP3   OH213709   2.428   0.369   4.185 -0.3256  0.0814 -0.2728
 4582TIP3    H113710   2.451   0.372   4.278  0.9895 -1.2562 -0.5279
 4582TIP3    H213711   2.498   0.419   4.142 -0.6572  0.2698 -0.5979
 4583TIP3   OH213712   4.600   0.266   3.952  0.6547  0.2414  0.1098
 4583TIP3    H113713   4.634   0.354   3.942 -0.2882  0.5366 -0.5969
 4583TIP3    H213714   4.635   0.236   4.036  1.1012  1.2221  0.2814
 4584TIP3   OH213715   0.985   5.859   2.749 -0.2262  0.5236  0.0526
 4584TIP3    H113716   0.953   5.947   2.732  2.9235  2.0179  1.2546
 4584TIP3    H213717   1.015   5.828   2.663 -0.5797  0.9267 -0.2220
 4585TIP3   OH213718   4.562   1.218   2.887  0.2122 -1.0239 -0.5978
 4585TIP3    H113719   4.543   1.136   2.933 -0.7965 -0.7655 -0.5319
 4585TIP3    H213720   4.587   1.279   2.956  2.4631 -1.6497 -0.7790
 4586TIP3   OH213721   6.389   3.365   4.399 -0.1532  0.1850  0.0511
 4586TIP3    H113722   6.485   3.361   4.394 -0.1301  0.6962  0.0747
 4586TIP3    H213723   6.371   3.436   4.460 -0.5532  1.7805 -1.8078
 4587TIP3   OH213724   0.052   1.734   4.601  0.0380  0.4808  0.0731
 4587TIP3    H113725   0.076   1.782   4.522 -2.5270  0.3204 -0.8834
 4587TIP3    H213726   0.125   1.674   4.616  1.2244  1.5066 -1.3168
 4588TIP3   OH213727   1.807   2.690   4.166  0.7989  0.2561 -0.2609
 4588TIP3    H113728   1.732   2.705   4.108 -0.0323 -1.2589  0.3721
 4588TIP3    H213729   1.853   2.616   4.127  0.1362 -0.8875  1.0396
 4589TIP3   OH213730   2.052   0.974   3.859  0.3540  0.0262  0.5179
 4589TIP3    H113731   2.127   1.012   3.904  0.3983 -0.7283  1.1096
 4589TIP3    H213732   1.978   1.028   3.887  0.6490  0.7153  0.0032
 4590TIP3   OH213733   4.264   1.666  -0.022 -0.0413 -0.5396  0.5723
 4590TIP3    H113734   4.280   1.738   0.039  0.1741  0.7703 -0.9766
 4590TIP3    H213735   4.265   1.588   0.033  3.0224  0.2609  1.8578
 4591TIP3   OH213736   3.813   3.471   0.553  0.1458 -0.6793  0.4657
 4591TIP3    H113737   3.878   3.426   0.499  0.9784  0.4193  0.5312
 4591TIP3    H213738   3.732   3.422   0.537 -0.0235  0.4190 -2.9744
 4592TIP3   OH213739   5.697   3.164   5.558 -0.8089  0.4244  0.2104
 4592TIP3    H113740   5.629   3.098   5.546 -0.2199 -0.1052 -0.2835
 4592TIP3    H213741   5.682   3.199   5.646 -0.7598 -0.8012  0.7244
 4593TIP3   OH213742   1.234   5.682   0.170  0.1606  0.4063  0.0129
 4593TIP3    H113743   1.229   5.590   0.142 -1.0619  0.5592 -0.3120
 4593TIP3    H213744   1.199   5.681   0.260 -0.3484  0.6308 -0.1821
 4594TIP3   OH213745   4.928   4.088   2.181 -0.0723 -0.0363  0.2163
 4594TIP3    H113746   4.859   4.115   2.242  0.0452  0.0623  0.3065
 4594TIP3    H213747   4.938   4.163   2.122 -0.2487 -0.1665  0.0202
 4595TIP3   OH213748   7.067   1.549   4.637  0.0472  0.1181  0.6001
 4595TIP3    H113749   7.127   1.620   4.658  1.6569 -0.8206 -0.6019
 4595TIP3    H213750   7.094   1.519   4.551 -1.2719 -1.2737  0.6216
 4596TIP3   OH213751   1.486   5.061   3.291  0.0807  0.3141 -0.1528
 4596TIP3    H113752   1.580   5.064   3.274  0.1192  0.5940  0.1202
 4596TIP3    H213753   1.452   5.005   3.221  0.4591  0.1439 -0.2066
 4597TIP3   OH213754   5.496   4.845   1.680 -0.6059  0.0895 -0.2252
 4597TIP3    H113755   5.507   4.905   1.607  1.5010  1.2684  0.9597
 4597TIP3    H213756   5.510   4.899   1.758  0.9532 -1.7885  0.9005
 4598TIP3   OH213757   2.365   1.636   1.737 -0.9221 -0.6305 -0.0754
 4598TIP3    H113758   2.345   1.545   1.759 -0.3930 -0.5187  0.8999
 4598TIP3    H213759   2.409   1.632   1.652  0.1159 -1.3944  0.4794
 4599TIP3   OH213760   0.922   2.401   1.807  0.7523  0.1944  0.4580
 4599TIP3    H113761   0.944   2.321   1.760  2.2580 -0.1172  1.6215
 4599TIP3    H213762   0.944   2.382   1.898 -1.1527  1.1146  1.1605
 4600TIP3   OH213763   2.531   0.699   3.902 -0.5062  0.1762  0.1825
 4600TIP3    H113764   2.458   0.646   3.870  0.9196 -0.7387 -1.7482
 4600TIP3    H213765   2.593   0.635   3.938  0.0470  0.7915  0.3432
 4601TIP3   OH213766   1.608   6.499   3.622  0.1968  0.2575 -0.1308
 4601TIP3    H113767   1.572   6.587   3.604 -0.8087 -0.6562 -3.2422
 4601TIP3    H213768   1.532   6.449   3.651  0.4380  0.0519  0.1362
 4602TIP3   OH213769   0.062   3.863   5.142  0.6277  0.1851  0.3778
 4602TIP3    H113770  -0.009   3.847   5.080 -0.1058  0.1717  1.1994
 4602TIP3    H213771   0.069   3.959   5.144 -0.6408  0.2879  1.6554
 4603TIP3   OH213772   1.501   6.124   4.771  0.0086 -0.3669  0.8864
 4603TIP3    H113773   1.530   6.034   4.785 -0.3796 -0.6401  0.0257
 4603TIP3    H213774   1.415   6.116   4.729  0.2941  0.3795  0.1189
 4604TIP3   OH213775   1.855   6.229   4.133 -0.2430  0.1250 -0.0193
 4604TIP3    H113776   1.946   6.238   4.105 -0.2962  0.1519 -0.1846
 4604TIP3    H213777   1.844   6.296   4.201 -0.0032 -0.2062  0.3488
 4605TIP3   OH213778   1.827   3.155   0.635  0.1723 -0.1001  0.5233
 4605TIP3    H113779   1.778   3.123   0.559 -0.6115  0.2318  0.8822
 4605TIP3    H213780   1.792   3.242   0.652 -0.9035 -0.8354  2.3334
 4606TIP3   OH213781   6.896   6.266   1.977 -0.0462 -0.6166  0.4497
 4606TIP3    H113782   6.808   6.248   1.942  0.4365  1.4038 -2.1044
 4606TIP3    H213783   6.880   6.292   2.068 -2.0933 -0.2925  0.0580
 4607TIP3   OH213784   4.889   3.742   0.885  0.1807  0.4231 -0.0773
 4607TIP3    H113785   4.856   3.763   0.972 -2.1176 -2.9724  0.0658
 4607TIP3    H213786   4.855   3.811   0.829 -1.1451  0.8742  1.2185
 4608TIP3   OH213787   2.788   0.316   2.329  0.3574 -0.2091 -0.1657
 4608TIP3    H113788   2.853   0.246   2.336  0.1914 -0.1971  2.4578
 4608TIP3    H213789   2.704   0.271   2.334  0.2498  0.0936  1.4267
 4609TIP3   OH213790   2.001   5.767   0.318  0.8541  0.7970 -0.6463
 4609TIP3    H113791   1.906   5.771   0.306  0.5439  0.3800  1.3524
 4609TIP3    H213792   2.028   5.858   0.330  0.8190  0.9710 -1.7407
 4610TIP3   OH213793   5.783   2.650   3.913  0.2607 -0.3099 -0.1000
 4610TIP3    H113794   5.755   2.614   3.829  1.1872 -0.0040 -0.5593
 4610TIP3    H213795   5.790   2.574   3.970  2.9840 -1.0756 -1.2732
 4611TIP3   OH213796   0.817   0.927   5.177  0.1357  0.1695  0.4131
 4611TIP3    H113797   0.840   0.834   5.178 -1.2186 -0.1858  0.2352
 4611TIP3    H213798   0.782   0.942   5.089 -2.4748  0.0976  1.3533
 4612TIP3   OH213799   5.982   4.833   1.131  0.3187 -0.5309  0.1533
 4612TIP3    H113800   5.933   4.821   1.050 -0.7009 -0.9310  0.8093
 4612TIP3    H213801   6.022   4.747   1.149  0.8153 -0.3560 -0.0847
 4613TIP3   OH213802   6.913   2.021   0.607  0.4276  0.6310  0.7456
 4613TIP3    H113803   6.913   1.939   0.656 -0.7481  0.6004  0.7146
 4613TIP3    H213804   6.928   1.994   0.516 -4.0475 -0.1034 -0.0051
 4614TIP3   OH213805   5.437   1.965   2.026 -0.4832 -0.5531  0.3754
 4614TIP3    H113806   5.343   1.982   2.032 -0.4270  0.9873 -1.9855
 4614TIP3    H213807   5.477   2.051   2.023  1.0989 -1.1883  1.8177
 4615TIP3   OH213808   5.795   2.470   0.720 -0.1502 -0.2840 -0.2832
 4615TIP3    H113809   5.836   2.424   0.794  0.0874  0.1710 -0.1305
 4615TIP3    H213810   5.737   2.405   0.681 -1.6331 -0.0286  1.3719
 4616TIP3   OH213811   3.055   3.543   5.423 -0.2927 -0.2691  0.0191
 4616TIP3    H113812   3.098   3.496   5.494 -1.6116 -0.6737  0.5715
 4616TIP3    H213813   2.975   3.579   5.462 -0.4274  0.5472 -0.9530
 4617TIP3   OH213814   4.203   0.577   4.668 -0.5604 -0.3442  0.2261
 4617TIP3    H113815   4.124   0.559   4.618  0.7529  0.1030 -2.2097
 4617TIP3    H213816   4.212   0.673   4.664  0.4421 -0.4393 -0.1828
 4618TIP3   OH213817   3.167   6.623   1.857  0.1891 -0.0992  0.1775
 4618TIP3    H113818   3.078   6.635   1.824  0.4394  0.9553 -0.1445
 4618TIP3    H213819   3.213   6.577   1.788  0.0007 -0.2914  0.1797
 4619TIP3   OH213820   2.495   4.037   2.373 -0.3078 -0.0816 -0.1552
 4619TIP3    H113821   2.418   4.093   2.366 -0.5465 -0.5943 -2.3770
 4619TIP3    H213822   2.557   4.072   2.308  0.9964 -0.2414  0.9394
 4620TIP3   OH213823   4.654   5.486   1.609  0.2316 -0.3369  0.5496
 4620TIP3    H113824   4.666   5.577   1.580 -1.2288 -0.4878 -0.6355
 4620TIP3    H213825   4.742   5.455   1.627  0.6936  1.6610  2.1245
 4621TIP3   OH213826   4.561   2.438   4.980 -0.8104 -0.0234  0.1979
 4621TIP3    H113827   4.511   2.480   5.050  0.0770  0.1715  0.7391
 4621TIP3    H213828   4.554   2.345   4.997  1.8861  0.0402  2.4350
 4622TIP3   OH213829   5.832   5.328   0.468 -0.0547 -0.5113  0.3351
 4622TIP3    H113830   5.764   5.261   0.459 -0.2213 -0.3224  0.1691
 4622TIP3    H213831   5.870   5.312   0.554 -1.3970  0.3789  1.1376
 4623TIP3   OH213832   0.836   3.080   2.462 -0.1157  0.5567  0.0077
 4623TIP3    H113833   0.777   3.005   2.468  1.0190 -0.3187  0.7603
 4623TIP3    H213834   0.862   3.097   2.553  1.9688 -0.0872 -0.4104
 4624TIP3   OH213835   4.089   1.464   5.223 -0.3389 -0.1350 -0.5172
 4624TIP3    H113836   4.136   1.464   5.140 -0.7084 -1.3186 -0.7435
 4624TIP3    H213837   4.141   1.520   5.280  1.6518 -1.8074 -0.5882
 4625TIP3   OH213838   5.042   3.109   3.723 -0.6004 -0.5182  0.2280
 4625TIP3    H113839   5.114   3.143   3.777 -2.3919  0.2281  2.3185
 4625TIP3    H213840   5.062   3.138   3.634  1.0113  0.8209  0.9781
 4626TIP3   OH213841   6.698   0.165   3.954  0.1969  0.2067 -0.0637
 4626TIP3    H113842   6.784   0.205   3.945  0.3502  0.2222  1.2189
 4626TIP3    H213843   6.640   0.220   3.901  0.8227  0.7282 -0.2146
 4627TIP3   OH213844   2.009   2.628   3.778 -0.5869  0.6162  1.3128
 4627TIP3    H113845   2.005   2.534   3.795 -1.7000  0.5561  0.8122
 4627TIP3    H213846   2.070   2.636   3.705 -1.9789  0.0542  0.0291
 4628TIP3   OH213847   5.683   1.828   0.638  0.2322  0.0660  0.6305
 4628TIP3    H113848   5.647   1.812   0.725 -1.1789 -0.6593 -0.0691
 4628TIP3    H213849   5.614   1.876   0.591  0.7456 -0.0521 -0.2783
 4629TIP3   OH213850   0.003   0.854   2.493 -0.1716  0.4481 -0.1367
 4629TIP3    H113851   0.098   0.853   2.507 -0.1513 -2.1029  0.1380
 4629TIP3    H213852  -0.031   0.787   2.553 -1.8376 -0.3489 -1.8338
 4630TIP3   OH213853   3.163   2.347   1.118  0.0615 -0.0812 -0.3497
 4630TIP3    H113854   3.168   2.386   1.030  1.1817  0.2097 -0.1738
 4630TIP3    H213855   3.113   2.266   1.105 -1.8598  1.1039 -0.8233
 4631TIP3   OH213856   1.750   4.879   0.190  0.1854  0.0024  0.2377
 4631TIP3    H113857   1.842   4.855   0.175 -0.2610 -2.2778  0.6626
 4631TIP3    H213858   1.714   4.889   0.102  0.2872 -1.7299 -0.0533
 4632TIP3   OH213859   1.625   6.580   5.240 -0.0722  0.0465 -0.4037
 4632TIP3    H113860   1.607   6.529   5.319 -0.0806 -1.6890 -1.4619
 4632TIP3    H213861   1.714   6.554   5.216  0.2099  1.1288 -0.5720
 4633TIP3   OH213862   6.849   0.593   3.962 -0.1015  0.0442 -0.9382
 4633TIP3    H113863   6.754   0.597   3.961 -0.1247 -0.1493  0.0118
 4633TIP3    H213864   6.876   0.657   4.027  0.3742 -0.4907 -0.5960
 4634TIP3   OH213865   0.229   6.558   1.142 -0.4472  0.7800  0.4031
 4634TIP3    H113866   0.285   6.605   1.080 -0.4876 -0.4713 -0.6245
 4634TIP3    H213867   0.151   6.533   1.091 -0.6698  0.0811  1.0551
 4635TIP3   OH213868   5.654   6.191   0.112 -0.0210 -0.7450 -0.1636
 4635TIP3    H113869   5.704   6.250   0.168 -0.8181 -0.8826  0.7181
 4635TIP3    H213870   5.719   6.132   0.075  0.6195 -0.1259 -0.0383
 4636TIP3   OH213871   4.911   0.899   5.056 -0.4678 -0.0799 -0.0558
 4636TIP3    H113872   4.951   0.816   5.082  0.7156  0.8921  1.3369
 4636TIP3    H213873   4.818   0.888   5.076 -0.2647 -0.9131  0.4910
 4637TIP3   OH213874   5.180   0.992   1.557 -0.0105  0.4141  0.7572
 4637TIP3    H113875   5.207   1.050   1.485 -1.0126  2.0004  1.5935
 4637TIP3    H213876   5.262   0.965   1.598  0.5461 -0.0473 -0.6193
 4638TIP3   OH213877   6.543   1.079   5.224  0.3461 -0.0884  0.4409
 4638TIP3    H113878   6.560   1.134   5.147  1.6132 -1.1272 -0.0535
 4638TIP3    H213879   6.520   1.141   5.293 -0.7522  0.8764 -0.7356
 4639TIP3   OH213880   3.201   4.467   5.170  0.0807 -0.3566  0.5967
 4639TIP3    H113881   3.254   4.507   5.239  2.7312  1.7239 -2.3336
 4639TIP3    H213882   3.252   4.391   5.142  0.5891  0.4975 -0.9188
 4640TIP3   OH213883   3.897   2.337   5.013 -0.5290  0.4665  0.1828
 4640TIP3    H113884   3.883   2.406   4.948 -1.1181  0.4013  0.2380
 4640TIP3    H213885   3.849   2.262   4.980 -0.6219  0.3529  0.5655
 4641TIP3   OH213886   0.588   1.622   4.767  0.1499  0.1214 -0.0585
 4641TIP3    H113887   0.527   1.689   4.797 -1.4082 -1.1925 -0.1484
 4641TIP3    H213888   0.629   1.659   4.689 -1.2702  0.6677 -0.5680
 4642TIP3   OH213889   2.874   0.701   2.250 -0.3113 -0.2523  0.2706
 4642TIP3    H113890   2.792   0.663   2.218  0.4812 -1.3716 -0.5252
 4642TIP3    H213891   2.852   0.791   2.272 -2.2073 -1.0416  1.9136
 4643TIP3   OH213892   0.280   2.863   3.510 -0.0705  0.1125  0.0590
 4643TIP3    H113893   0.223   2.791   3.484  0.9018 -0.3116 -1.0121
 4643TIP3    H213894   0.313   2.838   3.596  1.3785 -1.4786 -0.8922
 4644TIP3   OH213895   3.653   2.998   5.181 -0.1546 -0.4126 -0.4646
 4644TIP3    H113896   3.736   2.979   5.137 -0.3561 -0.8069 -0.6821
 4644TIP3    H213897   3.648   3.093   5.183  0.9788 -0.3530  0.8369
 4645TIP3   OH213898   3.216   5.958   0.768 -0.3544  0.1157  0.1859
 4645TIP3    H113899   3.292   5.961   0.709 -1.5263  1.0807 -1.3294
 4645TIP3    H213900   3.197   5.865   0.778  1.0070 -0.1454  0.6013
 4646TIP3   OH213901   1.572   0.803   0.889 -0.0409 -0.0209 -0.1097
 4646TIP3    H113902   1.663   0.811   0.916  0.4407  0.2847 -1.7180
 4646TIP3    H213903   1.562   0.867   0.819 -1.5987  0.2072  0.2882
 4647TIP3   OH213904   5.601   2.767   0.870 -0.1248  0.2875  0.2986
 4647TIP3    H113905   5.598   2.845   0.926  0.8734 -0.7899  1.9298
 4647TIP3    H213906   5.598   2.693   0.931  1.8181 -0.9482 -0.9881
 4648TIP3   OH213907   5.487   6.496   3.894 -0.3958  0.2828 -0.2580
 4648TIP3    H113908   5.442   6.413   3.878  0.2660 -0.1099 -0.1456
 4648TIP3    H213909   5.517   6.524   3.807  1.1426 -0.6453 -0.0631
 4649TIP3   OH213910   0.183   1.228   1.437 -0.4066  0.0464 -0.5477
 4649TIP3    H113911   0.230   1.273   1.368  1.6631 -0.3744  0.5019
 4649TIP3    H213912   0.175   1.138   1.406 -0.2089  0.0438 -0.5926
 4650TIP3   OH213913   0.114   4.803   5.815  0.2866 -0.0762 -0.1488
 4650TIP3    H113914   0.180   4.866   5.785 -0.0606  0.3825  0.0356
 4650TIP3    H213915   0.045   4.857   5.854  0.4960 -0.6305  1.0264
 4651TIP3   OH213916   3.214   2.068   0.282 -0.3524 -0.0320 -0.1622
 4651TIP3    H113917   3.285   2.128   0.309  0.7112 -1.6277  0.7788
 4651TIP3    H213918   3.134   2.119   0.295  0.5367  1.4234 -0.0870
 4652TIP3   OH213919   6.577   0.346   2.667  0.0073  0.3150  0.3020
 4652TIP3    H113920   6.628   0.392   2.734  2.3062 -1.9360  0.2688
 4652TIP3    H213921   6.639   0.283   2.629 -2.3459 -1.3190 -1.1034
 4653TIP3   OH213922   2.143   0.106   3.630 -0.3603  0.3895 -0.0608
 4653TIP3    H113923   2.131   0.177   3.693 -1.5324 -0.3433  0.5783
 4653TIP3    H213924   2.236   0.084   3.638 -0.1018  1.4723  0.1253
 4654TIP3   OH213925   1.311   1.218   0.426 -0.9510 -0.3948 -0.2595
 4654TIP3    H113926   1.219   1.242   0.434 -0.8144 -0.3106  1.2048
 4654TIP3    H213927   1.357   1.302   0.413 -1.0212 -0.3989 -0.5560
 4655TIP3   OH213928   0.374   3.499   0.823 -0.2415 -0.7775  0.2770
 4655TIP3    H113929   0.329   3.447   0.890 -2.3742  0.4168 -0.1390
 4655TIP3    H213930   0.304   3.540   0.773  1.1769  3.8216  1.5899
 4656TIP3   OH213931   1.374   2.113   0.929  0.3467  0.2273 -0.0886
 4656TIP3    H113932   1.386   2.087   1.020 -1.2075 -0.4511 -0.0392
 4656TIP3    H213933   1.292   2.162   0.929  1.2244  1.7409 -0.8548
 4657TIP3   OH213934   5.647   5.549   4.131 -0.0783  0.7776  0.4509
 4657TIP3    H113935   5.612   5.462   4.150  4.4489 -2.1772 -2.6241
 4657TIP3    H213936   5.678   5.581   4.216  0.7185 -2.0293  1.3373
 4658TIP3   OH213937   5.448   4.099   3.143 -0.3261  0.7102 -0.1059
 4658TIP3    H113938   5.498   4.168   3.098  2.2646 -1.0079 -0.0509
 4658TIP3    H213939   5.385   4.068   3.077  0.9007  0.7348 -1.3393
 4659TIP3   OH213940   1.106   6.713   5.836 -0.6021 -0.0843 -0.4205
 4659TIP3    H113941   1.172   6.775   5.868  0.3424 -1.8088  1.2265
 4659TIP3    H213942   1.150   6.664   5.767 -1.3924  1.0925 -1.8168
 4660TIP3   OH213943   1.530   2.223   2.950 -0.2573 -0.0185 -0.0485
 4660TIP3    H113944   1.585   2.246   3.025 -2.4208 -0.4708  1.7975
 4660TIP3    H213945   1.498   2.307   2.918  0.2161  0.1446 -0.1039
 4661TIP3   OH213946   1.458   0.951   4.526  0.0259  0.6125  0.2343
 4661TIP3    H113947   1.396   0.962   4.453 -0.1656  1.2965  0.4950
 4661TIP3    H213948   1.526   0.894   4.491  0.3724  1.6067 -0.7646
 4662TIP3   OH213949   1.531   4.728   5.288  0.1111 -0.2320  0.0610
 4662TIP3    H113950   1.439   4.753   5.304  0.6080  0.8442  1.4728
 4662TIP3    H213951   1.525   4.647   5.238 -1.6258 -0.2647  0.2484
 4663TIP3   OH213952   3.877   0.554   1.725  0.3865  0.2618  0.1513
 4663TIP3    H113953   3.900   0.502   1.802  0.5007  0.5587  0.3187
 4663TIP3    H213954   3.799   0.602   1.751 -0.3055 -0.5657 -0.3371
 4664TIP3   OH213955   2.069   3.132   5.239 -0.5983 -0.2232 -0.0578
 4664TIP3    H113956   2.040   3.113   5.150  0.3309 -0.2230 -0.3802
 4664TIP3    H213957   2.081   3.227   5.240 -0.3787 -0.2510 -0.0095
 4665TIP3   OH213958   7.163   5.981   5.749  0.2166  0.0588  0.5220
 4665TIP3    H113959   7.167   6.015   5.838  0.6946  0.2820  0.4222
 4665TIP3    H213960   7.254   5.958   5.728 -0.0182 -0.7930  0.3938
 4666TIP3   OH213961   2.116   1.195   1.308 -0.0319 -0.3918 -0.1454
 4666TIP3    H113962   2.182   1.253   1.346  0.7695 -0.6883 -1.0647
 4666TIP3    H213963   2.146   1.107   1.327 -0.4239 -0.5309 -0.1493
 4667TIP3   OH213964   0.221   6.214   3.803 -0.1333 -0.0466  0.2917
 4667TIP3    H113965   0.147   6.196   3.746  0.6106 -1.2060 -0.3423
 4667TIP3    H213966   0.297   6.214   3.745  0.2249  3.1014  0.5865
 4668TIP3   OH213967   0.174   6.153   2.882  0.1124 -0.1103 -0.2721
 4668TIP3    H113968   0.194   6.235   2.836 -1.4069  1.3334  1.4573
 4668TIP3    H213969   0.078   6.148   2.880  0.2049 -2.7417 -1.7264
 4669TIP3   OH213970   1.245   4.452   1.896 -0.2096  0.5691  0.9742
 4669TIP3    H113971   1.341   4.461   1.901 -0.1033 -0.6576  1.3651
 4669TIP3    H213972   1.213   4.488   1.978 -0.4365  4.5623 -0.6257
 4670TIP3   OH213973   2.997   0.674   5.369  0.0615 -0.3116 -0.0320
 4670TIP3    H113974   3.056   0.599   5.380  0.9217  0.0634 -1.8543
 4670TIP3    H213975   2.948   0.677   5.452  1.4273 -1.6321  0.8862
 4671TIP3   OH213976   6.752   3.455   1.718  0.0090 -0.6635 -0.2818
 4671TIP3    H113977   6.661   3.483   1.725  0.4674  0.8065  0.1476
 4671TIP3    H213978   6.786   3.505   1.643  0.6008 -0.7849 -0.0979
 4672TIP3   OH213979   0.029   1.147   2.617  0.4280 -0.0414  0.0912
 4672TIP3    H113980   0.019   1.064   2.663 -0.7632  0.5700  0.9651
 4672TIP3    H213981  -0.013   1.212   2.674 -1.7294  0.6596 -2.1269
 4673TIP3   OH213982   0.296   0.779   4.347  0.3889 -0.3841 -0.2238
 4673TIP3    H113983   0.205   0.772   4.377  0.0439  0.1288 -1.1067
 4673TIP3    H213984   0.329   0.689   4.350  0.4000 -0.3426  1.6987
 4674TIP3   OH213985   2.079   0.597   1.144 -0.2358  0.0401  0.0421
 4674TIP3    H113986   2.132   0.542   1.086 -0.7748 -1.7612  1.1456
 4674TIP3    H213987   1.989   0.570   1.127 -0.4875  0.3710  0.7986
 4675TIP3   OH213988   3.525   6.520   3.436 -0.3469  0.0220 -0.2797
 4675TIP3    H113989   3.619   6.514   3.418 -0.4549  2.4121 -2.2261
 4675TIP3    H213990   3.491   6.432   3.419  1.2754 -0.4283 -1.4187
 4676TIP3   OH213991   0.071   0.749   3.574 -0.1275  0.1117 -0.2780
 4676TIP3    H113992   0.092   0.821   3.514 -0.7241 -1.2753 -2.2138
 4676TIP3    H213993  -0.022   0.732   3.560  0.2053 -1.6439 -0.5785
 4677TIP3   OH213994   5.889   1.072   1.221  0.0368 -0.0194 -0.3042
 4677TIP3    H113995   5.830   1.042   1.151 -1.3515 -0.4887  0.9989
 4677TIP3    H213996   5.949   1.132   1.178 -0.9892 -0.0285 -1.8341
 4678TIP3   OH213997   0.915   5.129   4.362  0.2341 -0.2776  0.3357
 4678TIP3    H113998   0.987   5.105   4.420  2.1715  3.1460 -0.3627
 4678TIP3    H213999   0.944   5.100   4.275  0.1295 -0.1181  0.2477
 4679TIP3   OH214000   4.856   1.417   4.970  0.6067 -0.3064  0.0469
 4679TIP3    H114001   4.943   1.428   4.932 -0.5051  1.4752 -2.2187
 4679TIP3    H214002   4.804   1.375   4.902 -0.3188 -1.4998  1.4237
 4680TIP3   OH214003   5.988   6.362   1.093 -0.0863 -0.6858  0.5194
 4680TIP3    H114004   5.999   6.328   1.004 -1.2442 -2.1212  0.8850
 4680TIP3    H214005   5.928   6.300   1.135  2.0597 -1.2581  2.9842
 4681TIP3   OH214006   7.127   4.934   1.733  0.6877  0.2894  0.5362
 4681TIP3    H114007   7.189   5.007   1.724  0.9754  0.1597  1.4075
 4681TIP3    H214008   7.067   4.962   1.802 -0.5103  0.5980 -0.5850
 4682TIP3   OH214009   4.394   5.002   0.303 -0.0629 -0.2741 -0.0603
 4682TIP3    H114010   4.327   5.061   0.337 -0.1492 -0.7026  0.5379
 4682TIP3    H214011   4.379   4.999   0.209  1.1250  2.1444 -0.3992
 4683TIP3   OH214012   4.392   6.053   1.664  0.8700 -0.4952  0.3151
 4683TIP3    H114013   4.384   5.967   1.624  0.3644 -0.4403  0.2973
 4683TIP3    H214014   4.401   6.113   1.590  1.9873 -0.6004  0.3409
 4684TIP3   OH214015   4.987   1.709   2.845  0.4186  0.2310  0.7549
 4684TIP3    H114016   4.960   1.801   2.842  0.5822  0.2444 -0.6402
 4684TIP3    H214017   4.996   1.690   2.939 -1.2329  1.1492  1.1287
 4685TIP3   OH214018   6.273   5.869   4.509 -0.6305 -0.0980 -0.0408
 4685TIP3    H114019   6.241   5.940   4.563 -2.0464 -0.7298 -0.0060
 4685TIP3    H214020   6.266   5.901   4.419 -0.2640  0.1896  0.0338
 4686TIP3   OH214021   3.001   3.225   0.890  0.0368 -0.0060 -0.2878
 4686TIP3    H114022   2.947   3.255   0.963  0.9238  0.7978  0.0603
 4686TIP3    H214023   2.939   3.187   0.828 -0.6760 -1.3818  1.1918
 4687TIP3   OH214024   7.100   1.204   3.081  0.2655  0.5068 -0.9415
 4687TIP3    H114025   7.127   1.285   3.126 -0.2302  0.5023 -0.6308
 4687TIP3    H214026   7.162   1.138   3.113 -0.7702  0.2486  0.6443
 4688TIP3   OH214027   6.432   4.523   1.999 -0.2833  0.1774 -0.1091
 4688TIP3    H114028   6.424   4.455   2.066 -0.2488  0.2648 -0.0171
 4688TIP3    H214029   6.521   4.556   2.008 -0.6415  0.9935  0.5712
 4689TIP3   OH214030   6.799   0.101   4.315 -0.1623  0.0226 -0.2890
 4689TIP3    H114031   6.788   0.021   4.367  0.4472 -1.1838 -1.9215
 4689TIP3    H214032   6.710   0.123   4.287 -0.1768 -1.2374 -1.3837
 4690TIP3   OH214033   3.313   4.427   2.487  0.0595  0.7929 -0.2837
 4690TIP3    H114034   3.354   4.352   2.443  0.1005  0.3392  0.4968
 4690TIP3    H214035   3.260   4.387   2.557  0.2795  1.4993  0.3044
 4691TIP3   OH214036   7.063   0.173   1.169  0.0587  0.1895  0.4700
 4691TIP3    H114037   7.092   0.090   1.208 -1.0068 -1.1338 -1.3726
 4691TIP3    H214038   7.065   0.157   1.074 -2.4720  1.4447  0.1266
 4692TIP3   OH214039   1.911   5.102   0.515  0.2895  0.1158  0.5599
 4692TIP3    H114040   1.898   5.177   0.573  1.5448  2.0073 -1.4463
 4692TIP3    H214041   1.935   5.141   0.431 -0.4138 -2.5247 -0.9722
 4693TIP3   OH214042   5.035   6.466   2.565  0.1890 -0.2645  0.1134
 4693TIP3    H114043   4.986   6.506   2.637 -1.5794 -2.2344  0.1146
 4693TIP3    H214044   4.976   6.471   2.490  1.5488  0.7116 -0.9251
 4694TIP3   OH214045   5.019   1.010   2.200  0.3918 -0.0300  0.5238
 4694TIP3    H114046   5.036   0.972   2.114 -0.2810 -2.4851  1.4044
 4694TIP3    H214047   4.964   1.086   2.182 -0.5810 -1.0706 -1.1587
 4695TIP3   OH214048   6.621   4.296   5.317  0.3763  0.1338 -0.4211
 4695TIP3    H114049   6.590   4.212   5.284 -0.6463  0.3758 -0.1047
 4695TIP3    H214050   6.557   4.359   5.286 -0.8964  0.3391  2.3137
 4696TIP3   OH214051   1.471   5.446   2.954 -0.0409  0.3313  0.1300
 4696TIP3    H114052   1.412   5.377   2.922 -0.6604  1.2146 -0.7014
 4696TIP3    H214053   1.534   5.400   3.009 -0.2771 -0.9404 -0.6157
 4697TIP3   OH214054   2.883   1.894   5.738  0.1365 -0.6056 -0.2591
 4697TIP3    H114055   2.879   1.913   5.831 -1.6883 -0.1347 -0.4018
 4697TIP3    H214056   2.817   1.951   5.698  1.0323 -0.6214 -1.8821
 4698TIP3   OH214057   5.899   3.542   2.466 -0.0993 -0.7797 -0.0542
 4698TIP3    H114058   5.914   3.448   2.475 -1.7145 -1.3555 -2.3886
 4698TIP3    H214059   5.825   3.559   2.525  0.4587 -0.8824  0.6823
 4699TIP3   OH214060   6.359   5.727   0.110 -0.6758 -0.5721  0.0459
 4699TIP3    H114061   6.395   5.815   0.122  1.4440 -1.2150 -1.0812
 4699TIP3    H214062   6.385   5.680   0.189  0.4341 -0.8529 -0.4728
 4700TIP3   OH214063   6.074   6.004   0.654  0.2732 -0.0244 -0.1012
 4700TIP3    H114064   6.034   5.980   0.738 -0.3125 -1.9177 -0.8789
 4700TIP3    H214065   6.166   5.979   0.664  0.5912  1.3182  0.5409
 4701TIP3   OH214066   1.555   6.611   0.364 -0.0673  0.0678 -0.3779
 4701TIP3    H114067   1.478   6.646   0.320  0.3799  1.7519  0.1095
 4701TIP3    H214068   1.584   6.538   0.309 -0.2682  1.2933 -2.1710
 4702TIP3   OH214069   4.490   3.083   3.308 -0.7378  0.2639  0.0667
 4702TIP3    H114070   4.525   3.172   3.319 -1.1911  0.5448 -0.7450
 4702TIP3    H214071   4.407   3.084   3.355  0.1176 -0.3038  1.6950
 4703TIP3   OH214072   2.130   6.427   5.240 -0.9067 -0.0030 -0.0695
 4703TIP3    H114073   2.187   6.504   5.233 -0.4624 -0.4630 -1.9221
 4703TIP3    H214074   2.190   6.353   5.236 -1.5995 -0.5276 -2.9189
 4704TIP3   OH214075   1.123   2.196   2.203  0.0048  0.1497  0.1771
 4704TIP3    H114076   1.174   2.203   2.284 -0.2305  0.8984  0.2688
 4704TIP3    H214077   1.188   2.182   2.134  0.3900  1.4226  0.2460
 4705TIP3   OH214078   4.983   0.327   3.252 -0.5390  0.1533 -0.0291
 4705TIP3    H114079   5.035   0.278   3.316  0.1498  0.8546 -0.0266
 4705TIP3    H214080   4.976   0.415   3.290 -3.0676 -0.2911  0.7172
 4706TIP3   OH214081   5.367   6.255   4.267 -0.3120  0.1583 -0.3911
 4706TIP3    H114082   5.352   6.179   4.324  0.0461 -0.0296 -0.5419
 4706TIP3    H214083   5.300   6.248   4.199  1.7414 -1.9460 -2.3808
 4707TIP3   OH214084   6.122   3.787   1.960  0.3861 -0.1647  0.4723
 4707TIP3    H114085   6.052   3.836   2.004 -1.0125 -1.0067 -0.7313
 4707TIP3    H214086   6.100   3.793   1.867  2.0942 -0.2185  0.0419
 4708TIP3   OH214087   5.848   3.714   0.423  0.5628 -0.1894  0.9468
 4708TIP3    H114088   5.881   3.721   0.512 -0.1666 -0.4669  1.2482
 4708TIP3    H214089   5.842   3.620   0.407 -0.3551 -0.1522  1.0142
 4709TIP3   OH214090   4.910   2.827   5.234  0.0146 -0.3101  0.0850
 4709TIP3    H114091   4.846   2.756   5.222 -0.1585  0.0691 -1.4450
 4709TIP3    H214092   4.861   2.907   5.214  1.0238 -0.0364 -1.4548
 4710TIP3   OH214093   6.178   4.204   2.572  0.3124 -0.6691 -0.0683
 4710TIP3    H114094   6.231   4.191   2.651  0.8774 -0.6295 -0.4375
 4710TIP3    H214095   6.106   4.261   2.601  1.7109  1.2123 -0.0557
 4711TIP3   OH214096   5.145   2.549   5.368 -0.0557 -0.4261  0.2231
 4711TIP3    H114097   5.163   2.576   5.278 -1.0814  0.7119  0.3345
 4711TIP3    H214098   5.099   2.623   5.407  0.4036 -0.8863  1.7080
 4712TIP3   OH214099   5.026   4.835   4.267  0.0757 -0.4476 -0.4014
 4712TIP3    H114100   5.074   4.903   4.220  0.9229  0.4269  1.5831
 4712TIP3    H214101   5.022   4.868   4.357 -1.8990 -1.7829  0.0509
 4713TIP3   OH214102   1.474   5.888   0.810  0.3644  0.4598 -0.2495
 4713TIP3    H114103   1.479   5.805   0.858  0.9744  0.4996 -0.2346
 4713TIP3    H214104   1.461   5.954   0.877 -0.9152  0.3002 -0.3285
 4714TIP3   OH214105   4.580   0.582   2.284 -0.4592  0.2242  0.2460
 4714TIP3    H114106   4.642   0.622   2.346 -0.7875 -1.5530  1.8187
 4714TIP3    H214107   4.613   0.493   2.273 -1.6008 -0.1111 -0.5247
 4715TIP3   OH214108   4.600   3.040   5.891 -0.4813 -0.4568 -0.3021
 4715TIP3    H114109   4.590   3.063   5.798  2.5086  2.3165 -0.1168
 4715TIP3    H214110   4.525   3.081   5.934 -0.0240  1.3681 -1.1412
 4716TIP3   OH214111   1.615   3.992   1.418 -0.7167 -0.6079 -0.1180
 4716TIP3    H114112   1.588   3.908   1.456  0.7942 -1.1418 -0.1361
 4716TIP3    H214113   1.540   4.050   1.431 -0.5471 -0.9651  3.0032
 4717TIP3   OH214114   0.809   5.445   2.492  0.5986 -0.0215 -0.2402
 4717TIP3    H114115   0.726   5.445   2.540  0.5398  1.4055 -0.3040
 4717TIP3    H214116   0.855   5.368   2.524 -0.8089 -0.9192 -0.3182
 4718TIP3   OH214117   3.554   3.311   3.791 -0.6306 -0.1901  0.0556
 4718TIP3    H114118   3.648   3.321   3.774 -0.6574 -1.7908 -1.4279
 4718TIP3    H214119   3.549   3.242   3.857 -0.7513  0.9472  1.2678
 4719TIP3   OH214120   0.169   6.122   3.319 -0.2084  0.2603 -0.5411
 4719TIP3    H114121   0.079   6.110   3.350 -0.6859  0.1631 -1.9229
 4719TIP3    H214122   0.222   6.079   3.387 -1.1103  1.1439  0.7861
 4720TIP3   OH214123   6.197   3.689   5.206 -0.1319 -0.0254  0.0548
 4720TIP3    H114124   6.161   3.721   5.289 -2.2108 -0.5330 -0.5978
 4720TIP3    H214125   6.257   3.619   5.232  0.5752  0.9612  1.2015
 4721TIP3   OH214126   6.711   2.843   5.776 -0.8186  0.1551  0.2808
 4721TIP3    H114127   6.687   2.813   5.688  0.8480  0.7596 -0.4234
 4721TIP3    H214128   6.758   2.925   5.761  1.4056 -0.7991  1.5340
 4722TIP3   OH214129   1.654   2.865   5.635  0.3296 -0.0639 -0.4963
 4722TIP3    H114130   1.734   2.820   5.660  0.4113 -0.7294 -1.8628
 4722TIP3    H214131   1.663   2.881   5.541 -0.3709  1.4496 -0.3440
 4723TIP3   OH214132   6.640   6.606   5.558  0.0037  0.5357 -0.2481
 4723TIP3    H114133   6.709   6.552   5.518  0.2477  0.2012  0.5876
 4723TIP3    H214134   6.686   6.654   5.628 -0.6937 -0.0741  0.6546
 4724TIP3   OH214135   3.679   1.513   5.883  0.1136  0.2014  0.6754
 4724TIP3    H114136   3.688   1.574   5.810  1.2064 -0.4606  0.2367
 4724TIP3    H214137   3.754   1.532   5.940 -0.5006  0.4319  1.4287
 4725TIP3   OH214138   2.776   1.848   4.899 -0.2199 -0.2202  0.2730
 4725TIP3    H114139   2.789   1.921   4.839 -1.4687  1.1352  1.5435
 4725TIP3    H214140   2.827   1.776   4.862 -1.1796  0.4328 -2.5322
 4726TIP3   OH214141   6.582   5.365   2.078  0.0069 -0.1561  0.4286
 4726TIP3    H114142   6.530   5.308   2.021  0.7935  0.6264 -1.1368
 4726TIP3    H214143   6.624   5.426   2.018 -1.0019  2.2679  2.0491
 4727TIP3   OH214144   1.652   5.757   3.486  0.3509 -0.4640  0.0314
 4727TIP3    H114145   1.596   5.759   3.564 -1.1347  0.4005 -1.0130
 4727TIP3    H214146   1.697   5.841   3.486 -0.6762  0.1057 -0.7344
 4728TIP3   OH214147   4.469   6.561   2.125 -0.0998  0.0131 -0.2628
 4728TIP3    H114148   4.523   6.636   2.100  1.3424 -0.8500  0.1403
 4728TIP3    H214149   4.463   6.507   2.046  0.3660 -0.3157 -0.0779
 4729TIP3   OH214150   2.513   5.384   2.038  0.7795 -0.1003  0.1483
 4729TIP3    H114151   2.541   5.412   1.951  2.2835  0.2029  0.7053
 4729TIP3    H214152   2.551   5.296   2.048  0.7600 -0.0638  0.5577
 4730TIP3   OH214153   3.090   0.039   1.730  0.3165 -0.1235 -0.5049
 4730TIP3    H114154   3.034   0.079   1.797  0.7697 -0.1798 -0.0857
 4730TIP3    H214155   3.170   0.091   1.732  0.3740 -0.1951 -0.9325
 4731TIP3   OH214156   1.888   1.982   2.301  0.1407 -0.4472 -0.1293
 4731TIP3    H114157   1.884   1.924   2.225  1.0319 -1.5076  0.6021
 4731TIP3    H214158   1.907   2.068   2.264 -0.5174 -0.7266 -1.1795
 4732TIP3   OH214159   0.666   0.109   0.168  0.2548  0.1570 -0.1180
 4732TIP3    H114160   0.597   0.043   0.176  0.6062 -0.1434  0.5647
 4732TIP3    H214161   0.658   0.141   0.079 -0.4656 -0.2098 -0.1981
 4733TIP3   OH214162   0.310   4.280   1.883 -0.2026  0.6357 -0.3012
 4733TIP3    H114163   0.343   4.218   1.818  3.4121 -0.2169  2.0315
 4733TIP3    H214164   0.318   4.366   1.841  0.1101 -0.0346 -1.6598
 4734TIP3   OH214165   2.904   4.583   0.464 -0.0087  0.1125  0.1142
 4734TIP3    H114166   2.879   4.491   0.461  0.9798 -0.1612 -0.4601
 4734TIP3    H214167   2.992   4.582   0.502 -0.2861  0.8983  0.8056
 4735TIP3   OH214168   5.712   1.346   2.857  0.5553 -0.0284  0.1657
 4735TIP3    H114169   5.747   1.362   2.769  0.7984 -0.6247  0.1478
 4735TIP3    H214170   5.667   1.427   2.880  1.0716  0.3811 -0.2327
 4736TIP3   OH214171   4.225   6.695   0.782  0.1804 -0.1444 -0.2481
 4736TIP3    H114172   4.308   6.720   0.743  0.4279 -0.3334  0.1591
 4736TIP3    H214173   4.159   6.740   0.729  0.3847 -1.9038 -2.1118
 4737TIP3   OH214174   0.572   4.562   0.251  1.0074 -0.4918 -0.1876
 4737TIP3    H114175   0.505   4.589   0.314  1.5865  1.3021 -0.2833
 4737TIP3    H214176   0.546   4.604   0.169  1.7254 -0.5828 -0.4713
 4738TIP3   OH214177   5.818   1.894   2.099 -0.1986  0.1821  0.0466
 4738TIP3    H114178   5.751   1.940   2.150  0.8262  0.2774  1.3569
 4738TIP3    H214179   5.812   1.803   2.127 -0.7357 -0.0910 -0.9134
 4739TIP3   OH214180   5.150   4.665   5.449 -0.0761  0.3126 -0.1499
 4739TIP3    H114181   5.215   4.596   5.434  0.7084  1.1464 -0.6846
 4739TIP3    H214182   5.200   4.735   5.491 -0.8640  0.5603  0.3747
 4740TIP3   OH214183   1.945   5.872   2.521  0.3133  0.0786 -0.0247
 4740TIP3    H114184   2.034   5.842   2.543 -0.3669 -0.5290  2.1524
 4740TIP3    H214185   1.923   5.824   2.442  1.2766 -1.1280  0.3970
 4741TIP3   OH214186   1.038   1.962   3.086  0.1853  0.2407  0.1872
 4741TIP3    H114187   0.999   2.031   3.140 -1.5474 -0.3978 -0.1945
 4741TIP3    H214188   1.075   2.008   3.011  1.5603  1.0131  1.2960
 4742TIP3   OH214189   5.725   4.944   3.698 -0.1621 -0.1609  0.0244
 4742TIP3    H114190   5.751   5.018   3.644 -1.1180  0.3176  0.2057
 4742TIP3    H214191   5.746   4.867   3.645  0.9690  0.2205 -0.1064
 4743TIP3   OH214192   5.983   2.621   3.152  0.0954  0.6473  0.1546
 4743TIP3    H114193   6.002   2.676   3.228  1.5946 -0.4609  0.6337
 4743TIP3    H214194   5.951   2.682   3.085 -1.0243  1.6747  1.5758
 4744TIP3   OH214195   0.761   2.392   3.629  0.1349 -0.1095 -0.2057
 4744TIP3    H114196   0.787   2.385   3.721  0.1856 -2.4663 -0.3472
 4744TIP3    H214197   0.688   2.331   3.620 -0.2688  0.5358 -1.6207
 4745TIP3   OH214198   2.621   2.933   0.481 -0.2455 -0.3506 -0.1265
 4745TIP3    H114199   2.624   2.860   0.420  0.7684 -1.8387  1.6082
 4745TIP3    H214200   2.596   3.008   0.427  0.8621 -1.5096 -2.4183
 4746TIP3   OH214201   6.797   3.060   0.008  0.3430  0.0203  0.0411
 4746TIP3    H114202   6.813   3.094   0.096  0.6734 -0.6811  0.2569
 4746TIP3    H214203   6.702   3.058   0.000  0.3102 -0.0296  0.4282
 4747TIP3   OH214204   6.800   4.657   3.218 -0.6035 -0.3001  0.1317
 4747TIP3    H114205   6.810   4.639   3.311  1.3946 -1.5094 -0.2412
 4747TIP3    H214206   6.860   4.595   3.176 -0.1531  1.3838 -1.8522
 4748TIP3   OH214207   6.563   4.610   4.731  0.4319  0.3155  0.2565
 4748TIP3    H114208   6.479   4.612   4.684  0.0178 -0.7091  0.9034
 4748TIP3    H214209   6.542   4.643   4.818  1.0059  1.3470  0.0202
 4749TIP3   OH214210   0.170   1.245   5.730 -0.3159 -0.5985  0.2130
 4749TIP3    H114211   0.258   1.259   5.694  0.4438 -1.2600  1.6847
 4749TIP3    H214212   0.142   1.332   5.757 -0.6681 -0.1870 -1.4143
 4750TIP3   OH214213   1.243   0.111   0.124 -0.0425 -0.3205  0.1064
 4750TIP3    H114214   1.175   0.045   0.108 -1.1327  0.9654 -0.7714
 4750TIP3    H214215   1.317   0.082   0.070 -0.1319 -1.3284  0.4893
 4751TIP3   OH214216   4.561   4.380   5.243 -0.5896 -0.1866 -0.1151
 4751TIP3    H114217   4.640   4.421   5.206 -0.3249  1.6954  2.2851
 4751TIP3    H214218   4.490   4.409   5.185  0.2383 -0.6924 -1.4479
 4752TIP3   OH214219   1.935   1.195   4.376 -0.1836 -0.1035  0.2323
 4752TIP3    H114220   1.865   1.181   4.312 -1.1261 -0.1210  1.2267
 4752TIP3    H214221   1.901   1.264   4.434 -0.4721 -1.7799  2.1861
 4753TIP3   OH214222   1.928   1.607   5.430  0.0218 -0.0586  0.2078
 4753TIP3    H114223   1.960   1.678   5.376  0.1081  0.0424  0.3923
 4753TIP3    H214224   1.870   1.557   5.372 -0.6698  0.6196  0.3117
 4754TIP3   OH214225   3.533   0.885   4.003 -0.2971  0.1918 -0.2111
 4754TIP3    H114226   3.470   0.815   3.988 -0.1095  0.0063 -0.1390
 4754TIP3    H214227   3.483   0.954   4.047 -0.1341 -0.5108  1.1061
 4755TIP3   OH214228   5.491   3.426   3.982  0.0870 -0.0267  0.7662
 4755TIP3    H114229   5.485   3.517   4.011  0.0651 -0.1496  1.1484
 4755TIP3    H214230   5.563   3.426   3.919 -2.3684  1.0662 -2.3485
 4756TIP3   OH214231   5.038   2.322   2.132  0.2642  0.0079  0.1088
 4756TIP3    H114232   5.073   2.410   2.124  0.4940 -0.1440 -0.5781
 4756TIP3    H214233   5.074   2.290   2.215 -0.9304  1.0440  1.0625
 4757TIP3   OH214234   2.061   0.647   1.724 -0.3651  0.9044  0.3160
 4757TIP3    H114235   2.135   0.586   1.722  0.3125  1.7078 -1.3258
 4757TIP3    H214236   1.987   0.594   1.753  0.4167 -0.4518 -0.0711
 4758TIP3   OH214237   6.487   4.816   3.471  0.1218  0.1936 -0.4522
 4758TIP3    H114238   6.539   4.797   3.549  1.1553  0.9239 -0.9298
 4758TIP3    H214239   6.552   4.829   3.401 -0.6394  1.9521 -0.8922
 4759TIP3   OH214240   0.233   6.401   4.849 -0.3803  0.2079 -0.3291
 4759TIP3    H114241   0.233   6.358   4.934  0.3944  0.6141 -0.1131
 4759TIP3    H214242   0.158   6.363   4.802 -1.1610  0.4027  0.7334
 4760TIP3   OH214243   1.121   3.269   0.455  0.2113  0.5384 -0.8254
 4760TIP3    H114244   1.052   3.214   0.419  0.7614  0.2775 -1.4871
 4760TIP3    H214245   1.200   3.215   0.451  0.8353  1.4822 -1.8222
 4761TIP3   OH214246   3.633   4.479   0.534 -0.3529 -0.2872  0.6656
 4761TIP3    H114247   3.684   4.412   0.489  0.0801  1.3509 -1.4844
 4761TIP3    H214248   3.542   4.456   0.516 -0.1899  0.8243 -2.0251
 4762TIP3   OH214249   7.142   0.195   2.200 -0.0024 -0.6145 -0.0756
 4762TIP3    H114250   7.186   0.279   2.212  0.8761 -1.2008  0.9906
 4762TIP3    H214251   7.170   0.166   2.113 -2.3057  1.2984 -1.5527
 4763TIP3   OH214252   4.604   2.416   2.895 -0.3844 -0.0947  0.2263
 4763TIP3    H114253   4.530   2.471   2.920 -1.7150 -0.9077 -1.6698
 4763TIP3    H214254   4.587   2.331   2.935 -2.8060 -1.5682 -3.4170
 4764TIP3   OH214255   7.170   6.048   2.205  0.1386 -0.4135  0.1167
 4764TIP3    H114256   7.079   6.034   2.233 -0.1455  1.2243  0.1163
 4764TIP3    H214257   7.203   5.960   2.186 -0.4836 -1.3951  2.9766
 4765TIP3   OH214258   4.387   3.448   5.662 -0.3848 -0.6695  0.3528
 4765TIP3    H114259   4.401   3.539   5.689  0.1292 -0.8832  0.8215
 4765TIP3    H214260   4.474   3.418   5.635 -0.7433 -0.6977 -0.8532
 4766TIP3   OH214261   4.660   5.201   1.144  0.6264 -0.3910 -0.2039
 4766TIP3    H114262   4.695   5.213   1.232 -0.1120 -1.3913  0.2475
 4766TIP3    H214263   4.644   5.289   1.112  0.5534 -0.0283  0.8081
 4767TIP3   OH214264   3.002   0.172   2.731  0.2167  0.2209 -0.1928
 4767TIP3    H114265   3.037   0.105   2.790  1.4850  0.3978 -0.7148
 4767TIP3    H214266   2.921   0.133   2.697  0.1981 -0.4589  0.5853
 4768TIP3   OH214267   4.929   0.177   3.739 -0.9043 -0.3452 -0.4247
 4768TIP3    H114268   4.993   0.108   3.724 -0.2201  0.5656 -1.9660
 4768TIP3    H214269   4.943   0.204   3.830  2.1077  0.9659 -1.1846
 4769TIP3   OH214270   0.519   1.111   5.036 -0.2730  0.0131  0.7716
 4769TIP3    H114271   0.513   1.206   5.045 -0.2399  0.1776 -0.7902
 4769TIP3    H214272   0.434   1.079   5.065 -0.2530  0.5009  1.3907
 4770TIP3   OH214273   6.845   2.392   1.863  0.4521 -0.0050  0.3291
 4770TIP3    H114274   6.821   2.319   1.920 -1.9011 -0.4920 -1.1340
 4770TIP3    H214275   6.784   2.462   1.887 -0.6003 -0.2221 -1.5051
 4771TIP3   OH214276   2.645   6.539   5.443 -0.2577 -0.3272 -0.0916
 4771TIP3    H114277   2.628   6.457   5.397 -1.4814 -0.5500  0.7116
 4771TIP3    H214278   2.656   6.513   5.534 -0.6645  0.4074  0.1678
 4772TIP3   OH214279   5.907   2.494   2.883  0.7583 -0.1438 -0.0333
 4772TIP3    H114280   5.955   2.485   2.801  0.4860 -1.0038 -0.1093
 4772TIP3    H214281   5.959   2.443   2.946  1.0290  0.6020  0.3624
 4773TIP3   OH214282   4.493   1.344   2.055  0.5276  0.3159  0.1252
 4773TIP3    H114283   4.580   1.347   2.017  0.3043 -2.9531 -0.9666
 4773TIP3    H214284   4.433   1.349   1.980 -0.0817 -1.0346  0.4930
 4774TIP3   OH214285   6.001   0.111   1.015 -0.0765  0.1675  0.2693
 4774TIP3    H114286   5.940   0.097   0.943 -0.5205  1.5318  0.3606
 4774TIP3    H214287   5.986   0.037   1.074  0.3763 -1.0370 -1.0552
 4775TIP3   OH214288   5.976   4.663   0.076 -0.5747 -0.4648  0.3906
 4775TIP3    H114289   5.890   4.703   0.069 -1.1915 -1.9728 -1.3721
 4775TIP3    H214290   6.037   4.734   0.061 -1.2436  1.3264  4.6187
 4776TIP3   OH214291   0.898   5.718   2.420  0.6307  0.2524 -0.7129
 4776TIP3    H114292   0.838   5.784   2.455 -1.0056  0.1276 -2.9779
 4776TIP3    H214293   0.864   5.635   2.453  1.3115  0.3719  0.3068
 4777TIP3   OH214294   3.021   6.285   3.610  0.0595 -0.2021 -0.1355
 4777TIP3    H114295   3.068   6.218   3.560 -0.9917 -0.5508 -0.6950
 4777TIP3    H214296   3.073   6.297   3.689  1.6518  0.2055 -1.2071
 4778TIP3   OH214297   6.257   6.786   2.989  0.2252 -0.0171 -0.2006
 4778TIP3    H114298   6.226   6.712   3.041 -1.6758  0.9433  0.1348
 4778TIP3    H214299   6.256   6.754   2.899  0.8369 -0.8431  0.0828
 4779TIP3   OH214300   3.429   6.505   0.628 -0.7076  0.4247 -0.3550
 4779TIP3    H114301   3.482   6.426   0.622 -3.1319 -1.3954  0.4403
 4779TIP3    H214302   3.425   6.538   0.538  0.9327  0.1160 -0.5705
 4780TIP3   OH214303   4.667   2.773   4.202  0.2684 -0.2011  0.4588
 4780TIP3    H114304   4.717   2.729   4.271  2.9763  1.1906 -0.4358
 4780TIP3    H214305   4.658   2.863   4.233 -1.7531 -0.4062  0.5602
 4781TIP3   OH214306   5.481   5.409   4.338 -0.5952  0.3452 -0.1805
 4781TIP3    H114307   5.490   5.314   4.347 -0.4016  0.4141  0.3755
 4781TIP3    H214308   5.569   5.444   4.352 -0.2377  0.4898 -2.3584
 4782TIP3   OH214309   6.104   6.267   2.646  0.4955  0.4762  0.5450
 4782TIP3    H114310   6.158   6.223   2.580 -1.0724 -0.5607 -0.1008
 4782TIP3    H214311   6.086   6.198   2.711  0.7375  1.0703  1.2518
 4783TIP3   OH214312   2.873   6.629   5.289  0.0920 -0.0846  0.2003
 4783TIP3    H114313   2.789   6.586   5.306 -0.5608  1.1669  0.3354
 4783TIP3    H214314   2.878   6.698   5.355 -0.4542  2.1026 -1.8979
 4784TIP3   OH214315   0.653   0.943   1.341 -0.0572 -0.4828  0.3379
 4784TIP3    H114316   0.648   1.020   1.397  1.6886 -1.9841  2.7643
 4784TIP3    H214317   0.745   0.935   1.318 -0.6525 -0.2472 -2.3695
 4785TIP3   OH214318   6.580   5.086   3.271  0.0085  1.2267  0.5426
 4785TIP3    H114319   6.636   5.155   3.307  0.7624  0.7586  0.2821
 4785TIP3    H214320   6.641   5.020   3.239 -0.6760  1.0590 -0.4473
 4786TIP3   OH214321   3.614   1.259   3.009  0.6650 -0.1664  0.5704
 4786TIP3    H114322   3.676   1.190   2.986 -1.7226 -2.8337  1.5474
 4786TIP3    H214323   3.542   1.249   2.946  1.2605  3.1667 -0.8722
 4787TIP3   OH214324   6.762   3.145   4.585  0.7243 -0.4817 -0.8210
 4787TIP3    H114325   6.800   3.070   4.540 -0.2037 -0.4555 -1.6976
 4787TIP3    H214326   6.696   3.107   4.644  0.6867 -0.3986 -0.8085
 4788TIP3   OH214327   5.379   2.457   2.891 -0.6189  0.6264  0.5934
 4788TIP3    H114328   5.392   2.477   2.984 -0.7805  2.9530  0.1679
 4788TIP3    H214329   5.466   2.429   2.861 -0.6962 -0.7450  1.5343
 4789TIP3   OH214330   6.525   5.841   2.198 -0.4187 -0.8033  0.1190
 4789TIP3    H114331   6.433   5.864   2.188 -0.2494  2.1533  3.4894
 4789TIP3    H214332   6.524   5.765   2.256 -0.7128 -1.6353 -0.9483
 4790TIP3   OH214333   3.990   4.912   2.902  0.5177 -0.2587  0.5092
 4790TIP3    H114334   4.040   4.910   2.821  1.0268 -1.4801  0.8306
 4790TIP3    H214335   3.933   4.836   2.897  0.3115 -0.1567  1.1520
 4791TIP3   OH214336   6.696   2.571   3.251  0.0788 -0.1522  0.1045
 4791TIP3    H114337   6.710   2.497   3.310 -0.6303  0.5692  1.2151
 4791TIP3    H214338   6.785   2.602   3.229  0.3514 -0.2741  1.0036
 4792TIP3   OH214339   3.191   4.156   1.800 -0.2910 -0.7737 -0.3632
 4792TIP3    H114340   3.144   4.143   1.883 -0.9544 -2.4507 -0.9733
 4792TIP3    H214341   3.279   4.183   1.827 -0.9720  0.3731  0.8366
 4793TIP3   OH214342   3.804   2.462   2.634 -0.1988  0.1903  0.1337
 4793TIP3    H114343   3.893   2.429   2.627  0.3013  1.3780  0.5615
 4793TIP3    H214344   3.810   2.534   2.697 -1.6031 -0.1882  0.7481
 4794TIP3   OH214345   5.270   4.386   5.359  0.1619 -0.7486  0.4097
 4794TIP3    H114346   5.198   4.376   5.297 -0.4165 -0.4553  1.0149
 4794TIP3    H214347   5.341   4.424   5.308  0.0616 -1.4976 -0.3116
 4795TIP3   OH214348   5.754   5.266   4.795  0.5526  0.0961  0.3855
 4795TIP3    H114349   5.759   5.170   4.797 -1.1315 -0.0442 -0.3969
 4795TIP3    H214350   5.702   5.289   4.871  0.6411  0.3684  0.3643
 4796TIP3   OH214351   0.670   0.969   1.987 -0.1535  0.0853 -0.0334
 4796TIP3    H114352   0.742   0.988   2.047 -0.9012 -1.7646  1.5225
 4796TIP3    H214353   0.627   1.054   1.975  2.2811  1.2937 -1.1356
 4797TIP3   OH214354   2.470   5.136   1.220  0.5887  0.5114 -0.3234
 4797TIP3    H114355   2.461   5.178   1.306  0.3597  1.3138 -0.7292
 4797TIP3    H214356   2.430   5.198   1.159  1.3554  0.2535 -1.1005
 4798TIP3   OH214357   2.874  -0.005   3.726  0.3246  0.3352 -1.0183
 4798TIP3    H114358   2.942  -0.072   3.721  0.4977  0.4663 -0.5159
 4798TIP3    H214359   2.922   0.077   3.738  0.0608  0.3390  0.1162
 4799TIP3   OH214360   0.519   6.070   5.643  0.4505  0.3870  0.2063
 4799TIP3    H114361   0.539   6.023   5.562 -2.8527 -1.9700  0.5439
 4799TIP3    H214362   0.539   6.006   5.712 -0.7138  0.7897  0.9360
 4800TIP3   OH214363   1.465   2.535   1.752  0.5474  0.3126 -0.0307
 4800TIP3    H114364   1.409   2.605   1.788  1.0885 -0.3199  2.1722
 4800TIP3    H214365   1.404   2.480   1.703 -0.7978 -0.1488  1.9987
 4801TIP3   OH214366   6.628   6.167   4.929 -0.6817 -0.2155  0.0699
 4801TIP3    H114367   6.714   6.172   4.887 -0.3655 -1.2577  0.5471
 4801TIP3    H214368   6.637   6.218   5.009 -0.3841 -0.6155  0.2974
 4802TIP3   OH214369   0.866   0.466   2.911 -0.4982 -0.1753 -0.5856
 4802TIP3    H114370   0.927   0.454   2.837 -0.1624 -1.6817 -0.0941
 4802TIP3    H214371   0.896   0.404   2.977 -1.8381 -0.0640  0.1578
 4803TIP3   OH214372   1.155   0.329   1.537 -0.0864  0.4059  0.8987
 4803TIP3    H114373   1.218   0.334   1.465  1.5872 -0.7891  2.2101
 4803TIP3    H214374   1.203   0.362   1.613 -0.7183 -1.3198  2.1058
 4804TIP3   OH214375   4.282   0.168   1.272 -0.5046  0.2421 -0.2389
 4804TIP3    H114376   4.299   0.212   1.188  0.6833  0.2640 -0.0059
 4804TIP3    H214377   4.312   0.231   1.338  0.2400 -0.4770  0.1319
 4805TIP3   OH214378   3.940   5.489   0.286 -0.4172  0.6113 -0.3244
 4805TIP3    H114379   3.955   5.578   0.254 -1.0041  0.2476 -1.7085
 4805TIP3    H214380   3.970   5.432   0.214 -0.4889 -0.2918  0.3437
 4806TIP3   OH214381   4.987   4.343   3.846 -0.3739  0.0307  0.7036
 4806TIP3    H114382   4.935   4.263   3.842 -0.4563  0.1154 -2.0891
 4806TIP3    H214383   5.001   4.367   3.754  0.3466  2.7781  1.4333
 4807TIP3   OH214384   5.010   2.021   0.622  0.0450 -0.0680  0.7075
 4807TIP3    H114385   5.098   2.053   0.600  0.2209  0.0431  1.5561
 4807TIP3    H214386   4.951   2.075   0.569  0.5302 -0.9172 -0.7570
 4808TIP3   OH214387   5.388   0.737   2.947 -0.1490 -0.3143  0.2841
 4808TIP3    H114388   5.328   0.783   3.007  0.6049  0.9886  0.0664
 4808TIP3    H214389   5.332   0.711   2.874 -0.5600  0.4223  0.3245
 4809TIP3   OH214390   6.099   5.594   0.399 -0.5602 -0.1412 -0.3667
 4809TIP3    H114391   6.148   5.512   0.407 -0.2579  0.1273  0.6344
 4809TIP3    H214392   6.117   5.623   0.309  1.1530 -0.0325 -0.0253
 4810TIP3   OH214393   0.020   2.975   3.623  0.2471  0.3269 -0.0073
 4810TIP3    H114394   0.111   3.000   3.639  0.4288 -0.6494  0.5820
 4810TIP3    H214395   0.021   2.880   3.625 -0.6417  0.2825 -0.8923
 4811TIP3   OH214396   2.850   5.412   4.913 -1.0983  0.5074 -0.1651
 4811TIP3    H114397   2.763   5.393   4.877 -0.5063 -0.8529 -0.9199
 4811TIP3    H214398   2.900   5.332   4.900  0.0686  1.0197  0.9350
 4812TIP3   OH214399   3.722   1.529   4.770  0.0606 -0.1299 -0.1487
 4812TIP3    H114400   3.731   1.478   4.851  2.5380  0.6583  0.1761
 4812TIP3    H214401   3.698   1.617   4.800  0.3571  0.0050 -0.3016
 4813TIP3   OH214402   1.035   2.515   0.668  0.3083 -0.1360  0.1780
 4813TIP3    H114403   1.089   2.447   0.710  0.9054 -0.8182 -1.6056
 4813TIP3    H214404   0.955   2.518   0.720 -0.2062 -2.9977 -0.2912
 4814TIP3   OH214405   7.094   5.347   3.334 -0.0357 -0.1861 -0.1007
 4814TIP3    H114406   7.092   5.400   3.254  0.3849  0.6711  0.4410
 4814TIP3    H214407   7.184   5.317   3.341 -0.1594 -0.5720 -0.1440
 4815TIP3   OH214408   6.815   3.099   3.369  0.3152  0.0803 -0.5084
 4815TIP3    H114409   6.821   3.019   3.317 -2.1140  0.0861 -0.9036
 4815TIP3    H214410   6.856   3.166   3.314 -1.2558 -0.1262 -2.0161
 4816TIP3   OH214411   6.871   2.039   1.484  0.5736 -0.3353  0.1709
 4816TIP3    H114412   6.904   2.097   1.416  2.3626 -1.4233  0.0478
 4816TIP3    H214413   6.805   2.090   1.530 -0.1021  0.7229 -1.8370
 4817TIP3   OH214414   3.364   5.892   0.241  0.0584  0.0417  1.2042
 4817TIP3    H114415   3.358   5.805   0.200  0.4624  0.4148  0.3086
 4817TIP3    H214416   3.457   5.914   0.234 -0.0216  0.4848  1.5563
 4818TIP3   OH214417   3.628   2.006   0.690 -0.2240  0.4501 -0.0633
 4818TIP3    H114418   3.582   1.922   0.681 -1.4710  1.1946 -0.8929
 4818TIP3    H214419   3.701   2.001   0.628 -0.5071  0.1196 -0.3707
 4819TIP3   OH214420   1.427   2.583   2.412 -0.6137  0.0531 -0.0882
 4819TIP3    H114421   1.393   2.672   2.413  1.0006  0.7190  0.3560
 4819TIP3    H214422   1.432   2.559   2.320 -0.3490  0.7328 -0.2544
 4820TIP3   OH214423   4.915   5.768   3.380 -0.2218 -0.3017  0.6166
 4820TIP3    H114424   4.958   5.697   3.427 -0.5652 -0.6520  0.4037
 4820TIP3    H214425   4.845   5.726   3.331  0.6026 -0.0657 -0.8309
 4821TIP3   OH214426   3.307   5.624   1.114  0.2149 -0.1976  0.1792
 4821TIP3    H114427   3.249   5.699   1.116 -0.9752 -1.0872  0.4207
 4821TIP3    H214428   3.382   5.652   1.062 -1.1255  0.4870 -1.4421
 4822TIP3   OH214429   5.784   0.483   4.756  0.1099  0.3305  0.7816
 4822TIP3    H114430   5.791   0.557   4.817 -0.6320 -0.2790  1.6332
 4822TIP3    H214431   5.863   0.489   4.702 -0.0831  1.9222  0.6321
 4823TIP3   OH214432   4.593   3.334   3.316  0.9745  0.1673 -0.3636
 4823TIP3    H114433   4.676   3.374   3.288  0.5562  1.6379  0.4206
 4823TIP3    H214434   4.542   3.407   3.352  0.1038 -1.0442  0.9483
 4824TIP3   OH214435   1.486   0.425   4.977  0.1961  0.0897  0.1797
 4824TIP3    H114436   1.550   0.368   5.020 -0.3676 -0.0666  0.8394
 4824TIP3    H214437   1.403   0.378   4.985 -0.7196  1.9000  2.6981
 4825TIP3   OH214438   6.455   1.561   4.239 -0.6047  0.6501  0.1102
 4825TIP3    H114439   6.475   1.615   4.163 -1.3844  1.2982  0.3525
 4825TIP3    H214440   6.366   1.530   4.224 -0.7242  0.6907  0.7006
 4826TIP3   OH214441   2.016   5.908   4.379  0.5876  0.0045  0.0124
 4826TIP3    H114442   1.922   5.898   4.367  0.8803 -1.2058 -1.7772
 4826TIP3    H214443   2.039   5.841   4.444 -0.0423  1.8307  2.2404
 4827TIP3   OH214444   6.561   4.780   3.169  0.4174  0.1318 -0.0941
 4827TIP3    H114445   6.616   4.852   3.138  0.4559  0.2313  0.2023
 4827TIP3    H214446   6.622   4.708   3.184  0.1402 -0.6150 -2.2985
 4828TIP3   OH214447   3.747   6.622   3.915 -0.2126  0.2018 -0.5883
 4828TIP3    H114448   3.683   6.659   3.854 -0.9480  1.5130  0.9111
 4828TIP3    H214449   3.708   6.633   4.001  1.7065  0.3807  0.3234
 4829TIP3   OH214450   5.033   5.552   3.498  0.0656 -0.3820 -0.3186
 4829TIP3    H114451   5.114   5.521   3.537 -0.1479  1.1850  1.5166
 4829TIP3    H214452   4.977   5.475   3.494  0.5705 -0.8689  1.3046
 4830TIP3   OH214453   6.724   3.183   2.366 -0.3982 -0.4084 -0.2652
 4830TIP3    H114454   6.815   3.190   2.336 -1.1129  0.9075 -2.3867
 4830TIP3    H214455   6.681   3.262   2.331 -1.9133  0.0967  2.4922
 4831TIP3   OH214456   5.387   2.465   5.549  0.7390  0.1573 -0.0561
 4831TIP3    H114457   5.393   2.374   5.578  0.2204  0.2105  0.2469
 4831TIP3    H214458   5.295   2.475   5.523  1.1203  0.1940 -1.4827
 4832TIP3   OH214459   3.289   2.611   3.277  0.2137 -0.1558 -0.1867
 4832TIP3    H114460   3.345   2.535   3.293  0.9868  0.1903 -1.1755
 4832TIP3    H214461   3.202   2.573   3.264  0.6864 -0.9360 -1.2174
 4833TIP3   OH214462   3.350   3.901   1.768  0.0685  0.1115 -0.2190
 4833TIP3    H114463   3.428   3.868   1.722  0.6562  1.1214  0.0255
 4833TIP3    H214464   3.333   3.836   1.836  1.8667  0.7945  0.9664
 4834TIP3   OH214465   0.488   4.100   2.591 -0.1788  0.0165  0.0907
 4834TIP3    H114466   0.517   4.093   2.500 -0.7581  1.1792 -0.2107
 4834TIP3    H214467   0.475   4.010   2.619 -0.4851 -0.3474 -1.1464
 4835TIP3   OH214468   2.252   1.159   0.031 -0.7072  0.3453 -0.6814
 4835TIP3    H114469   2.160   1.135   0.042 -0.8089  1.0594  0.1375
 4835TIP3    H214470   2.285   1.097  -0.034 -1.4650 -0.6830 -0.1232
 4836TIP3   OH214471   3.816   6.735   1.286 -0.7536  0.0341 -0.0743
 4836TIP3    H114472   3.764   6.717   1.365 -0.2728  0.5321  0.3644
 4836TIP3    H214473   3.814   6.652   1.237 -2.3806  0.1974 -0.3310
 4837TIP3   OH214474   2.805   3.076   2.921  0.1743 -0.0888  0.1137
 4837TIP3    H114475   2.782   3.152   2.975 -0.9168 -0.6118  0.4216
 4837TIP3    H214476   2.868   3.027   2.973  0.5648  0.3961  0.0936
 4838TIP3   OH214477   7.152   4.368   3.507  0.4129 -0.4676 -0.2222
 4838TIP3    H114478   7.175   4.434   3.442  1.1891  0.0387  0.5597
 4838TIP3    H214479   7.088   4.411   3.563 -0.1479 -0.8598 -0.5451
 4839TIP3   OH214480   0.390   6.469   1.382 -0.1274  0.3898 -0.3306
 4839TIP3    H114481   0.420   6.398   1.326  0.1452  1.2560 -1.3003
 4839TIP3    H214482   0.315   6.506   1.336 -0.3367  0.6661  0.2208
 4840TIP3   OH214483   6.096   2.688   0.951 -0.1119 -0.3388  0.1760
 4840TIP3    H114484   6.060   2.615   0.899 -0.7136  1.6545 -2.3979
 4840TIP3    H214485   6.027   2.710   1.013 -1.4710  0.3500 -1.5117
 4841TIP3   OH214486   6.959   3.947   0.108  0.0624 -0.0112 -0.0643
 4841TIP3    H114487   6.945   3.863   0.064  3.1020 -0.3682 -0.5384
 4841TIP3    H214488   6.937   3.929   0.200  0.2627 -1.2122 -0.2373
 4842TIP3   OH214489   4.463   4.182   5.570 -0.5017  0.0937  0.5671
 4842TIP3    H114490   4.472   4.277   5.561 -1.6788  0.1226 -0.5972
 4842TIP3    H214491   4.378   4.170   5.612 -0.8293 -0.4639 -0.2319
 4843TIP3   OH214492   0.296   2.888   0.496 -0.6397 -0.1845  0.2615
 4843TIP3    H114493   0.332   2.800   0.480 -0.8035 -0.3717  0.8940
 4843TIP3    H214494   0.302   2.932   0.411 -1.9490 -1.3214 -0.4671
 4844TIP3   OH214495   0.990   2.903   4.104  0.2947  0.5422  0.0879
 4844TIP3    H114496   1.024   2.819   4.072 -1.1752  1.0291 -3.1580
 4844TIP3    H214497   0.937   2.879   4.180  1.0699 -1.2815  0.1072
 4845TIP3   OH214498   6.126   0.674   1.430  0.3025  0.6585  0.7169
 4845TIP3    H114499   6.195   0.740   1.433  0.3078  0.6147  2.2288
 4845TIP3    H214500   6.044   0.724   1.433  0.2237  0.7055 -0.9858
 4846TIP3   OH214501   6.556   0.292   2.079  0.4229  0.1918  0.0071
 4846TIP3    H114502   6.553   0.219   2.017  1.0040 -0.3493  0.5927
 4846TIP3    H214503   6.598   0.255   2.157 -0.6818  0.7207  0.8921
 4847TIP3   OH214504   6.566   0.318   4.649 -0.1126 -0.0728 -0.3421
 4847TIP3    H114505   6.525   0.286   4.568  0.2939  1.1651 -1.0737
 4847TIP3    H214506   6.585   0.410   4.631 -0.0540  0.2449  1.1952
 4848TIP3   OH214507   4.174   5.379   1.913 -0.2989 -0.1441  0.2161
 4848TIP3    H114508   4.251   5.401   1.861 -0.7776 -0.0467 -0.4618
 4848TIP3    H214509   4.165   5.451   1.975 -1.2015  1.0744 -1.2546
 4849TIP3   OH214510   0.439   3.147   4.713 -0.0612 -0.3059 -0.6918
 4849TIP3    H114511   0.423   3.139   4.619  1.1121 -1.1345 -0.8397
 4849TIP3    H214512   0.414   3.062   4.749 -0.3877 -0.0333 -0.2655
 4850TIP3   OH214513   7.017   1.394   0.348 -0.8990  0.5020 -0.1330
 4850TIP3    H114514   7.075   1.323   0.375  0.0204  1.5147  0.6070
 4850TIP3    H214515   7.057   1.430   0.269 -0.7464  0.9272  0.1353
 4851TIP3   OH214516   0.024   4.578   2.320  0.0824 -0.3411 -0.4239
 4851TIP3    H114517   0.042   4.548   2.231 -0.6564  0.2353 -0.7838
 4851TIP3    H214518  -0.023   4.504   2.361  1.2765 -0.9839 -0.1826
 4852TIP3   OH214519   3.327   6.428   0.130 -0.8424  0.4086 -0.6461
 4852TIP3    H114520   3.328   6.336   0.155 -2.4327  0.2768 -0.9385
 4852TIP3    H214521   3.324   6.427   0.034  1.1005  0.8242 -0.7412
 4853TIP3   OH214522   2.914   0.434   1.718  0.4001 -0.0650 -0.4042
 4853TIP3    H114523   2.864   0.441   1.799  2.8580 -0.6931  1.2957
 4853TIP3    H214524   2.876   0.359   1.672  0.1353 -0.8701  1.0739
 4854TIP3   OH214525   6.218   5.484   2.122  0.0361  0.4180  0.0874
 4854TIP3    H114526   6.132   5.503   2.084  0.5158 -0.4023 -1.5362
 4854TIP3    H214527   6.200   5.455   2.211 -1.4905 -0.6419 -0.5141
 4855TIP3   OH214528   5.035   3.952   5.413  0.6183  0.8520  0.1962
 4855TIP3    H114529   5.099   3.881   5.422 -0.5827 -0.0674  2.3671
 4855TIP3    H214530   5.043   4.002   5.494  0.1276  2.0730 -0.4821
 4856TIP3   OH214531   3.746   2.076   0.955 -0.3609  0.5075  0.0967
 4856TIP3    H114532   3.704   2.162   0.962 -2.3375 -0.4360  0.4473
 4856TIP3    H214533   3.717   2.042   0.870  2.2330  1.0573 -1.0911
 4857TIP3   OH214534   3.459   5.260   1.529 -0.1134  0.1974 -0.1785
 4857TIP3    H114535   3.480   5.221   1.613 -0.9074  0.8653  0.3580
 4857TIP3    H214536   3.421   5.189   1.477 -0.7695  0.0504  0.4840
 4858TIP3   OH214537   1.764   1.238   2.839  0.5640 -0.3032  0.0781
 4858TIP3    H114538   1.823   1.303   2.800 -0.0452  0.0089 -0.3481
 4858TIP3    H214539   1.705   1.213   2.767 -0.1917 -0.1710  0.6359
 4859TIP3   OH214540   4.627   1.343   1.213  0.8469  0.5610 -0.7438
 4859TIP3    H114541   4.716   1.371   1.231  0.8486  0.2408 -0.2347
 4859TIP3    H214542   4.632   1.248   1.205  0.4550  0.4766 -0.0905
 4860TIP3   OH214543   4.526   5.535   1.890 -0.2381  0.1679 -0.5536
 4860TIP3    H114544   4.490   5.620   1.865  1.4609  1.0867 -0.0281
 4860TIP3    H214545   4.585   5.512   1.818 -0.2933 -0.3318 -0.4433
 4861TIP3   OH214546   4.825   4.653   3.592 -0.5780 -0.5716 -0.2988
 4861TIP3    H114547   4.917   4.650   3.619 -1.0301  2.4004  2.2576
 4861TIP3    H214548   4.786   4.577   3.635  0.0888  0.1760  1.7837
 4862TIP3   OH214549   1.382   4.481   1.358 -0.0397  0.0054 -0.2950
 4862TIP3    H114550   1.352   4.404   1.310  1.7618 -0.4813 -0.7263
 4862TIP3    H214551   1.471   4.459   1.386  0.1110  1.5118  0.5300
 4863TIP3   OH214552   2.117   0.329   5.061 -0.3082  0.3162 -0.0531
 4863TIP3    H114553   2.138   0.400   5.122 -0.4575 -1.0469  1.6508
 4863TIP3    H214554   2.035   0.357   5.019 -0.2912  1.2050  0.4909
 4864TIP3   OH214555   6.058   6.029   2.192 -0.3240  0.5324 -0.0516
 4864TIP3    H114556   5.984   5.999   2.246  0.2595  0.3079  0.6349
 4864TIP3    H214557   6.026   6.021   2.102 -0.7444 -0.6520  0.1829
 4865TIP3   OH214558   4.996   4.121   1.566  0.4100  0.1606 -0.4673
 4865TIP3    H114559   5.087   4.092   1.555  0.6589  1.2030 -1.3540
 4865TIP3    H214560   5.002   4.197   1.623  0.0414 -0.0014 -0.2106
 4866TIP3   OH214561   5.240   3.234   5.217 -0.4532 -0.2540 -0.0379
 4866TIP3    H114562   5.272   3.315   5.176 -1.2763 -1.2382 -2.8305
 4866TIP3    H214563   5.184   3.194   5.151 -2.5915 -1.6286  2.4050
 4867TIP3   OH214564   4.123   5.527   2.664  0.5906 -0.0650 -0.4193
 4867TIP3    H114565   4.170   5.610   2.662 -0.6191  0.8394  2.7848
 4867TIP3    H214566   4.184   5.467   2.707 -0.0879  0.3899  1.2517
 4868TIP3   OH214567   5.089   0.976   2.792  0.0477  0.2466 -0.4443
 4868TIP3    H114568   5.017   0.913   2.797 -1.1255  1.3281 -2.4610
 4868TIP3    H214569   5.143   0.944   2.720  0.3333  0.6650 -0.4177
 4869TIP3   OH214570   4.401   6.225   1.395 -0.2852  0.6275  0.1341
 4869TIP3    H114571   4.430   6.304   1.442  0.5027  0.4726 -0.0668
 4869TIP3    H214572   4.382   6.256   1.306  0.7023  0.4913 -0.1443
 4870TIP3   OH214573   2.206   0.969   1.903 -0.6017  0.6150 -0.4876
 4870TIP3    H114574   2.239   0.975   1.813 -1.0010 -0.7334 -0.7461
 4870TIP3    H214575   2.120   1.012   1.899 -0.7288  0.3435 -0.8210
 4871TIP3   OH214576   5.466   3.979   2.029  0.4033 -0.0118 -0.4537
 4871TIP3    H114577   5.548   4.025   2.049  1.1260 -1.1369 -0.7325
 4871TIP3    H214578   5.402   4.049   2.019  1.6724  1.0375 -1.8589
 4872TIP3   OH214579   1.306   1.155   5.585  0.3904  0.2343  0.1130
 4872TIP3    H114580   1.224   1.129   5.627  0.1395 -0.7887 -0.9565
 4872TIP3    H214581   1.355   1.199   5.654 -1.5407  2.0041  0.4869
 4873TIP3   OH214582   6.818   4.681   4.989  0.1247 -0.2516 -0.3811
 4873TIP3    H114583   6.846   4.590   4.998 -0.6091 -0.5876 -1.3254
 4873TIP3    H214584   6.894   4.725   4.952  0.5909 -0.3971  0.3653
 4874TIP3   OH214585   1.220   4.647   2.260  0.1499  0.0258  0.2480
 4874TIP3    H114586   1.140   4.618   2.215 -0.0387 -0.6192  0.9807
 4874TIP3    H214587   1.201   4.737   2.287 -0.1968 -0.0005  0.1072
 4875TIP3   OH214588   2.391   3.255   2.947 -0.2904 -0.2635 -0.4892
 4875TIP3    H114589   2.461   3.250   3.013 -1.6260 -0.2010  0.9997
 4875TIP3    H214590   2.423   3.204   2.873  1.4048 -0.0667  0.0765
 4876TIP3   OH214591   1.981   2.451   5.625  0.5966  0.7629  0.1241
 4876TIP3    H114592   2.047   2.393   5.663  0.0336  0.1320  0.1616
 4876TIP3    H214593   2.002   2.453   5.531  0.8794  0.8462  0.1881
 4877TIP3   OH214594   3.900   3.445   4.126  0.1235 -0.1634 -0.3030
 4877TIP3    H114595   3.919   3.537   4.142 -1.7806  0.2504 -0.1572
 4877TIP3    H214596   3.945   3.398   4.196 -0.3664  0.8312  0.7079
 4878TIP3   OH214597   0.135   6.215   4.115 -0.6174  0.6010  0.0158
 4878TIP3    H114598   0.220   6.190   4.080 -0.5672  0.4272  0.2636
 4878TIP3    H214599   0.072   6.187   4.048 -0.5978 -0.5491  0.4573
 4879TIP3   OH214600   3.197   1.648   3.349  0.2485 -0.2836  0.5742
 4879TIP3    H114601   3.190   1.729   3.400  1.7823 -0.2708  0.8203
 4879TIP3    H214602   3.247   1.589   3.406 -0.9598 -1.4661  0.4541
 4880TIP3   OH214603   4.104   3.827   5.132 -0.3845  0.0231  0.5251
 4880TIP3    H114604   4.093   3.839   5.226  0.9460 -0.5646  0.7748
 4880TIP3    H214605   4.175   3.887   5.107 -0.8245  0.2858 -0.1363
 4881TIP3   OH214606   1.910   3.614   2.942  0.3484  0.5442 -0.3515
 4881TIP3    H114607   1.871   3.624   2.856 -0.8161 -2.8882 -0.3684
 4881TIP3    H214608   2.004   3.606   2.925  0.0836 -0.6355 -1.4170
 4882TIP3   OH214609   5.281   2.293   0.790  0.5924 -0.7164  0.1537
 4882TIP3    H114610   5.206   2.246   0.826  0.6658 -0.6089  0.4567
 4882TIP3    H214611   5.349   2.283   0.857  0.5126  0.0682  0.3635
 4883TIP3   OH214612   3.455   3.465   5.761  0.6840  0.4063 -0.5636
 4883TIP3    H114613   3.533   3.521   5.760  1.6441 -0.8746 -1.8546
 4883TIP3    H214614   3.417   3.479   5.848  1.3483  2.3994 -0.5448
 4884TIP3   OH214615   5.559   1.092   2.677 -0.1302 -0.0049  0.1798
 4884TIP3    H114616   5.559   1.016   2.620 -0.5574  0.3745 -0.3310
 4884TIP3    H214617   5.468   1.102   2.705 -0.1720  0.6088 -0.1572
 4885TIP3   OH214618   4.474   4.467   2.351  0.0427  0.0149 -0.2869
 4885TIP3    H114619   4.381   4.463   2.373  0.2453 -1.0639  0.4452
 4885TIP3    H214620   4.495   4.379   2.321  1.0934 -0.1033  0.7243
 4886TIP3   OH214621   7.092   3.701   5.607  0.3480 -0.0415 -0.3686
 4886TIP3    H114622   7.158   3.639   5.636 -1.9324 -2.4280  0.0691
 4886TIP3    H214623   7.080   3.683   5.514 -1.0685 -1.0746 -0.0175
 4887TIP3   OH214624   2.484   3.648   4.029  0.2301  0.0652 -0.1559
 4887TIP3    H114625   2.559   3.679   4.079  0.4886 -1.1307  0.2169
 4887TIP3    H214626   2.441   3.584   4.087 -0.8235  0.4033 -0.5337
 4888TIP3   OH214627   4.675   3.961   2.049  0.1172  0.1168  0.2049
 4888TIP3    H114628   4.655   4.027   1.983  1.8714  0.6727  0.1514
 4888TIP3    H214629   4.639   3.996   2.130 -0.1227  0.4977 -0.0657
 4889TIP3   OH214630   0.086   1.176   0.063  0.3067  0.3990 -0.5722
 4889TIP3    H114631   0.173   1.196   0.028  1.7715 -1.3412  1.7044
 4889TIP3    H214632   0.061   1.255   0.111  1.5278  0.3263  0.2568
 4890TIP3   OH214633   3.835   2.586   3.783  0.1004 -0.2768  0.2110
 4890TIP3    H114634   3.878   2.642   3.847 -1.0626  0.7828  0.0968
 4890TIP3    H214635   3.744   2.583   3.810 -0.2786 -0.3577 -0.9912
 4891TIP3   OH214636   0.917   6.524   5.290 -0.0810 -0.4519  0.3390
 4891TIP3    H114637   0.917   6.563   5.203 -0.1987  1.0532  0.9931
 4891TIP3    H214638   0.833   6.550   5.328  1.1200  1.3326  1.9287
 4892TIP3   OH214639   2.755   2.549   3.183 -0.1595 -0.4288  0.0039
 4892TIP3    H114640   2.700   2.627   3.172  0.7301  0.5619  2.0390
 4892TIP3    H214641   2.736   2.519   3.271 -0.8840 -2.9184 -0.9191
 4893TIP3   OH214642   3.980   2.098   3.687  0.0455  0.3101 -0.1551
 4893TIP3    H114643   4.061   2.058   3.720  0.8287  1.0609 -1.1153
 4893TIP3    H214644   3.985   2.189   3.715 -0.8562  0.1894  0.4433
 4894TIP3   OH214645   0.745   5.189   3.051 -0.3726 -1.1837  0.1596
 4894TIP3    H114646   0.662   5.157   3.018 -0.1176 -2.6926  0.8829
 4894TIP3    H214647   0.782   5.114   3.099  1.8028 -0.8559 -0.8726
 4895TIP3   OH214648   0.791   3.166   2.727  0.5443 -0.0309 -0.6578
 4895TIP3    H114649   0.712   3.114   2.739  2.3905 -2.9160 -0.0838
 4895TIP3    H214650   0.806   3.207   2.812  1.7441 -2.7565  0.5612
 4896TIP3   OH214651   5.855   4.305   2.138 -0.1737 -0.5723 -0.1495
 4896TIP3    H114652   5.782   4.266   2.186  1.1875 -0.4001  2.1810
 4896TIP3    H214653   5.824   4.392   2.114 -0.1806  0.2387  2.4784
 4897TIP3   OH214654   2.733   3.464   4.480  0.7256 -0.2014  0.1999
 4897TIP3    H114655   2.791   3.450   4.406 -0.1593  0.4623 -0.6453
 4897TIP3    H214656   2.648   3.431   4.451  0.5093 -0.4947  1.1414
 4898TIP3   OH214657   2.193   0.249   0.287  0.1038  0.3891 -0.4794
 4898TIP3    H114658   2.152   0.164   0.306 -0.0510  0.9461  2.0994
 4898TIP3    H214659   2.276   0.227   0.245  0.2599 -1.1033  0.5060
 4899TIP3   OH214660   4.042   0.178   0.008  0.1689 -0.0894 -0.0301
 4899TIP3    H114661   4.107   0.243   0.036  0.3620 -1.2422  2.4669
 4899TIP3    H214662   4.058   0.102   0.065 -1.1096 -1.7276 -1.7302
 4900TIP3   OH214663   6.220  -0.014   2.365 -0.1683  0.5815  0.2993
 4900TIP3    H114664   6.304   0.030   2.377  1.0116 -1.8351  1.7562
 4900TIP3    H214665   6.161   0.030   2.426  1.6724 -1.3057  3.7907
 4901TIP3   OH214666   1.381   5.221   3.759  0.1396 -0.5440  0.2689
 4901TIP3    H114667   1.469   5.257   3.758 -0.3756  0.8057  1.2652
 4901TIP3    H214668   1.341   5.255   3.839 -1.4821 -0.6419 -0.4483
 4902TIP3   OH214669   6.756   3.373   2.642 -0.0705  0.3294 -0.4921
 4902TIP3    H114670   6.828   3.326   2.600  0.3583 -0.0316  0.6131
 4902TIP3    H214671   6.792   3.459   2.664  0.2471 -0.0727  0.6353
 4903TIP3   OH214672   3.885   6.309   1.306 -0.0255 -0.4591 -0.1103
 4903TIP3    H114673   3.856   6.239   1.365  1.2541 -0.8700  0.0584
 4903TIP3    H214674   3.915   6.379   1.363 -1.8993  0.5302 -0.2732
 4904TIP3   OH214675   1.040   0.544   2.686 -0.1623 -0.0342 -0.2945
 4904TIP3    H114676   1.055   0.603   2.613  0.0717  0.3235  0.0340
 4904TIP3    H214677   1.092   0.582   2.758 -0.9509  0.0176  0.2550
 4905TIP3   OH214678   3.076   6.689   0.123  0.9007  0.1841  0.3800
 4905TIP3    H114679   3.097   6.671   0.032 -0.5842 -0.9042  0.2212
 4905TIP3    H214680   3.019   6.617   0.150 -1.2262  2.0503  1.2337
 4906TIP3   OH214681   7.033   2.739   0.327  0.1467  0.1878 -0.5782
 4906TIP3    H114682   6.981   2.786   0.262  0.3675 -0.8891 -1.5758
 4906TIP3    H214683   7.033   2.795   0.404 -0.7141  1.1737 -1.2789
 4907TIP3   OH214684   5.930   1.211   3.583  0.3013  0.6623 -0.1911
 4907TIP3    H114685   5.870   1.176   3.517 -0.6483 -0.1385  1.0482
 4907TIP3    H214686   5.879   1.211   3.664  1.3577  1.8499  0.5043
 4908TIP3   OH214687   5.395   4.677   1.939  0.1781  0.4460  0.1974
 4908TIP3    H114688   5.471   4.669   1.882  0.5246 -1.4275  0.8620
 4908TIP3    H214689   5.431   4.691   2.026 -0.2279 -0.0910  0.4627
 4909TIP3   OH214690   4.617   5.843   1.107 -0.2675  0.1440  0.0961
 4909TIP3    H114691   4.656   5.810   1.027  1.7167  2.1708  0.1042
 4909TIP3    H214692   4.672   5.809   1.177 -1.1181 -0.4250  0.5125
 4910TIP3   OH214693   2.334   4.801   5.762  0.3566  0.0606  0.2745
 4910TIP3    H114694   2.314   4.724   5.709  0.8874  0.7854 -1.0337
 4910TIP3    H214695   2.259   4.860   5.750 -0.9661 -0.9400  2.7779
 4911TIP3   OH214696   0.128   2.592   1.795  0.1278  0.3489 -0.1937
 4911TIP3    H114697   0.078   2.672   1.811  0.1356  0.0162  1.8762
 4911TIP3    H214698   0.062   2.522   1.798  0.2328  0.2087 -1.1352
 4912TIP3   OH214699   5.331   2.387   2.358 -0.3358  0.5621 -0.0360
 4912TIP3    H114700   5.426   2.398   2.364 -0.4748  1.5039  0.5751
 4912TIP3    H214701   5.318   2.334   2.279  0.6012  1.8347 -1.0810
 4913TIP3   OH214702   5.609   2.492   4.444  0.2722  0.1156 -0.3581
 4913TIP3    H114703   5.585   2.544   4.368 -1.6610  2.4771  1.6653
 4913TIP3    H214704   5.526   2.464   4.481  0.7918  2.0321  2.6995
 4914TIP3   OH214705   3.103   4.902   2.125 -0.1108 -0.1613 -0.1725
 4914TIP3    H114706   3.128   4.827   2.071 -0.7362 -0.7824  0.3917
 4914TIP3    H214707   3.013   4.885   2.151  0.1911  0.0935  1.1219
 4915TIP3   OH214708   3.021   3.447   4.841  0.4654 -0.3848 -0.4690
 4915TIP3    H114709   3.112   3.438   4.869  0.0611 -2.0284  0.4577
 4915TIP3    H214710   2.974   3.474   4.920  0.3491  2.0480 -1.3145
 4916TIP3   OH214711   0.381   3.349   0.430  0.3760  0.3274  0.5928
 4916TIP3    H114712   0.316   3.357   0.361  0.7888  0.7338  0.2442
 4916TIP3    H214713   0.330   3.331   0.509 -0.0831 -0.3854  0.1474
 4917TIP3   OH214714   6.041   5.387   1.723  0.0427 -0.1644 -0.2036
 4917TIP3    H114715   5.980   5.329   1.768  0.4405 -0.3660  0.0696
 4917TIP3    H214716   5.988   5.427   1.653 -0.3790 -0.4063 -0.0245
 4918TIP3   OH214717   2.082   5.271   0.306  0.2266 -0.0705 -0.0459
 4918TIP3    H114718   2.166   5.308   0.330  0.0287  0.5305 -0.2632
 4918TIP3    H214719   2.020   5.343   0.315 -0.2221 -0.4364 -0.1388
 4919TIP3   OH214720   4.100   0.319   4.182  0.4495  0.0042 -0.7928
 4919TIP3    H114721   4.031   0.297   4.119  1.7196  0.7619 -2.5181
 4919TIP3    H214722   4.168   0.254   4.167  0.7529  0.1571 -0.1434
 4920TIP3   OH214723   2.095   3.589   1.818  0.1169  0.1359  0.0079
 4920TIP3    H114724   2.144   3.548   1.889  3.3037 -0.3015 -2.2179
 4920TIP3    H214725   2.124   3.543   1.739 -3.4578  0.3927 -1.6717
 4921TIP3   OH214726   3.434   0.585   1.091 -0.1599 -0.2120  0.8715
 4921TIP3    H114727   3.401   0.501   1.124  0.1080 -0.2228  1.1079
 4921TIP3    H214728   3.529   0.578   1.097 -0.0970 -0.2744 -0.0503
 4922TIP3   OH214729   0.728   2.128   1.939  0.4814 -0.2039 -0.2332
 4922TIP3    H114730   0.706   2.156   1.850  1.2104 -1.2547 -0.7633
 4922TIP3    H214731   0.716   2.206   1.992  0.2640  0.5056 -1.2951
 4923TIP3   OH214732   6.530   4.489   0.378 -0.1479  0.1655  0.1722
 4923TIP3    H114733   6.571   4.403   0.390  1.0053  0.5287 -0.8692
 4923TIP3    H214734   6.586   4.533   0.314 -1.7068  1.0382 -0.6614
 4924TIP3   OH214735   5.409   5.740   4.606 -1.1145  0.2736 -0.5312
 4924TIP3    H114736   5.403   5.644   4.605 -1.0307  0.2684 -1.6524
 4924TIP3    H214737   5.363   5.766   4.685 -1.8128 -0.6567 -0.6182
 4925TIP3   OH214738   0.913   2.454   2.134  0.3493 -0.3365 -0.1695
 4925TIP3    H114739   0.818   2.458   2.119  0.0784 -0.4820  1.2707
 4925TIP3    H214740   0.928   2.364   2.162  0.8086 -0.1534  0.1800
 4926TIP3   OH214741   4.357   2.192   0.516  0.0703  0.1106 -0.5583
 4926TIP3    H114742   4.370   2.226   0.605  0.7469 -2.0261  0.2415
 4926TIP3    H214743   4.324   2.266   0.466 -1.7662  1.0380  1.8341
 4927TIP3   OH214744   4.486   2.765   5.170 -0.1303  0.5648 -0.3517
 4927TIP3    H114745   4.574   2.744   5.200 -0.8773  0.3150  1.7845
 4927TIP3    H214746   4.447   2.681   5.146  0.7727  0.8311 -3.2067
 4928TIP3   OH214747   5.024   5.315   0.469 -0.2803  0.2501  0.0366
 4928TIP3    H114748   4.930   5.296   0.465 -0.6454  1.8493  0.0303
 4928TIP3    H214749   5.028   5.406   0.499  1.2771  0.1927  0.0744
 4929TIP3   OH214750   3.795   4.737   2.766  0.3559 -0.0711 -0.2888
 4929TIP3    H114751   3.759   4.692   2.842 -0.3722 -0.7885 -1.0386
 4929TIP3    H214752   3.874   4.687   2.744 -0.3999 -0.9437 -1.0634
 4930TIP3   OH214753   2.056   5.176   1.497 -0.2310 -0.0390 -0.2088
 4930TIP3    H114754   2.076   5.269   1.497  1.1261 -0.3059 -1.1524
 4930TIP3    H214755   2.113   5.138   1.563 -0.7019 -0.2296  0.0982
 4931TIP3   OH214756   1.693   3.205   3.817 -0.5544  0.0155 -0.8113
 4931TIP3    H114757   1.643   3.284   3.835 -1.2445 -0.7356  0.7969
 4931TIP3    H214758   1.656   3.170   3.736 -1.7205  0.2128 -0.3835
 4932TIP3   OH214759   3.421   3.668   2.864 -0.4114 -0.0872  0.0473
 4932TIP3    H114760   3.421   3.585   2.817 -1.1452  0.3138 -0.6955
 4932TIP3    H214761   3.460   3.730   2.802  1.6295 -0.1616  1.1840
 4933TIP3   OH214762   3.445   5.038   1.124  0.0513 -0.0867  0.0310
 4933TIP3    H114763   3.412   5.096   1.193 -0.8471 -2.6921  1.9742
 4933TIP3    H214764   3.524   4.998   1.162  2.5307  1.9912 -2.4672
 4934TIP3   OH214765   0.792   0.212   2.198  0.1806 -0.1864 -0.2228
 4934TIP3    H114766   0.808   0.135   2.143 -0.3753  0.5243 -1.3929
 4934TIP3    H214767   0.720   0.185   2.255  0.4621 -0.7722 -0.1302
 4935TIP3   OH214768   6.306   4.494   1.767 -0.1664  0.0128  0.5854
 4935TIP3    H114769   6.227   4.444   1.789  1.3944 -2.8199  0.2428
 4935TIP3    H214770   6.357   4.495   1.847  0.6882 -0.7527  0.0754
 4936TIP3   OH214771   4.540   4.396   0.443 -0.5747  0.0825 -0.2290
 4936TIP3    H114772   4.599   4.349   0.503 -1.7491 -0.0822  0.8359
 4936TIP3    H214773   4.590   4.473   0.417  0.9203 -1.1069 -1.0473
 4937TIP3   OH214774   1.405   3.819   4.454  0.1439  0.1865 -0.5632
 4937TIP3    H114775   1.374   3.771   4.530  1.2951 -0.6328 -0.5824
 4937TIP3    H214776   1.486   3.775   4.429  0.4271  1.1961 -1.5233
 4938TIP3   OH214777   1.903   0.306   3.890 -0.1422  0.6398  0.4160
 4938TIP3    H114778   1.977   0.289   3.831  0.3191  2.6130  0.3632
 4938TIP3    H214779   1.921   0.252   3.967  0.8171  0.3108 -0.0145
 4939TIP3   OH214780   2.206   5.296   2.953 -0.3072  0.2696  0.2938
 4939TIP3    H114781   2.162   5.314   2.870  0.9606  1.4166 -0.1623
 4939TIP3    H214782   2.285   5.248   2.930 -0.2747  0.0097  0.9076
 4940TIP3   OH214783   4.071   5.060   0.992  0.1602 -0.0547 -0.3170
 4940TIP3    H114784   4.140   5.077   1.056 -0.1578 -0.0846  0.0372
 4940TIP3    H214785   4.023   4.986   1.029 -0.7098  0.6339 -0.0390
 4941TIP3   OH214786   0.156   0.529   4.395  0.3181  0.2963  0.3282
 4941TIP3    H114787   0.069   0.521   4.356  1.2296 -0.8388 -1.5969
 4941TIP3    H214788   0.147   0.602   4.457 -1.7444  0.8115 -0.4786
 4942TIP3   OH214789   6.809   1.871   3.521  0.4655  0.2604 -0.0141
 4942TIP3    H114790   6.744   1.801   3.515 -0.1889  0.6388  2.1089
 4942TIP3    H214791   6.763   1.950   3.494  0.5640  0.2637 -0.1808
 4943TIP3   OH214792   2.069   1.071   5.150 -0.2874 -0.0591  0.3263
 4943TIP3    H114793   2.039   1.076   5.241  1.0042  2.1709  0.7108
 4943TIP3    H214794   2.153   1.025   5.155  0.4064  1.1824  0.4847
 4944TIP3   OH214795   0.398   2.450   4.665  0.1740  0.1392 -1.2183
 4944TIP3    H114796   0.364   2.488   4.584 -0.8591  3.4566  0.5878
 4944TIP3    H214797   0.320   2.417   4.710  0.6656 -1.1281 -1.2577
 4945TIP3   OH214798   4.116   4.072   1.720  0.2007  0.7764 -0.2723
 4945TIP3    H114799   4.123   4.086   1.626 -3.2145  0.3333 -0.7369
 4945TIP3    H214800   4.026   4.097   1.741  0.4080 -0.5059  2.6212
 4946TIP3   OH214801   1.849   6.510   5.015  0.0379 -0.0478 -0.2818
 4946TIP3    H114802   1.786   6.501   4.943 -0.3030  0.8268 -0.1023
 4946TIP3    H214803   1.906   6.582   4.987  0.2666 -0.0953  0.0658
 4947TIP3   OH214804   1.888   0.360   2.434  0.7662  0.1121  0.4975
 4947TIP3    H114805   1.872   0.291   2.369 -0.0439 -0.6835  1.5089
 4947TIP3    H214806   1.919   0.313   2.511 -1.4424  0.6465  1.7918
 4948TIP3   OH214807   6.199   1.094   2.665  0.1217  0.5959  0.3596
 4948TIP3    H114808   6.158   1.007   2.655  0.4284  0.4755  0.1592
 4948TIP3    H214809   6.160   1.128   2.746 -0.4543  0.5239  0.1207
 4949TIP3   OH214810   2.697   5.591   0.684 -0.4619  0.2561  0.6792
 4949TIP3    H114811   2.776   5.642   0.700  0.4167 -0.8886  0.1682
 4949TIP3    H214812   2.722   5.501   0.708 -1.7972 -0.0259  1.0654
 4950TIP3   OH214813   5.783   5.214   2.366 -0.3235 -0.2013 -0.4518
 4950TIP3    H114814   5.690   5.235   2.364 -0.7962 -1.6635  2.0118
 4950TIP3    H214815   5.786   5.118   2.368  1.0428 -0.1865  2.0311
 4951TIP3   OH214816   6.295   1.943   1.938 -1.0662  0.0862  0.3884
 4951TIP3    H114817   6.216   1.894   1.960  0.0640 -2.6417 -1.1025
 4951TIP3    H214818   6.296   1.946   1.842  2.3314 -3.3199  0.0765
 4952TIP3   OH214819   2.074   6.050   5.239 -0.1237 -0.3693 -0.2507
 4952TIP3    H114820   1.990   6.094   5.248 -1.4308 -2.6759 -0.5138
 4952TIP3    H214821   2.078   5.990   5.313  0.4396 -1.5808 -1.2204
 4953TIP3   OH214822   7.004   2.532   4.905 -0.6068  0.1325  0.0499
 4953TIP3    H114823   7.035   2.530   4.815 -0.1628  0.8122  0.1826
 4953TIP3    H214824   7.009   2.624   4.931  2.9615 -0.4520  2.0274
 4954TIP3   OH214825   2.070   0.414   2.019 -0.1491  0.1189  0.4101
 4954TIP3    H114826   2.151   0.416   1.968 -0.1313 -3.0694  0.1029
 4954TIP3    H214827   2.097   0.384   2.106 -0.9838 -1.5925  0.1321
 4955TIP3   OH214828   6.734   5.522   0.139  0.1651  0.1835  0.0835
 4955TIP3    H114829   6.642   5.521   0.112  0.2290 -0.0898 -0.1352
 4955TIP3    H214830   6.749   5.610   0.173 -0.4188 -0.0537  0.9807
 4956TIP3   OH214831   2.551   0.731   5.692  0.1941  0.1359  0.0004
 4956TIP3    H114832   2.519   0.726   5.602 -1.0404 -1.9666  0.5113
 4956TIP3    H214833   2.644   0.708   5.685  0.3073  0.7588 -0.7969
 4957TIP3   OH214834   6.121   3.846   4.725 -0.0438 -0.4785  0.4512
 4957TIP3    H114835   6.214   3.854   4.742 -0.3090  1.8063  1.0430
 4957TIP3    H214836   6.079   3.907   4.785 -1.8403 -0.5877 -0.6091
 4958TIP3   OH214837   1.672   2.388   3.992 -0.0953  0.4173  0.2963
 4958TIP3    H114838   1.659   2.464   3.934 -0.4767  0.6369  0.6660
 4958TIP3    H214839   1.681   2.314   3.932 -2.8005  0.2650 -0.0421
 4959TIP3   OH214840   1.064   6.764   3.005  0.3600  0.0731  0.1252
 4959TIP3    H114841   1.107   6.748   3.088  0.6343  2.4974  0.5350
 4959TIP3    H214842   1.136   6.775   2.942  0.3816  2.5739  0.4989
 4960TIP3   OH214843   6.356   6.275   1.677 -0.0277  0.5715  0.3206
 4960TIP3    H114844   6.281   6.260   1.734  0.4573 -0.1307  0.7878
 4960TIP3    H214845   6.349   6.367   1.652 -1.2575  0.4052  0.0249
 4961TIP3   OH214846   1.480   2.028   1.751 -0.2409 -0.3862  0.0773
 4961TIP3    H114847   1.496   2.106   1.803  0.5978 -0.5137  0.0340
 4961TIP3    H214848   1.559   1.975   1.762 -0.2167 -0.6023 -0.9875
 4962TIP3   OH214849   2.115   1.970   1.233 -0.2656  0.3346  0.9917
 4962TIP3    H114850   2.140   2.058   1.261 -1.1052  0.5017  1.2491
 4962TIP3    H214851   2.198   1.922   1.228  0.0053  0.4566  3.2018
 4963TIP3   OH214852   2.016   3.842   1.404  0.5570  1.1392  0.1430
 4963TIP3    H114853   1.934   3.812   1.366  0.1064  2.0092  0.4081
 4963TIP3    H214854   2.069   3.870   1.329  0.1093  1.7888  0.0656
 4964TIP3   OH214855   2.940   0.452   2.801  0.0765  0.6012  0.1966
 4964TIP3    H114856   2.938   0.504   2.720  1.7131 -0.8157 -0.8309
 4964TIP3    H214857   2.950   0.361   2.771  1.7192  0.1226  1.9730
 4965TIP3   OH214858   3.687   0.021   2.848  0.0158 -0.0171  0.0887
 4965TIP3    H114859   3.688   0.071   2.766  0.0454 -0.0218  0.0864
 4965TIP3    H214860   3.762   0.053   2.897 -0.9560  1.2201  0.8500
 4966TIP3   OH214861   1.321   5.605   1.713 -0.0826 -0.2272  0.2113
 4966TIP3    H114862   1.297   5.655   1.791 -1.2204 -0.1889 -0.1519
 4966TIP3    H214863   1.249   5.618   1.652  0.0404 -1.5313 -0.2526
 4967TIP3   OH214864   6.525   2.399   0.933 -0.6257 -0.2902  0.2538
 4967TIP3    H114865   6.481   2.370   0.853  0.6200  0.0606 -0.5673
 4967TIP3    H214866   6.506   2.329   0.996 -1.9152 -0.4002 -0.2107
 4968TIP3   OH214867   3.071   0.488   4.822 -0.0341  0.3929 -0.3814
 4968TIP3    H114868   2.978   0.507   4.811  0.2099  1.6019 -0.5572
 4968TIP3    H214869   3.078   0.393   4.811 -1.3267  0.1974  0.2981
 4969TIP3   OH214870   6.914   4.980   5.734  0.8034  0.0013 -0.2495
 4969TIP3    H114871   6.846   5.014   5.792  0.1238  2.9494 -2.5265
 4969TIP3    H214872   6.884   4.892   5.710 -1.0430  0.3785  0.5498
 4970TIP3   OH214873   5.065   2.142   0.855 -0.1238  0.5119 -0.2834
 4970TIP3    H114874   5.036   2.116   0.943  0.6769  1.2464  0.2079
 4970TIP3    H214875   5.044   2.066   0.800 -0.2479 -0.1266  0.6192
 4971TIP3   OH214876   2.760   6.638   1.366  0.0610 -0.7661 -0.1505
 4971TIP3    H114877   2.804   6.722   1.357 -1.3165  0.1952  1.5437
 4971TIP3    H214878   2.824   6.581   1.408  0.4050 -0.0319  0.3320
 4972TIP3   OH214879   0.308   2.974   2.428 -0.5492  0.4356  0.6585
 4972TIP3    H114880   0.252   2.960   2.504 -1.1444 -0.1806  0.1150
 4972TIP3    H214881   0.313   2.888   2.385  1.7362  0.1766  1.3082
 4973TIP3   OH214882   2.002   5.049   3.653  0.1864  0.4943 -0.4896
 4973TIP3    H114883   2.062   5.009   3.589 -0.5281  1.6981 -1.9625
 4973TIP3    H214884   1.969   4.974   3.703  0.2807 -0.5926 -1.9556
 4974TIP3   OH214885   3.834   5.083   0.093 -0.2437  0.3076 -0.3996
 4974TIP3    H114886   3.770   5.078   0.164  0.0901  1.3680 -0.0038
 4974TIP3    H214887   3.790   5.132   0.023  0.3716  1.7297  0.1737
 4975TIP3   OH214888   3.854   0.564   2.947 -0.7759 -0.6356  0.1667
 4975TIP3    H114889   3.779   0.609   2.907 -1.7659 -0.7735  1.7777
 4975TIP3    H214890   3.882   0.623   3.017  0.3016 -0.8337 -0.0876
 4976TIP3   OH214891   5.859   3.535   4.102 -0.0090 -0.6928 -0.1968
 4976TIP3    H114892   5.914   3.457   4.113  0.3478 -0.7838 -2.1827
 4976TIP3    H214893   5.917   3.599   4.060 -0.5752  0.3215  0.5231
 4977TIP3   OH214894   5.648   6.223   1.526  0.1714 -0.0652 -0.4855
 4977TIP3    H114895   5.562   6.226   1.569  0.7123  1.1700  0.5815
 4977TIP3    H214896   5.647   6.141   1.476 -1.5948 -0.1028 -0.4481
 4978TIP3   OH214897   2.701   2.172   2.256 -0.3873  0.5506  0.3167
 4978TIP3    H114898   2.678   2.218   2.336  4.3745  0.1919  2.2503
 4978TIP3    H214899   2.690   2.079   2.278  0.5926  0.4685  0.5491
 4979TIP3   OH214900   5.982   6.246   0.834 -0.1484 -0.0357  0.5742
 4979TIP3    H114901   5.975   6.257   0.739 -1.6930  0.4692  0.7112
 4979TIP3    H214902   5.958   6.155   0.849  0.4924 -0.2283  0.4566
 4980TIP3   OH214903   0.706   4.362   5.099  0.8373 -0.1399 -0.3054
 4980TIP3    H114904   0.709   4.367   5.003 -1.5619  1.1918 -0.4080
 4980TIP3    H214905   0.744   4.445   5.128 -0.2667  0.3625 -0.2314
 4981TIP3   OH214906   2.979   4.872   4.179  0.2193  0.1872  0.1697
 4981TIP3    H114907   3.036   4.798   4.198  1.1468  0.5192 -1.2023
 4981TIP3    H214908   2.953   4.860   4.088 -0.0630  1.2552  0.0961
 4982TIP3   OH214909   5.786   1.809   5.297  0.4091 -0.1819  0.4421
 4982TIP3    H114910   5.864   1.790   5.350 -0.1519 -1.5806  0.8119
 4982TIP3    H214911   5.744   1.883   5.342  1.0493 -0.0016  0.7461
 4983TIP3   OH214912   1.678   5.954   2.600 -0.4747 -0.3217  0.4917
 4983TIP3    H114913   1.722   5.870   2.614 -1.7613 -1.0438  0.3016
 4983TIP3    H214914   1.608   5.935   2.538 -0.2624  1.0763 -0.2098
 4984TIP3   OH214915   1.507   5.305   2.256  0.2671  0.1555 -0.1498
 4984TIP3    H114916   1.483   5.370   2.322 -2.4483 -0.8749  0.0094
 4984TIP3    H214917   1.545   5.232   2.306 -1.2107 -0.3614  0.2686
 4985TIP3   OH214918   2.305   6.198   5.215 -0.2074  0.0264 -0.6478
 4985TIP3    H114919   2.255   6.118   5.234  0.7999 -0.2979  0.7866
 4985TIP3    H214920   2.348   6.179   5.132  0.5625 -1.2262  0.0073
 4986TIP3   OH214921   6.972   3.170   1.051  0.9551  0.0714  0.1748
 4986TIP3    H114922   6.909   3.098   1.055  1.3977 -0.5083 -1.9800
 4986TIP3    H214923   6.931   3.236   0.996  1.9925 -0.0953 -0.8386
 4987TIP3   OH214924   0.656   2.235   3.353  0.2357  0.3550  0.1659
 4987TIP3    H114925   0.629   2.265   3.440  1.6234  1.9434  0.1118
 4987TIP3    H214926   0.621   2.146   3.345  0.0491  0.1992  2.3213
 4988TIP3   OH214927   0.157   5.621   1.686 -0.5179 -0.3042 -0.1630
 4988TIP3    H114928   0.113   5.706   1.688 -0.7451 -0.4298  0.3627
 4988TIP3    H214929   0.094   5.563   1.642 -0.5863 -0.3203 -0.0451
 4989TIP3   OH214930   5.657   6.461   1.130 -0.8662  0.9442 -0.2107
 4989TIP3    H114931   5.665   6.499   1.217 -0.8297  1.4100 -0.4171
 4989TIP3    H214932   5.724   6.392   1.127 -1.0042  0.7864  0.1979
 4990TIP3   OH214933   5.442   3.954   4.347 -0.2096 -0.7836  0.0832
 4990TIP3    H114934   5.375   3.940   4.414 -1.0139 -1.2379 -0.7922
 4990TIP3    H214935   5.400   4.012   4.283  0.5354 -0.3815 -0.0482
 4991TIP3   OH214936   2.047   5.278   5.650  0.3344  0.2620 -0.0354
 4991TIP3    H114937   1.977   5.294   5.714 -2.4789 -0.3168 -2.7604
 4991TIP3    H214938   2.027   5.192   5.613  0.9559  1.1674 -2.6924
 4992TIP3   OH214939   5.694   2.244   5.589  0.1990  0.0174 -0.5236
 4992TIP3    H114940   5.715   2.210   5.676  1.8588  2.0765 -0.0271
 4992TIP3    H214941   5.599   2.234   5.582 -0.2922  1.4311  2.3331
 4993TIP3   OH214942   1.331   1.425   5.504  0.3471 -0.0453  0.1077
 4993TIP3    H114943   1.361   1.377   5.581  0.0164  0.0844  0.3197
 4993TIP3    H214944   1.239   1.401   5.495  0.3771 -0.0436 -0.2371
 4994TIP3   OH214945   1.827   3.268   2.648  0.3548 -0.1029 -0.1006
 4994TIP3    H114946   1.823   3.362   2.666 -0.7896  0.7667 -3.9042
 4994TIP3    H214947   1.918   3.252   2.623  0.2717  0.3646 -0.7487
 4995TIP3   OH214948   2.060   2.490   4.342  0.0823  0.7979  0.2051
 4995TIP3    H114949   2.019   2.477   4.257  0.6720 -1.6693  0.2467
 4995TIP3    H214950   2.132   2.552   4.325  0.3487  0.1481 -1.1408
 4996TIP3   OH214951   4.352   3.992   2.407 -0.0883 -0.0420 -0.1481
 4996TIP3    H114952   4.296   4.060   2.446  0.1742  1.0433 -1.5825
 4996TIP3    H214953   4.435   4.036   2.390  0.2933 -0.8958 -0.5468
 4997TIP3   OH214954   1.951   2.745   5.598  0.0432  0.3284  0.0959
 4997TIP3    H114955   1.985   2.720   5.512 -0.9575 -0.1501 -0.1700
 4997TIP3    H214956   1.920   2.663   5.636 -1.2324  0.8038  0.1381
 4998TIP3   OH214957   0.884   3.603   5.539 -0.0097 -0.3104 -0.3778
 4998TIP3    H114958   0.867   3.537   5.606 -2.5551 -0.0365 -0.6494
 4998TIP3    H214959   0.900   3.553   5.459 -1.2084 -0.6485 -0.4275
 4999TIP3   OH214960   7.032   0.031   0.098  0.3453  0.0210 -0.5526
 4999TIP3    H114961   7.120   0.004   0.073  1.2316  1.7769  0.5153
 4999TIP3    H214962   7.031   0.126   0.086 -0.9090  0.2276  0.8773
 5000TIP3   OH214963   4.635   2.016   2.565  0.0239  0.2166 -0.0833
 5000TIP3    H114964   4.638   1.944   2.502 -0.5898 -0.4033  0.5866
 5000TIP3    H214965   4.605   1.976   2.646 -0.7897  1.3229  0.1781
 5001TIP3   OH214966   4.121   2.525   1.000 -0.8721  0.2669 -0.1644
 5001TIP3    H114967   4.132   2.430   1.000  0.3194  0.3712  1.4498
 5001TIP3    H214968   4.203   2.559   0.964 -1.6309  0.7121 -1.5957
 5002TIP3   OH214969   2.930   2.581   3.741  0.0614  0.2281  0.0149
 5002TIP3    H114970   2.993   2.617   3.679  1.1118 -0.8520  0.3983
 5002TIP3    H214971   2.870   2.529   3.687  0.3031  0.1843 -0.2137
 5003TIP3   OH214972   4.641   0.301   0.728  0.1237  0.1444  0.4240
 5003TIP3    H114973   4.675   0.327   0.813  0.3296  0.0158  0.3812
 5003TIP3    H214974   4.560   0.351   0.718 -0.2537 -0.3457  0.9827
 5004TIP3   OH214975   6.524   0.432   1.436 -0.0567  0.1453  0.3163
 5004TIP3    H114976   6.560   0.369   1.373  1.2721  0.0744  1.0983
 5004TIP3    H214977   6.434   0.405   1.449  0.4477 -1.5257  0.5305
 5005TIP3   OH214978   3.755   1.966   1.303  0.2257  0.3663 -0.1185
 5005TIP3    H114979   3.676   1.955   1.356  2.1876  2.6004  3.7565
 5005TIP3    H214980   3.756   2.059   1.280 -0.2828 -0.4230 -3.9859
 5006TIP3   OH214981   6.241   1.963   2.262 -0.4397 -0.9280  0.0395
 5006TIP3    H114982   6.302   1.889   2.257  1.1978  0.3332  0.4820
 5006TIP3    H214983   6.193   1.949   2.343 -0.1014 -1.4882  0.1483
 5007TIP3   OH214984   2.492   0.301   2.161 -0.0354 -0.3750  0.2564
 5007TIP3    H114985   2.486   0.281   2.254  1.1963 -1.5085  0.1227
 5007TIP3    H214986   2.540   0.227   2.124  1.4767  1.1293 -0.9174
 5008TIP3   OH214987   6.748   0.869   3.671  0.0642 -0.5969 -0.3164
 5008TIP3    H114988   6.843   0.857   3.678 -0.0719 -1.3201  0.5064
 5008TIP3    H214989   6.721   0.809   3.603  0.1461 -0.6720 -0.2830
 5009TIP3   OH214990   5.264   1.476   5.049 -0.0886 -0.5760  0.3495
 5009TIP3    H114991   5.317   1.408   5.090  1.7077  0.4674 -0.1465
 5009TIP3    H214992   5.272   1.552   5.107  1.3967  0.4974 -1.1684
 5010TIP3   OH214993   3.109   3.452   4.070 -0.4718  0.1078 -0.1557
 5010TIP3    H114994   3.125   3.491   3.984 -1.2066 -0.3110 -0.4925
 5010TIP3    H214995   3.063   3.370   4.050  0.5642 -0.6676  0.5658
 5011TIP3   OH214996   1.813   5.248   4.041 -0.5724  0.1364  1.2435
 5011TIP3    H114997   1.779   5.221   3.955  1.6918 -0.4473  0.4749
 5011TIP3    H214998   1.850   5.334   4.027  0.8668 -0.4471  1.3143
 5012TIP3   OH214999   5.186   0.744   4.189 -0.1935 -0.3360  0.2840
 5012TIP3    H115000   5.152   0.825   4.227 -0.5376 -0.4655  0.2559
 5012TIP3    H215001   5.180   0.680   4.260 -1.4182 -0.7353 -0.1612
 5013TIP3   OH215002   1.499   6.558   1.197  0.3645  0.0396  0.3332
 5013TIP3    H115003   1.411   6.530   1.171 -0.2928  0.0995  2.3092
 5013TIP3    H215004   1.553   6.541   1.121 -1.2846 -0.3829 -0.7978
 5014TIP3   OH215005   3.651   0.563   5.216 -0.1823 -0.0006  0.0391
 5014TIP3    H115006   3.743   0.575   5.242  0.7184 -3.8759 -0.7605
 5014TIP3    H215007   3.619   0.494   5.275 -2.1483  0.2372 -0.6898
 5015TIP3   OH215008   6.975   0.853   4.921  0.1403 -0.0113 -0.1200
 5015TIP3    H115009   7.055   0.816   4.884  0.4541  0.0531  0.4786
 5015TIP3    H215010   6.912   0.780   4.919 -0.2191  0.3029 -1.8194
 5016TIP3   OH215011   2.033   4.144   1.192  0.2356 -0.2224 -0.0210
 5016TIP3    H115012   2.121   4.129   1.227 -0.6196 -0.8945  1.9848
 5016TIP3    H215013   2.015   4.066   1.140 -0.4395 -1.8405  2.4417
 5017TIP3   OH215014   5.799   5.597   0.380  0.1237  0.7605 -0.3753
 5017TIP3    H115015   5.884   5.633   0.353  0.5951  1.2164  1.5996
 5017TIP3    H215016   5.821   5.520   0.431 -0.7442  0.0350 -1.0623
 5018TIP3   OH215017   1.942   4.925   5.699 -0.1169 -0.7240  0.1077
 5018TIP3    H115018   1.959   4.925   5.793 -1.0788 -0.9950  0.2925
 5018TIP3    H215019   1.866   4.867   5.688 -0.9806  0.5153 -0.6601
 5019TIP3   OH215020   1.324   6.288   0.548  0.3068  0.4058 -0.9062
 5019TIP3    H115021   1.259   6.359   0.545  0.7353  0.8170 -0.6626
 5019TIP3    H215022   1.366   6.291   0.462 -2.2794 -2.0915 -2.4339
 5020TIP3   OH215023   6.276   3.732   1.625 -0.2355 -0.1217 -0.8112
 5020TIP3    H115024   6.343   3.797   1.606 -0.3528  0.1733 -0.2343
 5020TIP3    H215025   6.202   3.782   1.660 -0.3334 -0.5516 -0.3854
 5021TIP3   OH215026   0.415   0.474   0.505  0.0938 -0.2229  0.0389
 5021TIP3    H115027   0.352   0.403   0.510  0.3697 -0.4858 -0.1538
 5021TIP3    H215028   0.470   0.463   0.583  0.2422 -0.3243 -0.0789
 5022TIP3   OH215029   6.004   2.104   3.839 -0.0925 -0.2301  0.0442
 5022TIP3    H115030   6.003   2.051   3.759  1.1162  0.3499 -0.3912
 5022TIP3    H215031   6.083   2.159   3.830 -0.8729  1.0803  0.8345
 5023TIP3   OH215032   3.507   3.562   0.755 -0.0071  0.7653 -0.1133
 5023TIP3    H115033   3.482   3.610   0.834  0.3853  0.2545  0.3301
 5023TIP3    H215034   3.581   3.508   0.782  0.0051  0.4361 -0.7803
 5024TIP3   OH215035   5.379   3.333   0.727 -0.2770 -0.8697  0.3742
 5024TIP3    H115036   5.400   3.252   0.773  0.6854 -1.0932 -0.4183
 5024TIP3    H215037   5.380   3.308   0.634  1.0438  0.2517  0.0622
 5025TIP3   OH215038   6.161   0.827   4.485  0.5264 -0.6669 -0.4578
 5025TIP3    H115039   6.071   0.799   4.472  0.6996 -0.5338 -2.1674
 5025TIP3    H215040   6.208   0.747   4.507 -0.0796 -0.6436  1.0733
 5026TIP3   OH215041   3.341   3.496   3.898  0.0745 -0.5201  0.2417
 5026TIP3    H115042   3.413   3.495   3.835  1.9322  4.1505  1.8614
 5026TIP3    H215043   3.380   3.468   3.980 -1.1736 -2.1605  0.3214
 5027TIP3   OH215044   5.986   5.574   3.462  0.2647  0.5068 -0.5745
 5027TIP3    H115045   5.911   5.536   3.508  1.4903 -1.4223 -0.0739
 5027TIP3    H215046   5.954   5.660   3.433 -1.8500  0.1140  0.3467
 5028TIP3   OH215047   0.289   0.443   2.491  0.4680 -0.5268 -0.2559
 5028TIP3    H115048   0.344   0.518   2.468 -0.7314  0.5178  0.1337
 5028TIP3    H215049   0.268   0.457   2.584 -1.5954 -0.0794 -0.7319
 5029TIP3   OH215050   2.833   5.958   3.156  0.1535 -0.5259 -0.4395
 5029TIP3    H115051   2.759   5.901   3.172  0.9875 -1.0891  1.8211
 5029TIP3    H215052   2.842   5.960   3.061 -3.7357  0.9361 -0.9470
 5030TIP3   OH215053   3.669   6.590   2.819 -0.3467  0.0868 -0.6822
 5030TIP3    H115054   3.738   6.561   2.879 -0.2688  0.6496 -0.4866
 5030TIP3    H215055   3.591   6.595   2.874 -0.2017  0.9305 -0.5394
 5031TIP3   OH215056   4.477   6.250   3.622  0.4195 -0.4682  0.3565
 5031TIP3    H115057   4.491   6.330   3.674 -1.5879  0.4314 -0.3663
 5031TIP3    H215058   4.533   6.261   3.546 -0.6295  0.8125 -0.2667
 5032TIP3   OH215059   3.635   3.090   2.344 -0.7078  0.0003  0.4583
 5032TIP3    H115060   3.725   3.113   2.366 -1.1370  2.5872 -0.2533
 5032TIP3    H215061   3.582   3.140   2.406 -1.6949 -1.4168  0.8011
 5033TIP3   OH215062   7.099   2.986   5.241 -0.1771  0.1325 -0.5825
 5033TIP3    H115063   7.152   2.987   5.161 -0.0833 -0.3571 -0.5265
 5033TIP3    H215064   7.162   2.986   5.312 -0.2246  2.9123 -0.4339
 5034TIP3   OH215065   4.296   4.710   3.239 -0.1554  0.1668 -0.3168
 5034TIP3    H115066   4.289   4.793   3.192  1.9726  0.2461 -0.5934
 5034TIP3    H215067   4.341   4.652   3.178 -0.2113 -0.7187  0.4577
 5035TIP3   OH215068   0.361   4.150   4.594 -0.3084  0.9885 -0.5382
 5035TIP3    H115069   0.411   4.069   4.585  0.2547  0.9878  1.8684
 5035TIP3    H215070   0.270   4.122   4.597 -0.2322  0.6241 -1.3657
 5036TIP3   OH215071   0.225   4.500   3.354 -0.4345 -0.0744  0.0396
 5036TIP3    H115072   0.312   4.474   3.384 -0.4467  0.2024  0.3183
 5036TIP3    H215073   0.222   4.595   3.367 -1.6877 -0.3636  2.4874
 5037TIP3   OH215074   3.137   2.462   4.841  0.2620 -0.1437  0.1977
 5037TIP3    H115075   3.178   2.543   4.873 -1.0319  0.8562 -0.5584
 5037TIP3    H215076   3.203   2.422   4.786 -0.3506  2.5428 -2.7895
 5038TIP3   OH215077   0.428   6.435   4.623 -0.0962 -0.6017  0.1347
 5038TIP3    H115078   0.355   6.420   4.683 -0.0562 -0.3670  0.2401
 5038TIP3    H215079   0.387   6.472   4.545 -0.0745 -0.3302  0.2496
 5039TIP3   OH215080   1.980   3.744   2.605  0.3586  1.0091  0.2132
 5039TIP3    H115081   1.930   3.691   2.543 -0.0869 -0.4109  1.6916
 5039TIP3    H215082   2.059   3.769   2.558  0.2689 -0.4417 -0.7681
 5040TIP3   OH215083   4.485   0.852   1.728  0.4424 -0.4160  0.2556
 5040TIP3    H115084   4.406   0.806   1.698  0.9124 -0.9128 -0.2464
 5040TIP3    H215085   4.527   0.791   1.788  0.4128 -0.1266  0.5704
 5041TIP3   OH215086   3.995   1.339   5.678  0.0717  0.2243 -0.1986
 5041TIP3    H115087   3.959   1.296   5.601  0.2598 -1.2704  0.5214
 5041TIP3    H215088   4.007   1.269   5.742 -2.0592  1.7046  1.9840
 5042TIP3   OH215089   3.964   4.837   2.425 -0.2910  0.2960  0.2759
 5042TIP3    H115090   3.899   4.906   2.428 -1.0524 -0.2822 -1.6094
 5042TIP3    H215091   3.915   4.757   2.404  1.0494  0.0217 -2.3357
 5043TIP3   OH215092   2.535   1.325   3.735  0.1766  0.1292 -0.2208
 5043TIP3    H115093   2.483   1.312   3.814 -1.1262  0.6766 -0.9565
 5043TIP3    H215094   2.533   1.240   3.691  2.5180 -0.7481  1.2180
 5044TIP3   OH215095   4.539   2.629   3.663  0.5187 -0.2065  0.2743
 5044TIP3    H115096   4.562   2.722   3.666 -1.7564  0.4011  0.6055
 5044TIP3    H215097   4.461   2.621   3.718 -0.3838 -1.9600 -1.1307
 5045TIP3   OH215098   1.658   0.358   3.733 -0.0950  0.2836  0.3549
 5045TIP3    H115099   1.599   0.288   3.704  1.4408 -0.7433 -0.4489
 5045TIP3    H215100   1.717   0.316   3.796  1.4539  0.5635 -0.8349
 5046TIP3   OH215101   0.646   1.114   5.300  0.4847 -0.7069  0.1319
 5046TIP3    H115102   0.614   1.123   5.210  0.7371 -1.0969  0.0060
 5046TIP3    H215103   0.696   1.033   5.301  2.1802  0.3115  0.1235
 5047TIP3   OH215104   3.172   6.563   2.127 -0.0738  0.1562  0.4767
 5047TIP3    H115105   3.186   6.557   2.032  1.6052 -0.1798  0.7081
 5047TIP3    H215106   3.093   6.616   2.136 -1.2508 -1.2255 -1.1268
 5048TIP3   OH215107   6.684   3.499   4.568  0.1227 -0.2269 -0.0557
 5048TIP3    H115108   6.742   3.455   4.630 -2.1287 -2.2673  0.7576
 5048TIP3    H215109   6.676   3.437   4.495 -0.9487  0.0625 -0.1941
 5049TIP3   OH215110   7.149   5.545   4.340  0.3597  0.1529  0.5291
 5049TIP3    H115111   7.222   5.541   4.278  0.9909  1.4627  1.1368
 5049TIP3    H215112   7.072   5.528   4.286  0.8271  1.8283 -0.7916
 5050TIP3   OH215113   2.779   5.148   1.224 -0.2756  0.2213  0.4488
 5050TIP3    H115114   2.710   5.083   1.233 -0.6705  0.4853 -0.5746
 5050TIP3    H215115   2.733   5.230   1.206  0.3209  0.0670 -2.1374
 5051TIP3   OH215116   3.926   4.486   0.691 -0.5873 -0.1313 -0.5892
 5051TIP3    H115117   3.975   4.404   0.685  1.7628  0.9374  1.9511
 5051TIP3    H215118   3.925   4.520   0.602  1.0760 -1.4797 -1.1751
 5052TIP3   OH215119   6.804   0.403   0.897 -0.1392 -0.0580 -0.1650
 5052TIP3    H115120   6.738   0.437   0.958  0.0781  0.9465 -0.4638
 5052TIP3    H215121   6.840   0.326   0.940 -0.0877  0.5510  0.9191
 5053TIP3   OH215122   2.509   0.828   2.711  0.1186 -0.1140 -0.5743
 5053TIP3    H115123   2.546   0.768   2.776  0.4180  0.8973  0.2124
 5053TIP3    H215124   2.492   0.908   2.760  1.3034  1.0197 -1.9562
 5054TIP3   OH215125   1.823   5.700   4.343  0.1504  0.5622  0.4655
 5054TIP3    H115126   1.778   5.661   4.269 -0.8750  0.2779  1.2151
 5054TIP3    H215127   1.916   5.695   4.320  0.1189 -2.7465  0.6932
 5055TIP3   OH215128   3.790   6.308   1.776 -0.0461 -0.4315 -0.4776
 5055TIP3    H115129   3.720   6.284   1.837  0.8309 -2.9357 -0.2935
 5055TIP3    H215130   3.867   6.321   1.833 -0.0082  0.7601 -0.7892
 5056TIP3   OH215131   5.653   2.495   3.007  0.4187  0.5049 -0.0788
 5056TIP3    H115132   5.744   2.477   2.982  0.1959  1.1981 -1.5146
 5056TIP3    H215133   5.657   2.515   3.100  1.4447 -1.3797  0.3423
 5057TIP3   OH215134   0.391   0.618   1.631 -0.0304  0.0155  0.7810
 5057TIP3    H115135   0.307   0.650   1.665 -0.5673  1.4062 -1.5855
 5057TIP3    H215136   0.453   0.688   1.653 -0.6712  1.6433 -2.0976
 5058TIP3   OH215137   0.784   3.052   3.811 -0.1000  0.0663 -0.1285
 5058TIP3    H115138   0.841   3.102   3.870  1.1942  0.6008 -1.7581
 5058TIP3    H215139   0.696   3.062   3.849  0.7218  0.0250  1.9209
 5059TIP3   OH215140   0.365   5.809   5.606 -0.8361 -0.2608  0.2289
 5059TIP3    H115141   0.415   5.789   5.527 -2.4904 -2.7935 -0.2852
 5059TIP3    H215142   0.424   5.788   5.679  0.1062  0.4432 -0.3076
 5060TIP3   OH215143   4.346   1.789   1.155  0.3517  0.3194 -0.0261
 5060TIP3    H115144   4.389   1.710   1.120 -0.0518 -1.1373  2.4784
 5060TIP3    H215145   4.404   1.819   1.224 -0.4086  1.1217  0.2842
 5061TIP3   OH215146   0.519   2.333   1.627  0.0826 -0.0098  0.3246
 5061TIP3    H115147   0.591   2.271   1.617 -0.0308  0.0612 -1.1274
 5061TIP3    H215148   0.514   2.378   1.542 -2.5071 -0.9538 -0.1073
 5062TIP3   OH215149   5.107   2.299   4.880  0.4027 -0.5986  0.4135
 5062TIP3    H115150   5.081   2.384   4.846  2.2063  0.1728  0.8722
 5062TIP3    H215151   5.037   2.275   4.942 -1.6286 -0.8707 -1.8270
 5063TIP3   OH215152   0.790   1.483   5.361 -0.3207  0.1596  0.2825
 5063TIP3    H115153   0.828   1.504   5.446 -1.4051 -0.7840  1.0368
 5063TIP3    H215154   0.700   1.516   5.367  0.4175  2.8122 -1.6400
 5064TIP3   OH215155   1.860   2.134   1.529 -0.3203 -0.2955 -0.3185
 5064TIP3    H115156   1.857   2.120   1.434  0.4422  0.6922 -0.5003
 5064TIP3    H215157   1.953   2.141   1.550 -0.5160  0.2667  0.3857
 5065TIP3   OH215158   4.541   4.717   0.649 -0.0013 -0.1711 -0.9351
 5065TIP3    H115159   4.453   4.754   0.638 -0.0242  0.2154  0.3374
 5065TIP3    H215160   4.598   4.776   0.599 -0.4252 -0.2486 -1.5160
 5066TIP3   OH215161   4.623   0.504   1.886 -0.3649 -0.3301 -0.1488
 5066TIP3    H115162   4.697   0.532   1.833  0.9945 -1.4696  1.0521
 5066TIP3    H215163   4.660   0.440   1.947 -1.7405  1.1210  2.3936
 5067TIP3   OH215164   5.624   4.073   0.819 -0.2317  0.2032 -0.2286
 5067TIP3    H115165   5.655   4.002   0.762  2.3030  0.0649  1.1324
 5067TIP3    H215166   5.702   4.126   0.834 -1.1359  1.0360  1.9156
 5068TIP3   OH215167   4.818   6.314   1.065  0.7516  0.5497 -0.1703
 5068TIP3    H115168   4.900   6.267   1.048  0.5301  0.1763 -0.2083
 5068TIP3    H215169   4.751   6.246   1.065  0.6360  0.6315  1.4397
 5069TIP3   OH215170   2.309   2.715   5.363  0.4055  0.0032 -0.1783
 5069TIP3    H115171   2.232   2.771   5.362  0.0165 -0.5211 -0.1765
 5069TIP3    H215172   2.382   2.773   5.339 -0.0461  0.4129 -0.5726
 5070TIP3   OH215173   6.937   0.314   4.362 -0.1859  0.1191  0.0164
 5070TIP3    H115174   6.905   0.237   4.314  0.9184 -0.9616  0.9531
 5070TIP3    H215175   7.016   0.284   4.406 -1.4156  0.8834  2.9560
 5071TIP3   OH215176   2.249   2.841   3.821  0.2554  0.0985  0.8096
 5071TIP3    H115177   2.238   2.761   3.769 -0.2016 -0.0598  1.1415
 5071TIP3    H215178   2.203   2.823   3.903 -0.5085  0.9813  0.5937
 5072TIP3   OH215179   6.809   4.365   3.039 -0.0055 -0.7033  0.0651
 5072TIP3    H115180   6.891   4.413   3.047 -1.0115  1.0731  0.1845
 5072TIP3    H215181   6.783   4.346   3.129 -0.7559  0.5996  0.1397
 5073TIP3   OH215182   1.362   3.200   4.049  0.4457  0.1105  0.4684
 5073TIP3    H115183   1.455   3.209   4.031  0.5085 -0.4593  0.4907
 5073TIP3    H215184   1.320   3.259   3.987  0.8100  0.2252  0.3287
 5074TIP3   OH215185   1.329   6.159   0.797 -0.3747  0.3526 -0.5635
 5074TIP3    H115186   1.422   6.180   0.807 -0.9623  2.3734  1.8561
 5074TIP3    H215187   1.306   6.190   0.710  0.9183  1.1621 -0.6332
 5075TIP3   OH215188   6.684   4.962   4.830  0.2663 -0.1776  0.3745
 5075TIP3    H115189   6.619   4.923   4.888 -0.6070  0.8436  0.1041
 5075TIP3    H215190   6.642   4.966   4.745 -0.4590  3.0206  0.7428
 5076TIP3   OH215191   1.968   0.379   3.302  0.4205 -0.3097 -0.1519
 5076TIP3    H115192   1.995   0.441   3.371  1.9191 -1.4395  0.3289
 5076TIP3    H215193   1.982   0.293   3.341 -2.1096 -1.0044 -0.6317
 5077TIP3   OH215194   1.671   5.844   4.619  0.0376  0.0969  0.2168
 5077TIP3    H115195   1.737   5.809   4.678  0.7998  0.6270 -0.2978
 5077TIP3    H215196   1.621   5.768   4.590  0.1925 -0.2651  0.8940
 5078TIP3   OH215197   1.348   5.959   2.087 -0.0658 -0.2029  0.7212
 5078TIP3    H115198   1.294   5.945   2.165 -1.5866  1.4441  0.0273
 5078TIP3    H215199   1.380   6.049   2.095  0.1891 -0.1858 -0.2998
 5079TIP3   OH215200   0.081   3.426   3.020 -0.1821 -0.3548  0.0411
 5079TIP3    H115201   0.171   3.444   3.045 -0.3462  1.4453 -0.5419
 5079TIP3    H215202   0.081   3.333   2.997  1.9486 -0.0041 -1.7029
 5080TIP3   OH215203   5.374   4.587   2.440 -0.0160 -0.2033 -0.3074
 5080TIP3    H115204   5.375   4.681   2.420  0.4133  0.0350  0.7497
 5080TIP3    H215205   5.282   4.565   2.453 -0.0481  0.2895  0.3573
 5081TIP3   OH215206   2.091   4.765   2.036  0.7344  0.2294  0.1934
 5081TIP3    H115207   2.103   4.682   2.082 -1.4317  0.2398  0.8708
 5081TIP3    H215208   2.083   4.740   1.944  1.4437 -0.1571  0.2282
 5082TIP3   OH215209   1.463   3.730   1.401 -0.2886  0.5030 -0.1083
 5082TIP3    H115210   1.424   3.665   1.342 -0.4007 -3.1708  3.5375
 5082TIP3    H215211   1.391   3.759   1.457  0.3667  1.3823  0.3080
 5083TIP3   OH215212   3.557   0.397   0.423  0.2333 -0.1613 -0.6384
 5083TIP3    H115213   3.562   0.416   0.329  0.9494  1.4561 -0.3151
 5083TIP3    H215214   3.476   0.439   0.451  0.1262 -0.4663 -0.4866
 5084TIP3   OH215215   4.506   1.522   1.422 -0.0673 -0.2795 -0.2133
 5084TIP3    H115216   4.560   1.580   1.476 -0.4711  0.5308 -0.6636
 5084TIP3    H215217   4.556   1.441   1.417  0.3913 -0.0669  0.6399
 5085TIP3   OH215218   3.641   0.380   4.742  0.1780 -0.1536 -0.2449
 5085TIP3    H115219   3.601   0.405   4.658 -0.6996  0.6068  0.3797
 5085TIP3    H215220   3.579   0.317   4.779 -0.1432  0.5551  0.4472
 5086TIP3   OH215221   4.712   2.595   5.284 -0.4420  0.1232  0.3885
 5086TIP3    H115222   4.682   2.516   5.330  1.3004 -0.9582 -0.2265
 5086TIP3    H215223   4.745   2.563   5.200  0.3752  1.4961  0.1575
 5087TIP3   OH215224   6.226   4.495   0.636  0.4711  0.3588  0.0579
 5087TIP3    H115225   6.227   4.588   0.658  1.8181  0.5854 -0.8228
 5087TIP3    H215226   6.313   4.464   0.662 -0.6376 -1.1802  2.3263
 5088TIP3   OH215227   3.612   1.293   1.048  0.0602 -0.0133  0.4682
 5088TIP3    H115228   3.647   1.337   0.970 -2.0203  0.1251 -0.4611
 5088TIP3    H215229   3.536   1.346   1.074  0.7926  0.0229  2.7174
 5089TIP3   OH215230   3.901   3.401   5.007 -0.3199  0.0337  0.3066
 5089TIP3    H115231   3.814   3.377   4.974 -0.8078  0.1356  1.4681
 5089TIP3    H215232   3.944   3.443   4.932 -0.3842 -2.1109 -1.0118
 5090TIP3   OH215233   1.474   6.076   1.684 -0.0724  0.0810  0.5408
 5090TIP3    H115234   1.533   6.001   1.675 -1.0372 -0.6462 -0.0096
 5090TIP3    H215235   1.500   6.136   1.615  0.5109  0.1115  0.7857
 5091TIP3   OH215236   6.578   3.565   4.152  0.1972  0.5229  0.4730
 5091TIP3    H115237   6.522   3.626   4.201 -1.8275 -1.6673  1.0785
 5091TIP3    H215238   6.539   3.563   4.065 -0.2043 -0.4182  0.6667
 5092TIP3   OH215239   2.753   0.711   1.949 -0.4866 -0.0682  0.7091
 5092TIP3    H115240   2.697   0.757   1.887 -1.0435  0.2897  1.4654
 5092TIP3    H215241   2.769   0.625   1.909 -1.3514 -0.0717  0.3633
 5093TIP3   OH215242   4.223   0.130   2.740 -0.4908 -0.7112  0.1389
 5093TIP3    H115243   4.189   0.219   2.749  3.3320  0.7956  1.8017
 5093TIP3    H215244   4.240   0.101   2.829  1.4345 -1.6935 -0.4784
 5094TIP3   OH215245   0.888   0.962   0.420  0.5561 -0.4027  0.0651
 5094TIP3    H115246   0.877   1.054   0.444 -1.0506  0.3321 -2.9489
 5094TIP3    H215247   0.812   0.918   0.458  0.2258 -0.0768 -0.2120
 5095TIP3   OH215248   1.761   4.401   2.526 -0.0827  0.5177  0.2565
 5095TIP3    H115249   1.696   4.339   2.494 -0.7720  0.6442  1.3353
 5095TIP3    H215250   1.726   4.487   2.503 -0.9572  0.6489  1.8967
 5096TIP3   OH215251   5.795   5.178   3.565 -0.2105  0.4910 -0.3815
 5096TIP3    H115252   5.872   5.158   3.511 -0.1366  0.1529 -0.1550
 5096TIP3    H215253   5.826   5.245   3.626  0.3279 -0.6616  0.6608
 5097TIP3   OH215254   6.228   6.139   5.231 -0.1246  0.1112 -0.2525
 5097TIP3    H115255   6.267   6.087   5.301 -0.8352  1.5135  1.2506
 5097TIP3    H215256   6.225   6.079   5.156 -2.4230 -2.6123  1.7887
 5098TIP3   OH215257   3.100   3.241   5.250  0.4137  0.0525  0.2451
 5098TIP3    H115258   3.022   3.187   5.237  0.8634 -0.8562  1.1831
 5098TIP3    H215259   3.070   3.314   5.305  0.0665  0.1069 -0.0146
 5099TIP3   OH215260   0.030   1.551   2.079  0.6438 -0.0899 -0.3074
 5099TIP3    H115261   0.020   1.545   2.174 -1.4055 -2.1288 -0.5516
 5099TIP3    H215262  -0.011   1.634   2.055  1.1784  0.4416  0.5556
 5100TIP3   OH215263   1.345   4.556   0.271 -0.0866 -0.7640 -0.0127
 5100TIP3    H115264   1.430   4.583   0.306 -0.2584  0.8475 -0.7357
 5100TIP3    H215265   1.364   4.480   0.216  0.9767 -0.1093 -0.5889
 5101TIP3   OH215266   0.845   5.247   0.211  0.0550 -0.4056  0.1266
 5101TIP3    H115267   0.846   5.256   0.306  1.0205  1.9909 -0.0449
 5101TIP3    H215268   0.935   5.225   0.188 -0.0383 -0.3623 -0.2929
 5102TIP3   OH215269   5.834   5.796   4.269  0.0181 -0.1838 -0.0471
 5102TIP3    H115270   5.791   5.854   4.206  0.2653  1.2520  1.0436
 5102TIP3    H215271   5.768   5.779   4.336  0.3157 -0.1717  0.2549
 5103TIP3   OH215272   1.797   6.741   0.121  0.0465 -0.3786  0.6932
 5103TIP3    H115273   1.885   6.706   0.129  0.4610  0.6379  0.6871
 5103TIP3    H215274   1.772   6.765   0.210  0.4683  0.9504  0.4681
 5104TIP3   OH215275   4.935   3.597   2.670 -0.4367 -0.8703  0.1967
 5104TIP3    H115276   4.880   3.523   2.644 -1.1112  0.2224 -1.6760
 5104TIP3    H215277   5.024   3.562   2.670 -0.6395 -1.4934 -1.6305
 5105TIP3   OH215278   1.487   2.177   4.123  0.1522  0.2582  0.4819
 5105TIP3    H115279   1.397   2.147   4.138  0.6166 -1.0347  0.7666
 5105TIP3    H215280   1.503   2.240   4.194 -0.1520 -0.3469  1.0941
 5106TIP3   OH215281   4.221   0.766   3.459  0.0414 -0.1829  0.4056
 5106TIP3    H115282   4.151   0.701   3.470 -1.2769  1.2042  0.5828
 5106TIP3    H215283   4.260   0.745   3.374 -1.1714 -0.4770 -0.0978
 5107TIP3   OH215284   2.681   2.518   2.338  0.3397 -0.0641  0.0099
 5107TIP3    H115285   2.699   2.570   2.417  0.8545 -1.5935  0.9352
 5107TIP3    H215286   2.696   2.579   2.266 -0.3145  1.4287  1.0769
 5108TIP3   OH215287   4.923   3.816   2.241 -0.6561 -0.8186  0.3051
 5108TIP3    H115288   4.901   3.731   2.203 -1.6073 -0.2270 -0.5142
 5108TIP3    H215289   4.909   3.878   2.169  1.0747 -0.0709  0.5526
 5109TIP3   OH215290   0.461   4.812   1.750 -0.6726  0.2929  0.3398
 5109TIP3    H115291   0.496   4.825   1.838 -0.9564 -0.6658  0.6126
 5109TIP3    H215292   0.431   4.898   1.723  0.3064  0.7885  0.7893
 5110TIP3   OH215293   4.119   4.292   2.232 -0.0766 -0.3245  0.1779
 5110TIP3    H115294   4.080   4.378   2.219 -1.5844 -1.2160 -1.4444
 5110TIP3    H215295   4.128   4.285   2.327 -1.1240  1.0902  0.4148
 5111TIP3   OH215296   6.550   0.890   3.358  0.1426 -0.0705  0.0330
 5111TIP3    H115297   6.610   0.823   3.390  1.4956  0.7092 -0.7936
 5111TIP3    H215298   6.538   0.949   3.432  0.2942 -0.3036  0.2435
 5112TIP3   OH215299   1.837   0.311   2.838  0.4489  0.3267 -0.1074
 5112TIP3    H115300   1.893   0.340   2.910  2.6906  1.3506 -2.1211
 5112TIP3    H215301   1.762   0.371   2.840  0.2069  0.0222  1.6118
 5113TIP3   OH215302   3.965   1.958   1.046 -0.3393  0.3350  0.1058
 5113TIP3    H115303   3.963   1.876   0.996  1.4571 -0.4395  1.1928
 5113TIP3    H215304   3.894   2.011   1.009 -0.7300 -1.2081 -1.4767
 5114TIP3   OH215305   6.640   1.724   0.763  0.0803 -0.1510 -0.3384
 5114TIP3    H115306   6.610   1.766   0.843  1.8796 -0.4554  0.5436
 5114TIP3    H215307   6.579   1.651   0.750 -0.6738  0.3443  0.3293
 5115TIP3   OH215308   6.611   0.646   1.259  0.0049 -0.1036  0.1494
 5115TIP3    H115309   6.604   0.599   1.342 -0.2961 -1.3248 -0.5474
 5115TIP3    H215310   6.703   0.641   1.236  0.3708  1.5309  1.1174
 5116TIP3   OH215311   6.011   4.438   0.445  0.1668 -0.5676 -0.1919
 5116TIP3    H115312   5.966   4.519   0.421 -0.2771 -0.8022 -0.1579
 5116TIP3    H215313   6.085   4.467   0.499 -0.6461 -0.2628  0.7779
 5117TIP3   OH215314   7.101   5.752   2.185  0.0421 -0.0516 -0.4652
 5117TIP3    H115315   7.036   5.700   2.137 -0.2065  0.5306 -0.7653
 5117TIP3    H215316   7.184   5.731   2.143 -0.1160  0.1158 -0.8734
 5118TIP3   OH215317   4.728   3.099   2.988  0.7379 -0.1720 -0.2966
 5118TIP3    H115318   4.747   3.070   2.898  0.6542  0.9816 -0.6993
 5118TIP3    H215319   4.813   3.111   3.028  0.8330 -3.0268  0.6162
 5119TIP3   OH215320   1.583   0.863   2.075  0.1953 -0.0417  0.0793
 5119TIP3    H115321   1.503   0.814   2.094 -0.3504  0.8806  0.2083
 5119TIP3    H215322   1.614   0.827   1.991  0.0328 -0.8773  0.3735
 5120TIP3   OH215323   0.070   4.377   4.112 -0.0507 -0.3303  0.0834
 5120TIP3    H115324   0.120   4.372   4.194 -0.0258 -0.1788  0.0779
 5120TIP3    H215325  -0.013   4.335   4.131  1.1381 -3.2584 -0.7268
 5121TIP3   OH215326   6.380   5.541   4.283 -0.3090  0.7588 -0.4789
 5121TIP3    H115327   6.297   5.589   4.279 -0.0017  1.3323 -0.0694
 5121TIP3    H215328   6.378   5.498   4.369  0.3576  1.7886  0.0753
 5122TIP3   OH215329   3.599   3.406   1.686  0.1273  0.1997 -0.2627
 5122TIP3    H115330   3.615   3.375   1.775 -0.8591  1.5195  0.4088
 5122TIP3    H215331   3.673   3.463   1.666  0.3497 -0.0991 -0.3017
 5123TIP3   OH215332   6.804   4.963   3.556  0.1976 -0.2104 -0.0047
 5123TIP3    H115333   6.854   4.971   3.638  2.0550  0.9853 -1.1826
 5123TIP3    H215334   6.732   5.026   3.566  1.3669  1.1705  0.0961
 5124TIP3   OH215335   4.885   4.961   5.767  0.0191  0.5606 -0.1215
 5124TIP3    H115336   4.860   5.053   5.775 -1.2245  0.0655  3.2167
 5124TIP3    H215337   4.857   4.935   5.679  0.4859  3.3269 -1.1800
 5125TIP3   OH215338   6.382   4.721   0.398  0.1629 -0.0788 -0.5652
 5125TIP3    H115339   6.326   4.725   0.321  0.0462 -1.3870 -0.5719
 5125TIP3    H215340   6.434   4.642   0.386  0.6370  0.0772  0.3590
 5126TIP3   OH215341   4.186   5.832   4.177  0.4062  0.0613 -0.0277
 5126TIP3    H115342   4.212   5.860   4.089  0.0101 -0.3306 -0.2758
 5126TIP3    H215343   4.116   5.768   4.162  0.4946 -0.1838  0.5669
 5127TIP3   OH215344   2.900   3.768   0.574 -0.5615 -0.1742  0.4899
 5127TIP3    H115345   2.919   3.695   0.514 -0.2017  0.4951 -0.2264
 5127TIP3    H215346   2.977   3.772   0.631  0.6842  1.2939 -1.1649
 5128TIP3   OH215347   2.196   0.846   3.285 -0.3493 -0.1001  0.2388
 5128TIP3    H115348   2.159   0.934   3.289  0.3739  0.1464  2.3021
 5128TIP3    H215349   2.289   0.860   3.265  0.0783 -0.2752  2.0017
 5129TIP3   OH215350   0.303   1.247   1.176 -0.0248 -0.1408 -0.1520
 5129TIP3    H115351   0.279   1.324   1.124  2.9508 -0.3719 -2.0876
 5129TIP3    H215352   0.276   1.173   1.121 -0.2082 -0.4535  0.3576
 5130TIP3   OH215353   3.252   0.078   3.565 -0.1356 -0.1587  0.5966
 5130TIP3    H115354   3.308  -0.000   3.559  1.7157  1.1751 -0.5246
 5130TIP3    H215355   3.217   0.075   3.654 -0.0412 -2.2047  0.6122
 5131TIP3   OH215356   4.585   6.020   4.806 -0.7370 -0.2016 -0.1002
 5131TIP3    H115357   4.490   6.032   4.799 -0.6715  0.0516 -0.5920
 5131TIP3    H215358   4.617   6.104   4.839 -0.5132  0.3043 -1.5062
 5132TIP3   OH215359   1.987   5.252   4.502 -0.7059 -0.8803  0.0323
 5132TIP3    H115360   1.938   5.315   4.556  0.9115  1.7913 -1.3568
 5132TIP3    H215361   2.068   5.238   4.551 -0.2400 -0.3088 -0.5568
 5133TIP3   OH215362   7.022   6.073   1.628 -0.2224  0.2827  0.1302
 5133TIP3    H115363   7.030   6.161   1.666 -0.0340  0.1011  0.5159
 5133TIP3    H215364   6.927   6.057   1.624 -0.3358  1.1325 -1.4232
 5134TIP3   OH215365   4.084   2.868   3.030  0.2187  0.0884  0.4138
 5134TIP3    H115366   4.114   2.953   3.061  0.1550 -0.5463  2.3532
 5134TIP3    H215367   4.146   2.806   3.067 -1.4796 -0.9518  1.6767
 5135TIP3   OH215368   4.458   1.949   5.024 -0.0336  0.8797  0.1950
 5135TIP3    H115369   4.478   2.036   5.060 -3.7121  2.2096 -0.5346
 5135TIP3    H215370   4.372   1.959   4.983 -0.0671 -2.8504 -1.0364
 5136TIP3   OH215371   1.120   0.438   5.572 -0.0533 -0.3109 -0.5846
 5136TIP3    H115372   1.152   0.417   5.484 -3.9182 -1.9335 -1.8530
 5136TIP3    H215373   1.073   0.359   5.599  1.0070  0.1561  3.0274
 5137TIP3   OH215374   1.554   4.941   5.044  0.2440  0.4822  0.2921
 5137TIP3    H115375   1.527   4.870   5.101  1.9610 -0.5635 -0.1175
 5137TIP3    H215376   1.650   4.933   5.039  0.3656  2.0750 -0.7337
 5138TIP3   OH215377   6.132   1.847   3.566  0.1104  0.2215  0.3410
 5138TIP3    H115378   6.179   1.873   3.487 -2.3890 -2.8334 -2.4505
 5138TIP3    H215379   6.196   1.800   3.619  1.2436 -0.0942 -1.2521
 5139TIP3   OH215380   0.259   5.854   5.048  0.6838  0.3314  0.1049
 5139TIP3    H115381   0.301   5.803   4.978 -1.7072  0.3213 -1.4246
 5139TIP3    H215382   0.255   5.793   5.122 -0.8786 -1.3357 -1.2613
 5140TIP3   OH215383   0.842   2.972   1.610  0.2443 -0.3646 -0.4578
 5140TIP3    H115384   0.920   2.917   1.617  0.1351 -0.4251  0.4406
 5140TIP3    H215385   0.768   2.910   1.612 -0.0792 -0.1852  4.0140
 5141TIP3   OH215386   1.801   3.515   3.358  0.0936 -0.2461  0.3529
 5141TIP3    H115387   1.786   3.481   3.270  1.8315 -1.2423  0.3865
 5141TIP3    H215388   1.714   3.521   3.397 -0.5716 -1.4306 -0.8620
 5142TIP3   OH215389   5.783   1.479   4.392 -0.4163  0.5841  0.2656
 5142TIP3    H115390   5.851   1.434   4.341 -1.6206 -1.3743  0.2755
 5142TIP3    H215391   5.717   1.411   4.408 -2.2082  2.3174  0.5745
 5143TIP3   OH215392   1.575   0.991   0.672  0.6217  0.3817  0.0162
 5143TIP3    H115393   1.490   1.009   0.631  0.7998 -0.9719 -1.0405
 5143TIP3    H215394   1.582   1.055   0.742 -1.6733 -0.0332  0.7158
 5144TIP3   OH215395   1.988   6.439   3.011 -0.2244  0.4834 -0.6582
 5144TIP3    H115396   2.052   6.425   3.081 -0.2136  1.4342 -0.4692
 5144TIP3    H215397   1.927   6.366   3.019 -1.5087  1.7201  1.7789
 5145TIP3   OH215398   2.232   5.934   1.732  0.3605  0.3535 -0.1035
 5145TIP3    H115399   2.210   5.926   1.640 -0.4572  1.4279 -0.0111
 5145TIP3    H215400   2.223   5.845   1.766 -0.8333  0.2137 -0.7385
 5146TIP3   OH215401   7.081   6.588   1.111 -0.0999 -0.3047 -0.5353
 5146TIP3    H115402   7.120   6.553   1.191  0.8712  0.6441 -0.5697
 5146TIP3    H215403   7.036   6.513   1.072 -2.3361 -0.3725  1.8924
 5147TIP3   OH215404   1.567   4.296   2.338  0.2792  0.0760  0.3549
 5147TIP3    H115405   1.478   4.320   2.362 -0.3454 -0.1114 -1.5615
 5147TIP3    H215406   1.570   4.201   2.344  0.2147  0.0511  0.0171
 5148TIP3   OH215407   5.829   2.951   2.322  0.0645  0.5586  0.6904
 5148TIP3    H115408   5.810   3.003   2.244  1.9143 -1.4637 -1.2250
 5148TIP3    H215409   5.893   3.003   2.371  1.5075  0.3916 -0.9358
 5149TIP3   OH215410   5.228   5.505   4.148  0.2688 -0.4924  0.1861
 5149TIP3    H115411   5.301   5.526   4.205  0.0829  0.3367  0.1289
 5149TIP3    H215412   5.184   5.589   4.132  0.8905 -0.5043 -1.9710
 5150TIP3   OH215413   4.458   3.678   3.039  0.1859 -0.4289 -0.4331
 5150TIP3    H115414   4.419   3.597   3.073 -1.2847 -0.3431 -1.7585
 5150TIP3    H215415   4.434   3.745   3.103  0.0143 -0.7639 -0.1388
 5151TIP3   OH215416   2.663   2.820   5.847 -0.0246  0.1445 -0.2287
 5151TIP3    H115417   2.682   2.728   5.863  1.5712  0.3601 -0.7820
 5151TIP3    H215418   2.705   2.866   5.920 -0.8865  0.4433  0.0934
 5152TIP3   OH215419   0.253   3.401   4.606  0.5472 -0.0756 -0.1990
 5152TIP3    H115420   0.303   3.348   4.544  0.1612  0.0011 -0.5770
 5152TIP3    H215421   0.293   3.382   4.691  0.8606 -0.4375 -0.4232
 5153TIP3   OH215422   6.686   1.955   4.324 -0.3148 -0.2260  0.0772
 5153TIP3    H115423   6.709   1.876   4.371  1.1689  0.9406  1.4380
 5153TIP3    H215424   6.710   1.936   4.233  1.0689 -0.9901  0.5598
 5154TIP3   OH215425   0.259   1.906   3.020 -0.3148  0.2068 -0.1683
 5154TIP3    H115426   0.175   1.926   2.978 -0.1743 -0.7526 -0.9550
 5154TIP3    H215427   0.308   1.857   2.954 -0.6066 -2.6085  1.5469
 5155TIP3   OH215428   3.257   0.545   3.285  0.2697  0.0945 -0.0057
 5155TIP3    H115429   3.215   0.525   3.201  0.3367 -0.4882  0.0954
 5155TIP3    H215430   3.348   0.519   3.272  0.3181  0.1725  0.1880
 5156TIP3   OH215431   5.697   1.566   0.514  0.3798  0.5432  0.7041
 5156TIP3    H115432   5.763   1.502   0.539  0.7015  0.1750 -0.9646
 5156TIP3    H215433   5.739   1.651   0.528  1.3307  0.3085 -0.5696
 5157TIP3   OH215434   3.306   0.314   0.742 -0.0223 -0.2891 -0.5885
 5157TIP3    H115435   3.287   0.296   0.835  0.4529  2.5829  0.1389
 5157TIP3    H215436   3.400   0.298   0.733 -0.0950 -0.7093 -0.6279
 5158TIP3   OH215437   2.042   1.969   3.528 -0.4221 -0.0056 -0.3862
 5158TIP3    H115438   2.095   1.907   3.578  0.9034  1.7989  0.5899
 5158TIP3    H215439   2.091   1.984   3.447 -2.1473 -2.2771 -1.9705
 5159TIP3   OH215440   0.687   2.849   4.820  0.3476  0.2832 -0.0082
 5159TIP3    H115441   0.767   2.809   4.786 -0.2735 -0.2860 -0.8469
 5159TIP3    H215442   0.622   2.835   4.751 -0.2472  1.5471  0.2672
 5160TIP3   OH215443   7.071   0.632   2.296 -0.0622 -0.6302  0.2049
 5160TIP3    H115444   7.016   0.617   2.218  2.2534 -4.8738 -0.9015
 5160TIP3    H215445   7.133   0.699   2.268 -0.7183 -0.3956 -0.7638
 5161TIP3   OH215446   6.743   2.801   1.424 -0.5478  0.2651  0.0602
 5161TIP3    H115447   6.782   2.882   1.392 -0.4094  0.3148  0.3446
 5161TIP3    H215448   6.692   2.829   1.501  0.1199 -0.0218  0.6195
 5162TIP3   OH215449   1.577   0.309   2.293 -0.3951  0.4326  0.4782
 5162TIP3    H115450   1.572   0.400   2.323 -0.3580  0.5928 -0.0050
 5162TIP3    H215451   1.634   0.312   2.217  0.0202 -0.0732  0.7616
 5163TIP3   OH215452   2.531   6.267   4.809 -0.0664 -0.2722 -0.0465
 5163TIP3    H115453   2.566   6.326   4.876  0.4695 -0.6720  0.0374
 5163TIP3    H215454   2.440   6.294   4.798 -0.0251  0.1089  0.4940
 5164TIP3   OH215455   6.835   2.844   2.483 -0.4502 -0.3712 -0.2141
 5164TIP3    H115456   6.781   2.815   2.557 -1.8146  2.5806  0.0683
 5164TIP3    H215457   6.775   2.841   2.408 -1.6109  3.9387  0.2829
 5165TIP3   OH215458   6.489   4.116   4.352 -0.2928  0.0982 -0.0049
 5165TIP3    H115459   6.435   4.188   4.383  0.0740  0.1555  0.5027
 5165TIP3    H215460   6.435   4.038   4.367  0.2306  0.0182  1.6713
 5166TIP3   OH215461   2.638   6.339   5.126  0.0494 -0.3783 -0.1339
 5166TIP3    H115462   2.584   6.307   5.198  0.0605  0.8093  0.4402
 5166TIP3    H215463   2.611   6.430   5.115  0.6671 -0.2909 -1.0524
 5167TIP3   OH215464   4.771   4.750   2.090  0.3328  0.3636 -0.0486
 5167TIP3    H115465   4.862   4.752   2.120  0.1876  0.0423  0.4372
 5167TIP3    H215466   4.773   4.700   2.009  0.3338 -1.2761  0.9260
 5168TIP3   OH215467   3.667   4.063   5.824  0.1120 -0.7129  0.7182
 5168TIP3    H115468   3.760   4.059   5.806 -0.0428 -0.2018 -0.2699
 5168TIP3    H215469   3.632   3.980   5.788  0.1691 -0.8460  0.9718
 5169TIP3   OH215470   3.495   5.727   3.763 -0.0278 -0.3837  0.3023
 5169TIP3    H115471   3.495   5.710   3.669 -1.3645  0.1907  0.1710
 5169TIP3    H215472   3.403   5.724   3.788  0.2765 -0.1684  1.5333
 5170TIP3   OH215473   6.644   3.375   0.190  0.3488  0.2701 -0.9768
 5170TIP3    H115474   6.724   3.362   0.138  1.2738 -3.3043  0.9432
 5170TIP3    H215475   6.609   3.286   0.201 -0.1676  0.8276  3.7414
 5171TIP3   OH215476   0.785   5.525   0.172 -0.2405  0.0791 -0.0402
 5171TIP3    H115477   0.798   5.430   0.176  0.5827  0.0128 -2.7577
 5171TIP3    H215478   0.790   5.553   0.264 -0.2755 -2.4432  0.8227
 5172TIP3   OH215479   0.512   2.024   3.865 -0.6253  0.2097 -0.4938
 5172TIP3    H115480   0.601   1.989   3.868 -0.0538  1.3821 -2.0223
 5172TIP3    H215481   0.461   1.967   3.921  0.8364 -1.2621 -0.5969
 5173TIP3   OH215482   3.173   5.702   2.884  0.3342  0.1246 -0.5686
 5173TIP3    H115483   3.227   5.690   2.806  2.5493  0.2237  0.8718
 5173TIP3    H215484   3.177   5.618   2.930 -1.1077  0.0044 -0.6135
 5174TIP3   OH215485   0.751   1.292   2.042  0.8884 -0.4599 -0.4551
 5174TIP3    H115486   0.819   1.239   2.001  0.0471 -0.9026 -1.3046
 5174TIP3    H215487   0.736   1.364   1.981  0.1230 -0.7392 -0.6049
 5175TIP3   OH215488   2.472   1.460   0.639  0.0971  0.4765 -0.4716
 5175TIP3    H115489   2.473   1.376   0.685 -0.3375  0.4256 -0.5482
 5175TIP3    H215490   2.549   1.507   0.672  0.2640  0.1022 -0.3287
 5176TIP3   OH215491   0.058   3.621   1.392 -0.0077 -0.3077 -0.2120
 5176TIP3    H115492   0.040   3.574   1.474 -1.2241  2.3017  1.1248
 5176TIP3    H215493  -0.029   3.641   1.357  0.3619  2.5229  0.2872
 5177TIP3   OH215494   4.109   3.272   1.287 -0.5809 -0.4537 -0.2403
 5177TIP3    H115495   4.188   3.319   1.259 -0.2144 -1.3430 -0.7207
 5177TIP3    H215496   4.136   3.181   1.293 -1.3145 -0.6301  0.5995
 5178TIP3   OH215497   4.783   3.971   3.218 -0.3689 -0.1221 -0.3815
 5178TIP3    H115498   4.726   3.971   3.142 -1.3378 -0.2856  0.3367
 5178TIP3    H215499   4.836   4.051   3.207  0.3858 -0.7701 -1.8374
 5179TIP3   OH215500   4.575   0.353   1.325  0.2023  0.2068  0.2243
 5179TIP3    H115501   4.535   0.440   1.330 -0.1562  0.0454  0.2122
 5179TIP3    H215502   4.561   0.315   1.411 -1.5688 -0.6604 -0.3861
 5180TIP3   OH215503   6.023   1.002   0.287  0.1182 -0.1945 -0.3850
 5180TIP3    H115504   5.931   0.983   0.271  0.1970 -1.4764  0.4866
 5180TIP3    H215505   6.026   1.096   0.305 -0.4572  0.6148 -3.9362
 5181TIP3   OH215506   5.269   2.483   3.896 -0.1536 -0.3072 -0.5918
 5181TIP3    H115507   5.274   2.501   3.990 -1.2403 -1.3496 -0.3175
 5181TIP3    H215508   5.183   2.517   3.870  0.7654  1.3914 -1.5545
 5182TIP3   OH215509   1.774   5.970   4.166  0.1712 -0.3579 -0.1686
 5182TIP3    H115510   1.776   6.063   4.191  1.0025 -0.5318  0.4366
 5182TIP3    H215511   1.725   5.927   4.236 -1.5263 -0.1730 -1.2004
 5183TIP3   OH215512   5.506   1.584   4.345 -0.5862  0.5259  0.1312
 5183TIP3    H115513   5.586   1.583   4.399 -0.0342 -1.1736 -0.6496
 5183TIP3    H215514   5.527   1.644   4.274  0.3334 -0.4993 -0.4990
 5184TIP3   OH215515   6.282   4.107   4.892  0.2169  0.2370  0.0475
 5184TIP3    H115516   6.189   4.123   4.907 -0.2711 -0.0386 -2.3226
 5184TIP3    H215517   6.303   4.032   4.948 -0.2870  1.8310  2.5253
 5185TIP3   OH215518   3.192   5.266   4.562 -0.1941 -0.1558 -0.3429
 5185TIP3    H115519   3.282   5.233   4.571 -0.3881 -0.1133  2.8710
 5185TIP3    H215520   3.151   5.205   4.500  1.0809 -2.4917  0.9309
 5186TIP3   OH215521   4.823   6.055   3.118 -0.5870 -0.0610 -0.6153
 5186TIP3    H115522   4.883   6.085   3.186 -0.7990 -0.3419 -0.3013
 5186TIP3    H215523   4.878   6.039   3.042 -0.4430  0.9267 -0.7287
 5187TIP3   OH215524   0.318   1.199   4.852 -0.5043  0.7028 -0.0434
 5187TIP3    H115525   0.317   1.103   4.846 -2.2652  0.6935 -0.3369
 5187TIP3    H215526   0.329   1.217   4.945 -2.8949  0.0950  0.4380
 5188TIP3   OH215527   2.787   5.574   3.754 -0.0563  0.1936 -0.4726
 5188TIP3    H115528   2.874   5.544   3.780 -0.5653 -0.0200  1.0888
 5188TIP3    H215529   2.788   5.668   3.772  0.0084  0.2862 -0.9434
 5189TIP3   OH215530   1.547   3.624   0.145  0.0917 -0.2868 -0.5795
 5189TIP3    H115531   1.483   3.561   0.179 -1.0405  0.5369 -1.1299
 5189TIP3    H215532   1.614   3.569   0.103 -0.1868 -1.1699  0.0815
 5190TIP3   OH215533   5.058   5.875   2.199  0.3217 -0.1505 -0.5684
 5190TIP3    H115534   5.094   5.868   2.111  1.5748  2.8040 -0.4126
 5190TIP3    H215535   5.012   5.792   2.214 -0.1830 -0.6289 -4.0735
 5191TIP3   OH215536   3.139   6.202   1.658  0.5333  0.0981 -0.2614
 5191TIP3    H115537   3.187   6.186   1.740  1.1064  1.6793 -0.2646
 5191TIP3    H215538   3.048   6.182   1.679  0.6451  0.6785  0.8326
 5192TIP3   OH215539   1.650   4.874   1.125 -0.3782  0.4243 -0.2127
 5192TIP3    H115540   1.619   4.845   1.039 -3.3798  0.0611  0.8817
 5192TIP3    H215541   1.674   4.966   1.111  1.5871 -0.2567 -1.9086
 5193TIP3   OH215542   1.121   3.608   3.881  0.4549 -0.3635 -0.4343
 5193TIP3    H115543   1.055   3.610   3.950  1.3145 -1.4711  0.4561
 5193TIP3    H215544   1.138   3.701   3.861 -1.4964 -0.0601 -0.8454
 5194TIP3   OH215545   3.214   5.825   5.654  0.0013  0.1442  0.3215
 5194TIP3    H115546   3.178   5.913   5.663 -1.8227 -0.4400 -0.7726
 5194TIP3    H215547   3.293   5.836   5.602 -0.7881  1.0340 -0.7311
 5195TIP3   OH215548   6.102   0.246   3.692 -0.0396 -0.6663 -0.3788
 5195TIP3    H115549   6.112   0.234   3.786 -1.0381  0.1685 -0.1479
 5195TIP3    H215550   6.058   0.331   3.683 -0.3633 -0.9385 -1.5783
 5196TIP3   OH215551   6.108   3.379   0.364  0.0246  0.0149  0.0091
 5196TIP3    H115552   6.144   3.449   0.309 -0.4389  0.1560 -0.1159
 5196TIP3    H215553   6.032   3.419   0.407  0.2094 -0.1802  0.5331
 5197TIP3   OH215554   0.704   3.195   5.735  0.1521  0.2825  0.3533
 5197TIP3    H115555   0.644   3.122   5.721  0.2800  0.2035  0.2139
 5197TIP3    H215556   0.761   3.195   5.658  0.8581 -0.1519  0.8639
 5198TIP3   OH215557   4.400   1.515   3.866 -0.4139 -0.1397 -0.0926
 5198TIP3    H115558   4.372   1.424   3.857 -0.0074 -0.0972 -2.2157
 5198TIP3    H215559   4.322   1.561   3.896 -0.7971 -1.0699  0.3849
 5199TIP3   OH215560   2.820   0.956   2.323  0.2733  0.0963 -0.2746
 5199TIP3    H115561   2.754   0.958   2.393  1.5136 -0.3970  0.9460
 5199TIP3    H215562   2.815   1.043   2.283  0.6117  0.9391  1.4547
 5200TIP3   OH215563   4.537   4.724   2.261  0.7152  0.2717  0.3733
 5200TIP3    H115564   4.511   4.637   2.293  1.4694 -0.0924  0.0363
 5200TIP3    H215565   4.613   4.707   2.206  0.7064  1.1262  0.0846
 5201TIP3   OH215566   7.177   2.258   5.296  0.1997  0.3732 -0.3059
 5201TIP3    H115567   7.121   2.251   5.219 -0.6050 -1.6794  0.4099
 5201TIP3    H215568   7.162   2.347   5.328 -2.7021 -0.0813 -0.1452
 5202TIP3   OH215569   3.908   3.389   5.319  0.1054 -0.6793  0.3230
 5202TIP3    H115570   3.969   3.315   5.316  0.3034 -0.5113  0.1066
 5202TIP3    H215571   3.896   3.414   5.227 -0.8660 -1.1732  0.3084
 5203TIP3   OH215572   0.154   1.517   0.427  0.6567 -0.0106 -0.1521
 5203TIP3    H115573   0.116   1.471   0.352  0.6811 -1.2217  0.5493
 5203TIP3    H215574   0.193   1.447   0.480 -2.4032  0.2764  2.8128
 5204TIP3   OH215575   2.430   1.580   3.755  0.1604 -0.0942  0.2588
 5204TIP3    H115576   2.395   1.529   3.828 -0.2943 -0.0182  0.0959
 5204TIP3    H215577   2.487   1.519   3.708  1.1028  0.0746  1.1250
 5205TIP3   OH215578   0.573   0.673   1.955  0.5226  0.3178 -0.1161
 5205TIP3    H115579   0.579   0.663   1.860  0.4222 -0.1728 -0.0755
 5205TIP3    H215580   0.613   0.758   1.973  0.6526  0.3586 -0.5844
 5206TIP3   OH215581   5.115   3.414   3.520  0.0871 -0.7362  0.0842
 5206TIP3    H115582   5.124   3.452   3.608 -0.0907 -0.3531 -0.0605
 5206TIP3    H215583   5.161   3.475   3.463 -2.2080  0.5805 -0.4906
 5207TIP3   OH215584   6.807   1.465   4.741 -0.0668  0.3265 -0.1781
 5207TIP3    H115585   6.902   1.470   4.741  0.2461 -3.0075  0.8983
 5207TIP3    H215586   6.782   1.472   4.649  1.0955  1.8970 -0.4077
 5208TIP3   OH215587   0.214   1.755   3.264 -0.4425  0.1240 -0.1029
 5208TIP3    H115588   0.265   1.794   3.194  0.4841 -0.9196 -0.0316
 5208TIP3    H215589   0.207   1.663   3.241 -0.7361 -0.0972  0.8125
 5209TIP3   OH215590   3.362   4.856   1.464  0.6775 -0.3541  0.1210
 5209TIP3    H115591   3.362   4.790   1.394  0.0858  0.0283 -0.2433
 5209TIP3    H215592   3.281   4.839   1.512 -0.7528  1.6313 -1.4421
 5210TIP3   OH215593   3.702   5.974   5.814 -0.6203 -0.8003 -0.1372
 5210TIP3    H115594   3.641   5.959   5.886 -0.6132  1.0612  0.3176
 5210TIP3    H215595   3.650   6.017   5.746  0.2813  1.7307  0.6407
 5211TIP3   OH215596   3.978   2.732   1.554 -0.2253 -0.3137 -0.0359
 5211TIP3    H115597   4.068   2.746   1.584  0.2788  2.3938 -2.3414
 5211TIP3    H215598   3.923   2.774   1.619  0.3965  0.3585  0.0647
 5212TIP3   OH215599   2.442   5.455   2.290  0.2868  0.2563  0.3502
 5212TIP3    H115600   2.468   5.432   2.200  0.1651  0.9953  0.1151
 5212TIP3    H215601   2.490   5.536   2.309  0.2706  0.1324  0.9308
 5213TIP3   OH215602   4.466   2.078   1.616  0.1669  0.3261  0.3721
 5213TIP3    H115603   4.432   2.164   1.640  0.0454  0.2344  0.5375
 5213TIP3    H215604   4.387   2.028   1.594  0.2546  0.3185  0.0821
 5214TIP3   OH215605   1.797   5.804   5.682 -0.2413  0.5769  0.3019
 5214TIP3    H115606   1.888   5.806   5.654 -0.4618  1.9705 -0.4017
 5214TIP3    H215607   1.746   5.814   5.602 -0.9682  1.3502  0.8393
 5215TIP3   OH215608   3.886   1.670   4.093 -0.0287  0.3107 -0.1562
 5215TIP3    H115609   3.966   1.645   4.047  1.0539  2.3247  0.4981
 5215TIP3    H215610   3.844   1.732   4.035 -0.0701  0.7750  0.3618
 5216TIP3   OH215611   6.660   2.734   5.524  0.1744 -0.0893  0.3657
 5216TIP3    H115612   6.633   2.775   5.441 -0.3412 -3.4773 -1.2853
 5216TIP3    H215613   6.727   2.670   5.499 -1.0802 -2.2964  2.2956
 5217TIP3   OH215614   7.076   6.615   4.250  0.2964 -0.4776  0.0083
 5217TIP3    H115615   7.081   6.535   4.197  0.5069  0.1869 -0.9873
 5217TIP3    H215616   7.119   6.682   4.197  1.7716 -0.0907  1.6108
 5218TIP3   OH215617   0.509   3.008   5.819  0.2073  0.0576 -0.3163
 5218TIP3    H115618   0.556   2.959   5.887  0.9935  0.5830 -0.4588
 5218TIP3    H215619   0.431   3.042   5.863  0.0843 -0.6178  0.0003
 5219TIP3   OH215620   5.651   2.628   0.045  0.2458  0.4415 -0.1103
 5219TIP3    H115621   5.670   2.579   0.125  0.5034  1.6172  0.5847
 5219TIP3    H215622   5.673   2.569  -0.026 -0.2110 -0.7211  0.6870
 5220TIP3   OH215623   4.580   5.907   2.899 -0.0772 -0.3960  0.1988
 5220TIP3    H115624   4.575   5.952   2.983  2.8153 -1.4227  1.0383
 5220TIP3    H215625   4.607   5.975   2.837  2.9304 -0.5392  1.1955
 5221TIP3   OH215626   7.167   2.044   2.429  0.2079  0.4093  0.2308
 5221TIP3    H115627   7.212   2.109   2.482 -0.5196  1.6820 -0.6504
 5221TIP3    H215628   7.205   2.054   2.341  0.1058 -0.3724  0.0927
 5222TIP3   OH215629   4.007   3.304   0.419 -0.0649 -0.1064  0.4395
 5222TIP3    H115630   4.093   3.312   0.462  0.3207  0.6508 -0.4606
 5222TIP3    H215631   3.993   3.209   0.413  0.2884 -0.2333  1.4059
 5223TIP3   OH215632   1.800   1.347   1.786 -0.6966  0.6471 -0.0692
 5223TIP3    H115633   1.858   1.357   1.710  0.1591  0.6339  0.5628
 5223TIP3    H215634   1.744   1.273   1.764  0.9840 -0.7681  0.1698
 5224TIP3   OH215635   0.668   4.938   0.974  0.1431 -0.1633 -0.3888
 5224TIP3    H115636   0.641   4.946   1.066  0.5590 -1.6126 -0.1124
 5224TIP3    H215637   0.590   4.962   0.924 -0.3841 -0.2743  0.3562
 5225TIP3   OH215638   0.021   5.945   4.951 -0.9697  0.2684  0.1280
 5225TIP3    H115639   0.031   5.958   4.856 -1.3704 -1.0986 -0.1295
 5225TIP3    H215640   0.110   5.933   4.983 -0.6020  2.9973  0.3334
 5226TIP3   OH215641   5.050   6.174   1.082 -0.2761  0.4121 -0.0861
 5226TIP3    H115642   5.065   6.095   1.030 -0.6654  0.5957 -0.4848
 5226TIP3    H215643   5.121   6.174   1.146  0.6352  0.5710 -1.0799
 5227TIP3   OH215644   4.991   0.808   1.513  0.4840 -0.3383  0.2279
 5227TIP3    H115645   5.071   0.816   1.564  0.1844  0.1857  0.6237
 5227TIP3    H215646   4.922   0.842   1.570  0.1465  0.2986 -0.5428
 5228TIP3   OH215647   6.723   4.268   2.645 -0.4900  0.0571 -0.4943
 5228TIP3    H115648   6.675   4.220   2.577 -0.6981 -0.1378 -0.2132
 5228TIP3    H215649   6.716   4.360   2.620  0.3855 -0.0988 -1.3409
 5229TIP3   OH215650   0.794   2.026   3.887 -0.5841  0.0008 -0.1213
 5229TIP3    H115651   0.828   1.937   3.896 -1.6164 -0.3169  0.8572
 5229TIP3    H215652   0.869   2.078   3.860  0.3319 -0.9430  0.5568
 5230TIP3   OH215653   3.026   0.502   3.485 -0.3958  0.0815  0.7220
 5230TIP3    H115654   3.043   0.509   3.391 -0.7769 -0.7039  0.5874
 5230TIP3    H215655   3.111   0.481   3.523 -0.2377  0.4145  0.5631
 5231TIP3   OH215656   6.560   4.804   4.392 -0.5745 -0.6242  0.2454
 5231TIP3    H115657   6.482   4.749   4.385 -0.8206 -0.5090  1.6811
 5231TIP3    H215658   6.552   4.846   4.478  1.0460 -0.5818  0.4082
 5232TIP3   OH215659   4.987   6.453   3.009  0.4186  0.3237 -0.1026
 5232TIP3    H115660   4.894   6.430   3.005  0.2027  1.1749 -0.1999
 5232TIP3    H215661   4.990   6.529   3.067  0.8707  1.1385 -1.1481
 5233TIP3   OH215662   2.216   5.901   2.640 -0.0282 -0.0405  0.3680
 5233TIP3    H115663   2.264   5.951   2.707  2.5064 -0.5089 -0.9529
 5233TIP3    H215664   2.167   5.968   2.591  1.3852  0.8860  0.1467
 5234TIP3   OH215665   4.254   4.158   0.782  0.1759  0.2989 -0.2263
 5234TIP3    H115666   4.295   4.241   0.807  0.7288 -0.0151 -0.0735
 5234TIP3    H215667   4.304   4.127   0.707 -0.4551  0.4301 -0.7144
 5235TIP3   OH215668   6.762   1.918   3.812  0.4505 -0.1950 -0.4342
 5235TIP3    H115669   6.680   1.957   3.783  1.2191  1.2326 -0.8202
 5235TIP3    H215670   6.823   1.932   3.739  1.6661  0.9450  0.7254
 5236TIP3   OH215671   5.982   5.026   4.047 -0.2389  0.0208 -0.0393
 5236TIP3    H115672   5.947   5.049   4.134  0.9357 -1.4462  0.8720
 5236TIP3    H215673   6.075   5.011   4.063 -0.1013 -0.7217 -1.4850
 5237TIP3   OH215674   3.375   3.195   1.874  0.2504 -0.1417  0.1752
 5237TIP3    H115675   3.362   3.225   1.964  2.5206  1.6067  0.0209
 5237TIP3    H215676   3.343   3.267   1.820  2.0987  0.4006 -0.2884
 5238TIP3   OH215677   0.287   2.260   3.902  0.1568 -0.0657  0.6047
 5238TIP3    H115678   0.368   2.272   3.851 -0.3063 -1.9991 -0.6847
 5238TIP3    H215679   0.255   2.174   3.876 -2.9552  1.0799  0.2169
 5239TIP3   OH215680   4.882   4.747   0.837  0.4855 -0.1416 -0.5020
 5239TIP3    H115681   4.825   4.801   0.782 -0.0470 -0.5406 -0.3606
 5239TIP3    H215682   4.834   4.738   0.919  1.7376  1.3003  0.4325
 5240TIP3   OH215683   5.985   4.431   1.367  0.1536 -0.3438  0.0047
 5240TIP3    H115684   5.931   4.443   1.289 -1.8460  0.0278  1.3723
 5240TIP3    H215685   5.941   4.362   1.417  0.4917  0.4856  1.5176
 5241TIP3   OH215686   0.053   6.774   3.372 -0.2952 -0.6095  0.0065
 5241TIP3    H115687   0.039   6.867   3.355 -0.2722 -1.2869 -5.3141
 5241TIP3    H215688  -0.033   6.734   3.358  0.0143 -1.5767  0.7638
 5242TIP3   OH215689   0.453   2.794   2.931  0.3507 -0.2430 -0.5380
 5242TIP3    H115690   0.438   2.712   2.976 -0.1525  0.6616  1.0050
 5242TIP3    H215691   0.547   2.795   2.913  0.4581 -0.8701 -0.0249
 5243TIP3   OH215692   1.238   2.404   1.620 -0.9184  0.3494  0.2414
 5243TIP3    H115693   1.197   2.334   1.671  0.6807 -0.6081  0.3160
 5243TIP3    H215694   1.165   2.453   1.583 -2.1699  1.0317  3.3243
 5244TIP3   OH215695   7.101   3.031   0.047 -0.2736  0.7816 -0.8078
 5244TIP3    H115696   7.092   2.939   0.021 -0.6465  1.1953 -2.2440
 5244TIP3    H215697   7.125   3.076  -0.034  1.0082  1.8046  0.0989
 5245TIP3   OH215698   4.797   1.102   1.447 -0.0624  0.0574  0.1837
 5245TIP3    H115699   4.890   1.096   1.427  0.1033 -0.1154  0.9708
 5245TIP3    H215700   4.790   1.074   1.539 -0.6347  1.9678  0.7605
 5246TIP3   OH215701   5.080   4.906   1.937 -0.4171  0.6073 -0.3635
 5246TIP3    H115702   5.121   4.909   2.024 -0.3642  0.7773 -0.3945
 5246TIP3    H215703   5.134   4.845   1.887 -1.0679 -0.3312  0.0439
 5247TIP3   OH215704   1.871   3.385   2.023 -0.3574 -0.2146 -0.2074
 5247TIP3    H115705   1.886   3.463   2.076 -0.6027  1.5178 -2.5365
 5247TIP3    H215706   1.858   3.315   2.087  0.5807  1.4725  1.9750
 5248TIP3   OH215707   3.326   1.770   5.261  0.3455 -0.0504 -0.0397
 5248TIP3    H115708   3.372   1.705   5.208  0.9349  0.9335 -0.7883
 5248TIP3    H215709   3.393   1.837   5.278 -0.4612  0.7692 -0.0305
 5249TIP3   OH215710   0.808   0.559   4.572 -0.0114 -0.4275 -0.0311
 5249TIP3    H115711   0.733   0.516   4.531 -0.3790  0.0513  0.1245
 5249TIP3    H215712   0.826   0.508   4.651 -1.1733  0.3449  0.7658
 5250TIP3   OH215713   5.381   4.658   4.415 -0.4690 -0.8003  0.0588
 5250TIP3    H115714   5.342   4.572   4.398 -2.4080 -0.0629  0.4819
 5250TIP3    H215715   5.338   4.688   4.495 -0.3703  0.8713 -0.4822
 5251TIP3   OH215716   1.118   0.150   1.956  0.0902 -0.1702 -0.3207
 5251TIP3    H115717   1.202   0.178   1.920 -0.4006  0.4561 -1.0013
 5251TIP3    H215718   1.118   0.055   1.944  1.5195 -0.4439  1.4713
 5252TIP3   OH215719   4.980   5.533   1.968  0.0710 -0.4320  0.4105
 5252TIP3    H115720   4.913   5.598   1.947  1.0907  0.7466  0.6935
 5252TIP3    H215721   4.966   5.514   2.061 -0.4555 -0.9022  0.2402
 5253TIP3   OH215722   3.594   1.111   4.690 -0.0933  0.5576 -0.6139
 5253TIP3    H115723   3.560   1.022   4.689  1.5416 -0.1100  0.1935
 5253TIP3    H215724   3.644   1.119   4.609  0.0153  0.6410 -0.5393
 5254TIP3   OH215725   6.064   2.379   3.079 -0.0194  0.3538  0.2063
 5254TIP3    H115726   6.058   2.474   3.095 -0.2686  0.3454  0.1739
 5254TIP3    H215727   6.023   2.340   3.156  0.2835  0.2658  0.3224
 5255TIP3   OH215728   6.779   4.031   3.697 -0.3755 -0.2278  0.2135
 5255TIP3    H115729   6.736   4.023   3.611  0.0834 -2.2175  0.1105
 5255TIP3    H215730   6.728   3.974   3.754 -0.6988  1.1205  1.3034
 5256TIP3   OH215731   3.932   6.360   5.858 -0.1504  0.3277 -0.1676
 5256TIP3    H115732   3.881   6.401   5.787  0.4068  2.4594  0.5924
 5256TIP3    H215733   4.000   6.424   5.878  1.1105 -1.2460  0.7728
 5257TIP3   OH215734   0.935   1.203   3.372  0.8816 -0.5825 -0.1388
 5257TIP3    H115735   0.915   1.133   3.311 -2.1321 -0.1968  0.2304
 5257TIP3    H215736   0.986   1.161   3.442 -0.9531 -2.5093  0.1490
 5258TIP3   OH215737   3.135   3.939   2.019  0.2169  0.0579  0.2822
 5258TIP3    H115738   3.082   4.013   2.050  1.9158  1.7461 -0.6531
 5258TIP3    H215739   3.224   3.961   2.045  0.6479 -2.2562  0.9660
 5259TIP3   OH215740   4.400   1.566   5.543 -0.0673  0.1185 -0.1389
 5259TIP3    H115741   4.461   1.526   5.605  0.9168 -0.0558 -1.1825
 5259TIP3    H215742   4.313   1.536   5.571  0.3658 -0.0237  1.0779
 5260TIP3   OH215743   6.603   1.180   1.335  0.2498 -0.2025 -0.0828
 5260TIP3    H115744   6.515   1.192   1.301  0.1857 -0.3952  0.0163
 5260TIP3    H215745   6.604   1.091   1.368  0.2537  0.0479  0.6033
 5261TIP3   OH215746   2.959   2.772   2.943  0.1955 -0.5579 -0.2190
 5261TIP3    H115747   3.036   2.828   2.937 -0.0587 -0.1887 -0.1145
 5261TIP3    H215748   2.966   2.730   3.028  0.3892 -0.6819 -0.2975
 5262TIP3   OH215749   5.176   5.981   0.537  0.1785 -0.5522 -0.2576
 5262TIP3    H115750   5.207   6.049   0.596  0.2342  0.4971 -1.4497
 5262TIP3    H215751   5.256   5.947   0.496  0.0616 -0.4486 -0.5802
 5263TIP3   OH215752   1.699   5.239   3.744 -0.6485  1.0570 -0.4108
 5263TIP3    H115753   1.710   5.145   3.727 -1.0831  1.1987 -1.5577
 5263TIP3    H215754   1.724   5.281   3.662 -0.2440  1.9744  0.1600
 5264TIP3   OH215755   2.784   0.695   4.125 -0.3571  0.0244  0.6471
 5264TIP3    H115756   2.815   0.744   4.048 -1.2006  0.1267  0.3695
 5264TIP3    H215757   2.752   0.612   4.090  0.4923 -0.4910  1.0507
 5265TIP3   OH215758   0.590   6.572   0.917  0.3580  0.2233  0.1490
 5265TIP3    H115759   0.528   6.637   0.951 -0.0284 -0.5523  0.9728
 5265TIP3    H215760   0.615   6.521   0.994 -0.1424 -1.2678 -0.6459
 5266TIP3   OH215761   2.317   4.842   1.833  0.5709  0.7129 -0.4154
 5266TIP3    H115762   2.364   4.880   1.759  0.1502  0.4240 -0.8308
 5266TIP3    H215763   2.229   4.825   1.801  0.2182  1.1015  0.3194
 5267TIP3   OH215764   4.745   5.557   0.384 -0.0979  0.8192  0.3890
 5267TIP3    H115765   4.796   5.629   0.348  0.5221  0.4021  0.4332
 5267TIP3    H215766   4.703   5.516   0.308  1.6452 -0.4053  0.0450
 5268TIP3   OH215767   6.075   0.863   1.835  0.5654  0.0494 -0.4215
 5268TIP3    H115768   6.108   0.774   1.843 -2.7264 -1.4425 -1.7997
 5268TIP3    H215769   6.152   0.918   1.853  2.3340 -2.9294  2.4439
 5269TIP3   OH215770   3.745   4.959   2.289 -0.1407  0.4244  0.0534
 5269TIP3    H115771   3.731   4.930   2.198  0.9569 -1.2540  0.3651
 5269TIP3    H215772   3.748   5.054   2.284 -2.8472  0.5387 -1.2405
 5270TIP3   OH215773   2.155   2.029   2.776 -0.3088 -1.0011 -0.4070
 5270TIP3    H115774   2.225   2.093   2.761  0.0918 -0.9606  1.4625
 5270TIP3    H215775   2.134   1.996   2.688  1.5539 -0.5031 -1.0859
 5271TIP3   OH215776   5.802   5.956   3.041  0.4259 -0.2135 -0.0477
 5271TIP3    H115777   5.859   5.993   2.973  1.3619 -2.6152 -0.6569
 5271TIP3    H215778   5.804   5.862   3.026 -1.0593 -0.6494  2.0294
 5272TIP3   OH215779   4.665   2.119   0.712 -0.2936 -0.5903 -0.3889
 5272TIP3    H115780   4.588   2.132   0.767 -0.3367 -1.0738 -0.3315
 5272TIP3    H215781   4.731   2.178   0.748 -0.1151 -1.3457  0.5793
 5273TIP3   OH215782   5.701   0.374   0.539  0.1960 -0.1461  0.1051
 5273TIP3    H115783   5.676   0.411   0.454  1.6906  0.6703 -0.0180
 5273TIP3    H215784   5.663   0.286   0.539  0.4894 -0.3007 -1.5788
 5274TIP3   OH215785   5.072   4.200   0.923  0.2322 -0.2254  0.1178
 5274TIP3    H115786   5.067   4.154   1.007  2.0928  0.7142  0.8012
 5274TIP3    H215787   5.138   4.152   0.873  0.3980  0.2463 -0.1215
 5275TIP3   OH215788   4.226   4.196   3.624 -0.2332  0.3677 -0.2459
 5275TIP3    H115789   4.230   4.119   3.681 -0.4541  1.1624  0.8842
 5275TIP3    H215790   4.158   4.176   3.560  1.0167 -1.1446 -1.1904
 5276TIP3   OH215791   5.548   0.359   4.792  0.2700  0.2115 -0.3138
 5276TIP3    H115792   5.553   0.328   4.883 -0.5094  1.5088  0.2111
 5276TIP3    H215793   5.639   0.371   4.766  0.5771 -1.6381 -0.2663
 5277TIP3   OH215794   6.397   5.604   0.377  0.0503 -0.0659 -0.1671
 5277TIP3    H115795   6.414   5.638   0.464  2.1296 -0.6330 -0.2875
 5277TIP3    H215796   6.379   5.511   0.390  0.3363 -0.1465 -0.3241
 5278TIP3   OH215797   6.865   6.167   3.189  0.4178  0.0038 -0.1737
 5278TIP3    H115798   6.812   6.219   3.128  0.2000 -0.0484 -0.0287
 5278TIP3    H215799   6.803   6.136   3.254  0.4139 -1.0591 -0.6678
 5279TIP3   OH215800   2.105   1.306   4.182 -0.1173 -0.0799 -0.9353
 5279TIP3    H115801   2.125   1.235   4.122 -0.4378 -1.6620  0.7482
 5279TIP3    H215802   2.077   1.263   4.263 -1.4458  1.9535 -0.2122
 5280TIP3   OH215803   3.843   3.190   2.716  0.0414  0.3268  0.4590
 5280TIP3    H115804   3.916   3.248   2.738 -0.4120  0.8650  0.5940
 5280TIP3    H215805   3.879   3.102   2.721  1.0685  0.6369 -0.9624
 5281TIP3   OH215806   0.994   4.480   1.386 -0.1665  0.0527 -0.4689
 5281TIP3    H115807   1.029   4.544   1.324  0.6047 -1.4646 -1.7031
 5281TIP3    H215808   1.003   4.520   1.472 -2.9612  3.0387 -1.3669
 5282TIP3   OH215809   1.677   4.946   1.732  0.0467 -0.2748 -0.5795
 5282TIP3    H115810   1.602   4.916   1.681 -0.9828 -0.5950  1.0632
 5282TIP3    H215811   1.643   4.957   1.820  0.9262  3.4306 -0.5287
 5283TIP3   OH215812   0.497   2.391   5.382  0.2223  0.2842  0.3375
 5283TIP3    H115813   0.426   2.378   5.320  0.7459 -0.6419 -0.0922
 5283TIP3    H215814   0.469   2.464   5.437 -2.0304 -1.3433  1.5186
 5284TIP3   OH215815   4.964   2.261   4.071  0.3347  0.0919 -0.0433
 5284TIP3    H115816   4.897   2.253   4.003 -1.5312  2.1908  1.3920
 5284TIP3    H215817   4.974   2.172   4.106 -0.5630 -0.5338 -1.3165
 5285TIP3   OH215818   0.878   5.209   5.417 -0.0272  0.8717  0.0368
 5285TIP3    H115819   0.825   5.141   5.458  1.4537 -0.4593 -0.1512
 5285TIP3    H215820   0.864   5.199   5.323 -2.6171  3.2586  0.0378
 5286TIP3   OH215821   3.573   0.344   3.187 -0.3636  0.0158  0.6165
 5286TIP3    H115822   3.574   0.437   3.163 -1.0090 -0.2429 -0.5148
 5286TIP3    H215823   3.650   0.333   3.243 -1.0059  1.4859  1.8393
 5287TIP3   OH215824   1.679   1.260   5.344  0.2578 -0.4278 -0.2701
 5287TIP3    H115825   1.773   1.254   5.329  0.2443  1.9745 -1.7288
 5287TIP3    H215826   1.672   1.279   5.438  1.3334  0.4889 -0.3415
 5288TIP3   OH215827   4.672   3.735   0.502  0.0484  0.2998  0.3368
 5288TIP3    H115828   4.766   3.717   0.499  0.1596  0.3764  2.0249
 5288TIP3    H215829   4.664   3.828   0.478  0.5566  0.6084  1.2965
 5289TIP3   OH215830   1.062   6.624   0.277  0.6753  0.3041  0.5658
 5289TIP3    H115831   1.038   6.714   0.297  0.7293  0.7908 -1.3513
 5289TIP3    H215832   0.979   6.581   0.258  0.8042  0.5138 -0.5420
 5290TIP3   OH215833   2.278   5.422   5.002  0.4994  0.0456  0.1979
 5290TIP3    H115834   2.300   5.437   5.093  1.1092  0.9875 -0.0971
 5290TIP3    H215835   2.297   5.329   4.988  2.2989  0.3395  0.5108
 5291TIP3   OH215836   0.243   5.480   1.117 -0.2453  0.1665 -0.4077
 5291TIP3    H115837   0.231   5.397   1.164 -2.2727 -0.1120 -1.2882
 5291TIP3    H215838   0.234   5.457   1.025  0.0360  1.2496 -0.7228
 5292TIP3   OH215839   2.331   1.157   4.535 -0.1839 -0.0316 -0.1876
 5292TIP3    H115840   2.275   1.108   4.474  1.0946 -0.1772 -1.3020
 5292TIP3    H215841   2.282   1.236   4.555 -1.8192 -1.2415  0.7766
 5293TIP3   OH215842   4.323   0.061   0.960  0.7448  0.2026  1.0060
 5293TIP3    H115843   4.366   0.085   1.042 -1.4212 -0.8256  2.5647
 5293TIP3    H215844   4.234   0.034   0.987  0.6671 -2.4126 -1.3732
 5294TIP3   OH215845   0.155   2.555   5.640  0.1448 -0.4676  0.1737
 5294TIP3    H115846   0.138   2.617   5.569 -1.6584 -0.5713  0.4584
 5294TIP3    H215847   0.173   2.472   5.596 -1.3519 -0.6238 -0.1974
 5295TIP3   OH215848   0.025   1.186   0.537 -0.5800 -0.0226 -0.0776
 5295TIP3    H115849   0.113   1.226   0.537 -0.3751 -0.4541  0.5415
 5295TIP3    H215850  -0.018   1.225   0.613 -0.4832 -0.7420  0.3537
 5296TIP3   OH215851   0.030   5.551   5.871 -0.0350 -0.3805 -0.1401
 5296TIP3    H115852   0.112   5.599   5.861  0.6884 -1.9868 -2.6947
 5296TIP3    H215853  -0.006   5.545   5.783 -2.0749 -1.1646  0.6804
 5297TIP3   OH215854   5.370   3.459   5.160 -0.2270  0.3512  0.4903
 5297TIP3    H115855   5.402   3.494   5.243  0.7448  1.0029 -0.1459
 5297TIP3    H215856   5.427   3.497   5.094  0.4976 -1.9441 -0.2928
 5298TIP3   OH215857   6.057   5.291   0.699  0.0702  0.1986 -0.0877
 5298TIP3    H115858   6.103   5.225   0.649 -0.7662  1.9430 -3.4196
 5298TIP3    H215859   6.046   5.252   0.786  0.6611 -3.4805 -1.5051
 5299TIP3   OH215860   3.850   6.297   3.641  0.1798 -0.4802 -0.6477
 5299TIP3    H115861   3.916   6.361   3.665  1.1673 -1.1994 -1.3793
 5299TIP3    H215862   3.892   6.242   3.575 -0.6479 -1.8448 -0.0892
 5300TIP3   OH215863   2.239   3.162   0.976 -0.6551  0.0429 -0.0869
 5300TIP3    H115864   2.185   3.237   0.949 -0.2683 -0.2183 -1.7068
 5300TIP3    H215865   2.176   3.094   1.000 -1.0154  0.5246  0.3561
 5301TIP3   OH215866   5.527   5.756   3.951  0.5099  0.1492 -0.1562
 5301TIP3    H115867   5.556   5.675   3.992  1.2336 -0.1000 -1.1194
 5301TIP3    H215868   5.576   5.761   3.869  1.0163  1.9070  0.1957
 5302TIP3   OH215869   4.718   2.417   3.888  0.0586 -0.0005 -0.2135
 5302TIP3    H115870   4.793   2.422   3.829 -0.2111  1.7242 -0.4750
 5302TIP3    H215871   4.688   2.508   3.897 -0.9065 -0.4188  1.2954
 5303TIP3   OH215872   5.549   5.146   3.452 -0.2837 -0.5176  0.2539
 5303TIP3    H115873   5.619   5.126   3.515  0.4958  1.1612 -0.0287
 5303TIP3    H215874   5.592   5.146   3.367 -0.4603  1.1032  0.1293
 5304TIP3   OH215875   0.834   3.553   1.921  0.4426 -0.1477  0.1760
 5304TIP3    H115876   0.787   3.625   1.881 -0.0715 -1.5093 -1.7915
 5304TIP3    H215877   0.913   3.542   1.867  1.2001 -0.2183  1.2542
 5305TIP3   OH215878   6.043   1.553   3.423 -0.0517  0.0555 -0.1471
 5305TIP3    H115879   5.960   1.561   3.375 -0.3582 -1.0694  0.1552
 5305TIP3    H215880   6.028   1.602   3.504 -1.2036 -1.8146  0.8440
 5306TIP3   OH215881   1.534   5.181   3.002 -0.2996  0.3138  0.3769
 5306TIP3    H115882   1.467   5.136   3.055  0.1698  1.3495  1.9164
 5306TIP3    H215883   1.509   5.163   2.912 -1.4485 -1.0791  0.9332
 5307TIP3   OH215884   3.892   5.280   0.771 -0.3791  0.1980 -0.3532
 5307TIP3    H115885   3.953   5.340   0.813  1.0086 -0.5350 -1.2342
 5307TIP3    H215886   3.808   5.325   0.774 -0.4024  0.1784  3.1702
 5308TIP3   OH215887   4.997   3.866   3.718  0.1861  0.0834  0.1573
 5308TIP3    H115888   5.068   3.859   3.654  0.3558  1.0741  0.2198
 5308TIP3    H215889   5.039   3.907   3.794 -0.3850  0.3777  0.3118
 5309TIP3   OH215890   5.960   1.184   4.845  0.4362 -0.2520 -0.5829
 5309TIP3    H115891   5.885   1.125   4.836  0.6311 -0.2903 -2.3001
 5309TIP3    H215892   6.032   1.127   4.872  0.0019 -0.3083  0.5208
 5310TIP3   OH215893   1.517   1.445   1.454  0.0768 -0.0892 -0.3945
 5310TIP3    H115894   1.585   1.382   1.431 -0.3674 -0.6478 -0.2159
 5310TIP3    H215895   1.563   1.517   1.496  0.5727 -0.4058 -0.3918
 5311TIP3   OH215896   6.614   5.032   3.882 -0.3017  0.4206  0.0691
 5311TIP3    H115897   6.586   4.949   3.920  0.2937  0.6708  1.0876
 5311TIP3    H215898   6.584   5.098   3.945  2.2655  0.7234  1.0910
 5312TIP3   OH215899   3.708   2.406   5.758 -0.5636  0.1743  0.8358
 5312TIP3    H115900   3.690   2.440   5.671  0.5737 -3.6956 -1.1384
 5312TIP3    H215901   3.796   2.437   5.779  0.4888 -1.4381 -0.9363
 5313TIP3   OH215902   3.657   4.939   4.039 -0.1530  0.5248  0.1925
 5313TIP3    H115903   3.679   4.923   4.131  0.0963 -0.8381 -0.0881
 5313TIP3    H215904   3.739   4.923   3.992 -0.6419 -0.2413 -0.4109
 5314TIP3   OH215905   1.055   6.649   3.789 -0.4871  0.2103  0.7328
 5314TIP3    H115906   1.011   6.611   3.712  2.1413 -1.0570 -0.2741
 5314TIP3    H215907   0.985   6.691   3.838 -2.6467 -0.9080 -1.1849
 5315TIP3   OH215908   5.857   0.814   5.202 -0.2471 -0.5814 -0.8482
 5315TIP3    H115909   5.886   0.898   5.236 -0.7753 -0.5439 -0.4785
 5315TIP3    H215910   5.890   0.750   5.264  0.1438 -0.6532 -1.1231
 5316TIP3   OH215911   0.715   1.118   4.813 -0.6915 -0.8336 -0.7121
 5316TIP3    H115912   0.664   1.191   4.778 -0.4919 -0.6665 -0.6534
 5316TIP3    H215913   0.662   1.084   4.886  0.4454  0.9614  1.0303
 5317TIP3   OH215914   4.931   1.567   1.726 -0.2243  0.2424  0.1615
 5317TIP3    H115915   4.883   1.522   1.795 -0.5966  0.4134  0.0207
 5317TIP3    H215916   4.924   1.510   1.650 -0.6280  0.4974  0.0052
 5318TIP3   OH215917   2.417   0.226   0.140 -0.1947 -0.5873 -0.0347
 5318TIP3    H115918   2.474   0.281   0.087  1.2428 -0.2035  1.8463
 5318TIP3    H215919   2.440   0.136   0.114  3.3270 -0.6184  2.4956
 5319TIP3   OH215920   4.989   4.096   4.235  0.7115  0.2098 -0.1445
 5319TIP3    H115921   4.912   4.075   4.286  0.3557  0.3332 -0.6211
 5319TIP3    H215922   4.956   4.144   4.159  1.0376 -1.3045 -1.3120
 5320TIP3   OH215923   2.952   5.315   1.466  0.3687  0.2155 -0.4334
 5320TIP3    H115924   2.867   5.289   1.430  1.6533 -0.1153 -3.4953
 5320TIP3    H215925   2.991   5.371   1.399  2.5113  0.4984  0.9473
 5321TIP3   OH215926   6.811   5.592   3.948  0.7242 -0.2492  0.4067
 5321TIP3    H115927   6.717   5.594   3.966  0.8985  1.6645  1.3078
 5321TIP3    H215928   6.822   5.520   3.886 -1.2267 -0.9660  0.8343
 5322TIP3   OH215929   3.350   2.343   4.708  0.6893  0.1876  0.0045
 5322TIP3    H115930   3.394   2.384   4.634  0.6106 -0.0289 -0.1635
 5322TIP3    H215931   3.291   2.280   4.668 -0.9428  1.5562  0.1187
 5323TIP3   OH215932   0.346   2.625   2.689 -0.3090  0.3048 -0.3325
 5323TIP3    H115933   0.368   2.702   2.741  0.0116  0.9021 -1.3083
 5323TIP3    H215934   0.331   2.555   2.753  1.6636  0.5731  0.4955
 5324TIP3   OH215935   5.028   5.708   4.540  0.1835  0.1549 -0.6553
 5324TIP3    H115936   5.038   5.804   4.545  0.1008  0.1823 -0.9749
 5324TIP3    H215937   5.118   5.675   4.530  0.2154  0.1967 -0.5062
 5325TIP3   OH215938   5.746   6.272   2.891 -0.1661 -0.3703 -0.8094
 5325TIP3    H115939   5.821   6.316   2.930 -0.2133 -0.0555 -1.0715
 5325TIP3    H215940   5.784   6.196   2.846 -0.0741 -0.5401 -0.4466
 5326TIP3   OH215941   5.549   5.206   4.994 -0.4307 -0.0133  0.3648
 5326TIP3    H115942   5.569   5.289   5.037 -2.8391  1.0004 -0.2889
 5326TIP3    H215943   5.458   5.216   4.965 -1.0019 -3.1197  0.8014
 5327TIP3   OH215944   5.335   5.052   0.497  0.0585 -0.2002  0.1202
 5327TIP3    H115945   5.412   5.010   0.533  0.0980  0.4490  0.8133
 5327TIP3    H215946   5.283   4.981   0.459  0.8553 -0.6690 -0.0961
 5328TIP3   OH215947   6.593   0.466   1.071  0.4494  0.3251 -0.0046
 5328TIP3    H115948   6.512   0.461   1.019 -0.1720 -0.6238  1.0160
 5328TIP3    H215949   6.572   0.527   1.142  0.5772 -0.0287  0.3406
 5329TIP3   OH215950   4.716   5.252   4.029  0.2044  0.5570 -0.4936
 5329TIP3    H115951   4.680   5.179   3.978 -0.9028  0.8249 -0.1286
 5329TIP3    H215952   4.675   5.330   3.991 -0.6739  0.7566  0.8000
 5330TIP3   OH215953   1.000   1.854   3.853  0.1712 -0.2640 -0.3836
 5330TIP3    H115954   1.028   1.769   3.887  1.7805  0.4595  0.1886
 5330TIP3    H215955   1.060   1.873   3.782 -0.3012  0.3093 -0.6365
 5331TIP3   OH215956   6.614   1.043   2.859  0.6875  0.1008  0.3772
 5331TIP3    H115957   6.589   0.956   2.827 -0.9989  0.8909 -0.5865
 5331TIP3    H215958   6.597   1.040   2.953 -0.2106 -0.3487  0.2108
 5332TIP3   OH215959   4.814   5.740   1.317  0.0354  0.2550 -0.1009
 5332TIP3    H115960   4.783   5.736   1.407 -1.0257 -0.9991 -0.4915
 5332TIP3    H215961   4.812   5.649   1.286 -2.0709  0.8801 -2.1543
 5333TIP3   OH215962   6.260   1.830   3.276  0.4617  0.2066  0.0400
 5333TIP3    H115963   6.283   1.742   3.307  0.1445 -0.1470 -0.6980
 5333TIP3    H215964   6.339   1.862   3.233  0.2351 -0.1809 -0.6845
 5334TIP3   OH215965   6.954   3.437   2.164 -0.6673  0.1391 -0.4499
 5334TIP3    H115966   6.953   3.426   2.069 -1.0610 -0.3900 -0.3887
 5334TIP3    H215967   6.887   3.503   2.181  1.9963  3.1628 -0.8571
 5335TIP3   OH215968   3.864   1.599   1.792  0.0988 -0.1346  0.1438
 5335TIP3    H115969   3.778   1.558   1.787  0.5830 -1.2443  0.4935
 5335TIP3    H215970   3.925   1.530   1.765  1.0603 -0.0934  2.0183
 5336TIP3   OH215971   2.365   6.345   2.368  0.1369 -0.3084 -0.4907
 5336TIP3    H115972   2.289   6.318   2.316  1.4259  1.5646 -3.6112
 5336TIP3    H215973   2.409   6.262   2.391 -0.4881 -1.2351 -2.4449
 5337TIP3   OH215974   0.904   4.324   2.701  0.0046  0.8162  0.2878
 5337TIP3    H115975   0.898   4.259   2.772 -0.3587 -0.9286 -1.2528
 5337TIP3    H215976   0.832   4.385   2.718 -1.0218 -0.4326  0.6291
 5338TIP3   OH215977   5.848   3.260   0.234  0.1173  0.5470 -0.3461
 5338TIP3    H115978   5.855   3.248   0.139 -2.0964  1.4980 -0.6911
 5338TIP3    H215979   5.938   3.253   0.265  1.0620  1.2753 -2.6473
 5339TIP3   OH215980   0.067   3.077   5.609  0.0144  0.4893 -0.1937
 5339TIP3    H115981   0.084   3.022   5.685 -0.6328  1.3845  0.6151
 5339TIP3    H215982   0.117   3.036   5.538  0.7569 -0.2685  0.7428
 5340TIP3   OH215983   0.188   3.078   4.472 -0.9152 -0.2128  0.1824
 5340TIP3    H115984   0.273   3.071   4.429  0.8294 -0.7844  3.4078
 5340TIP3    H215985   0.149   3.158   4.437  2.1920  1.5894  0.5388
 5341TIP3   OH215986   0.255   1.439   1.971  0.3674  0.0492  0.1728
 5341TIP3    H115987   0.220   1.410   1.887  0.9712 -0.8990  0.2326
 5341TIP3    H215988   0.189   1.499   2.005 -0.2919 -0.2305 -0.5823
 5342TIP3   OH215989   1.168   2.552   2.973 -0.4628  0.5219  0.5645
 5342TIP3    H115990   1.234   2.540   3.042 -1.0314 -0.4780  0.9477
 5342TIP3    H215991   1.200   2.628   2.923  2.1606 -1.2288 -0.6521
 5343TIP3   OH215992   3.598   0.513   3.463  0.0173  0.2336 -0.3969
 5343TIP3    H115993   3.620   0.429   3.504 -0.0002  0.1041 -0.6514
 5343TIP3    H215994   3.681   0.560   3.460 -0.4330  1.3430  2.2484
 5344TIP3   OH215995   3.521   0.057   4.075  0.3519  0.2317  0.3257
 5344TIP3    H115996   3.496   0.080   4.165  2.7857 -0.6841  1.3186
 5344TIP3    H215997   3.452  -0.001   4.045 -0.7882  0.9768  1.3813
 5345TIP3   OH215998   4.133   1.951   2.983  0.1144 -0.4641 -0.2135
 5345TIP3    H115999   4.159   2.035   2.945  2.5533  0.1760  2.5310
 5345TIP3    H216000   4.099   1.901   2.908  2.0369  1.6276 -2.6803
 5346TIP3   OH216001   0.382   4.786   4.936 -0.1661 -0.3689  0.1992
 5346TIP3    H116002   0.411   4.875   4.918  0.1432 -0.1799  1.6014
 5346TIP3    H216003   0.439   4.731   4.882  0.3679  0.2066  0.1761
 5347TIP3   OH216004   0.343   5.715   4.234  0.5386 -0.3446 -0.3326
 5347TIP3    H116005   0.279   5.733   4.303  2.1573 -1.2461  1.4832
 5347TIP3    H216006   0.324   5.625   4.206  0.8476 -0.5385  0.0637
 5348TIP3   OH216007   1.727   0.285   3.151  0.2581  0.1762 -0.8502
 5348TIP3    H116008   1.707   0.363   3.099  2.2093  0.8078 -0.7578
 5348TIP3    H216009   1.798   0.312   3.209  1.9382 -1.9714 -1.7211
 5349TIP3   OH216010   2.516   4.694   0.698 -0.2511  0.5072 -0.0037
 5349TIP3    H116011   2.491   4.700   0.606 -0.1482 -1.4430 -0.2012
 5349TIP3    H216012   2.604   4.655   0.697 -0.6113 -0.3941  0.9149
 5350TIP3   OH216013   5.896   0.899   3.720  0.0197 -0.2926 -0.1892
 5350TIP3    H116014   5.877   0.852   3.802 -0.9578 -1.1418 -0.8671
 5350TIP3    H216015   5.918   0.830   3.658  1.5301  0.4098 -0.4674
 5351TIP3   OH216016   0.557   1.921   4.907  0.2754  0.4350 -0.5925
 5351TIP3    H116017   0.510   1.899   4.987  0.5339  3.3288  0.4580
 5351TIP3    H216018   0.649   1.904   4.928  0.1659 -0.9816 -1.1264
 5352TIP3   OH216019   5.872   2.044   0.862  0.5071  0.7372 -0.0030
 5352TIP3    H116020   5.887   2.034   0.768  2.1691  1.1486  0.1880
 5352TIP3    H216021   5.897   2.135   0.881 -0.0175  0.7245  0.7957
 5353TIP3   OH216022   2.283   3.764   0.371 -0.0755  0.7766  0.6638
 5353TIP3    H116023   2.339   3.770   0.448  0.3100 -0.6547  0.5208
 5353TIP3    H216024   2.315   3.833   0.312  2.4634 -0.8331  0.0230
 5354TIP3   OH216025   3.981   0.692   3.154 -0.7434 -0.2356 -0.1553
 5354TIP3    H116026   3.991   0.786   3.168  0.0434 -0.2817 -0.3613
 5354TIP3    H216027   4.025   0.652   3.229 -0.4233 -0.4422 -0.4519
 5355TIP3   OH216028   3.226   2.113   5.330 -0.2652  0.1945 -0.3412
 5355TIP3    H116029   3.320   2.134   5.326 -0.6496  2.4721  1.1363
 5355TIP3    H216030   3.223   2.029   5.376  1.0309  0.0774 -0.4100
 5356TIP3   OH216031   1.106   4.750   5.429 -0.0340 -0.1650  0.3892
 5356TIP3    H116032   1.035   4.710   5.380  0.4088  0.3108 -0.6621
 5356TIP3    H216033   1.179   4.755   5.367  0.6935  0.0197  1.2286
 5357TIP3   OH216034   2.603   0.415   1.835  0.0044  0.0075 -0.2960
 5357TIP3    H116035   2.524   0.424   1.888 -0.3051 -1.1918 -0.5179
 5357TIP3    H216036   2.648   0.339   1.872  0.4204 -0.0657 -0.9401
 5358TIP3   OH216037   0.886   5.226   5.146 -0.1302 -1.0675  0.2126
 5358TIP3    H116038   0.923   5.139   5.156 -1.3183 -1.5417  0.6609
 5358TIP3    H216039   0.901   5.249   5.054  2.7235 -0.5293  0.7252
 5359TIP3   OH216040   6.917   4.230   4.017  0.7507 -0.3448  0.3687
 5359TIP3    H116041   6.925   4.135   4.006 -2.5881 -0.6456 -0.4773
 5359TIP3    H216042   6.851   4.241   4.085 -1.4051  1.2058 -1.7794
 5360TIP3   OH216043   4.666   3.885   1.700  0.0171 -0.5620  0.5147
 5360TIP3    H116044   4.685   3.970   1.740  1.9432 -0.1076 -1.2032
 5360TIP3    H216045   4.741   3.868   1.643 -0.8297 -2.9316  0.0028
 5361TIP3   OH216046   3.121   4.127   5.409 -0.1281 -0.1891 -0.3884
 5361TIP3    H116047   3.099   4.056   5.348 -0.2900  0.0058 -0.5563
 5361TIP3    H216048   3.198   4.169   5.370  0.7238 -1.0187  0.3156
 5362TIP3   OH216049   7.101   3.727   1.899  0.0784  0.6718  0.0666
 5362TIP3    H116050   7.048   3.767   1.968 -1.0717  0.3898 -0.6310
 5362TIP3    H216051   7.151   3.659   1.944  0.2237  1.2673  0.8298
 5363TIP3   OH216052   3.383   2.663   3.703  0.8268 -0.0296 -0.1675
 5363TIP3    H116053   3.322   2.597   3.670  0.6747  0.3527 -0.6635
 5363TIP3    H216054   3.362   2.742   3.653 -0.6265  1.0719  2.0427
 5364TIP3   OH216055   3.728   0.135   0.250  0.2234 -0.3693  0.4216
 5364TIP3    H116056   3.764   0.217   0.284 -0.1455 -0.2366  0.4931
 5364TIP3    H216057   3.726   0.147   0.155  0.5938 -0.4726  0.3961
 5365TIP3   OH216058   1.984   2.967   0.206  0.0992 -0.4082  0.2013
 5365TIP3    H116059   2.034   3.048   0.194 -1.2396  0.3243 -0.5164
 5365TIP3    H216060   2.040   2.899   0.168 -0.1085  0.6158 -2.0939
 5366TIP3   OH216061   3.804   3.723   5.056 -0.0549  0.3938 -0.1438
 5366TIP3    H116062   3.872   3.677   5.106  1.4284  2.4662 -0.1151
 5366TIP3    H216063   3.729   3.724   5.115 -0.4397 -2.5235 -0.4200
 5367TIP3   OH216064   6.331   1.335   3.410  0.5847 -0.8990  0.2460
 5367TIP3    H116065   6.365   1.324   3.499  2.2535 -2.1931 -0.4970
 5367TIP3    H216066   6.400   1.383   3.364  0.7522 -2.2201 -0.9221
 5368TIP3   OH216067   4.033   1.814   0.573 -0.4712 -0.1956 -0.1400
 5368TIP3    H116068   4.080   1.882   0.621 -0.4338 -0.4576  0.2035
 5368TIP3    H216069   3.944   1.847   0.564 -0.5786 -0.3043  0.4543
 5369TIP3   OH216070   4.045   0.597   0.673  0.1563  0.2885  0.0207
 5369TIP3    H116071   4.038   0.572   0.765  0.0916 -1.9443 -0.5259
 5369TIP3    H216072   4.129   0.560   0.645 -0.0772  0.4659 -0.9416
 5370TIP3   OH216073   1.238   5.216   2.295  0.5816  0.2795 -0.1348
 5370TIP3    H116074   1.333   5.208   2.286  0.4379 -2.4267 -0.1968
 5370TIP3    H216075   1.203   5.164   2.222 -1.0063  2.2150 -0.8349
 5371TIP3   OH216076   5.570   2.126   4.232 -0.4558  0.0457  0.1949
 5371TIP3    H116077   5.530   2.205   4.195 -1.3474  0.7533  2.5071
 5371TIP3    H216078   5.643   2.158   4.284  0.8064 -0.9286 -0.9133
 5372TIP3   OH216079   5.017   5.086   2.629 -0.2860 -0.6403  0.3203
 5372TIP3    H116080   5.068   5.049   2.701  1.4997 -0.2326 -0.6789
 5372TIP3    H216081   5.023   5.180   2.641  1.6830 -0.4776 -1.3688
 5373TIP3   OH216082   6.336   5.268   1.991 -0.2290 -0.5622  0.2313
 5373TIP3    H116083   6.298   5.342   2.039  2.4586 -0.6192  2.7658
 5373TIP3    H216084   6.263   5.207   1.980 -1.6098  0.6904  1.8460
 5374TIP3   OH216085   1.924   4.443   0.519 -0.8416  0.2688  0.5144
 5374TIP3    H116086   1.975   4.491   0.455  2.3669 -2.8537  0.4379
 5374TIP3    H216087   1.966   4.460   0.602 -3.0727  1.8008  1.4345
 5375TIP3   OH216088   6.448   4.542   2.887  0.7091  0.2215 -0.0943
 5375TIP3    H116089   6.466   4.463   2.836  1.0659  0.9624 -1.1365
 5375TIP3    H216090   6.456   4.614   2.825 -0.4886  1.0274  0.6264
 5376TIP3   OH216091   1.555   5.263   0.544  0.2058  0.2202  0.6315
 5376TIP3    H116092   1.586   5.182   0.585 -0.3202  0.5822  1.7828
 5376TIP3    H216093   1.474   5.284   0.591  1.4667  2.6039  1.9266
 5377TIP3   OH216094   1.515   5.647   5.465 -0.2146  0.6510  0.0705
 5377TIP3    H116095   1.560   5.602   5.393 -0.2092  0.2605  0.3115
 5377TIP3    H216096   1.557   5.733   5.470  0.7639  0.1670  0.5242
 5378TIP3   OH216097   5.074   6.335   5.243 -0.2936 -0.0433  0.1692
 5378TIP3    H116098   5.034   6.290   5.169  1.1143 -0.3283 -0.4597
 5378TIP3    H216099   5.022   6.308   5.319 -3.9711  2.8801 -0.9825
 5379TIP3   OH216100   0.647   2.829   1.807  0.1644 -0.1731 -0.0279
 5379TIP3    H116101   0.677   2.866   1.891 -2.1682 -0.0199  0.8154
 5379TIP3    H216102   0.713   2.763   1.786  0.2805 -1.0039  2.5092
 5380TIP3   OH216103   3.975   3.241   3.490 -0.1319 -0.0569  0.9480
 5380TIP3    H116104   3.941   3.317   3.536 -1.5094  1.0022 -1.5752
 5380TIP3    H216105   3.918   3.169   3.518 -2.1118  0.9230 -0.3022
 5381TIP3   OH216106   0.694   0.866   2.843 -0.0067  0.3711  0.0435
 5381TIP3    H116107   0.726   0.932   2.781  0.8114 -0.7926 -0.8319
 5381TIP3    H216108   0.652   0.800   2.787  2.4987 -1.7196  0.4313
 5382TIP3   OH216109   4.465   4.376   3.325 -0.1356 -0.3945  0.0715
 5382TIP3    H116110   4.381   4.349   3.362  0.5849 -1.4721  0.9846
 5382TIP3    H216111   4.475   4.467   3.351  0.4111 -1.1466  2.7199
 5383TIP3   OH216112   4.883   1.661   3.956 -0.2924  0.0166 -0.0529
 5383TIP3    H116113   4.915   1.744   3.922 -0.0394  0.2817  0.8143
 5383TIP3    H216114   4.796   1.651   3.917 -0.7907  1.2355  0.7046
 5384TIP3   OH216115   0.270   1.583   0.118 -0.0228  0.4237 -0.5023
 5384TIP3    H116116   0.176   1.585   0.099 -0.1145 -0.2470 -0.1753
 5384TIP3    H216117   0.275   1.593   0.213  0.2200  0.2510 -0.4956
 5385TIP3   OH216118   6.418   5.331   5.335  0.1024  0.2644 -0.7070
 5385TIP3    H116119   6.485   5.267   5.311  0.2819 -0.0119  0.4896
 5385TIP3    H216120   6.406   5.383   5.256  2.0312  0.5933 -0.8451
 5386TIP3   OH216121   4.432   1.219   5.896 -0.0002  0.1765 -0.1041
 5386TIP3    H116122   4.454   1.294   5.841 -1.8693 -0.8640 -2.4731
 5386TIP3    H216123   4.500   1.154   5.878  0.7842  0.7151  0.8096
 5387TIP3   OH216124   6.113   0.892   5.365 -0.2983  0.2324  0.4722
 5387TIP3    H116125   6.162   0.968   5.333 -1.6124  0.2571 -1.7619
 5387TIP3    H216126   6.060   0.926   5.437 -1.3951  1.7029 -0.9271
 5388TIP3   OH216127   2.634   1.463   0.357  0.3277 -0.0318  0.4622
 5388TIP3    H116128   2.672   1.379   0.383 -0.8138 -0.6754  0.1543
 5388TIP3    H216129   2.578   1.487   0.430  0.7319  0.5220  0.5932
 5389TIP3   OH216130   0.643   5.442   2.891  0.0523 -0.1448  0.1323
 5389TIP3    H116131   0.701   5.370   2.867  0.9303  0.8516 -0.8016
 5389TIP3    H216132   0.701   5.514   2.914 -0.7097  1.4690 -2.5607
 5390TIP3   OH216133   2.835   1.822   2.972 -0.1098 -0.0398 -0.4209
 5390TIP3    H116134   2.920   1.795   2.938 -0.1345 -0.3602 -0.2409
 5390TIP3    H216135   2.851   1.906   3.014  0.1545 -0.1776 -0.2429
 5391TIP3   OH216136   0.912   5.890   0.005 -0.5069 -0.1884  0.1773
 5391TIP3    H116137   0.977   5.951  -0.030  0.9835 -1.7959  0.0000
 5391TIP3    H216138   0.887   5.928   0.089  0.0774  0.8608 -0.0961
 5392TIP3   OH216139   3.514   2.007   4.725 -0.1357 -0.0892  0.0494
 5392TIP3    H116140   3.521   2.100   4.704  3.7469  0.5928  3.0656
 5392TIP3    H216141   3.445   2.002   4.792  1.0488  1.0739  1.4096
 5393TIP3   OH216142   6.876   1.773   5.884  0.0903 -0.5869 -0.0436
 5393TIP3    H116143   6.910   1.857   5.913 -0.8098  0.0690 -0.8261
 5393TIP3    H216144   6.835   1.792   5.799 -0.1294 -1.8092 -0.2286
 5394TIP3   OH216145   7.065   2.984   2.489  0.3044 -0.2442  0.0118
 5394TIP3    H116146   6.985   2.934   2.477 -0.9755  1.5966  0.4809
 5394TIP3    H216147   7.064   3.011   2.580  0.3544  1.5765 -0.4944
 5395TIP3   OH216148   0.553   4.881   2.967 -0.1973  0.5543 -0.3265
 5395TIP3    H116149   0.464   4.889   3.001  0.0687 -0.1680  0.5579
 5395TIP3    H216150   0.610   4.892   3.044  0.4042 -1.5843 -0.4112
 5396TIP3   OH216151   3.170   0.020   2.422 -0.1299  0.3112 -0.6665
 5396TIP3    H116152   3.187   0.108   2.456 -0.6023 -0.2978  1.2164
 5396TIP3    H216153   3.257  -0.016   2.406  0.0982  0.6220 -0.1401
 5397TIP3   OH216154   1.890   2.371   1.192  0.0549 -0.2032  0.4996
 5397TIP3    H116155   1.873   2.458   1.227 -0.3784  0.2366 -0.7581
 5397TIP3    H216156   1.962   2.337   1.246  1.0599  1.4184  0.2538
 5398TIP3   OH216157   6.305   0.447   1.025  0.5404 -0.7048  0.2771
 5398TIP3    H116158   6.212   0.464   1.040  0.1310 -1.3896 -1.2895
 5398TIP3    H216159   6.317   0.354   1.049  0.7955 -0.6557  0.3493
 5399TIP3   OH216160   3.778   3.414   0.039 -0.2623  0.0277  0.0200
 5399TIP3    H116161   3.845   3.456   0.093 -0.4908  1.0432 -0.4673
 5399TIP3    H216162   3.737   3.486  -0.009  0.9193 -0.9364 -2.6507
 5400TIP3   OH216163   2.976   3.049   0.180  0.3207 -0.2695  0.5068
 5400TIP3    H116164   2.970   2.999   0.261 -0.5615 -2.1497 -0.6654
 5400TIP3    H216165   2.967   2.984   0.110  1.4064  1.2361 -1.1271
 5401TIP3   OH216166   2.591   4.232   5.740  0.3210 -0.1871  0.7002
 5401TIP3    H116167   2.499   4.230   5.714  0.2573  3.3210  0.1734
 5401TIP3    H216168   2.629   4.155   5.697 -2.0222 -0.8648 -0.3626
 5402TIP3   OH216169   4.528   0.171   4.636  0.5055  0.5393  0.0370
 5402TIP3    H116170   4.577   0.246   4.668  1.6350 -0.3771  0.5463
 5402TIP3    H216171   4.594   0.101   4.628 -0.6243 -0.5793  0.1952
 5403TIP3   OH216172   0.531   3.120   1.475 -0.7975 -0.0837 -0.4006
 5403TIP3    H116173   0.470   3.193   1.485  0.0233  0.6190 -0.3897
 5403TIP3    H216174   0.506   3.059   1.545 -1.0350  0.5180  0.0587
 5404TIP3   OH216175   4.111   2.579   2.423 -0.1886  0.6524 -0.6422
 5404TIP3    H116176   4.018   2.565   2.404 -1.2757  3.3310  1.8920
 5404TIP3    H216177   4.128   2.669   2.394  1.0400  0.8962  0.6921
 5405TIP3   OH216178   6.318   5.217   5.018 -0.2097  0.4148  0.0858
 5405TIP3    H116179   6.331   5.237   4.926  0.0085  1.6052  0.3596
 5405TIP3    H216180   6.323   5.121   5.023  1.5317  0.4117 -0.8768
 5406TIP3   OH216181   0.532   0.410   3.524 -0.0781 -0.0318 -0.1240
 5406TIP3    H116182   0.506   0.333   3.473 -0.5471 -0.9467  1.4466
 5406TIP3    H216183   0.451   0.460   3.535 -0.0075  0.0856 -0.1369
 5407TIP3   OH216184   6.348   4.108   0.029 -0.1146  0.1862 -0.4993
 5407TIP3    H116185   6.407   4.034   0.015 -0.5579  0.1940 -2.7700
 5407TIP3    H216186   6.351   4.123   0.124  1.6687 -1.3127 -0.2556
 5408TIP3   OH216187   4.128   3.072   3.950  0.2279  0.0235  0.2991
 5408TIP3    H116188   4.054   3.051   4.007 -0.7723  0.5510 -0.7368
 5408TIP3    H216189   4.165   2.987   3.926 -0.6470 -0.3169  0.0972
 5409TIP3   OH216190   4.381   4.153   5.231  0.3598  0.1693  0.4031
 5409TIP3    H116191   4.291   4.182   5.215  0.1212 -0.1175  1.2026
 5409TIP3    H216192   4.428   4.233   5.255  0.6267  0.5370 -1.2506
 5410TIP3   OH216193   3.489   6.663   1.152 -0.2004  0.2307 -0.2716
 5410TIP3    H116194   3.573   6.633   1.185 -0.7158 -0.1270  0.7223
 5410TIP3    H216195   3.481   6.622   1.066  1.5982  1.9585 -1.3687
 5411TIP3   OH216196   5.410   2.591   0.324 -0.3126 -0.3003 -0.4515
 5411TIP3    H116197   5.418   2.678   0.285  0.1923  1.0270  2.3394
 5411TIP3    H216198   5.424   2.531   0.251  1.1882  1.9377 -2.1758
 5412TIP3   OH216199   5.915   4.965   5.504  0.0715  0.0647 -0.0112
 5412TIP3    H116200   6.009   4.945   5.508  0.5915  2.1498 -0.2848
 5412TIP3    H216201   5.901   5.026   5.576 -0.8847  0.3969 -0.4674
 5413TIP3   OH216202   4.631   2.122   4.328 -0.1443 -0.4319  0.6079
 5413TIP3    H116203   4.709   2.166   4.362 -0.6426  1.3299 -0.3879
 5413TIP3    H216204   4.658   2.032   4.315  2.4434  0.5502 -1.6770
 5414TIP3   OH216205   4.770   3.036   0.661  0.0570 -0.5174 -0.4164
 5414TIP3    H116206   4.774   3.016   0.567 -1.3320  1.1426 -0.8745
 5414TIP3    H216207   4.835   3.106   0.673  0.2616 -0.7560 -0.1163
 5415TIP3   OH216208   7.108   0.254   2.788  0.5356  0.3897  0.0324
 5415TIP3    H116209   7.124   0.224   2.698  3.0611 -1.7501  1.0378
 5415TIP3    H216210   7.117   0.174   2.841 -0.7731  1.6069  2.2237
 5416TIP3   OH216211   2.907   2.537   0.714  0.3178 -0.0491  0.1229
 5416TIP3    H116212   2.848   2.465   0.694 -0.9414  1.5259 -2.3089
 5416TIP3    H216213   2.866   2.583   0.787  0.4493 -0.9970  0.8099
 5417TIP3   OH216214   1.189   5.748   1.973 -0.8221  0.0733  0.0411
 5417TIP3    H116215   1.154   5.708   2.053  1.0514 -2.4741 -0.3068
 5417TIP3    H216216   1.214   5.836   2.000  1.6409 -1.3306  2.9288
 5418TIP3   OH216217   7.115   0.744   5.217 -0.4514  0.6404  0.2426
 5418TIP3    H116218   7.191   0.800   5.229  0.6847 -0.0518 -2.8473
 5418TIP3    H216219   7.051   0.800   5.173 -0.9347  0.6350  0.9271
 5419TIP3   OH216220   6.676   0.256   1.242  0.0292 -0.2133 -0.4187
 5419TIP3    H116221   6.635   0.294   1.164  1.6261 -0.7077 -1.5543
 5419TIP3    H216222   6.649   0.164   1.240 -0.1486 -0.1638 -0.2433
 5420TIP3   OH216223   3.453   3.643   0.274  0.1636  0.2418 -0.3202
 5420TIP3    H116224   3.464   3.687   0.359 -0.3627 -0.1694 -0.0281
 5420TIP3    H216225   3.521   3.680   0.219  0.5077  0.5295  0.2821
 5421TIP3   OH216226   6.315   1.421   5.587 -0.3827 -0.2701 -0.3525
 5421TIP3    H116227   6.241   1.456   5.538 -0.1174 -1.8270 -1.9417
 5421TIP3    H216228   6.293   1.330   5.603  0.5714 -0.3832  0.4259
 5422TIP3   OH216229   2.899   4.862   2.466  0.1391 -0.2259  0.3883
 5422TIP3    H116230   2.886   4.788   2.526 -2.9671  0.3889  0.6573
 5422TIP3    H216231   2.852   4.836   2.387 -0.1289  1.0397  0.1192
 5423TIP3   OH216232   2.299   0.300   1.161  0.0197 -0.8435 -0.6854
 5423TIP3    H116233   2.353   0.223   1.149  1.8700  0.4247 -0.8606
 5423TIP3    H216234   2.257   0.287   1.246 -0.2810 -2.3361 -1.0365
 5424TIP3   OH216235   4.492   3.162   5.034  0.0556 -0.6079 -0.3015
 5424TIP3    H116236   4.480   3.160   5.129 -0.0682 -0.4545 -0.3143
 5424TIP3    H216237   4.531   3.248   5.017 -1.9944  0.3144 -0.6340
 5425TIP3   OH216238   1.127   4.979   3.391 -0.0090  0.0718 -0.2106
 5425TIP3    H116239   1.068   4.922   3.342  0.0725  0.0296 -0.2602
 5425TIP3    H216240   1.214   4.952   3.363  0.0138  0.6232 -0.6724
 5426TIP3   OH216241   1.623   2.797   2.992 -0.1048 -0.2068  0.6224
 5426TIP3    H116242   1.635   2.873   3.048  1.5107  0.8631 -1.0647
 5426TIP3    H216243   1.530   2.776   3.000 -0.8660  2.6384  0.3056
 5427TIP3   OH216244   3.215   3.143   3.340 -0.3158  0.2944  0.5693
 5427TIP3    H116245   3.285   3.166   3.401  0.0280  1.1085 -0.1084
 5427TIP3    H216246   3.195   3.225   3.295  1.2715 -0.7561 -2.2771
 5428TIP3   OH216247   3.440   3.453   0.491 -0.0876  0.3415  0.4670
 5428TIP3    H116248   3.397   3.510   0.555  1.1781  1.4705  0.3400
 5428TIP3    H216249   3.445   3.505   0.411 -1.7564 -1.0976 -0.6505
 5429TIP3   OH216250   2.463   2.594   4.486  0.2773  0.3498 -0.4543
 5429TIP3    H116251   2.558   2.582   4.482  0.3598  1.2625 -1.3544
 5429TIP3    H216252   2.447   2.677   4.442 -0.9894 -0.0043 -0.6909
 5430TIP3   OH216253   3.795   0.879   4.330  0.2515  0.4237  0.1685
 5430TIP3    H116254   3.820   0.906   4.241  0.5202 -0.1572  0.0591
 5430TIP3    H216255   3.716   0.827   4.317 -0.5961  1.6112  0.4345
 5431TIP3   OH216256   5.935   3.438   2.000 -0.6898  0.5026  0.0601
 5431TIP3    H116257   6.017   3.428   2.048 -0.1539  1.3533 -0.6426
 5431TIP3    H216258   5.922   3.533   1.994 -0.9540  0.4145 -1.0980
 5432TIP3   OH216259   1.944   2.944   5.771  0.5704  0.4021 -0.0152
 5432TIP3    H116260   1.940   2.903   5.685 -0.7637  1.5526 -0.5373
 5432TIP3    H216261   1.981   2.877   5.828 -0.5997 -1.1708 -1.0284
 5433TIP3   OH216262   7.043   1.531   1.534 -0.1694 -0.0381 -0.0172
 5433TIP3    H116263   7.091   1.592   1.590  1.4800 -2.2119  1.1413
 5433TIP3    H216264   7.068   1.555   1.445  0.5575  0.9017  0.4233
 5434TIP3   OH216265   3.920   3.581   3.247  0.1038  0.1844 -0.5892
 5434TIP3    H116266   3.883   3.500   3.211 -0.0807 -0.3695  0.7895
 5434TIP3    H216267   3.873   3.593   3.330 -1.2195  2.7105 -1.5901
 5435TIP3   OH216268   6.194   2.188   2.090 -0.1139  0.2150  0.3096
 5435TIP3    H116269   6.203   2.092   2.084 -0.1414  0.2890 -1.8596
 5435TIP3    H216270   6.125   2.202   2.154  0.2944 -1.1823  1.1102
 5436TIP3   OH216271   1.600   2.755   4.388  0.0530  0.3536 -0.1209
 5436TIP3    H116272   1.532   2.784   4.328  0.3610 -1.4294 -1.3853
 5436TIP3    H216273   1.638   2.678   4.347  0.8306 -0.4613  1.9834
 5437TIP3   OH216274   4.660   3.458   5.597  0.3596 -0.3341  0.2318
 5437TIP3    H116275   4.743   3.503   5.615  0.5067 -0.9374  1.0908
 5437TIP3    H216276   4.664   3.436   5.504 -0.1296  2.2573 -0.4830
 5438TIP3   OH216277   6.151   1.214   4.065 -0.0351 -0.0651 -0.4998
 5438TIP3    H116278   6.126   1.137   4.115 -0.0292 -1.1232 -2.0635
 5438TIP3    H216279   6.154   1.184   3.974  2.2126  1.2059 -0.9123
 5439TIP3   OH216280   6.155   2.045   0.906  0.0404  0.4574 -0.6699
 5439TIP3    H116281   6.075   2.005   0.939  1.4661 -1.7714  0.3048
 5439TIP3    H216282   6.134   2.138   0.898 -2.5067  0.0001 -0.1346
 5440TIP3   OH216283   1.634   2.487   4.308  0.1138  0.5906 -0.6888
 5440TIP3    H116284   1.545   2.453   4.311 -0.0102  0.9195 -0.6582
 5440TIP3    H216285   1.677   2.436   4.239  0.6186 -1.3124  0.9097
 5441TIP3   OH216286   5.715   6.196   5.135 -0.0853 -0.2991  0.3061
 5441TIP3    H116287   5.774   6.183   5.209 -0.5318 -0.8944  0.5589
 5441TIP3    H216288   5.723   6.290   5.115  0.6929 -0.3026  0.5448
 5442TIP3   OH216289   4.707   5.590   0.650 -0.0792  0.2119  0.4995
 5442TIP3    H116290   4.690   5.581   0.556  0.3449  1.7046  0.2508
 5442TIP3    H216291   4.701   5.684   0.666 -1.4941 -0.1202  2.2436
 5443TIP3   OH216292   4.711   5.135   2.135  0.0067  0.0001 -0.1146
 5443TIP3    H116293   4.696   5.054   2.183 -0.6603  0.6378  0.7725
 5443TIP3    H216294   4.698   5.111   2.043 -0.5235 -0.8122  0.1643
 5444TIP3   OH216295   1.369   3.524   1.242 -0.0774  0.2388 -0.1862
 5444TIP3    H116296   1.283   3.482   1.230  0.9111 -1.6007 -1.1919
 5444TIP3    H216297   1.394   3.552   1.154 -0.0837  1.7354  0.2639
 5445TIP3   OH216298   0.549   6.444   0.692 -0.2265 -0.1650 -0.2855
 5445TIP3    H116299   0.640   6.422   0.674  0.5897  0.7843  2.2853
 5445TIP3    H216300   0.552   6.495   0.773 -3.1526 -0.9827  0.4569
 5446TIP3   OH216301   5.548   4.124   5.075 -0.1491 -0.1445 -0.5438
 5446TIP3    H116302   5.577   4.052   5.131 -0.0656  0.7764  0.6341
 5446TIP3    H216303   5.453   4.123   5.083 -0.0568  1.4374  1.5628
 5447TIP3   OH216304   3.567   2.340   2.175 -0.1155 -0.0726 -0.1052
 5447TIP3    H116305   3.567   2.359   2.269  0.3730  1.4476 -0.3787
 5447TIP3    H216306   3.495   2.394   2.140  0.2183 -0.0126 -0.7102
 5448TIP3   OH216307   0.939   4.684   3.414 -0.1406  0.1840  0.8027
 5448TIP3    H116308   0.875   4.618   3.387  1.0771 -1.6721  2.2362
 5448TIP3    H216309   1.002   4.687   3.343  0.6541 -1.4290  1.3890
 5449TIP3   OH216310   4.806   4.482   4.034 -0.7199 -0.3096  0.4220
 5449TIP3    H116311   4.844   4.413   3.980  0.9739  0.3177  0.7583
 5449TIP3    H216312   4.781   4.437   4.115 -1.3130 -0.8551 -0.0551
 5450TIP3   OH216313   3.072   6.015   2.304  0.6317  0.0340 -0.0622
 5450TIP3    H116314   3.123   6.089   2.337 -1.1304  1.3780 -0.1966
 5450TIP3    H216315   3.003   6.001   2.369 -1.8245  1.5766 -2.0944
 5451TIP3   OH216316   6.193   0.219   5.505  0.0174 -0.0565  0.0276
 5451TIP3    H116317   6.210   0.131   5.472 -0.5963  0.1599 -0.8900
 5451TIP3    H216318   6.271   0.269   5.483  1.4162 -0.8916  2.6348
 5452TIP3   OH216319   1.745   5.345   4.887 -0.3291 -0.4828  0.0485
 5452TIP3    H116320   1.811   5.402   4.847  0.6871 -0.7759  1.2452
 5452TIP3    H216321   1.677   5.337   4.821  0.1771  0.9676 -0.6889
 5453TIP3   OH216322   3.273   3.096   4.665  0.3396  0.0603  0.4544
 5453TIP3    H116323   3.193   3.060   4.702  1.0920 -2.1618  0.0484
 5453TIP3    H216324   3.281   3.183   4.704 -2.9930  0.9690 -0.6165
 5454TIP3   OH216325   3.432   5.167   4.580  0.7448  0.0983  0.3216
 5454TIP3    H116326   3.453   5.095   4.520 -2.2954  1.6747 -3.0112
 5454TIP3    H216327   3.502   5.231   4.565  0.4078  0.1677 -1.1724
 5455TIP3   OH216328   7.205   1.942   4.143 -0.1053  0.0749  0.3302
 5455TIP3    H116329   7.143   1.893   4.197 -1.1910  2.0973  1.0414
 5455TIP3    H216330   7.261   1.875   4.103 -2.3633 -1.8208  0.1279
 5456TIP3   OH216331   4.423   4.053   4.057 -0.3409  0.0979  0.5188
 5456TIP3    H116332   4.475   3.988   4.103  0.2336 -1.0316 -1.6113
 5456TIP3    H216333   4.470   4.136   4.071 -0.1883 -0.2026  1.8927
 5457TIP3   OH216334   6.646   2.368   0.084 -0.1675  0.5377 -0.2869
 5457TIP3    H116335   6.671   2.447   0.131  2.5248  0.3016 -1.1608
 5457TIP3    H216336   6.597   2.399   0.008  0.0540  1.2907 -0.1246
 5458TIP3   OH216337   3.189   4.466   4.422 -0.0490  0.4300 -0.0945
 5458TIP3    H116338   3.109   4.481   4.472 -0.6264 -2.3953 -0.0302
 5458TIP3    H216339   3.172   4.506   4.337 -1.9166 -0.8683 -0.3837
 5459TIP3   OH216340   6.589   1.746   3.375 -0.3049  0.1707 -0.3127
 5459TIP3    H116341   6.621   1.818   3.320  0.1835 -0.0410 -0.3181
 5459TIP3    H216342   6.546   1.687   3.313  0.1232  0.0008 -0.4573
 5460TIP3   OH216343   1.157   0.475   0.805 -0.1634 -0.8024 -0.5819
 5460TIP3    H116344   1.219   0.530   0.756 -0.5472 -0.7707 -1.0395
 5460TIP3    H216345   1.203   0.392   0.816  1.0503  0.0522  1.4517
 5461TIP3   OH216346   6.573   5.796   0.887 -0.2237  0.1728  0.2679
 5461TIP3    H116347   6.510   5.841   0.944  2.8150  5.4597  0.1019
 5461TIP3    H216348   6.635   5.755   0.947 -0.3173  0.4747  0.5723
 5462TIP3   OH216349   4.767   4.158   2.849 -0.0456 -0.0400 -0.2572
 5462TIP3    H116350   4.805   4.143   2.762 -0.6184  0.4801 -0.6052
 5462TIP3    H216351   4.707   4.086   2.863 -1.6139  1.0143 -1.2528
 5463TIP3   OH216352   1.785   3.545   5.252  0.1553  0.7620  0.2328
 5463TIP3    H116353   1.725   3.472   5.233  1.6116 -0.6372  0.7379
 5463TIP3    H216354   1.834   3.516   5.329  1.7454  1.6678 -0.3929
 5464TIP3   OH216355   6.793   5.829   4.448 -0.9691  0.2833 -0.0816
 5464TIP3    H116356   6.827   5.888   4.381 -2.3454  1.1130 -0.0710
 5464TIP3    H216357   6.712   5.794   4.411 -0.4301 -1.2350  0.1199
 5465TIP3   OH216358   2.567   5.799   0.559  0.1763  0.4153  0.8858
 5465TIP3    H116359   2.618   5.823   0.481 -1.2556 -0.5175 -0.3974
 5465TIP3    H216360   2.605   5.716   0.588 -0.0651  0.1372  0.4242
 5466TIP3   OH216361   1.737   0.090   3.580 -0.2022  0.2878 -0.5408
 5466TIP3    H116362   1.739  -0.004   3.599 -0.9694  0.8143  2.8390
 5466TIP3    H216363   1.663   0.123   3.631  1.4572  3.0478  0.2915
 5467TIP3   OH216364   1.586   5.667   0.099 -0.2473  0.0531  0.2521
 5467TIP3    H116365   1.619   5.742   0.049 -3.4220  0.3247 -1.6715
 5467TIP3    H216366   1.536   5.707   0.171 -0.7884 -0.2156  0.0305
 5468TIP3   OH216367   4.452   4.094   0.616  0.4020 -0.2303 -0.2133
 5468TIP3    H116368   4.535   4.136   0.633  0.5280 -0.6682  0.2737
 5468TIP3    H216369   4.437   4.108   0.522  1.1776 -0.4223 -0.3729
 5469TIP3   OH216370   3.631   2.433   5.493 -0.4651 -0.2294 -0.0062
 5469TIP3    H116371   3.675   2.378   5.429  1.0796  1.7735 -0.7689
 5469TIP3    H216372   3.544   2.447   5.458 -0.1429 -0.4194 -0.8954
 5470TIP3   OH216373   5.988   5.609   0.644  0.1903 -0.4747  0.2343
 5470TIP3    H116374   5.953   5.698   0.650 -1.6413 -1.1984  1.0580
 5470TIP3    H216375   6.024   5.604   0.556  1.8237  1.5676  0.7130
 5471TIP3   OH216376   2.516   2.501   0.079  0.1811  0.4511 -0.0623
 5471TIP3    H116377   2.444   2.440   0.101  0.4780 -1.6343 -4.0060
 5471TIP3    H216378   2.594   2.457   0.112  0.3394 -1.3243 -2.4763
 5472TIP3   OH216379   4.562   6.331   1.838  0.7186 -0.1102 -0.3619
 5472TIP3    H116380   4.517   6.252   1.868  0.1399  0.7468  1.1559
 5472TIP3    H216381   4.638   6.338   1.896  0.1918  0.9792  0.2405
 5473TIP3   OH216382   0.507   0.865   3.206  0.0467  0.1916  0.1049
 5473TIP3    H116383   0.481   0.776   3.183  1.0075 -0.1466  0.2783
 5473TIP3    H216384   0.594   0.855   3.245  0.0777  1.1842  0.3073
 5474TIP3   OH216385   4.338   1.432   0.148  0.0196  0.8870  0.2514
 5474TIP3    H116386   4.276   1.360   0.158 -1.0399  1.7738  0.1508
 5474TIP3    H216387   4.422   1.389   0.133 -0.5789 -0.3290  0.3095
 5475TIP3   OH216388   6.434   1.183   4.030  0.0543 -0.2612 -0.1659
 5475TIP3    H116389   6.353   1.141   4.001  0.0329 -1.1590  1.1530
 5475TIP3    H216390   6.442   1.161   4.122  1.1255  0.9315  0.0609
 5476TIP3   OH216391   0.795   4.372   1.180 -0.1261  0.2093 -0.2803
 5476TIP3    H116392   0.843   4.417   1.249  0.4523 -1.1046  0.2105
 5476TIP3    H216393   0.762   4.442   1.124 -0.4708  1.3097  1.2259
 5477TIP3   OH216394   5.414   3.782   0.723  0.1874  0.1823 -0.0353
 5477TIP3    H116395   5.460   3.772   0.640  0.0029  3.2176 -0.5886
 5477TIP3    H216396   5.344   3.716   0.720  1.6079 -1.3476 -1.1911
 5478TIP3   OH216397   6.131   5.657   0.878  0.1944  0.3896  0.7355
 5478TIP3    H116398   6.094   5.632   0.794 -0.0190 -1.3105  1.3007
 5478TIP3    H216399   6.200   5.592   0.894  1.6367  1.8929  0.9536
 5479TIP3   OH216400   2.107   0.490   0.400 -0.4138  0.3803 -0.5953
 5479TIP3    H116401   2.140   0.410   0.359 -1.9126 -1.3099  1.2648
 5479TIP3    H216402   2.037   0.520   0.342  0.6107  0.7927 -1.6598
 5480TIP3   OH216403   1.044   5.014   0.314 -0.6590  0.0523 -0.1204
 5480TIP3    H116404   1.095   4.933   0.309 -1.1194 -0.3076  0.8357
 5480TIP3    H216405   0.980   5.007   0.244 -0.6895 -0.4130 -0.0478
 5481TIP3   OH216406   5.868   1.900   0.423  0.4074  0.3284  0.0056
 5481TIP3    H116407   5.815   1.874   0.498 -0.0239  0.1421 -0.3581
 5481TIP3    H216408   5.922   1.824   0.403 -0.1712  0.0359 -0.4674
 5482TIP3   OH216409   4.611   5.595   3.171  0.0877 -0.0008 -0.2462
 5482TIP3    H116410   4.630   5.689   3.171 -1.6468  0.3792  0.8987
 5482TIP3    H216411   4.636   5.565   3.258  1.8352 -0.9131 -1.0079
 5483TIP3   OH216412   4.416   2.660   2.552  0.6803  0.1559 -0.3974
 5483TIP3    H116413   4.391   2.572   2.582  2.0146 -0.8078 -1.9551
 5483TIP3    H216414   4.459   2.645   2.468  4.1569  1.8857  0.8783
 5484TIP3   OH216415   5.731   3.973   2.911 -0.0457 -0.7587  0.2494
 5484TIP3    H116416   5.749   3.948   3.002 -0.3042  1.0592  0.8485
 5484TIP3    H216417   5.691   4.060   2.918  3.0605  1.0262 -1.7577
 5485TIP3   OH216418   1.712   3.402   1.812 -0.2874  0.0600 -0.5208
 5485TIP3    H116419   1.640   3.415   1.873 -0.8669 -3.5397 -0.2232
 5485TIP3    H216420   1.791   3.414   1.864 -0.6760  1.2916 -0.1819
 5486TIP3   OH216421   4.685   1.070   5.869 -0.1719  0.1599 -0.2522
 5486TIP3    H116422   4.723   1.005   5.810  0.9274  0.7353 -0.1963
 5486TIP3    H216423   4.756   1.132   5.886 -0.4499  0.0191  1.6540
 5487TIP3   OH216424   6.318   0.605   5.142 -0.0643 -0.1232  0.0882
 5487TIP3    H116425   6.254   0.611   5.214  1.1263 -0.2529  1.1863
 5487TIP3    H216426   6.394   0.563   5.181  0.9901  0.7290 -0.9990
 5488TIP3   OH216427   6.543   6.157   0.268 -0.4344  0.3128  0.1342
 5488TIP3    H116428   6.448   6.150   0.277 -0.3387 -0.6849  0.4855
 5488TIP3    H216429   6.562   6.127   0.179 -0.1546 -3.0434  1.1947
 5489TIP3   OH216430   0.783   5.052   1.547 -0.0818  0.7626  0.2051
 5489TIP3    H116431   0.858   5.103   1.516 -0.4238  1.7617  0.9984
 5489TIP3    H216432   0.822   4.977   1.592  0.4237  0.4978 -0.6546
 5490TIP3   OH216433   1.552   4.551   5.708  1.2291  0.3175 -0.0559
 5490TIP3    H116434   1.588   4.464   5.722  1.1611 -0.1465 -2.3779
 5490TIP3    H216435   1.458   4.537   5.698  0.8781  0.9997  1.8231
 5491TIP3   OH216436   1.266   0.103   1.215 -0.2660 -0.1386 -0.0758
 5491TIP3    H116437   1.344   0.157   1.228  0.8895 -1.5846 -0.7940
 5491TIP3    H216438   1.300   0.016   1.196 -2.0774 -0.9257  0.1413
 5492TIP3   OH216439   6.725   5.795   0.205  0.2499 -0.2098  0.3446
 5492TIP3    H116440   6.715   5.838   0.290 -2.4669  0.2088 -0.0905
 5492TIP3    H216441   6.818   5.802   0.185  0.5145  2.1540  2.0081
 5493TIP3   OH216442   6.321   2.079   1.240 -0.0270 -0.1503 -0.1660
 5493TIP3    H116443   6.383   2.103   1.170  1.1521 -2.0470  0.1669
 5493TIP3    H216444   6.235   2.082   1.198  0.7767 -2.9981 -2.2758
 5494TIP3   OH216445   3.061   6.474   2.885  0.0814 -0.1960 -0.0229
 5494TIP3    H116446   3.129   6.460   2.951  1.4996 -1.5635 -1.6679
 5494TIP3    H216447   2.990   6.517   2.933  2.1999  1.6471  1.7274
 5495TIP3   OH216448   2.188   4.037   5.059  0.0003 -0.0212 -0.0929
 5495TIP3    H116449   2.156   4.126   5.048 -1.8697 -0.4257  1.4963
 5495TIP3    H216450   2.168   3.994   4.976 -1.6144  0.3355  0.0900
 5496TIP3   OH216451   2.162   0.935   0.761 -0.1088 -0.0956 -0.1077
 5496TIP3    H116452   2.105   0.883   0.704 -0.9213 -0.3038  0.8748
 5496TIP3    H216453   2.145   0.902   0.849 -1.9297  2.9337  0.8066
 5497TIP3   OH216454   6.616   2.892   5.031 -0.2810 -0.0090 -0.0457
 5497TIP3    H116455   6.676   2.963   5.009  0.0835 -0.3094 -0.0236
 5497TIP3    H216456   6.556   2.888   4.957  0.2354 -0.2567 -0.4569
 5498TIP3   OH216457   5.031   6.264   4.506  0.5075  0.6545  0.0659
 5498TIP3    H116458   5.047   6.306   4.590  1.9283 -2.4826  1.5112
 5498TIP3    H216459   4.955   6.208   4.521 -0.3904  1.4228 -1.3539
 5499TIP3   OH216460   3.767   0.206   4.087 -0.9772  0.6600 -0.1021
 5499TIP3    H116461   3.692   0.151   4.067  1.0888 -1.6279 -2.4569
 5499TIP3    H216462   3.789   0.186   4.178 -2.0745 -0.1095  0.0030
 5500TIP3   OH216463   7.192   4.326   2.698 -0.4521  0.2468 -0.2592
 5500TIP3    H116464   7.260   4.348   2.762 -0.8279  1.6116 -0.2875
 5500TIP3    H216465   7.145   4.253   2.737  1.6752 -1.4555 -0.7298
 5501TIP3   OH216466   2.187   6.402   3.229 -0.4828 -0.1446  0.5907
 5501TIP3    H116467   2.267   6.356   3.206 -1.4779 -1.9014  0.4143
 5501TIP3    H216468   2.205   6.494   3.210 -0.0185 -0.9549 -4.0788
 5502TIP3   OH216469   5.904   2.205   3.225 -0.4277 -0.1225 -0.0795
 5502TIP3    H116470   5.894   2.126   3.279 -0.9829 -1.0343 -1.4601
 5502TIP3    H216471   5.822   2.211   3.176  0.4097  0.1476 -1.4993
 5503TIP3   OH216472   3.413   6.434   1.322 -0.1362 -0.4777  0.2438
 5503TIP3    H116473   3.488   6.455   1.378 -2.0854  2.3938  2.0846
 5503TIP3    H216474   3.415   6.501   1.254 -1.1905 -0.1098  0.5501
 5504TIP3   OH216475   6.663   3.614   2.784  0.1768 -0.1898 -0.0260
 5504TIP3    H116476   6.607   3.539   2.763 -0.0003 -0.1454  0.2888
 5504TIP3    H216477   6.685   3.652   2.699 -0.6866  0.0971 -0.1320
 5505TIP3   OH216478   3.985   5.714   5.464  0.0079  0.2871 -0.0173
 5505TIP3    H116479   4.036   5.782   5.507 -0.0846  0.3466 -0.0037
 5505TIP3    H216480   4.043   5.637   5.465  0.2741  0.4833 -0.4145
 5506TIP3   OH216481   3.603   0.260   3.567 -0.5258 -0.3766 -0.5305
 5506TIP3    H116482   3.598   0.169   3.537 -0.9993 -0.7139  0.5386
 5506TIP3    H216483   3.578   0.257   3.659 -0.8035  0.8792 -0.5408
 5507TIP3   OH216484   1.335   0.538   0.608  0.2464 -0.2823 -0.2453
 5507TIP3    H116485   1.344   0.593   0.531  0.2220  0.7195  0.4391
 5507TIP3    H216486   1.314   0.451   0.574  0.6473  0.0468 -1.3665
 5508TIP3   OH216487   5.315   3.511   3.788 -0.0537 -0.3818 -0.8349
 5508TIP3    H116488   5.339   3.474   3.873 -1.1655  2.9486  1.1169
 5508TIP3    H216489   5.381   3.478   3.727  1.0049 -2.6019  1.3448
 5509TIP3   OH216490   6.592   5.725   1.695  0.1454  0.3471  0.4180
 5509TIP3    H116491   6.563   5.806   1.652  1.7337  0.8862  0.3015
 5509TIP3    H216492   6.687   5.733   1.700  0.2238 -0.9343  1.6105
 5510TIP3   OH216493   2.715   6.773   3.652 -0.1515  0.3141  0.2152
 5510TIP3    H116494   2.757   6.807   3.573 -0.7417  1.2652  0.2841
 5510TIP3    H216495   2.719   6.678   3.643 -0.0927  0.4061 -0.8969
 5511TIP3   OH216496   5.185   3.621   0.021 -0.3670 -0.1353  0.1747
 5511TIP3    H116497   5.106   3.620   0.074 -0.6444 -0.3476 -0.2338
 5511TIP3    H216498   5.189   3.533  -0.018  0.7153 -0.5404  1.1263
 5512TIP3   OH216499   6.028   5.739   1.116 -0.5500 -0.1710 -0.6260
 5512TIP3    H116500   5.962   5.678   1.149 -1.3811  0.8272 -0.3674
 5512TIP3    H216501   6.070   5.692   1.044  0.3385 -1.8609  0.8995
 5513TIP3   OH216502   1.771   6.331   3.754 -0.5826  0.2061 -0.3673
 5513TIP3    H116503   1.718   6.309   3.830 -0.1852 -0.3764 -0.2494
 5513TIP3    H216504   1.724   6.402   3.711 -1.3466 -0.1539 -0.1466
 5514TIP3   OH216505   4.047   5.909   5.657  0.4161 -0.1328  0.0423
 5514TIP3    H116506   4.029   5.991   5.704 -0.5952 -0.9825  1.1961
 5514TIP3    H216507   3.999   5.842   5.706  1.5909 -1.5069 -0.6032
 5515TIP3   OH216508   3.819   0.570   4.283  0.2062 -0.0770 -0.0827
 5515TIP3    H116509   3.827   0.583   4.377  1.2980 -2.4645  0.2348
 5515TIP3    H216510   3.728   0.593   4.263 -0.3540 -0.5665  1.7467
 5516TIP3   OH216511   4.299   3.095   0.189  0.5740 -0.2976 -0.1082
 5516TIP3    H116512   4.371   3.148   0.156  0.5769 -0.3034 -0.1107
 5516TIP3    H216513   4.220   3.143   0.163  0.5808  0.9608  1.9329
 5517TIP3   OH216514   6.752   6.548   0.086 -0.2090 -0.0573  0.0543
 5517TIP3    H116515   6.731   6.540   0.179 -0.3674  0.6207  0.0842
 5517TIP3    H216516   6.676   6.510   0.041  0.3417 -1.3917  0.1969
 5518TIP3   OH216517   2.811   5.845   3.866  0.0434 -0.4950 -0.3546
 5518TIP3    H116518   2.898   5.818   3.894  0.1905  0.2415 -0.0656
 5518TIP3    H216519   2.824   5.932   3.829 -0.4717 -0.6422 -0.8938
 5519TIP3   OH216520   2.861   0.800   4.605  0.2386 -0.5852 -0.0707
 5519TIP3    H116521   2.804   0.728   4.633 -0.5301  0.4424  1.1078
 5519TIP3    H216522   2.804   0.854   4.549 -0.1533  0.7217  1.5216
 5520TIP3   OH216523   4.202   3.841   2.621 -0.7683  1.0886  0.0206
 5520TIP3    H116524   4.295   3.854   2.602 -0.7712  1.8205  0.4974
 5520TIP3    H216525   4.185   3.750   2.595  0.2347  0.7352  0.5673
 5521TIP3   OH216526   4.696   1.984   1.700  0.2358 -0.4051 -0.0647
 5521TIP3    H116527   4.616   2.020   1.662 -0.7801 -0.8730  1.5068
 5521TIP3    H216528   4.744   2.060   1.731 -0.7735 -0.1992  1.1089
 5522TIP3   OH216529   4.959   2.851   4.945 -0.3673 -0.4020 -0.0963
 5522TIP3    H116530   4.867   2.868   4.922 -1.1012  0.0257  2.7763
 5522TIP3    H216531   4.954   2.785   5.014  1.6522 -1.7733 -1.1563
 5523TIP3   OH216532   0.735   6.604   3.988  0.7035  0.5460 -0.2852
 5523TIP3    H116533   0.809   6.584   4.046  1.2733  1.7014 -0.5803
 5523TIP3    H216534   0.659   6.565   4.032  1.4950 -0.7855 -0.0525
 5524TIP3   OH216535   5.708   1.738   4.530 -0.1253 -0.5698  0.0447
 5524TIP3    H116536   5.798   1.753   4.558 -0.5504  2.6988  0.0277
 5524TIP3    H216537   5.696   1.795   4.454 -2.2560 -0.8040  0.1343
 5525TIP3   OH216538   1.690   3.197   5.483  0.4810  0.4782  0.6175
 5525TIP3    H116539   1.727   3.275   5.443 -0.8324  0.4003 -0.8614
 5525TIP3    H216540   1.734   3.189   5.568  1.6718  1.9845  0.1711
 5526TIP3   OH216541   5.364   6.479   0.390 -0.2193  0.5450  0.1524
 5526TIP3    H116542   5.428   6.550   0.402 -1.3148  1.6343 -0.2801
 5526TIP3    H216543   5.406   6.402   0.430  1.2482  1.2837  0.1023
 5527TIP3   OH216544   6.207   1.500   4.692  0.6945 -0.8773  0.4621
 5527TIP3    H116545   6.297   1.515   4.663  0.4934 -1.8153 -0.7298
 5527TIP3    H216546   6.153   1.511   4.614 -0.4146  0.8810  1.3914
 5528TIP3   OH216547   4.319   1.792   2.501  0.1430 -0.1588 -0.1937
 5528TIP3    H116548   4.408   1.774   2.530 -0.6588 -0.7592  2.0340
 5528TIP3    H216549   4.263   1.737   2.556 -1.8860  3.3457  1.6240
 5529TIP3   OH216550   1.236   2.062   3.860 -0.0982  0.0621  0.4820
 5529TIP3    H116551   1.276   1.981   3.827 -3.3993 -1.6847  0.3368
 5529TIP3    H216552   1.235   2.051   3.955  0.1795  0.3205  0.5151
 5530TIP3   OH216553   6.871   3.405   0.030  0.1851 -0.0545  0.4941
 5530TIP3    H116554   6.962   3.406   0.058  0.4395  0.8445 -0.2911
 5530TIP3    H216555   6.875   3.396  -0.065 -0.5072  0.6306  0.3891
 5531TIP3   OH216556   2.405   1.656   5.537  0.2073  0.1104  0.1224
 5531TIP3    H116557   2.469   1.591   5.568 -0.0871 -0.6687 -0.8627
 5531TIP3    H216558   2.440   1.687   5.454  0.2160  1.0488  0.4638
 5532TIP3   OH216559   3.464   3.209   5.660 -0.1282  0.2871 -0.0839
 5532TIP3    H116560   3.469   3.300   5.691 -1.0041  0.1971  0.3424
 5532TIP3    H216561   3.423   3.216   5.574 -1.3964  0.2060  0.4874
 5533TIP3   OH216562   0.868   6.329   4.465  0.0406 -0.4968  0.2557
 5533TIP3    H116563   0.839   6.242   4.440 -1.0193 -0.0194 -0.2351
 5533TIP3    H216564   0.809   6.355   4.536 -2.4296  1.4051 -2.2673
 5534TIP3   OH216565   3.258   6.468   1.612  0.0368 -0.1081 -0.1524
 5534TIP3    H116566   3.206   6.388   1.620 -0.4333 -0.0882 -2.2828
 5534TIP3    H216567   3.344   6.437   1.581  0.0977  0.1512 -0.2407
 5535TIP3   OH216568   0.066   0.097   1.997 -0.4869  0.0882 -0.7472
 5535TIP3    H116569   0.073   0.166   1.931 -0.6941 -0.5769 -1.4866
 5535TIP3    H216570   0.152   0.094   2.038 -0.2030  0.1942 -1.3249
 5536TIP3   OH216571   5.422   2.824   2.068 -0.1062 -0.8493 -0.3164
 5536TIP3    H116572   5.491   2.778   2.021 -0.2883 -0.6467 -0.7940
 5536TIP3    H216573   5.410   2.774   2.149 -0.4598 -1.7755 -0.9255
 5537TIP3   OH216574   3.001   5.642   1.720 -0.2142  0.1508 -0.0980
 5537TIP3    H116575   3.003   5.675   1.810 -0.2321  0.1519 -0.0981
 5537TIP3    H216576   3.073   5.580   1.715  1.2997  1.8525 -0.7228
 5538TIP3   OH216577   1.446   1.224   0.088  0.2240  0.4596 -0.5106
 5538TIP3    H116578   1.505   1.213   0.163 -0.0246  3.5535  0.2892
 5538TIP3    H216579   1.379   1.285   0.119 -1.1218  0.1429 -2.6280
 5539TIP3   OH216580   1.835   6.517   2.148  0.1812 -0.7410 -0.2137
 5539TIP3    H116581   1.767   6.517   2.080 -0.5412 -0.0813  0.4910
 5539TIP3    H216582   1.871   6.606   2.145  0.4809 -0.8566 -0.0543
 5540TIP3   OH216583   4.318   1.170   2.232 -0.4059  0.3840 -0.4207
 5540TIP3    H116584   4.353   1.171   2.143  0.6850 -2.0971 -0.1182
 5540TIP3    H216585   4.383   1.217   2.284  0.4094 -0.5805 -0.5338
 5541TIP3   OH216586   2.272   4.892   1.476  0.4442 -0.2147  0.1135
 5541TIP3    H116587   2.269   4.809   1.524 -0.6166 -0.2359  0.0366
 5541TIP3    H216588   2.279   4.867   1.384 -0.4237 -0.2524  0.0438
 5542TIP3   OH216589   1.846   2.967   4.782 -0.1533 -0.2643 -0.1278
 5542TIP3    H116590   1.849   2.878   4.819 -0.6955 -0.5003 -0.6290
 5542TIP3    H216591   1.813   2.954   4.693 -0.0734  0.4279 -0.2601
 5543TIP3   OH216592   5.523   6.407   2.276 -0.1834 -0.1482  0.7530
 5543TIP3    H116593   5.609   6.368   2.291  0.0432 -0.3323 -0.8183
 5543TIP3    H216594   5.463   6.332   2.271  0.2288 -0.4210 -2.1145
 5544TIP3   OH216595   5.222   1.658   1.460  0.0597  0.0849  0.2635
 5544TIP3    H116596   5.313   1.679   1.441 -0.2002 -0.5572 -2.0433
 5544TIP3    H216597   5.186   1.738   1.497  0.9402  1.2416 -1.2435
 5545TIP3   OH216598   4.487   4.231   3.072  0.6404  0.1507  0.0954
 5545TIP3    H116599   4.463   4.292   3.142 -0.1693 -0.2311  0.1639
 5545TIP3    H216600   4.469   4.145   3.109  2.0194 -0.1643  0.0940
 5546TIP3   OH216601   6.880   5.879   4.096 -0.2095  0.4929 -0.1461
 5546TIP3    H116602   6.843   5.793   4.077 -0.9428  0.6464  0.5418
 5546TIP3    H216603   6.896   5.918   4.010 -0.2011 -0.1833 -0.4606
 5547TIP3   OH216604   1.294   5.870   0.583  0.1565  0.0694  0.0878
 5547TIP3    H116605   1.223   5.933   0.593  0.4530  0.1387  2.3094
 5547TIP3    H216606   1.352   5.886   0.658  1.1601 -1.6803 -0.2380
 5548TIP3   OH216607   2.722   2.422   1.946 -0.2214  0.4887 -0.5881
 5548TIP3    H116608   2.658   2.451   2.012  0.7143  2.7787 -0.5980
 5548TIP3    H216609   2.710   2.483   1.873  0.0373 -0.8562 -1.7905
 5549TIP3   OH216610   0.865   5.616   5.835  0.1466 -0.4270  0.3756
 5549TIP3    H116611   0.827   5.567   5.907 -0.2641 -2.1644 -0.9643
 5549TIP3    H216612   0.958   5.592   5.835  0.7170  1.4779  1.7689
 5550TIP3   OH216613   6.646   6.010   2.015  0.2493  0.6529 -0.4207
 5550TIP3    H116614   6.712   5.965   1.963 -1.0219  0.6027 -2.0807
 5550TIP3    H216615   6.626   5.949   2.087  3.0169  1.3120  1.0289
 5551TIP3   OH216616   3.582   2.312   2.747 -0.1042 -0.2372 -0.2621
 5551TIP3    H116617   3.661   2.341   2.701 -1.0396  0.3106 -1.6001
 5551TIP3    H216618   3.608   2.231   2.791  1.2476  0.0274 -0.5383
 5552TIP3   OH216619   0.526   5.884   0.262  0.5475  0.0963  0.0809
 5552TIP3    H116620   0.567   5.884   0.176 -0.8409  0.7208 -0.6159
 5552TIP3    H216621   0.455   5.820   0.256  0.6521 -0.1048  0.8633
 5553TIP3   OH216622   7.049   2.410   0.753  0.1886 -0.2418 -0.2767
 5553TIP3    H116623   7.009   2.423   0.667  1.6672 -0.3702 -1.0206
 5553TIP3    H216624   7.025   2.320   0.777 -1.2782  0.2161  0.0399
 5554TIP3   OH216625   2.927   1.136   5.737 -0.3911 -0.4848 -0.0320
 5554TIP3    H116626   2.852   1.102   5.785 -0.6900  0.7239  0.3900
 5554TIP3    H216627   2.998   1.076   5.758 -0.9743 -1.0249  0.4354
 5555TIP3   OH216628   5.773   6.106   2.463 -0.0947  0.0192 -0.2505
 5555TIP3    H116629   5.797   6.188   2.419 -0.6203  0.2924 -0.0372
 5555TIP3    H216630   5.727   6.056   2.396 -0.8789  0.4276 -0.0314
 5556TIP3   OH216631   3.981   3.060   4.421  0.0533 -0.1271 -0.2231
 5556TIP3    H116632   4.015   2.984   4.468  0.3786 -0.4195 -0.9076
 5556TIP3    H216633   3.907   3.091   4.474  0.6563 -0.2000  0.6714
 5557TIP3   OH216634   1.922   4.509   5.647  0.5401  0.3638  0.1764
 5557TIP3    H116635   1.920   4.591   5.597  1.3924  0.7664  0.7761
 5557TIP3    H216636   1.900   4.534   5.736  0.3616 -0.1350  0.2769
 5558TIP3   OH216637   0.154   4.185   0.788  0.1174 -0.3668  0.0848
 5558TIP3    H116638   0.113   4.136   0.860  1.5970 -1.3120  0.3310
 5558TIP3    H216639   0.248   4.176   0.803  0.4537  0.2779 -1.4135
 5559TIP3   OH216640   5.060   6.637   3.955  0.4081 -0.3684  0.1717
 5559TIP3    H116641   5.145   6.631   3.999  0.4054  0.9025  0.3627
 5559TIP3    H216642   5.010   6.701   4.006 -0.5962 -0.9374 -0.0631
 5560TIP3   OH216643   5.711   4.814   0.974 -0.1693  0.2845 -0.0038
 5560TIP3    H116644   5.632   4.867   0.984 -0.3992 -0.0226 -0.1815
 5560TIP3    H216645   5.680   4.729   0.943  0.3038  0.4122 -0.8638
 5561TIP3   OH216646   6.484   0.760   0.392 -0.3016  0.0354  0.0077
 5561TIP3    H116647   6.404   0.804   0.364  0.5189 -0.3600 -3.3612
 5561TIP3    H216648   6.467   0.667   0.380 -0.3357 -0.3303  2.3517
 5562TIP3   OH216649   4.911   0.377   2.511  0.1198 -0.3779 -0.3244
 5562TIP3    H116650   4.921   0.398   2.603  0.5870  1.2130 -0.6999
 5562TIP3    H216651   4.982   0.425   2.467  0.8090 -2.2405 -1.3810
 5563TIP3   OH216652   4.220   2.728   5.290  0.0193  0.0155 -0.2862
 5563TIP3    H116653   4.240   2.820   5.275 -0.3790 -0.0955 -1.5821
 5563TIP3    H216654   4.291   2.697   5.347 -0.9684  1.6034  1.9390
 5564TIP3   OH216655   0.449   5.242   5.301 -0.3445 -0.5721 -0.1279
 5564TIP3    H116656   0.367   5.193   5.311  0.7136 -2.5508 -0.5717
 5564TIP3    H216657   0.513   5.191   5.351  1.0636 -0.3015 -1.5871
 5565TIP3   OH216658   7.018   0.783   4.449  0.4781 -0.4011 -0.3100
 5565TIP3    H116659   6.967   0.834   4.511  1.6466 -0.3042  0.6040
 5565TIP3    H216660   7.007   0.829   4.365 -2.4817 -1.4909 -0.6245
 5566TIP3   OH216661   4.587   5.784   5.699  0.4465 -0.0643 -0.8806
 5566TIP3    H116662   4.622   5.708   5.654 -0.5632 -0.8098 -0.4403
 5566TIP3    H216663   4.497   5.791   5.669  0.7430  1.4414 -1.5113
 5567TIP3   OH216664   6.275   1.703   2.575  0.1276  0.9150  0.1950
 5567TIP3    H116665   6.181   1.691   2.584 -0.1029  1.0979 -1.4953
 5567TIP3    H216666   6.304   1.628   2.523  0.8704  0.9615  0.5322
 5568TIP3   OH216667   6.032   5.098   4.719  0.0522 -0.5956 -0.2922
 5568TIP3    H116668   6.043   5.125   4.628 -0.6993 -1.2954 -0.6036
 5568TIP3    H216669   6.045   5.178   4.770  1.2807 -0.3544 -0.9458
 5569TIP3   OH216670   4.901   3.104   5.889  0.1822  0.3478  0.0473
 5569TIP3    H116671   4.855   3.025   5.859 -1.1360  1.1393 -0.0754
 5569TIP3    H216672   4.841   3.176   5.869  1.8487  1.5364 -0.9448
 5570TIP3   OH216673   5.654   2.587   3.263  0.2812  0.2443  0.5662
 5570TIP3    H116674   5.716   2.660   3.256 -1.1518  1.4162 -0.4488
 5570TIP3    H216675   5.569   2.629   3.276 -0.6748 -1.2143 -0.6556
 5571TIP3   OH216676   4.654   1.619   3.808 -0.2626 -0.0957 -1.0089
 5571TIP3    H116677   4.569   1.599   3.847 -0.0632  2.9582  1.3685
 5571TIP3    H216678   4.633   1.670   3.730 -0.6147 -0.3958 -1.1129
 5572TIP3   OH216679   3.607   0.966   1.066 -0.0201 -0.1562  0.0968
 5572TIP3    H116680   3.552   1.039   1.095 -2.5083 -2.6934  2.3244
 5572TIP3    H216681   3.632   0.989   0.977 -1.3987  2.9828  0.3879
 5573TIP3   OH216682   5.737   4.696   1.575  0.1041 -0.0123  0.3591
 5573TIP3    H116683   5.649   4.712   1.541 -0.5840 -1.1808  1.5033
 5573TIP3    H216684   5.795   4.711   1.500 -1.2238 -1.1217 -0.9467
 5574TIP3   OH216685   5.516   6.296   5.810  0.0877 -0.2078  0.1812
 5574TIP3    H116686   5.556   6.337   5.887  0.8926  0.5528 -0.6174
 5574TIP3    H216687   5.588   6.247   5.769  0.2454  1.1180 -1.2324
 5575TIP3   OH216688   6.434   6.177   1.382 -0.1269 -0.3803 -0.6046
 5575TIP3    H116689   6.443   6.103   1.441 -1.1434  0.1535  0.2570
 5575TIP3    H216690   6.371   6.148   1.316 -0.9064 -0.1399  0.0134
 5576TIP3   OH216691   0.178   5.869   0.582 -0.5193  0.2641  0.0561
 5576TIP3    H116692   0.222   5.954   0.582  2.2545 -1.0706 -1.3578
 5576TIP3    H216693   0.181   5.841   0.673 -1.2652  1.5083  0.5017
 5577TIP3   OH216694   6.267   1.421   2.170  0.5035  0.0364  0.5793
 5577TIP3    H116695   6.272   1.497   2.113  0.2513 -0.2472  0.1757
 5577TIP3    H216696   6.199   1.366   2.132 -0.5372  0.3998  1.8174
 5578TIP3   OH216697   2.167   3.525   1.345  0.2535  0.8110 -0.5421
 5578TIP3    H116698   2.100   3.508   1.279 -0.6952  1.7907  0.1193
 5578TIP3    H216699   2.224   3.591   1.305  0.1273  0.8333 -0.6868
 5579TIP3   OH216700   6.453   6.726   2.157  0.5419  0.2878 -0.1521
 5579TIP3    H116701   6.369   6.758   2.189  0.2448 -0.4082 -0.2361
 5579TIP3    H216702   6.503   6.707   2.236 -0.1834 -1.4102 -0.0715
 5580TIP3   OH216703   7.125   6.645   2.132  0.1914  0.2291  0.3423
 5580TIP3    H116704   7.096   6.735   2.118  1.1253  0.2948 -1.5388
 5580TIP3    H216705   7.044   6.594   2.132 -0.2397  0.8929 -0.2785
 5581TIP3   OH216706   0.097   5.081   1.468 -0.0689 -0.0697  0.0023
 5581TIP3    H116707   0.094   5.126   1.552 -0.7983 -0.4199  0.1708
 5581TIP3    H216708   0.189   5.061   1.455  0.1424  0.6214  0.3767
 5582TIP3   OH216709   3.970   4.369   5.390 -0.2046  0.9910  0.4158
 5582TIP3    H116710   4.032   4.315   5.439 -1.3102 -0.8288 -0.1232
 5582TIP3    H216711   4.026   4.425   5.336  1.0197 -1.2281 -0.7508
 5583TIP3   OH216712   0.827   6.065   0.210  0.0641 -0.2443  0.1166
 5583TIP3    H116713   0.802   6.146   0.254 -1.3272 -0.4858 -0.1800
 5583TIP3    H216714   0.834   6.001   0.281 -2.3967 -0.6878  0.0771
 5584TIP3   OH216715   2.226   1.853   2.008 -0.0497  0.1560  0.2123
 5584TIP3    H116716   2.318   1.875   2.017  0.6037 -1.4659 -1.7402
 5584TIP3    H216717   2.206   1.866   1.915 -0.5076 -3.6165 -0.3769
 5585TIP3   OH216718   6.673   1.352   5.605 -0.5145  0.3302 -0.0702
 5585TIP3    H116719   6.651   1.315   5.690 -0.3845  0.9183  0.2186
 5585TIP3    H216720   6.644   1.443   5.609  0.6900  0.7350 -0.1817
 5586TIP3   OH216721   3.536   1.222   1.373 -0.0242 -0.0512  0.2392
 5586TIP3    H116722   3.612   1.255   1.326  1.2547 -1.2694  1.3652
 5586TIP3    H216723   3.473   1.198   1.304  1.4282 -0.9515 -0.8179
 5587TIP3   OH216724   2.126   1.317   1.041 -0.2087 -0.3536  0.5385
 5587TIP3    H116725   2.086   1.287   1.122  1.8423 -1.9475  1.0170
 5587TIP3    H216726   2.219   1.326   1.061  0.5291 -1.7893 -1.8701
 5588TIP3   OH216727   6.232   4.993   0.861  0.1945  0.2202 -0.2690
 5588TIP3    H116728   6.220   4.911   0.812  0.8150  0.3769 -0.6966
 5588TIP3    H216729   6.275   5.052   0.799  1.1781  0.3620  0.5175
 5589TIP3   OH216730   5.704   6.137   3.303 -0.4031 -0.6014  0.0627
 5589TIP3    H116731   5.702   6.090   3.220  0.3688 -0.4827 -0.0390
 5589TIP3    H216732   5.621   6.184   3.307 -0.6968 -1.0809 -0.3604
 5590TIP3   OH216733   4.229   2.003   0.995  0.3974 -0.7957 -0.1795
 5590TIP3    H116734   4.271   1.925   1.032  0.5380 -0.2045  0.9726
 5590TIP3    H216735   4.146   2.010   1.043  0.2536 -0.4076 -0.4805
 5591TIP3   OH216736   4.945   6.761   3.463  0.0130 -0.0939  0.6003
 5591TIP3    H116737   4.969   6.774   3.371  0.2275 -0.1072  0.6526
 5591TIP3    H216738   4.916   6.670   3.467  2.5801 -0.9942  1.0607
 5592TIP3   OH216739   0.007   5.415   1.594  0.4950  0.2386 -0.4057
 5592TIP3    H116740   0.013   5.320   1.582  0.4565  0.2797 -0.7733
 5592TIP3    H216741  -0.014   5.449   1.507 -0.7019  0.4787 -0.0425
 5593TIP3   OH216742   0.215   4.912   2.732 -0.4213 -0.0831 -0.1506
 5593TIP3    H116743   0.145   4.950   2.679 -0.4761 -0.1990 -0.1597
 5593TIP3    H216744   0.293   4.917   2.676 -0.4999 -0.2980 -0.2802
 5594TIP3   OH216745   5.090   3.799   3.272  0.5620 -0.3886 -0.4421
 5594TIP3    H116746   5.037   3.720   3.265  0.5889 -0.3801 -0.7861
 5594TIP3    H216747   5.140   3.801   3.190 -0.2192  0.5362 -0.9239
 5595TIP3   OH216748   6.163   4.426   4.564  0.2646  0.5313 -0.1122
 5595TIP3    H116749   6.111   4.403   4.487  1.5002 -1.2122 -0.4908
 5595TIP3    H216750   6.120   4.379   4.636 -0.0091  0.9542  0.0068
 5596TIP3   OH216751   6.643   4.048   5.148 -0.4584  0.4353  0.0973
 5596TIP3    H116752   6.724   4.088   5.116  0.1300  0.1398  1.1451
 5596TIP3    H216753   6.641   3.961   5.108 -0.8235  0.8438 -0.7843
 5597TIP3   OH216754   0.867   5.571   4.869 -0.0182 -0.6880  0.1343
 5597TIP3    H116755   0.935   5.602   4.809 -2.0479  2.2479 -0.8841
 5597TIP3    H216756   0.898   5.597   4.956 -0.0546  1.2960 -0.3825
 5598TIP3   OH216757   3.097   2.082   1.211  0.0994 -0.3675 -0.0987
 5598TIP3    H116758   3.172   2.048   1.162  0.8249  1.4835 -0.3444
 5598TIP3    H216759   3.021   2.040   1.170  0.5617  1.7843 -3.5996
 5599TIP3   OH216760   2.329   1.137   5.758 -0.4348  0.0329  0.0938
 5599TIP3    H116761   2.363   1.050   5.776  0.4867 -0.1423 -2.2081
 5599TIP3    H216762   2.390   1.197   5.800 -0.8415 -0.3823  1.3220
 5600TIP3   OH216763   0.969   5.306   4.892 -0.4031  0.3195  0.1344
 5600TIP3    H116764   0.916   5.339   4.820 -1.6377 -0.7022  0.5254
 5600TIP3    H216765   1.009   5.226   4.857 -0.8740 -0.0886  0.5116
 5601TIP3   OH216766   0.120   3.674   3.427 -0.0385  0.1217 -0.0720
 5601TIP3    H116767   0.186   3.726   3.473  0.6454  1.8812 -2.8299
 5601TIP3    H216768   0.151   3.584   3.435 -0.0077  0.2958  2.8639
 5602TIP3   OH216769   1.280   2.172   0.185 -0.0240  0.2739 -0.6680
 5602TIP3    H116770   1.328   2.158   0.103  1.4713 -0.1473  0.2335
 5602TIP3    H216771   1.188   2.166   0.160  0.3103 -3.8394 -1.7504
 5603TIP3   OH216772   4.634   1.633   1.888  1.0807  0.3738  0.1482
 5603TIP3    H116773   4.686   1.553   1.893  0.6790  0.0749 -0.3696
 5603TIP3    H216774   4.610   1.641   1.796  0.3735  0.6138  0.3453
 5604TIP3   OH216775   4.206   5.175   1.549 -0.2069 -0.2714 -0.1504
 5604TIP3    H116776   4.245   5.094   1.515 -2.6097 -0.6889 -2.2865
 5604TIP3    H216777   4.278   5.238   1.551  1.1591 -1.7258 -1.0914
 5605TIP3   OH216778   0.176   4.229   1.143  0.2615 -0.1895 -0.1456
 5605TIP3    H116779   0.110   4.275   1.195  1.8663  1.4361  0.5509
 5605TIP3    H216780   0.131   4.150   1.111 -1.9593  0.7970  0.3731
 5606TIP3   OH216781   7.065   0.658   0.295  0.6855  0.0784 -0.1939
 5606TIP3    H116782   7.161   0.663   0.294  0.9440 -2.8747 -2.2957
 5606TIP3    H216783   7.043   0.643   0.387  2.2589  0.1670  0.2336
 5607TIP3   OH216784   0.678   3.810   0.933  0.3234  0.6145 -0.2817
 5607TIP3    H116785   0.586   3.833   0.914 -0.1852 -0.4705  0.7695
 5607TIP3    H216786   0.716   3.892   0.966 -0.3646  0.9934 -0.3990
 5608TIP3   OH216787   6.807   5.906   0.809 -0.0415  0.2753  0.5032
 5608TIP3    H116788   6.786   5.956   0.730  2.3544 -0.1290 -0.4651
 5608TIP3    H216789   6.724   5.865   0.834 -1.3217  2.0985 -0.5539
 5609TIP3   OH216790   3.642   4.252   4.052  0.1956  0.1053  0.3772
 5609TIP3    H116791   3.674   4.165   4.078  0.6314  0.7718  2.1908
 5609TIP3    H216792   3.721   4.299   4.025  0.0657  0.2090  0.1766
 5610TIP3   OH216793   7.050   2.449   1.399 -0.3836 -0.3003  0.2587
 5610TIP3    H116794   7.130   2.424   1.445 -0.5216 -1.2096  0.0210
 5610TIP3    H216795   6.993   2.373   1.407 -0.8439 -0.0359 -0.4436
 5611TIP3   OH216796   1.715   6.549   1.384  0.2122 -0.0597 -0.0748
 5611TIP3    H116797   1.780   6.553   1.314 -1.1175 -1.4295 -1.4710
 5611TIP3    H216798   1.632   6.573   1.341 -0.8956 -2.3568  0.5919
 5612TIP3   OH216799   0.858   1.833   4.882  0.1523  0.6199  0.1802
 5612TIP3    H116800   0.938   1.886   4.883  0.7774 -0.2990  0.7680
 5612TIP3    H216801   0.853   1.800   4.792  0.9036  0.0121  0.3512
 5613TIP3   OH216802   4.488   6.670   3.050  0.4824  0.3923 -0.1038
 5613TIP3    H116803   4.438   6.668   3.132  1.4750  2.0237  0.5657
 5613TIP3    H216804   4.452   6.597   2.999  0.5092 -1.3058  2.1556
 5614TIP3   OH216805   4.517   4.712   2.682  0.0564 -0.1044 -0.0442
 5614TIP3    H116806   4.601   4.703   2.727 -0.3589 -1.1946  0.5578
 5614TIP3    H216807   4.471   4.630   2.700 -0.9314  0.2551 -0.8055
 5615TIP3   OH216808   4.228   5.907   3.907 -0.3734 -0.0044  0.1178
 5615TIP3    H116809   4.269   5.990   3.885 -0.8917  0.3304  0.4004
 5615TIP3    H216810   4.243   5.851   3.830  0.0583  0.3118 -0.0304
 5616TIP3   OH216811   0.188   6.693   2.626 -0.2668  0.1015  0.0371
 5616TIP3    H116812   0.275   6.654   2.614  0.6476  1.7063  1.0684
 5616TIP3    H216813   0.174   6.690   2.720 -0.9850  0.5736 -0.0544
 5617TIP3   OH216814   5.396   1.011   5.192  0.1909 -0.0656  0.8934
 5617TIP3    H116815   5.316   0.987   5.144  1.5206  0.1593 -1.5861
 5617TIP3    H216816   5.427   0.928   5.228  0.2690 -0.6673 -0.4791
 5618TIP3   OH216817   6.126   1.974   4.250  0.3623  0.0941 -0.1883
 5618TIP3    H116818   6.204   1.960   4.303 -0.3308 -0.1259  0.7955
 5618TIP3    H216819   6.089   1.886   4.239 -0.7272  0.3936  0.8992
 5619TIP3   OH216820   6.793   2.487   5.423 -0.4511  0.1948  0.1421
 5619TIP3    H116821   6.734   2.421   5.461 -1.4098 -0.1860 -1.8705
 5619TIP3    H216822   6.852   2.437   5.366  2.4145  0.4674  2.5950
 5620TIP3   OH216823   5.179   4.354   5.619  0.8634  0.2668  0.1542
 5620TIP3    H116824   5.201   4.429   5.675 -1.4275  1.1302  0.0105
 5620TIP3    H216825   5.200   4.383   5.530  2.4089 -0.2748  0.3147
 5621TIP3   OH216826   2.374   4.976   0.642  0.5339  0.3055  0.0674
 5621TIP3    H116827   2.380   5.059   0.594 -2.0626  0.2454 -0.5063
 5621TIP3    H216828   2.403   4.910   0.580 -0.7029  0.4577 -0.6942
 5622TIP3   OH216829   5.798   2.232   2.012 -0.1021  0.2407 -0.4042
 5622TIP3    H116830   5.863   2.198   2.073  0.8117 -0.1026 -1.5424
 5622TIP3    H216831   5.832   2.318   1.987 -0.7947  0.6510  0.0318
 5623TIP3   OH216832   6.882   4.681   4.062  0.2267 -0.3812  0.4019
 5623TIP3    H116833   6.845   4.643   4.142  0.5698  1.4057  1.4574
 5623TIP3    H216834   6.901   4.771   4.085  1.2065 -0.0738 -1.4475
 5624TIP3   OH216835   3.299   3.857   3.045 -0.1642 -0.0780  0.3291
 5624TIP3    H116836   3.352   3.879   3.123 -0.6382 -2.0943  1.2753
 5624TIP3    H216837   3.356   3.801   2.992 -1.4067 -2.7605  1.6381
 5625TIP3   OH216838   0.944   4.185   2.293  0.3100  0.3382 -0.1912
 5625TIP3    H116839   1.005   4.164   2.364 -0.6565  0.9486  0.8645
 5625TIP3    H216840   0.892   4.106   2.281  2.1361 -0.6733 -2.0441
 5626TIP3   OH216841   1.117   1.019   4.418 -0.6872 -0.2738 -0.3709
 5626TIP3    H116842   1.104   1.108   4.383 -0.7337 -0.1211  0.0255
 5626TIP3    H216843   1.083   1.024   4.507 -0.9475 -0.7688 -0.4378
 5627TIP3   OH216844   2.206   4.603   1.483  0.0617  0.0771 -0.1570
 5627TIP3    H116845   2.133   4.555   1.443  1.7106 -1.3401 -1.6554
 5627TIP3    H216846   2.231   4.550   1.559 -0.2424  0.3796  0.1564
 5628TIP3   OH216847   5.094   4.860   3.908  0.2647  0.3922  0.1398
 5628TIP3    H116848   5.015   4.879   3.858 -0.6006 -2.4764  0.2469
 5628TIP3    H216849   5.071   4.787   3.965  3.0077 -0.7237  0.0176
 5629TIP3   OH216850   3.831   2.390   2.154 -0.3666 -0.5233  0.7603
 5629TIP3    H116851   3.738   2.382   2.134 -0.1607 -0.4294 -0.2847
 5629TIP3    H216852   3.844   2.482   2.176 -0.3594 -0.3261 -0.0289
 5630TIP3   OH216853   1.788   0.972   3.023 -0.3621  0.1838 -0.6911
 5630TIP3    H116854   1.768   1.059   2.987  0.0085 -0.1772 -1.8092
 5630TIP3    H216855   1.807   0.988   3.116 -2.2393  1.0169 -0.4192
 5631TIP3   OH216856   4.599   0.013   0.628 -0.6657 -0.2980  0.3103
 5631TIP3    H116857   4.510   0.041   0.609 -0.5905  0.8983  1.5229
 5631TIP3    H216858   4.636   0.085   0.680  1.4437 -0.1308 -1.2738
 5632TIP3   OH216859   7.101   6.742   3.020 -0.1190  0.0930 -0.3810
 5632TIP3    H116860   7.014   6.756   2.984 -0.0595 -1.6132 -1.3393
 5632TIP3    H216861   7.100   6.786   3.105 -1.3310  1.5410 -1.0947
 5633TIP3   OH216862   2.012   1.351   0.404 -0.2042 -0.2860  0.0452
 5633TIP3    H116863   1.973   1.388   0.325 -1.5938  0.7096  1.1550
 5633TIP3    H216864   2.046   1.427   0.452  1.0349 -0.9172  0.2221
 5634TIP3   OH216865   0.692   2.202   5.501 -0.2369 -0.2120 -0.1262
 5634TIP3    H116866   0.631   2.242   5.439 -1.2432  1.4064  1.8205
 5634TIP3    H216867   0.637   2.171   5.573  0.9750 -1.3585  0.3545
 5635TIP3   OH216868   2.666   5.312   4.178  0.3567 -0.1191  0.0309
 5635TIP3    H116869   2.742   5.286   4.230  0.6018 -0.7084 -0.6017
 5635TIP3    H216870   2.607   5.354   4.241  1.5575  1.1131  0.3703
 5636TIP3   OH216871   5.733   5.247   5.510 -0.0392  0.2697  0.3487
 5636TIP3    H116872   5.715   5.170   5.564 -1.2625  1.2647  1.4117
 5636TIP3    H216873   5.802   5.294   5.557 -1.1267  1.1527  1.1185
 5637TIP3   OH216874   5.218   3.098   3.181  0.4535  0.5259 -0.0542
 5637TIP3    H116875   5.266   3.155   3.121  1.0549  0.7892  0.6670
 5637TIP3    H216876   5.261   3.110   3.265  0.1539 -0.4793  0.2552
 5638TIP3   OH216877   1.893   6.716   5.259  0.1431  0.5845 -0.4880
 5638TIP3    H116878   1.988   6.707   5.272 -0.1480 -2.4235  0.2464
 5638TIP3    H216879   1.862   6.760   5.338  0.7125 -0.1137  0.1362
 5639TIP3   OH216880   1.125   3.237   1.218  1.1164 -0.4092  0.6231
 5639TIP3    H116881   1.054   3.194   1.264  0.5585 -0.9721 -0.7151
 5639TIP3    H216882   1.117   3.208   1.127  2.8279 -0.1915  0.3576
 5640TIP3   OH216883   1.544   6.279   1.542 -0.1151  0.3438  0.8838
 5640TIP3    H116884   1.463   6.330   1.541 -1.9033 -2.1604 -1.8627
 5640TIP3    H216885   1.603   6.326   1.483 -0.5852  0.8087  0.7722
 5641TIP3   OH216886   6.931   1.479   3.524 -0.1506 -0.6002  0.1761
 5641TIP3    H116887   6.863   1.464   3.459 -0.9025  0.4472  0.6758
 5641TIP3    H216888   6.888   1.534   3.590  1.4349  0.9157  0.0262
 5642TIP3   OH216889   6.543   1.125   1.917 -0.3773  0.7062  0.0441
 5642TIP3    H116890   6.585   1.142   2.001  0.7702  1.2401 -0.6219
 5642TIP3    H216891   6.589   1.181   1.855  0.9710 -1.9400 -1.5285
 5643TIP3   OH216892   3.020   4.032   3.230  0.7784 -0.0332  0.0026
 5643TIP3    H116893   3.013   3.960   3.167 -1.8651 -0.2833  0.4469
 5643TIP3    H216894   2.953   4.095   3.202 -0.5206 -0.1583  2.4748
 5644TIP3   OH216895   4.407   2.052   0.148  0.0880 -0.8386  0.3978
 5644TIP3    H116896   4.321   2.052   0.105 -0.2335  0.5420  0.9880
 5644TIP3    H216897   4.390   2.022   0.237  0.1124  0.0276  0.6976
 5645TIP3   OH216898   4.473   5.894   4.232  0.0402  0.6066 -0.2914
 5645TIP3    H116899   4.386   5.887   4.192  0.7454 -2.2204 -1.5720
 5645TIP3    H216900   4.457   5.884   4.326 -0.8836 -2.5168 -0.6778
 5646TIP3   OH216901   2.738   1.568   4.832 -0.0071  0.2706 -0.0900
 5646TIP3    H116902   2.659   1.622   4.839  0.2512  0.5047  1.3134
 5646TIP3    H216903   2.741   1.519   4.914  1.1872  0.0913 -0.2226
 5647TIP3   OH216904   6.118   1.571   1.390 -0.6258  0.8412 -0.5931
 5647TIP3    H116905   6.099   1.649   1.338  2.4349  1.4183 -0.9914
 5647TIP3    H216906   6.159   1.604   1.469  0.0868 -0.3346 -0.4474
 5648TIP3   OH216907   6.709   0.691   3.440  0.6549 -0.4029 -0.1043
 5648TIP3    H116908   6.785   0.643   3.472 -0.5261 -1.9243  0.5467
 5648TIP3    H216909   6.655   0.624   3.397 -2.1513 -0.2498  2.7918
 5649TIP3   OH216910   4.409   5.021   4.482  0.7563 -0.5119 -0.4034
 5649TIP3    H116911   4.365   4.951   4.433  1.4179 -0.8642 -0.4999
 5649TIP3    H216912   4.499   5.021   4.450  1.2475 -0.8457  0.8874
 5650TIP3   OH216913   7.124   3.205   0.501 -0.2329  0.5826  0.4862
 5650TIP3    H116914   7.163   3.135   0.552 -3.6553  0.1794  2.8645
 5650TIP3    H216915   7.100   3.164   0.418 -0.7026 -0.6814  1.2165
 5651TIP3   OH216916   1.674   4.823   2.982  0.4184  0.0955 -0.6214
 5651TIP3    H116917   1.662   4.781   2.896 -0.2955 -0.2136 -0.3803
 5651TIP3    H216918   1.740   4.769   3.025 -0.5356 -0.8516 -0.2919
 5652TIP3   OH216919   4.322   3.846   0.592 -0.0897  0.2428 -0.1304
 5652TIP3    H116920   4.392   3.794   0.552 -0.0763  1.3457 -1.6254
 5652TIP3    H216921   4.360   3.934   0.602 -0.9747  0.6389 -0.1520
 5653TIP3   OH216922   5.203   5.017   4.159 -0.2669  0.3657 -0.1459
 5653TIP3    H116923   5.216   5.025   4.064 -1.1419  0.3386 -0.2783
 5653TIP3    H216924   5.288   4.988   4.192  0.2811  1.1342 -0.8197
 5654TIP3   OH216925   5.504   5.785   0.937 -0.0082  0.2757  0.1528
 5654TIP3    H116926   5.562   5.741   0.876  0.0542  1.0876 -0.3838
 5654TIP3    H216927   5.417   5.748   0.919 -0.5658  2.5921 -2.5458
 5655TIP3   OH216928   5.360   2.368   0.175  0.7798 -0.2894  0.1103
 5655TIP3    H116929   5.401   2.282   0.165  0.2799 -0.5319  0.1151
 5655TIP3    H216930   5.269   2.348   0.194  1.2601  0.1719  3.4033
 5656TIP3   OH216931   0.513   2.250   2.815  0.1897  0.1381 -0.0077
 5656TIP3    H116932   0.604   2.274   2.829  0.1038  0.5526 -0.1421
 5656TIP3    H216933   0.465   2.333   2.820 -0.3777 -0.2612  1.6890
 5657TIP3   OH216934   6.691   0.283   5.592 -1.1228 -0.1338  0.2731
 5657TIP3    H116935   6.596   0.275   5.582 -1.1992  0.8915  0.1094
 5657TIP3    H216936   6.706   0.274   5.687 -1.3110 -0.9068  0.2372
 5658TIP3   OH216937   2.524   3.856   5.851 -0.3987  0.1892  0.4057
 5658TIP3    H116938   2.438   3.898   5.852 -1.5540 -1.9869  1.9289
 5658TIP3    H216939   2.572   3.898   5.923  0.5747  2.6054 -1.4866
 5659TIP3   OH216940   6.680   6.108   1.019 -0.6859  0.1814  0.1293
 5659TIP3    H116941   6.700   6.015   1.030  0.4161  0.4138  0.2117
 5659TIP3    H216942   6.734   6.152   1.085 -0.9920  0.9037 -0.0916
 5660TIP3   OH216943   3.177   2.911   3.476  0.5938  0.0599  0.0598
 5660TIP3    H116944   3.166   2.938   3.567  0.9140 -1.1987  0.4835
 5660TIP3    H216945   3.167   2.992   3.426  0.3325  0.7520  1.2020
 5661TIP3   OH216946   2.161   0.669   5.717 -0.4552  0.4183 -0.3915
 5661TIP3    H116947   2.108   0.624   5.652 -0.9616  0.8133 -0.2647
 5661TIP3    H216948   2.197   0.745   5.671 -1.0249  0.8424 -0.1534
 5662TIP3   OH216949   4.273   2.412   0.348 -0.0186 -0.5970 -0.1014
 5662TIP3    H116950   4.204   2.452   0.296 -0.6051 -1.7763 -0.2598
 5662TIP3    H216951   4.354   2.451   0.315 -0.6050  1.0611  0.3234
 5663TIP3   OH216952   5.023   0.541   2.881  0.1230 -0.1658  0.5383
 5663TIP3    H116953   5.015   0.451   2.848  1.0693  0.0161 -0.2387
 5663TIP3    H216954   5.088   0.582   2.823 -0.8675  1.2585  0.3957
 5664TIP3   OH216955   4.265   3.356   0.511  0.6644  0.1552  0.2067
 5664TIP3    H116956   4.328   3.381   0.579 -1.0894 -1.0138  2.4010
 5664TIP3    H216957   4.274   3.261   0.503  1.1444  0.3148 -1.5846
 5665TIP3   OH216958   2.053   2.555   2.909 -0.0944 -0.0281 -0.4548
 5665TIP3    H116959   2.042   2.470   2.868 -0.0706 -0.6932  0.8742
 5665TIP3    H216960   2.080   2.613   2.838  2.3183 -1.6435 -0.9646
 5666TIP3   OH216961   2.463   1.788   4.642 -0.0395 -0.1020 -0.2765
 5666TIP3    H116962   2.414   1.830   4.572 -0.9415 -1.7168 -0.6550
 5666TIP3    H216963   2.521   1.726   4.598 -1.3750 -1.9117  0.4181
 5667TIP3   OH216964   1.336   5.444   5.485  0.6670  0.1034 -0.3046
 5667TIP3    H116965   1.397   5.517   5.481  0.5590  0.2269  0.1882
 5667TIP3    H216966   1.361   5.396   5.564  1.4872 -1.0602 -1.2338
 5668TIP3   OH216967   5.502   6.650   3.250 -0.1965 -0.0753 -0.4685
 5668TIP3    H116968   5.444   6.720   3.218  0.6168  0.1215 -1.5534
 5668TIP3    H216969   5.568   6.696   3.303  1.1211  0.1894 -2.2604
 5669TIP3   OH216970   2.551   5.760   3.893 -0.5364 -0.3835 -0.2951
 5669TIP3    H116971   2.635   5.795   3.866 -1.4572  2.2726 -0.0075
 5669TIP3    H216972   2.505   5.740   3.811 -1.1475  2.1852 -0.6706
 5670TIP3   OH216973   4.273   4.557   2.618  0.4165 -0.4275  0.0500
 5670TIP3    H116974   4.273   4.646   2.584 -0.2467 -0.3120  0.3337
 5670TIP3    H216975   4.184   4.544   2.651  0.4797 -1.2229 -0.0666
 5671TIP3   OH216976   7.024   5.515   5.607 -0.1287 -0.4578  0.2734
 5671TIP3    H116977   7.098   5.503   5.548 -0.3560  0.8311 -0.3075
 5671TIP3    H216978   6.978   5.431   5.605 -0.7157 -0.1614 -2.2419
 5672TIP3   OH216979   4.395   3.538   3.467  0.0757  0.9600  0.0854
 5672TIP3    H116980   4.319   3.483   3.448  0.0338  0.9760  0.2098
 5672TIP3    H216981   4.404   3.536   3.562  1.2097 -0.3588 -0.0102
 5673TIP3   OH216982   2.695   2.892   4.519 -0.2223 -0.5482  0.4130
 5673TIP3    H116983   2.748   2.907   4.596  1.0574  0.7577 -0.6702
 5673TIP3    H216984   2.704   2.972   4.467 -0.1969 -1.7615 -1.5706
 5674TIP3   OH216985   2.992   3.636   4.492 -0.4128 -0.0769 -0.0801
 5674TIP3    H116986   2.961   3.653   4.581 -1.9099 -1.6619 -0.2487
 5674TIP3    H216987   3.059   3.569   4.503 -1.6745 -1.3964 -0.2432
 5675TIP3   OH216988   3.383   1.433   1.063 -0.1577  0.2477 -0.7502
 5675TIP3    H116989   3.418   1.482   1.137 -0.0506 -1.7907  0.6260
 5675TIP3    H216990   3.290   1.422   1.084 -0.2766  0.2563 -1.2664
 5676TIP3   OH216991   0.075   3.078   0.262 -0.4777 -0.3488 -0.1883
 5676TIP3    H116992   0.022   3.046   0.188 -0.2414 -0.3755 -0.3493
 5676TIP3    H216993   0.149   3.017   0.266 -1.1813 -1.1576  0.9290
 5677TIP3   OH216994   5.412   3.344   1.563 -0.2592  0.5719  0.3817
 5677TIP3    H116995   5.359   3.268   1.588  1.0640 -0.3274  0.5704
 5677TIP3    H216996   5.498   3.325   1.600 -0.3948  3.1892  2.3139
 5678TIP3   OH216997   6.454   3.961   0.355 -0.5023  0.0912 -0.3191
 5678TIP3    H116998   6.405   4.037   0.324 -1.0641  1.4711  3.3543
 5678TIP3    H216999   6.404   3.885   0.325 -1.5353  1.2597 -1.6560
 5679TIP3   OH217000   3.363   4.186   0.927  0.1155 -0.4601 -0.4012
 5679TIP3    H117001   3.401   4.228   0.850 -2.4508  1.1676 -0.8892
 5679TIP3    H217002   3.412   4.104   0.936  2.0710  0.3989 -2.3133
 5680TIP3   OH217003   0.655   1.859   5.412  0.1301 -0.0679  0.1330
 5680TIP3    H117004   0.593   1.911   5.463 -1.2937 -1.2843 -0.2971
 5680TIP3    H217005   0.629   1.873   5.321  0.5378 -0.5378 -0.0577
 5681TIP3   OH217006   2.697   3.943   3.183  0.6313 -0.5282 -0.2714
 5681TIP3    H117007   2.710   3.961   3.276  1.0400  0.0960 -0.4421
 5681TIP3    H217008   2.671   3.851   3.179 -1.4171 -0.0409  0.6312
 5682TIP3   OH217009   0.982   1.558   4.880 -0.0253  0.1808 -0.1101
 5682TIP3    H117010   0.958   1.630   4.938 -0.1326  0.0258  0.0359
 5682TIP3    H217011   0.961   1.479   4.929  0.6294  0.0439 -0.0361
 5683TIP3   OH217012   6.297   4.209   3.409  0.3076  0.2645 -0.6259
 5683TIP3    H117013   6.232   4.277   3.426  0.5444  0.1985  0.6483
 5683TIP3    H217014   6.378   4.243   3.447  0.6198 -0.3796 -0.7078
 5684TIP3   OH217015   6.185   2.233   2.859  0.4117 -0.1174 -0.3449
 5684TIP3    H117016   6.160   2.286   2.935  0.5166 -0.1773 -0.2692
 5684TIP3    H217017   6.180   2.142   2.891  2.9681 -0.0757  0.3578
 5685TIP3   OH217018   5.259   6.765   3.166 -0.2474 -0.5453 -0.3656
 5685TIP3    H117019   5.279   6.814   3.086  0.1452  1.4061  0.8545
 5685TIP3    H217020   5.171   6.730   3.152 -0.1720 -0.2708 -1.6492
 5686TIP3   OH217021   6.491   5.844   3.401  0.1653  0.5151 -0.0307
 5686TIP3    H117022   6.416   5.811   3.451 -0.1146  2.9433  1.3131
 5686TIP3    H217023   6.456   5.860   3.314  0.2153 -2.1449 -0.6166
 5687TIP3   OH217024   6.890   5.431   3.532 -0.8628 -0.2529 -0.3914
 5687TIP3    H117025   6.919   5.522   3.540 -1.0410 -0.2255 -0.0498
 5687TIP3    H217026   6.967   5.384   3.500 -0.8755  0.0813 -0.9235
 5688TIP3   OH217027   6.893   4.323   4.598  0.2930  0.0021 -0.0708
 5688TIP3    H117028   6.811   4.354   4.559 -2.2000 -1.4887  3.4771
 5688TIP3    H217029   6.934   4.402   4.634 -0.4851  0.5511 -0.3627
 5689TIP3   OH217030   6.754   5.213   2.420  0.4014  0.0376  0.1662
 5689TIP3    H117031   6.680   5.262   2.385 -0.3436 -0.5108  0.9472
 5689TIP3    H217032   6.720   5.124   2.435  0.3495  0.4612  3.2154
 5690TIP3   OH217033   0.560   5.044   5.732  0.3584 -0.1730  0.1278
 5690TIP3    H117034   0.574   5.130   5.694  0.3090 -0.3367 -0.2601
 5690TIP3    H217035   0.555   5.060   5.827  0.3299  0.2495  0.0545
 5691TIP3   OH217036   5.985   6.244   0.259 -0.4785  0.0436 -0.2325
 5691TIP3    H117037   6.045   6.276   0.192  0.0002  0.0142  0.1744
 5691TIP3    H217038   6.012   6.154   0.275  0.2956  0.4611  0.9548
 5692TIP3   OH217039   2.725   5.319   0.722 -0.0615  0.3104  0.4161
 5692TIP3    H117040   2.797   5.262   0.697 -1.2244  0.1070 -2.8585
 5692TIP3    H217041   2.646   5.266   0.710 -1.0234  1.8572 -0.4994
 5693TIP3   OH217042   4.849   0.467   3.070  0.2071 -0.0161  0.0486
 5693TIP3    H117043   4.901   0.422   3.136  1.5087 -0.0086 -0.9319
 5693TIP3    H217044   4.914   0.513   3.016 -1.0081  2.3586  0.4995
 5694TIP3   OH217045   2.714   3.323   1.331  0.3736  0.8206 -0.2774
 5694TIP3    H117046   2.655   3.394   1.354  1.0838  1.0623  0.9549
 5694TIP3    H217047   2.796   3.345   1.377  0.5889 -0.8018  0.1938
 5695TIP3   OH217048   6.147   3.224   5.823 -0.0963 -0.0654  0.0678
 5695TIP3    H117049   6.135   3.258   5.911 -0.0526  0.0437  0.0310
 5695TIP3    H217050   6.241   3.223   5.810 -0.1466  1.4630 -0.5895
 5696TIP3   OH217051   2.330   5.099   3.199 -0.1753 -0.0592  0.3046
 5696TIP3    H117052   2.403   5.146   3.158  0.0779  0.1699  0.9985
 5696TIP3    H217053   2.252   5.134   3.156  0.0943  0.0455 -0.1038
 5697TIP3   OH217054   4.781   3.061   3.361 -0.7990  0.2216 -0.3162
 5697TIP3    H117055   4.851   3.063   3.425  0.4633 -0.7550 -1.6040
 5697TIP3    H217056   4.716   3.124   3.394  0.5320  0.9407  1.0412
 5698TIP3   OH217057   1.866   1.275   1.186 -0.4796 -0.1882 -0.5112
 5698TIP3    H117058   1.932   1.277   1.255 -1.5134  0.6289  0.4960
 5698TIP3    H217059   1.887   1.197   1.135 -0.0958 -1.2282  1.1396
 5699TIP3   OH217060   4.860   4.887   3.776  0.1706 -0.3556  0.2072
 5699TIP3    H117061   4.851   4.837   3.695  0.1463  1.2423 -0.8341
 5699TIP3    H217062   4.771   4.888   3.813  0.4277 -2.1763  0.9790
 5700TIP3   OH217063   3.193   5.224   3.681  0.3040 -0.2122  0.3411
 5700TIP3    H117064   3.168   5.174   3.603  0.5826  0.2635 -0.0597
 5700TIP3    H217065   3.194   5.159   3.751 -1.0386 -0.4311  0.1775
 5701TIP3   OH217066   6.064   6.178   3.803  0.8571  0.5314  0.6809
 5701TIP3    H117067   6.037   6.237   3.732  0.7550 -0.3958 -0.0694
 5701TIP3    H217068   6.001   6.195   3.873 -0.7369 -0.4612 -0.4551
 5702TIP3   OH217069   1.114   1.277   2.754  0.2856  0.4651  0.4544
 5702TIP3    H117070   1.163   1.341   2.704 -0.9186  0.1655 -1.1870
 5702TIP3    H217071   1.027   1.316   2.766 -0.3095 -0.6295 -0.1392
 5703TIP3   OH217072   2.284   4.726   4.534  0.0323  0.5180 -0.4730
 5703TIP3    H117073   2.290   4.737   4.440 -2.4130 -1.9443 -1.0545
 5703TIP3    H217074   2.218   4.789   4.562 -0.0539  0.4791 -0.5925
 5704TIP3   OH217075   6.520   1.466   1.014  0.1186 -0.0084 -0.1750
 5704TIP3    H117076   6.460   1.521   1.064 -0.1575 -0.3306 -0.1465
 5704TIP3    H217077   6.496   1.376   1.038  0.1787 -0.1581 -0.6559
 5705TIP3   OH217078   0.759   4.954   4.682  0.3189 -0.0551  0.4248
 5705TIP3    H117079   0.681   4.899   4.671  0.4046  0.2487 -2.9897
 5705TIP3    H217080   0.728   5.043   4.663  0.9948  0.4791  1.7227
 5706TIP3   OH217081   5.924   3.077   1.885 -0.4213  0.2957 -0.4145
 5706TIP3    H117082   5.971   3.150   1.845  0.0000 -0.6168 -1.6766
 5706TIP3    H217083   5.933   3.091   1.979 -1.5515  2.5891 -0.5952
 5707TIP3   OH217084   4.521   2.846   3.043 -0.0280  0.0169  0.3712
 5707TIP3    H117085   4.526   2.750   3.037  1.5204  0.1507 -1.0551
 5707TIP3    H217086   4.427   2.864   3.047 -0.3577 -1.5462  0.5369
 5708TIP3   OH217087   5.154   6.775   2.742  0.0863  0.2349  0.2450
 5708TIP3    H117088   5.227   6.730   2.700  2.3045  1.1122  2.8432
 5708TIP3    H217089   5.092   6.705   2.765 -0.1683 -0.4843 -2.3399
 5709TIP3   OH217090   3.880   0.275   2.896  0.1167 -0.0509 -0.2411
 5709TIP3    H117091   3.881   0.268   2.801 -1.6075 -0.9022 -0.2361
 5709TIP3    H217092   3.882   0.369   2.914  0.3283  0.1172 -1.1206
 5710TIP3   OH217093   2.842   5.173   3.668  0.5850  0.2861 -0.7153
 5710TIP3    H117094   2.851   5.173   3.763 -1.5251  0.2606 -0.4723
 5710TIP3    H217095   2.883   5.092   3.639 -0.5285 -0.6948  0.3920
 5711TIP3   OH217096   0.767   3.818   1.836 -0.2708  0.0422  0.0327
 5711TIP3    H117097   0.792   3.893   1.889 -2.0712  0.6852  0.0454
 5711TIP3    H217098   0.740   3.856   1.752 -1.4545 -0.5433  0.1327
 5712TIP3   OH217099   3.919   6.424   4.034 -0.1032 -0.0596 -0.1626
 5712TIP3    H117100   3.866   6.345   4.046 -1.4213  0.7348 -0.5328
 5712TIP3    H217101   3.879   6.469   3.959 -0.2015  1.5825  0.8065
 5713TIP3   OH217102   2.600   0.672   3.647 -0.0933  0.2960  0.0429
 5713TIP3    H117103   2.607   0.714   3.733  0.1679  3.6421 -1.4567
 5713TIP3    H217104   2.507   0.656   3.635 -0.2836  1.0701  0.4253
 5714TIP3   OH217105   4.229   6.662   2.228 -0.0246 -0.3680  0.0901
 5714TIP3    H117106   4.294   6.605   2.186  1.4020  1.4861 -0.3614
 5714TIP3    H217107   4.191   6.609   2.298  0.9977 -1.9599 -0.5216
 5715TIP3   OH217108   1.438   3.586   2.988  0.1844  0.0553  0.2216
 5715TIP3    H117109   1.344   3.572   2.990  0.4462 -1.8810  2.0684
 5715TIP3    H217110   1.461   3.612   3.078  1.6518 -1.6845  0.4188
 5716TIP3   OH217111   3.867   5.840   2.888  0.0716  0.1313  0.0106
 5716TIP3    H117112   3.834   5.917   2.935 -0.3862 -0.8672  1.3802
 5716TIP3    H217113   3.962   5.845   2.896  0.0232  0.3127  0.5072
 5717TIP3   OH217114   5.448   4.360   0.240 -0.2441 -0.0123  0.1272
 5717TIP3    H117115   5.426   4.339   0.150  0.3144 -0.5871  0.1180
 5717TIP3    H217116   5.512   4.430   0.234 -2.1046  1.7987  0.1578
 5718TIP3   OH217117   2.593   0.095   0.427 -0.2279 -0.6633 -0.1567
 5718TIP3    H117118   2.527   0.078   0.494  0.0206 -1.2022 -0.0469
 5718TIP3    H217119   2.582   0.188   0.406 -0.0307 -0.3837  0.9400
 5719TIP3   OH217120   3.329   3.426   1.717 -0.0034 -0.1536 -0.0198
 5719TIP3    H117121   3.304   3.386   1.633 -0.1872  0.9403 -0.4942
 5719TIP3    H217122   3.421   3.451   1.704 -0.2530  0.6923 -0.1572
 5720TIP3   OH217123   4.389   3.818   1.951 -0.1754 -0.1884 -0.3081
 5720TIP3    H117124   4.477   3.783   1.937  0.9480  1.8874  1.1506
 5720TIP3    H217125   4.337   3.779   1.880  1.6866 -2.0835 -0.7489
 5721TIP3   OH217126   4.297   6.109   3.128 -0.5739 -0.0586  0.4041
 5721TIP3    H117127   4.385   6.122   3.092 -0.7361  0.6720  0.2577
 5721TIP3    H217128   4.305   6.032   3.185  0.0072 -0.3837 -0.1126
 5722TIP3   OH217129   7.025   3.686   1.250 -0.2835 -0.4615  0.3592
 5722TIP3    H117130   6.997   3.617   1.190  2.6688 -1.4309 -0.0537
 5722TIP3    H217131   6.968   3.761   1.228 -0.6064 -1.3783 -2.3153
 5723TIP3   OH217132   0.284   3.241   1.540 -0.3183  0.5101 -0.1690
 5723TIP3    H117133   0.225   3.208   1.472 -2.2762  2.0906  0.6478
 5723TIP3    H217134   0.258   3.193   1.619 -0.3374  1.0079  0.1335
 5724TIP3   OH217135   3.766   6.068   3.047  0.1937 -0.3690 -0.1307
 5724TIP3    H117136   3.844   6.049   3.100  1.5166  1.5370 -1.2877
 5724TIP3    H217137   3.718   6.134   3.097  0.2959 -0.1733 -0.2918
 5725TIP3   OH217138   6.004   2.956   4.496  0.2108 -0.0170  0.1513
 5725TIP3    H117139   5.915   2.991   4.503 -0.0527  0.1013 -2.5955
 5725TIP3    H217140   6.061   3.031   4.515 -0.3448  0.7517 -1.0334
 5726TIP3   OH217141   4.171   3.290   1.990  0.0961 -0.0289 -0.6716
 5726TIP3    H117142   4.152   3.197   1.980 -0.9558  0.0086  0.6178
 5726TIP3    H217143   4.115   3.333   1.925  0.0005 -0.2671 -0.7467
 5727TIP3   OH217144   5.901   2.116   0.568 -0.3771  0.2259  0.6790
 5727TIP3    H117145   5.993   2.099   0.589  0.8247  3.4670 -1.3451
 5727TIP3    H217146   5.876   2.043   0.511  1.3797 -0.0027  0.1533
 5728TIP3   OH217147   2.129   1.000   4.380  0.4380  0.2395  0.2143
 5728TIP3    H117148   2.060   1.059   4.410 -0.0894 -0.9191  1.3811
 5728TIP3    H217149   2.093   0.960   4.300 -1.4690 -2.2598  2.1226
 5729TIP3   OH217150   5.523   6.650   3.686 -0.6831  0.3552  0.0739
 5729TIP3    H117151   5.479   6.735   3.685  0.0600  0.7427 -0.7450
 5729TIP3    H217152   5.472   6.596   3.625 -1.3484  0.1054  0.8424
 5730TIP3   OH217153   5.518   3.625   3.485 -0.1918 -0.1579  0.5762
 5730TIP3    H117154   5.490   3.675   3.408 -2.4582 -0.4184  1.1704
 5730TIP3    H217155   5.613   3.637   3.487 -0.2844  1.4324 -1.1534
 5731TIP3   OH217156   6.843   1.192   2.018 -0.2460  0.0940  0.1342
 5731TIP3    H117157   6.865   1.274   1.974 -0.8305 -0.0686 -0.4743
 5731TIP3    H217158   6.882   1.124   1.964  1.5222  0.0149  1.4278
 5732TIP3   OH217159   0.497   5.988   0.714  0.0900  0.2503 -0.7766
 5732TIP3    H117160   0.462   5.907   0.751  1.8091  0.8486  2.4902
 5732TIP3    H217161   0.551   5.959   0.640 -0.1847 -1.4699 -0.3419
 5733TIP3   OH217162   3.525   1.275   2.042 -0.0504 -0.2514 -0.5930
 5733TIP3    H117163   3.486   1.362   2.035  0.1694  0.3214  3.1006
 5733TIP3    H217164   3.458   1.216   2.007 -1.8400  1.1572  0.3000
 5734TIP3   OH217165   1.017   0.391   2.096  0.3662  0.4267 -0.4107
 5734TIP3    H117166   1.082   0.327   2.067  0.9113  0.8972 -0.2319
 5734TIP3    H217167   0.955   0.340   2.148 -1.1182 -0.6462 -2.9944
 5735TIP3   OH217168   0.830   6.081   2.702  0.0432 -0.3706  0.4405
 5735TIP3    H117169   0.796   6.167   2.678 -0.5096 -0.5458  0.5735
 5735TIP3    H217170   0.769   6.019   2.663  1.2360 -0.7585 -0.8823
 5736TIP3   OH217171   5.061   2.054   4.753 -0.3539  0.3503 -0.1601
 5736TIP3    H117172   4.988   2.049   4.691 -1.9216 -0.6044  1.6255
 5736TIP3    H217173   5.058   2.143   4.788 -1.8929 -0.1745  1.1939
 5737TIP3   OH217174   2.400   1.100   2.420 -0.2305  0.8345  0.1359
 5737TIP3    H117175   2.354   1.087   2.503  2.3004 -0.7054  1.4001
 5737TIP3    H217176   2.330   1.116   2.357 -2.3110  1.2102  2.3767
 5738TIP3   OH217177   2.942   0.052   0.065  0.3534 -0.2344  0.6131
 5738TIP3    H117178   2.848   0.055   0.045  0.6659  0.4532 -0.8247
 5738TIP3    H217179   2.945   0.057   0.161 -1.0592  0.5773  0.6581
 5739TIP3   OH217180   3.186   6.089   4.599  0.1785  0.6231 -0.3063
 5739TIP3    H117181   3.252   6.069   4.666 -1.2069  1.3230  1.3750
 5739TIP3    H217182   3.111   6.122   4.650 -2.0238 -1.4990 -1.9619
 5740TIP3   OH217183   5.171   1.577   2.606 -0.0120  0.2821  0.0714
 5740TIP3    H117184   5.205   1.505   2.553  1.1038  1.3995 -0.7688
 5740TIP3    H217185   5.208   1.656   2.568 -0.3798  1.2507  1.6043
 5741TIP3   OH217186   1.750   0.310   5.029 -0.1775  0.0814 -0.2075
 5741TIP3    H117187   1.813   0.268   4.970  0.2916  0.8127 -0.2289
 5741TIP3    H217188   1.781   0.289   5.117  0.4519  0.9601 -0.2147
 5742TIP3   OH217189   2.017   4.036   2.703  0.2086  0.0685 -0.0195
 5742TIP3    H117190   2.074   4.067   2.774 -0.2979 -0.0709  0.4516
 5742TIP3    H217191   2.039   3.943   2.694 -1.0343 -0.3818  1.2362
 5743TIP3   OH217192   2.231   4.174   2.516 -0.4442  0.2679 -0.2113
 5743TIP3    H117193   2.242   4.267   2.494  1.0955  0.4904  1.3228
 5743TIP3    H217194   2.138   4.157   2.503 -0.4125  1.4544 -2.5591
 5744TIP3   OH217195   3.307   6.390   4.561  0.5070 -0.4576 -0.8531
 5744TIP3    H117196   3.287   6.297   4.573 -1.3734  0.2081  2.6093
 5744TIP3    H217197   3.386   6.405   4.612  0.1478  0.0072 -0.4152
 5745TIP3   OH217198   6.808   1.146   3.020 -0.4495 -0.1094 -0.1848
 5745TIP3    H117199   6.760   1.105   2.949  0.0555  1.7938 -1.7145
 5745TIP3    H217200   6.899   1.146   2.991 -0.3736  1.6094 -0.0398
 5746TIP3   OH217201   2.376   1.834   1.322 -0.0948 -0.1756  0.3640
 5746TIP3    H117202   2.438   1.897   1.359 -0.3941  0.6507 -0.4929
 5746TIP3    H217203   2.414   1.810   1.238  0.2697 -1.5584  0.9012
 5747TIP3   OH217204   3.506   5.493   1.390 -0.0716 -0.6564  0.0722
 5747TIP3    H117205   3.489   5.412   1.437 -1.7295  0.1990  1.0554
 5747TIP3    H217206   3.440   5.554   1.423  0.1967  0.6737 -1.6794
 5748TIP3   OH217207   5.934   4.798   2.405 -0.0530  0.7780  0.1255
 5748TIP3    H117208   5.914   4.816   2.497  0.0148  1.3966  0.0237
 5748TIP3    H217209   6.018   4.843   2.389 -0.2057  0.9150 -0.3121
 5749TIP3   OH217210   4.309   3.615   5.212 -0.0545  0.4569  0.2481
 5749TIP3    H117211   4.277   3.704   5.197 -0.0058  0.2248 -1.4189
 5749TIP3    H217212   4.262   3.586   5.289 -4.2044  0.0488 -2.1586
 5750TIP3   OH217213   3.616   5.039   1.677  0.1577 -0.0134  0.1894
 5750TIP3    H117214   3.666   4.971   1.632 -1.0922 -0.7429 -0.1506
 5750TIP3    H217215   3.575   4.994   1.751  1.3390  0.9443  1.4835
 5751TIP3   OH217216   5.849   6.461   4.511  0.2643  0.6848  0.0084
 5751TIP3    H117217   5.852   6.537   4.570 -1.8326  1.2938 -0.5759
 5751TIP3    H217218   5.816   6.496   4.428 -2.8285 -1.1609  0.3276
 5752TIP3   OH217219   3.605   6.338   0.466  0.1278 -0.0257 -0.3335
 5752TIP3    H117220   3.509   6.341   0.471 -0.0760  0.6918 -3.0197
 5752TIP3    H217221   3.627   6.250   0.497 -1.3566 -0.1032  0.6222
 5753TIP3   OH217222   5.493   3.953   2.607 -0.2698 -0.2011  0.3126
 5753TIP3    H117223   5.500   4.042   2.643  0.1881  0.0170 -0.2975
 5753TIP3    H217224   5.403   3.927   2.624 -0.1885  0.0670  1.2171
 5754TIP3   OH217225   1.107   0.207   1.020 -0.1339  0.3110 -0.2392
 5754TIP3    H117226   1.109   0.114   0.995 -2.8113 -0.4016  1.7799
 5754TIP3    H217227   1.135   0.209   1.111 -0.1633  1.4969 -0.2359
 5755TIP3   OH217228   6.084   5.547   5.260 -0.2093 -0.3256  0.2822
 5755TIP3    H117229   6.059   5.498   5.338  0.4590  0.5166  1.0540
 5755TIP3    H217230   6.180   5.554   5.266 -0.1295 -0.4077 -0.7155
 5756TIP3   OH217231   2.934   2.810   1.377 -0.4222  0.9015  0.2010
 5756TIP3    H117232   2.990   2.780   1.449 -0.2623 -0.5757 -0.5100
 5756TIP3    H217233   2.845   2.787   1.404 -0.5075  1.5514  0.4977
 5757TIP3   OH217234   0.884   2.196   3.145 -0.3765  0.0363  0.6168
 5757TIP3    H117235   0.834   2.175   3.066  2.0331 -2.7791 -0.3141
 5757TIP3    H217236   0.843   2.144   3.214 -0.1076 -0.5256  0.3548
 5758TIP3   OH217237   5.109   6.449   3.379  0.2356 -0.0815  0.1494
 5758TIP3    H117238   5.028   6.439   3.429  0.4914 -0.1748  0.5554
 5758TIP3    H217239   5.166   6.499   3.438  0.2702  0.4929 -0.3628
 5759TIP3   OH217240   4.304   1.206   1.188 -0.2154  0.2621  0.2393
 5759TIP3    H117241   4.269   1.118   1.173  0.7915 -0.1347  0.1503
 5759TIP3    H217242   4.381   1.192   1.243  0.6306  0.9639 -0.7224
 5760TIP3   OH217243   6.324   1.279   0.400  0.7194 -0.9060  0.1191
 5760TIP3    H117244   6.257   1.230   0.447  0.9124 -0.0905  1.2916
 5760TIP3    H217245   6.407   1.239   0.427  0.8783  0.0183  1.0871
 5761TIP3   OH217246   6.980   2.818   4.984  0.1181  0.3149 -0.5054
 5761TIP3    H117247   6.891   2.854   4.989  0.2757  1.5275 -3.8923
 5761TIP3    H217248   7.012   2.820   5.075 -2.5698  1.7188  0.5237
 5762TIP3   OH217249   5.202   5.799   2.952 -0.6554  0.5250 -0.6632
 5762TIP3    H117250   5.167   5.886   2.932  0.6233  0.7040 -2.3583
 5762TIP3    H217251   5.279   5.816   3.007  0.3841  0.6002 -2.0945
 5763TIP3   OH217252   1.780   5.451   2.148  0.1411  0.5077  0.1790
 5763TIP3    H117253   1.793   5.460   2.243  1.1801  1.5633 -0.0438
 5763TIP3    H217254   1.706   5.508   2.129  0.6321  1.1686  0.2066
 5764TIP3   OH217255   6.427   6.467   0.264  0.0891 -0.0729 -0.0555
 5764TIP3    H117256   6.441   6.561   0.275 -0.1396  0.0477 -0.7822
 5764TIP3    H217257   6.431   6.453   0.170  0.6443 -0.8762  0.0822
 5765TIP3   OH217258   3.040   1.576   5.560  0.1264  0.3925  0.1094
 5765TIP3    H117259   3.019   1.587   5.467 -0.6646  0.7193  0.3186
 5765TIP3    H217260   2.959   1.597   5.605  0.9689  1.9303  0.9803
 5766TIP3   OH217261   6.649   3.747   4.450  0.0073 -0.4723  0.0611
 5766TIP3    H117262   6.651   3.655   4.476  2.3077  0.1174  2.3787
 5766TIP3    H217263   6.687   3.794   4.524  0.7309  2.1373 -1.8041
 5767TIP3   OH217264   2.198   5.425   3.921 -0.6743 -0.0222  0.2227
 5767TIP3    H117265   2.206   5.519   3.932 -2.5353  0.0575  1.3578
 5767TIP3    H217266   2.104   5.409   3.911 -0.3656 -1.7200 -0.4186
 5768TIP3   OH217267   6.685   6.501   2.129 -0.0852 -0.0260  0.4209
 5768TIP3    H117268   6.705   6.413   2.100 -0.3605  0.7801 -2.5550
 5768TIP3    H217269   6.591   6.500   2.147 -0.1157 -0.3205  0.2473
 5769TIP3   OH217270   0.719   2.937   4.462  0.3298 -0.2233  0.9118
 5769TIP3    H117271   0.764   2.951   4.545 -0.2972 -0.5971  1.3300
 5769TIP3    H217272   0.640   2.887   4.486 -0.3074  0.4214  0.2090
 5770TIP3   OH217273   5.067   1.275   0.416  0.2460 -0.1960 -0.8890
 5770TIP3    H117274   5.006   1.343   0.446 -1.1316 -1.4184 -0.7752
 5770TIP3    H217275   5.140   1.323   0.378 -1.4877  1.3861 -2.4685
 5771TIP3   OH217276   6.273   3.040   3.559  0.3679 -0.2727  0.8154
 5771TIP3    H117277   6.214   3.113   3.536  0.7411 -0.1160  0.3357
 5771TIP3    H217278   6.273   2.984   3.481 -0.2943 -1.0484  1.3572
 5772TIP3   OH217279   5.745   5.251   1.178  0.3501 -1.0571  0.5476
 5772TIP3    H117280   5.749   5.246   1.083  2.9238  0.3213  0.5011
 5772TIP3    H217281   5.827   5.295   1.204 -1.0071  0.1148  3.2872
 5773TIP3   OH217282   0.958   4.009   5.618  0.0124  0.1856  0.3731
 5773TIP3    H117283   0.971   4.089   5.670  0.1031 -1.5118  3.1650
 5773TIP3    H217284   0.921   3.947   5.680 -1.3262 -1.5679 -2.0715
 5774TIP3   OH217285   4.681   2.607   2.694 -0.0766  0.4689 -0.0952
 5774TIP3    H117286   4.668   2.542   2.763 -0.1429  1.8539  1.2467
 5774TIP3    H217287   4.606   2.596   2.636 -0.2819 -0.3803  0.3115
 5775TIP3   OH217288   0.182   2.001   3.905  0.1312 -0.2659 -0.0976
 5775TIP3    H117289   0.235   1.996   3.825  0.2577 -0.8946  0.0210
 5775TIP3    H217290   0.092   2.007   3.873  0.2528  0.7729 -0.3000
 5776TIP3   OH217291   4.403   2.066   5.756 -0.3206  0.1113 -0.3500
 5776TIP3    H117292   4.385   2.067   5.850 -0.9255  1.5247 -0.4410
 5776TIP3    H217293   4.385   1.977   5.728 -2.3916  0.2165  0.4878
 5777TIP3   OH217294   1.165   3.907   0.641  0.3593  0.2575  0.0898
 5777TIP3    H117295   1.115   3.872   0.715  2.5013 -1.4108  0.8432
 5777TIP3    H217296   1.218   3.978   0.679 -0.7097  1.4447 -0.5328
 5778TIP3   OH217297   0.984   6.445   3.318 -0.2095 -0.1665 -0.6426
 5778TIP3    H117298   0.997   6.350   3.330 -1.3514 -0.2243  0.1845
 5778TIP3    H217299   0.944   6.452   3.231 -0.3425 -0.4587 -0.6069
 5779TIP3   OH217300   3.655   5.549   2.683 -0.4225  0.1014 -0.0276
 5779TIP3    H117301   3.734   5.509   2.720  0.7529  0.1724 -2.2871
 5779TIP3    H217302   3.687   5.627   2.637 -1.6002 -0.5548 -2.0594
 5780TIP3   OH217303   2.534   6.526   4.453 -0.3419 -0.0293  0.5531
 5780TIP3    H117304   2.468   6.576   4.405 -0.1274  0.5147  0.8132
 5780TIP3    H217305   2.553   6.580   4.530  0.0800 -0.3918  0.7053
 5781TIP3   OH217306   0.759   6.660   2.645 -0.0967 -0.2673  0.1144
 5781TIP3    H117307   0.806   6.714   2.708 -1.2743  0.9190  0.0256
 5781TIP3    H217308   0.758   6.711   2.564 -0.6237 -0.7297 -0.1810
 5782TIP3   OH217309   3.494   4.279   0.705 -0.8004  0.5102 -0.3037
 5782TIP3    H117310   3.554   4.215   0.665 -0.1596  0.8339  0.1387
 5782TIP3    H217311   3.421   4.284   0.643 -1.1080 -1.0304 -0.1075
 5783TIP3   OH217312   6.256   2.710   4.815  0.5092  0.4434  0.0231
 5783TIP3    H117313   6.205   2.708   4.735  0.7389 -1.4879 -0.1178
 5783TIP3    H217314   6.330   2.768   4.795  0.0590  0.7347 -0.8242
 5784TIP3   OH217315   5.100   1.499   4.825 -0.0705  0.1607  0.2064
 5784TIP3    H117316   5.145   1.510   4.908 -0.4759  1.5352  0.2845
 5784TIP3    H217317   5.067   1.587   4.804  1.3123  0.2186 -2.1479
 5785TIP3   OH217318   1.588   2.344   1.237 -0.4775 -0.5681  0.2868
 5785TIP3    H117319   1.681   2.356   1.255 -0.3576 -0.8142 -0.1513
 5785TIP3    H217320   1.573   2.395   1.157 -1.3596  1.8953  1.8937
 5786TIP3   OH217321   4.550   5.863   0.749 -0.3058  0.3836 -0.2428
 5786TIP3    H117322   4.505   5.850   0.665  0.7351  1.1950 -0.9468
 5786TIP3    H217323   4.548   5.958   0.762 -4.7303  0.1868  3.0889
 5787TIP3   OH217324   1.923   4.633   2.760  0.3088  0.3414 -0.6289
 5787TIP3    H117325   1.890   4.703   2.704 -0.4074 -0.0619 -0.7267
 5787TIP3    H217326   2.014   4.657   2.778 -0.0011  1.4197 -0.4488
 5788TIP3   OH217327   7.125   1.228   3.771 -0.4375  0.2256  0.1027
 5788TIP3    H117328   7.053   1.165   3.780  1.3328 -2.0402 -0.5521
 5788TIP3    H217329   7.142   1.233   3.677  1.2174 -0.5362  0.3131
 5789TIP3   OH217330   6.057   5.651   4.267  0.7932  0.5818 -0.5070
 5789TIP3    H117331   6.054   5.612   4.354  0.2859 -0.0272 -0.7837
 5789TIP3    H217332   5.976   5.702   4.261  1.3464  1.5079 -0.2311
 5790TIP3   OH217333   2.599   5.978   1.758  0.2329  0.0209 -0.0071
 5790TIP3    H117334   2.671   5.965   1.820  0.1665 -1.5766 -0.2290
 5790TIP3    H217335   2.522   5.991   1.815  0.2105 -1.2105  0.2702
 5791TIP3   OH217336   3.072   5.755   1.993 -0.2342  0.0259  0.0160
 5791TIP3    H117337   3.085   5.755   2.088  0.6588 -2.0389 -0.0394
 5791TIP3    H217338   3.161   5.759   1.958 -0.5231  0.0598 -0.7200
 5792TIP3   OH217339   2.966   6.168   4.770  0.4227  0.3892 -0.5943
 5792TIP3    H117340   2.884   6.177   4.721  0.1952 -1.4808 -0.6555
 5792TIP3    H217341   2.937   6.149   4.860  0.7951  0.5357 -0.4437
 5793TIP3   OH217342   5.974   2.178   5.097  0.2732  0.0690  0.4488
 5793TIP3    H117343   5.990   2.198   5.005 -0.2293  0.7072  0.4905
 5793TIP3    H217344   5.954   2.084   5.098  0.7532 -0.0393 -0.0237
 5794TIP3   OH217345   6.884   3.513   1.094 -0.5237  0.1133  0.3085
 5794TIP3    H117346   6.825   3.517   1.019 -0.7194  0.1124  0.4607
 5794TIP3    H217347   6.935   3.433   1.081  1.5301  1.5757 -1.3537
 5795TIP3   OH217348   3.448   5.947   3.426  0.0390  0.4314  0.2298
 5795TIP3    H117349   3.450   5.869   3.481  2.4659 -0.4793 -1.0082
 5795TIP3    H217350   3.443   5.914   3.337 -1.2586  1.7945 -0.2343
 5796TIP3   OH217351   4.339   0.184   4.420 -0.2560 -0.0790  0.2062
 5796TIP3    H117352   4.401   0.195   4.492 -0.5759 -0.0144  0.4692
 5796TIP3    H217353   4.350   0.092   4.393 -1.2486 -0.5541  1.3597
 5797TIP3   OH217354   5.907   1.066   0.589 -0.6466  0.2667 -0.2855
 5797TIP3    H117355   5.949   0.987   0.622  0.6484  1.0379 -0.0248
 5797TIP3    H217356   5.834   1.034   0.536 -0.8563 -1.0683  0.7538
 5798TIP3   OH217357   3.133   6.559   4.028 -0.1099  0.1398  0.6652
 5798TIP3    H117358   3.086   6.511   4.096  1.1932 -0.8180  0.9348
 5798TIP3    H217359   3.212   6.507   4.012  1.3995  2.1926  0.9999
 5799TIP3   OH217360   4.640   3.559   1.047  0.4348 -0.0159 -0.4054
 5799TIP3    H117361   4.549   3.576   1.071  0.6519  1.0560 -0.2966
 5799TIP3    H217362   4.656   3.616   0.971  1.1063  0.0456 -0.2216
 5800TIP3   OH217363   0.160   3.920   0.228  0.1445  0.7543  0.0108
 5800TIP3    H117364   0.194   3.838   0.263 -2.1721 -0.2851  0.0520
 5800TIP3    H217365   0.237   3.968   0.199  1.5516 -1.8140 -0.8482
 5801TIP3   OH217366   3.211   0.186   1.150  0.6971  0.3541  0.1781
 5801TIP3    H117367   3.153   0.111   1.138  0.1972  0.7185  0.2602
 5801TIP3    H217368   3.268   0.185   1.074  0.1456  0.3692 -0.2388
 5802TIP3   OH217369   0.228   0.279   5.229 -0.1417  0.1499 -0.4373
 5802TIP3    H117370   0.265   0.347   5.173 -0.4883  0.1788 -0.6353
 5802TIP3    H217371   0.134   0.280   5.210 -0.3329  0.4527  0.4630
 5803TIP3   OH217372   6.119   4.592   1.166 -0.4642  0.1187  0.3910
 5803TIP3    H117373   6.174   4.632   1.234  0.4590 -1.2306  0.4822
 5803TIP3    H217374   6.142   4.499   1.169 -0.7058 -0.0351 -1.4941
 5804TIP3   OH217375   4.742   3.840   0.039 -0.3914  0.4392 -0.5230
 5804TIP3    H117376   4.665   3.790   0.013  0.4503  0.4644 -3.4037
 5804TIP3    H217377   4.720   3.931   0.018 -0.6592  0.9171  1.5571
 5805TIP3   OH217378   5.540   2.897   0.628  0.2479  0.1959 -0.4579
 5805TIP3    H117379   5.570   2.851   0.706  1.1589 -0.1807 -1.0091
 5805TIP3    H217380   5.550   2.990   0.650  2.3139  0.0973 -0.7534
 5806TIP3   OH217381   6.034   2.963   5.783  0.5400 -0.0108 -0.4424
 5806TIP3    H117382   6.066   3.035   5.837 -4.6855  0.8626  2.1465
 5806TIP3    H217383   6.003   3.005   5.703 -0.5252  0.3284  0.1333
 5807TIP3   OH217384   4.875   2.147   0.399  0.3750 -0.3663  0.2591
 5807TIP3    H117385   4.873   2.223   0.458  0.3509 -0.2955  0.1660
 5807TIP3    H217386   4.788   2.144   0.360  1.1181  1.0236 -1.6198
 5808TIP3   OH217387   2.662   3.249   4.934 -0.3160  0.2587  0.4837
 5808TIP3    H117388   2.576   3.273   4.900 -0.5710  0.5035  1.2789
 5808TIP3    H217389   2.713   3.224   4.857 -1.2466 -0.3528  0.0583
 5809TIP3   OH217390   5.307   0.448   2.585 -0.1009  1.0943  0.1975
 5809TIP3    H117391   5.331   0.356   2.599 -1.4435  0.9306  1.5874
 5809TIP3    H217392   5.264   0.448   2.499  0.4584  0.5431 -0.0933
 5810TIP3   OH217393   3.160   6.222   4.341 -0.2653  0.0305 -0.0075
 5810TIP3    H117394   3.227   6.171   4.296 -0.3164  0.3383 -0.4402
 5810TIP3    H217395   3.159   6.187   4.430 -1.1635 -1.5951 -0.6121
 5811TIP3   OH217396   6.440   6.426   5.678 -0.3572  0.0680 -0.0637
 5811TIP3    H117397   6.506   6.356   5.676 -1.4120 -0.9374 -1.3014
 5811TIP3    H217398   6.481   6.498   5.630  0.8880  0.4849  1.5399
 5812TIP3   OH217399   6.790   5.094   5.431 -0.3492  0.2368 -0.9566
 5812TIP3    H117400   6.759   5.004   5.422  0.3910 -0.2282  0.6518
 5812TIP3    H217401   6.716   5.147   5.402 -2.1480 -0.8530  1.2030
 5813TIP3   OH217402   6.250   3.371   0.607  0.3094  0.2264 -0.0465
 5813TIP3    H117403   6.307   3.447   0.612  1.2351 -0.5118  1.1978
 5813TIP3    H217404   6.185   3.394   0.541  2.0807  1.0605 -1.5953
 5814TIP3   OH217405   5.728   1.515   4.075  0.0735 -0.1599  0.1468
 5814TIP3    H117406   5.746   1.496   4.167  0.7609 -0.0417  0.0464
 5814TIP3    H217407   5.669   1.590   4.076  1.0208  0.6034  0.4884
 5815TIP3   OH217408   5.453   6.131   2.323 -0.5517  0.2013  0.4786
 5815TIP3    H117409   5.532   6.106   2.275 -0.2391  0.5295  0.8143
 5815TIP3    H217410   5.430   6.052   2.373  0.4760  0.5728  1.5977
 5816TIP3   OH217411   1.355   3.081   4.969 -0.4127 -0.0017 -0.0720
 5816TIP3    H117412   1.349   3.100   4.875  0.2726 -0.8171 -0.2882
 5816TIP3    H217413   1.289   3.012   4.983 -1.4751  1.0599  0.3226
 5817TIP3   OH217414   0.440   0.155   0.829 -0.3647  0.2578 -0.2144
 5817TIP3    H117415   0.498   0.079   0.832 -0.9890 -0.1981  0.6253
 5817TIP3    H217416   0.488   0.223   0.876 -0.7856 -0.3398  1.1444
 5818TIP3   OH217417   1.446   0.066   2.291 -0.5025  0.3053 -0.1151
 5818TIP3    H117418   1.499   0.145   2.298  1.4309 -0.8024 -1.4560
 5818TIP3    H217419   1.360   0.092   2.324 -0.1993  3.2188 -1.3241
 5819TIP3   OH217420   0.169   1.925   4.469 -0.1749  0.1474  0.5243
 5819TIP3    H117421   0.153   2.016   4.494 -0.4829  0.8960 -2.1159
 5819TIP3    H217422   0.236   1.930   4.401 -2.3124 -1.2520 -1.8627
 5820TIP3   OH217423   0.355   5.098   4.294  0.4726 -0.2512 -0.1535
 5820TIP3    H117424   0.360   5.181   4.340 -0.2977 -0.2045 -0.1507
 5820TIP3    H217425   0.446   5.067   4.292  0.4038 -0.8532  2.4640
 5821TIP3   OH217426   0.263   3.318   2.317 -0.1261 -0.5470  0.1149
 5821TIP3    H117427   0.255   3.357   2.404 -2.0084  0.3165 -0.3941
 5821TIP3    H217428   0.323   3.376   2.270  0.1838 -0.5060  0.5552
 5822TIP3   OH217429   4.004   0.574   0.035  0.5857  0.5255 -0.5629
 5822TIP3    H117430   4.070   0.607   0.096 -0.0972  2.4606 -0.7972
 5822TIP3    H217431   3.934   0.639   0.039 -0.2529 -0.2408 -2.1004
 5823TIP3   OH217432   2.550   0.246   0.850  0.1675  0.3444 -0.3059
 5823TIP3    H117433   2.461   0.278   0.835  0.0216 -0.7199 -1.9646
 5823TIP3    H217434   2.607   0.316   0.818 -0.1019  0.5083 -0.4296
 5824TIP3   OH217435   2.056   6.039   0.309  0.0004  0.4409  0.1642
 5824TIP3    H117436   1.966   6.064   0.328 -0.4989  0.0298 -1.5374
 5824TIP3    H217437   2.074   6.078   0.224  1.0787 -0.3750  0.0078
 5825TIP3   OH217438   4.416   4.609   4.077  0.0064  0.2284  0.5316
 5825TIP3    H117439   4.358   4.550   4.125  2.6970 -0.2859  3.5255
 5825TIP3    H217440   4.455   4.664   4.145  1.9955  1.4083 -1.4442
 5826TIP3   OH217441   0.507   2.783   0.859  0.1885 -0.2442 -0.5888
 5826TIP3    H117442   0.540   2.868   0.830  1.2065 -0.1528  0.7389
 5826TIP3    H217443   0.458   2.749   0.784  1.1776  0.7632 -1.7300
 5827TIP3   OH217444   7.085   4.518   0.530 -0.0332 -0.3222  0.4302
 5827TIP3    H117445   7.046   4.583   0.471  0.9718  0.8697  1.0186
 5827TIP3    H217446   7.095   4.440   0.476 -0.5822  0.2409 -0.5254
 5828TIP3   OH217447   6.560   6.114   2.394  0.8018 -0.3749  0.5283
 5828TIP3    H117448   6.518   6.080   2.315  1.2344  0.8168 -0.2398
 5828TIP3    H217449   6.489   6.124   2.457  0.0885  0.5191 -0.3773
 5829TIP3   OH217450   4.608   1.901   0.593  0.3428  0.1334  0.2933
 5829TIP3    H117451   4.682   1.846   0.616  0.3516 -0.3170 -0.7565
 5829TIP3    H217452   4.625   1.984   0.637  0.5875 -0.5233  1.4632
 5830TIP3   OH217453   2.638   4.117   2.154  0.1055 -0.2010 -0.3501
 5830TIP3    H117454   2.708   4.088   2.212 -0.8329 -3.4498 -0.6505
 5830TIP3    H217455   2.661   4.084   2.068 -0.5660  0.9572 -1.0154
 5831TIP3   OH217456   0.453   5.052   0.656 -0.1306 -0.4058  0.3541
 5831TIP3    H117457   0.537   5.025   0.619 -0.9727 -1.4769 -0.8546
 5831TIP3    H217458   0.420   5.118   0.594 -1.5727 -2.2490 -0.9782
 5832TIP3   OH217459   5.433   4.118   4.714 -0.4348  0.0173  0.2297
 5832TIP3    H117460   5.347   4.121   4.755 -2.1765 -0.2179 -3.1131
 5832TIP3    H217461   5.454   4.025   4.708 -0.8644 -0.0255 -0.6828
 5833TIP3   OH217462   3.650   5.047   2.883  0.0965  0.1342 -0.0714
 5833TIP3    H117463   3.608   4.990   2.948 -0.7111 -0.9333 -1.4698
 5833TIP3    H217464   3.633   5.135   2.915 -1.0548 -0.3390  0.7191
 5834TIP3   OH217465   0.325   3.713   1.804 -0.2547 -0.2644 -0.2208
 5834TIP3    H117466   0.418   3.707   1.828  0.0334  0.2412 -1.1477
 5834TIP3    H217467   0.318   3.665   1.722 -0.2246  1.9785 -1.6141
 5835TIP3   OH217468   5.273   1.353   2.453 -0.7044  0.2539 -0.0191
 5835TIP3    H117469   5.285   1.385   2.364 -1.6816  0.4050 -0.1077
 5835TIP3    H217470   5.280   1.258   2.446 -2.0521  0.1614 -0.4998
 5836TIP3   OH217471   5.432   6.580   2.945  0.2457 -0.4659 -0.2644
 5836TIP3    H117472   5.385   6.663   2.948 -0.0980 -0.6762  0.9474
 5836TIP3    H217473   5.500   6.588   3.012  0.1336 -1.1979 -0.0519
 5837TIP3   OH217474   6.182   1.357   0.814 -0.2382 -0.2815 -0.2077
 5837TIP3    H117475   6.135   1.383   0.892  1.1982  0.0144  0.5947
 5837TIP3    H217476   6.255   1.304   0.846  2.4815  2.6932 -0.9003
 5838TIP3   OH217477   4.064   5.489   3.353  0.0397 -0.2654  0.0565
 5838TIP3    H117478   3.971   5.510   3.365  0.1809  0.1233  0.5194
 5838TIP3    H217479   4.067   5.394   3.351 -0.0795 -0.4338  2.8354
 5839TIP3   OH217480   3.013   5.008   3.233  0.1658  0.3312  0.3913
 5839TIP3    H117481   3.004   4.913   3.242  1.9610 -0.0611 -1.2719
 5839TIP3    H217482   3.040   5.020   3.142 -0.0674  2.4591  0.5721
 5840TIP3   OH217483   1.868   6.337   5.234  0.3227 -0.0006  0.5340
 5840TIP3    H117484   1.835   6.389   5.161  1.7725  1.5650  0.9254
 5840TIP3    H217485   1.952   6.378   5.256  0.5671 -1.2971  2.1702
 5841TIP3   OH217486   0.130   5.144   4.120  0.3738 -0.0816 -0.1475
 5841TIP3    H117487   0.215   5.113   4.153  0.2690 -1.6833 -1.2722
 5841TIP3    H217488   0.145   5.160   4.027 -0.3944  0.2949 -0.2137
 5842TIP3   OH217489   1.121   3.848   2.499 -0.1840  0.1843 -0.0650
 5842TIP3    H117490   1.091   3.772   2.449  0.0895  0.7149 -1.0818
 5842TIP3    H217491   1.082   3.838   2.585 -1.4827 -0.2680 -0.6841
 5843TIP3   OH217492   5.288   1.396   3.314 -0.0350 -0.1162  0.2984
 5843TIP3    H117493   5.346   1.354   3.249 -0.3580  0.9652 -0.7155
 5843TIP3    H217494   5.200   1.372   3.286 -0.1882  0.5606  0.1855
 5844TIP3   OH217495   1.554   0.845   4.958  0.0264  0.1811 -0.2797
 5844TIP3    H117496   1.577   0.769   5.010 -1.8898 -0.9108 -0.9155
 5844TIP3    H217497   1.572   0.920   5.015 -0.3451 -0.8693  1.2742
 5845TIP3   OH217498   0.001   6.726   1.806 -0.2458 -0.3284 -0.0956
 5845TIP3    H117499   0.025   6.748   1.716 -1.5241 -0.4102 -0.4790
 5845TIP3    H217500   0.065   6.773   1.860 -0.8499  1.5901 -0.9781
 5846TIP3   OH217501   5.884   3.447   1.172  0.8827 -0.6431 -0.1467
 5846TIP3    H117502   5.860   3.430   1.263  0.1136  0.3093 -0.1494
 5846TIP3    H217503   5.800   3.462   1.128  1.1674 -1.9734 -1.2231
 5847TIP3   OH217504   5.454   6.089   4.965 -0.2453 -0.3277 -0.2180
 5847TIP3    H117505   5.517   6.159   4.982 -1.3127  0.2034  1.8510
 5847TIP3    H217506   5.497   6.010   4.995 -0.4145 -0.0114  0.8897
 5848TIP3   OH217507   0.762   4.421   4.817  0.4270  0.6662 -0.0844
 5848TIP3    H117508   0.721   4.340   4.788 -1.3374  1.1723  0.8562
 5848TIP3    H217509   0.825   4.442   4.747  0.9236 -1.4596 -0.3506
 5849TIP3   OH217510   2.127   4.100   0.609  0.4206 -0.6426 -0.4899
 5849TIP3    H117511   2.172   4.074   0.689 -0.3718  0.6256  0.4154
 5849TIP3    H217512   2.173   4.179   0.580  0.1837 -0.6195 -0.8041
 5850TIP3   OH217513   4.574   2.438   4.528 -0.1039  0.1278 -0.4027
 5850TIP3    H117514   4.537   2.494   4.460 -1.0971  1.4484  1.1611
 5850TIP3    H217515   4.603   2.499   4.596  0.0395 -1.1862  0.7484
 5851TIP3   OH217516   6.653   2.075   5.655 -0.0252  0.1743 -0.0671
 5851TIP3    H117517   6.626   2.116   5.736 -1.6918  0.2487 -0.6282
 5851TIP3    H217518   6.743   2.106   5.641 -0.5506  2.0714  0.5115
 5852TIP3   OH217519   6.497   1.503   5.792 -0.8211  0.0433 -0.0687
 5852TIP3    H117520   6.422   1.461   5.751  0.4750 -1.3988 -1.0533
 5852TIP3    H217521   6.515   1.580   5.738 -1.3308  0.1803 -0.0480
 5853TIP3   OH217522   5.088   5.780   4.164  0.1437  0.4481  0.0114
 5853TIP3    H117523   5.083   5.828   4.247  0.1990 -0.7289  0.7197
 5853TIP3    H217524   5.001   5.787   4.126  0.0627  0.8270  0.2663
 5854TIP3   OH217525   0.492   6.451   4.068 -0.5681  0.6833 -0.0591
 5854TIP3    H117526   0.528   6.398   4.139 -2.5313 -3.2377 -1.6792
 5854TIP3    H217527   0.438   6.517   4.112 -1.1073 -1.1167  2.1853
 5855TIP3   OH217528   3.254   1.940   1.019  0.2063 -0.6922  0.1337
 5855TIP3    H117529   3.325   1.905   1.073  1.3308  0.1578 -0.7407
 5855TIP3    H217530   3.229   1.867   0.963  1.3793 -0.6110 -0.5183
 5856TIP3   OH217531   3.555   6.455   1.591  0.2709  0.1646 -0.1845
 5856TIP3    H117532   3.600   6.512   1.653 -0.4406 -0.5213  1.0008
 5856TIP3    H217533   3.539   6.374   1.640 -0.2419 -0.4262 -1.2897
 5857TIP3   OH217534   2.306   5.464   5.266 -0.4579  0.3405  0.2336
 5857TIP3    H117535   2.321   5.373   5.294 -0.3943 -0.2126 -1.4858
 5857TIP3    H217536   2.225   5.490   5.310  0.7377  0.3088  2.6341
 5858TIP3   OH217537   3.570   1.447   3.869  0.1274  0.4828  0.1422
 5858TIP3    H117538   3.547   1.417   3.957 -2.3572 -2.8248 -1.4316
 5858TIP3    H217539   3.506   1.516   3.850 -1.5031 -1.0341 -0.1482
 5859TIP3   OH217540   5.602   6.769   2.026  0.2584  0.3930  0.4304
 5859TIP3    H117541   5.609   6.723   2.110  0.4139  1.3378  0.9510
 5859TIP3    H217542   5.674   6.735   1.974  0.1219 -0.2529  0.6471
 5860TIP3   OH217543   5.353   4.234   0.473 -0.3227  0.1202 -0.2188
 5860TIP3    H117544   5.307   4.156   0.441  0.2245  0.1665 -1.1661
 5860TIP3    H217545   5.408   4.262   0.399  0.9210  0.3081  0.7315
 5861TIP3   OH217546   2.273   1.406   5.119  0.0484  0.4021 -0.2483
 5861TIP3    H117547   2.269   1.391   5.214 -1.3112  0.1948 -0.3080
 5861TIP3    H217548   2.187   1.378   5.088 -0.2770  2.3749 -1.2653
 5862TIP3   OH217549   6.809   2.282   5.808 -0.0089 -0.5127 -0.9917
 5862TIP3    H117550   6.761   2.238   5.878 -0.1421 -0.2132 -0.8973
 5862TIP3    H217551   6.871   2.216   5.777  0.1089 -0.6169 -0.5363
 5863TIP3   OH217552   1.099   6.100   1.090 -0.5798  0.1199  0.3986
 5863TIP3    H117553   1.063   6.173   1.141  0.6434  0.1036  1.3318
 5863TIP3    H217554   1.084   6.125   0.998 -0.6577  1.3002  0.7158
 5864TIP3   OH217555   1.660   4.807   2.669 -0.1147 -0.2166 -0.4088
 5864TIP3    H117556   1.683   4.755   2.593 -0.5815 -0.4642 -0.3870
 5864TIP3    H217557   1.564   4.806   2.670 -0.1632  1.3999 -0.9308
 5865TIP3   OH217558   3.551   1.384   5.681  0.0514  0.1529  0.4802
 5865TIP3    H117559   3.476   1.336   5.715 -0.0063  0.9552  1.5580
 5865TIP3    H217560   3.586   1.430   5.757  0.3031  1.5302 -0.4265
 5866TIP3   OH217561   5.623   3.177   0.705 -0.1807 -0.1787  0.3858
 5866TIP3    H117562   5.678   3.248   0.737  0.4175 -0.6240  0.3590
 5866TIP3    H217563   5.618   3.192   0.610 -0.7389  0.2913  0.4786
 5867TIP3   OH217564   3.345   1.123   1.175 -0.2140  0.2671  0.1166
 5867TIP3    H117565   3.283   1.070   1.227 -0.0495  0.1352  0.1803
 5867TIP3    H217566   3.347   1.080   1.090 -0.4025  0.4207  0.0336
 5868TIP3   OH217567   2.277   0.450   1.793  0.4773 -0.2543  0.1956
 5868TIP3    H117568   2.309   0.507   1.864 -0.7366 -0.6228  1.0641
 5868TIP3    H217569   2.286   0.361   1.828 -0.8786 -0.4007  0.2260
 5869TIP3   OH217570   0.236   5.869   3.412  0.3578  0.2977  0.3319
 5869TIP3    H117571   0.251   5.812   3.487 -0.3395  0.9560  0.9860
 5869TIP3    H217572   0.151   5.842   3.377  0.6770 -0.0054 -0.2402
 5870TIP3   OH217573   4.524   2.577   1.092  0.5371 -0.3621 -0.6027
 5870TIP3    H117574   4.477   2.520   1.152  0.9443 -1.5835 -1.3895
 5870TIP3    H217575   4.456   2.626   1.046  0.2187  0.3609  0.6143
 5871TIP3   OH217576   3.982   2.786   1.850  0.6731 -0.3963  0.2984
 5871TIP3    H117577   4.012   2.873   1.877 -0.2915  0.4032 -1.0641
 5871TIP3    H217578   4.056   2.729   1.867  0.4924  0.1210  3.7357
 5872TIP3   OH217579   1.400   5.999   1.041 -0.4414 -0.6425 -0.1425
 5872TIP3    H117580   1.306   6.007   1.022 -0.1119  1.3973 -1.1987
 5872TIP3    H217581   1.422   6.082   1.085  0.4546 -2.0035  2.1489
 5873TIP3   OH217582   4.830   3.353   3.507 -0.0219 -0.0055  0.0118
 5873TIP3    H117583   4.829   3.376   3.414 -0.7315  0.6689  0.1821
 5873TIP3    H217584   4.922   3.360   3.532 -0.0104  1.2274 -0.3052
 5874TIP3   OH217585   5.539   0.953   3.454  0.2247  0.4715 -0.0902
 5874TIP3    H117586   5.520   0.863   3.483 -0.8314  1.3610  2.2088
 5874TIP3    H217587   5.475   0.970   3.385 -0.5342 -0.0678  0.4662
 5875TIP3   OH217588   0.635   3.578   0.807  0.5554  0.5320  0.0488
 5875TIP3    H117589   0.541   3.557   0.810  0.2582  1.7549 -0.3883
 5875TIP3    H217590   0.647   3.647   0.872  1.4766 -0.7138  1.2615
 5876TIP3   OH217591   5.432   6.210   3.364  0.2664 -0.5258  0.3919
 5876TIP3    H117592   5.371   6.214   3.439 -0.1094 -2.8450  0.2698
 5876TIP3    H217593   5.386   6.257   3.294  0.1162  0.6598  1.2491
 5877TIP3   OH217594   4.600   3.205   3.935 -0.2901 -0.6766  0.2422
 5877TIP3    H117595   4.553   3.125   3.959  0.7789 -1.1903  0.6665
 5877TIP3    H217596   4.692   3.186   3.953 -0.1820  1.3712  2.4476
 5878TIP3   OH217597   2.474   6.029   4.699  0.4867 -0.3224 -0.3824
 5878TIP3    H117598   2.496   6.112   4.740  0.1017  0.2579 -1.3170
 5878TIP3    H217599   2.508   6.036   4.609 -0.8376 -0.5806 -0.9270
 5879TIP3   OH217600   6.985   1.687   2.778  0.2586 -0.0132  0.6164
 5879TIP3    H117601   6.900   1.721   2.751  0.4188 -0.2146 -0.1647
 5879TIP3    H217602   6.967   1.640   2.859 -0.7097 -1.5228 -0.4167
 5880TIP3   OH217603   7.123   2.524   4.650 -0.6382  0.1996  0.2355
 5880TIP3    H117604   7.194   2.586   4.634 -1.2722  1.6764  2.6451
 5880TIP3    H217605   7.098   2.493   4.563 -0.8705  4.0083 -1.2370
 5881TIP3   OH217606   6.205   1.722   0.208 -0.2235  0.1477  0.4355
 5881TIP3    H117607   6.116   1.696   0.185  0.5628  0.1714 -3.1805
 5881TIP3    H217608   6.258   1.644   0.192  0.6340  0.6403  0.8111
 5882TIP3   OH217609   3.714   1.658   0.717  0.3605  0.3934  0.0219
 5882TIP3    H117610   3.662   1.601   0.661  2.7206 -0.5191 -1.3871
 5882TIP3    H217611   3.650   1.715   0.760 -1.8585 -1.5001 -0.5895
 5883TIP3   OH217612   2.660   1.729   0.221 -0.6008  0.2725 -0.1098
 5883TIP3    H117613   2.670   1.738   0.316 -1.0965 -0.8703  0.0680
 5883TIP3    H217614   2.612   1.648   0.209  3.0418 -1.9658 -1.4631
 5884TIP3   OH217615   2.127   1.212   1.627  0.2776 -0.0975 -0.5241
 5884TIP3    H117616   2.085   1.283   1.578  1.3416  0.3663 -0.7793
 5884TIP3    H217617   2.057   1.178   1.683 -0.8676 -0.4018 -2.0730
 5885TIP3   OH217618   4.143   6.432   0.710 -0.1968  0.3259  0.9360
 5885TIP3    H117619   4.175   6.521   0.721 -1.1195  0.7540  0.3527
 5885TIP3    H217620   4.215   6.376   0.739  1.0948  1.2233 -0.4177
 5886TIP3   OH217621   5.146   2.245   3.557 -0.4009  0.1535 -0.3102
 5886TIP3    H117622   5.240   2.261   3.567 -0.1508 -1.6009  0.6761
 5886TIP3    H217623   5.142   2.158   3.515 -1.6027  0.7991 -1.6101
 5887TIP3   OH217624   0.657   4.570   1.422 -0.3193  0.3754 -0.5399
 5887TIP3    H117625   0.572   4.592   1.383 -1.5538 -0.9306  1.2876
 5887TIP3    H217626   0.663   4.625   1.500 -0.0887 -0.4666  0.0497
 5888TIP3   OH217627   3.116   0.524   3.024 -0.0640 -0.8482 -0.3233
 5888TIP3    H117628   3.168   0.595   2.986  1.3707 -1.2342  0.7972
 5888TIP3    H217629   3.076   0.481   2.949  2.0156 -1.1104 -1.3757
 5889TIP3   OH217630   2.873   0.772   2.716  0.4415  0.6740 -0.2729
 5889TIP3    H117631   2.964   0.789   2.691  0.6645 -1.7051 -1.3165
 5889TIP3    H217632   2.831   0.740   2.636 -0.5012 -1.1030  0.8531
 5890TIP3   OH217633   0.144   1.499   0.765  0.1161 -0.5717  0.0889
 5890TIP3    H117634   0.187   1.423   0.726 -0.3008 -1.3693  1.1363
 5890TIP3    H217635   0.054   1.470   0.781 -0.3009  0.4520 -0.3325
 5891TIP3   OH217636   3.790   2.267   0.131 -0.2195  0.4179 -0.0541
 5891TIP3    H117637   3.749   2.352   0.145 -1.0687  0.1056 -0.5541
 5891TIP3    H217638   3.803   2.261   0.037 -2.3015 -0.9178 -0.3338
 5892TIP3   OH217639   3.770   5.147   4.738 -0.1682 -0.3979 -0.0932
 5892TIP3    H117640   3.735   5.206   4.671  0.4382 -0.3222 -0.3489
 5892TIP3    H217641   3.846   5.193   4.773 -0.5174 -0.4081  0.7018
 5893TIP3   OH217642   0.225   4.294   4.335 -0.6737  0.9473  0.2902
 5893TIP3    H117643   0.310   4.334   4.317 -0.3263  0.8899  1.7084
 5893TIP3    H217644   0.246   4.205   4.363 -1.0547  1.3994  2.1755
 5894TIP3   OH217645   4.107   6.143   3.361  0.2201  0.2681 -0.0695
 5894TIP3    H117646   4.082   6.163   3.451 -1.2323 -0.2536 -0.3270
 5894TIP3    H217647   4.105   6.228   3.316  1.3237  0.5836  0.4640
 5895TIP3   OH217648   3.456   4.358   4.703 -0.0838  0.0038  0.3051
 5895TIP3    H117649   3.550   4.347   4.691 -0.3871 -0.1809 -2.5515
 5895TIP3    H217650   3.416   4.285   4.656 -1.6674  1.3065 -0.5068
 5896TIP3   OH217651   2.372   0.743   1.032  0.0886  0.4089  0.2230
 5896TIP3    H117652   2.370   0.822   1.087  0.2805 -1.0036  2.4019
 5896TIP3    H217653   2.281   0.728   1.007 -0.3042  0.0870  1.7420
 5897TIP3   OH217654   2.259   5.336   4.184  0.4250  0.5724  0.4277
 5897TIP3    H117655   2.165   5.333   4.197  0.6958 -0.4013  2.5366
 5897TIP3    H217656   2.271   5.396   4.110 -1.7431  2.0991  1.2066
 5898TIP3   OH217657   0.261   1.841   2.749 -0.1336 -0.3177  0.0510
 5898TIP3    H117658   0.253   1.929   2.712  1.1335 -0.6873 -1.1849
 5898TIP3    H217659   0.177   1.800   2.732  0.3868 -0.4592 -2.4744
 5899TIP3   OH217660   6.329   0.154   2.676  0.3969  0.3082 -0.2783
 5899TIP3    H117661   6.415   0.163   2.718  0.2532  3.6506 -0.4155
 5899TIP3    H217662   6.348   0.152   2.582  0.3728  0.1044 -0.2788
 5900TIP3   OH217663   0.845   5.687   4.010  0.0532  0.6481  0.3807
 5900TIP3    H117664   0.763   5.684   4.059  0.0973  0.6840  0.4569
 5900TIP3    H217665   0.910   5.715   4.074 -0.1134  1.9510  0.0110
 5901TIP3   OH217666   6.755   2.784   1.848 -0.2725 -0.3739  0.2961
 5901TIP3    H117667   6.672   2.831   1.848 -0.3463 -0.4767 -0.5892
 5901TIP3    H217668   6.735   2.699   1.888 -0.2325  0.1689  1.5067
 5902TIP3   OH217669   5.753   3.315   4.850  0.7908  0.0580 -0.2900
 5902TIP3    H117670   5.686   3.252   4.826 -0.3977  0.7980  0.9715
 5902TIP3    H217671   5.707   3.398   4.861  2.2392  1.0827 -1.4393
 5903TIP3   OH217672   0.165   0.982   1.985  0.2070 -0.0460  0.0074
 5903TIP3    H117673   0.095   0.986   2.050  0.2558  1.6148  0.0185
 5903TIP3    H217674   0.120   0.992   1.901  0.4472  1.8463  0.0602
 5904TIP3   OH217675   3.157   5.078   4.373 -0.3839 -0.2289 -0.4003
 5904TIP3    H117676   3.081   5.101   4.318  1.0026 -0.4567 -2.5030
 5904TIP3    H217677   3.225   5.053   4.311  1.0033 -1.3925  1.4995
 5905TIP3   OH217678   3.537   1.929   2.489  0.0660 -0.6003 -0.5072
 5905TIP3    H117679   3.625   1.946   2.456  0.1539  1.0471  0.4792
 5905TIP3    H217680   3.482   1.995   2.445 -0.4250 -0.7148 -0.0697
 5906TIP3   OH217681   6.253   5.858   1.534  0.3449  0.0187  0.1099
 5906TIP3    H117682   6.255   5.813   1.618  0.2850 -2.7266 -1.2554
 5906TIP3    H217683   6.324   5.818   1.484  0.4882  1.7212 -1.1111
 5907TIP3   OH217684   5.027   5.094   1.246  0.3076 -0.2455 -0.2770
 5907TIP3    H117685   5.062   5.109   1.158 -1.9035 -1.4099 -1.4429
 5907TIP3    H217686   5.017   4.999   1.251  0.1048 -0.1588  1.1359
 5908TIP3   OH217687   4.922   5.661   0.208 -0.1127 -1.0357  0.0257
 5908TIP3    H117688   4.883   5.587   0.163 -0.3494 -0.3515 -0.9223
 5908TIP3    H217689   4.935   5.727   0.140  0.3710 -0.3144  0.7913
 5909TIP3   OH217690   1.808   1.727   5.653  0.1787  0.0465  0.3727
 5909TIP3    H117691   1.862   1.704   5.578  1.2217  2.6069  0.2125
 5909TIP3    H217692   1.852   1.803   5.691 -2.6378  1.5415  0.9549
 5910TIP3   OH217693   6.803   6.413   4.385  0.0095 -0.1578  0.6954
 5910TIP3    H117694   6.858   6.462   4.446  0.5132  0.0823  0.0575
 5910TIP3    H217695   6.807   6.462   4.303 -1.0593 -0.2076  0.5924
 5911TIP3   OH217696   4.090   1.742   3.647 -0.1954 -0.4576 -0.5768
 5911TIP3    H117697   4.081   1.647   3.634 -4.9673 -0.4475  0.6081
 5911TIP3    H217698   4.070   1.780   3.561  0.4095 -0.4990 -0.7390
 5912TIP3   OH217699   5.358   5.297   0.158 -0.8130 -0.4853 -0.5178
 5912TIP3    H117700   5.389   5.327   0.244  0.4614  1.5667 -1.6338
 5912TIP3    H217701   5.262   5.304   0.165 -0.9365 -2.7015  1.4900
 5913TIP3   OH217702   3.394   2.991   1.719 -0.2376 -0.5822  0.3846
 5913TIP3    H117703   3.387   3.076   1.763 -0.1468  0.3638 -1.3535
 5913TIP3    H217704   3.334   2.934   1.767  0.8065  0.0175  2.5272
 5914TIP3   OH217705   4.914   4.705   4.556 -0.4478 -0.5427 -0.5830
 5914TIP3    H117706   4.855   4.664   4.618  0.6612 -0.4950  0.5442
 5914TIP3    H217707   4.942   4.633   4.499 -0.3086 -0.9016 -0.0711
 5915TIP3   OH217708   2.033   1.410   3.075  0.2623 -0.4362 -0.6665
 5915TIP3    H117709   2.074   1.444   3.155 -0.2538  0.0297 -0.5954
 5915TIP3    H217710   1.949   1.456   3.070  1.0562  0.9436 -2.4701
 5916TIP3   OH217711   2.907   6.593   1.769 -0.2547  0.0478  0.3727
 5916TIP3    H117712   2.882   6.535   1.697  0.8588  0.8500 -0.6990
 5916TIP3    H217713   2.826   6.637   1.793 -0.4436  0.6214 -1.1992
 5917TIP3   OH217714   0.276   4.723   1.386 -0.2219  0.2655  0.0617
 5917TIP3    H117715   0.303   4.809   1.417  0.4157 -0.3253  1.1990
 5917TIP3    H217716   0.352   4.688   1.341  0.6748 -0.9598  2.3429
 5918TIP3   OH217717   2.084   0.667   3.108  0.1488  0.4873  0.3700
 5918TIP3    H117718   2.120   0.739   3.160  0.8415  0.6247 -0.2820
 5918TIP3    H217719   2.157   0.606   3.098 -0.6523 -0.7390  1.6218
 5919TIP3   OH217720   3.028   3.888   3.464  0.3576 -0.4539 -0.5331
 5919TIP3    H117721   2.987   3.940   3.533  0.8938 -0.4341 -0.2247
 5919TIP3    H217722   3.010   3.937   3.384 -0.4709 -0.6007 -0.4440
 5920TIP3   OH217723   5.275   4.558   5.785  0.1880 -0.0804 -0.3489
 5920TIP3    H117724   5.329   4.564   5.864  1.4790 -1.1450 -1.1059
 5920TIP3    H217725   5.209   4.627   5.796  0.4889 -0.0280  1.5177
 5921TIP3   OH217726   5.368   5.863   3.168  0.1845  0.0548 -0.4680
 5921TIP3    H117727   5.448   5.811   3.162  1.2519  1.7618 -2.1899
 5921TIP3    H217728   5.398   5.950   3.192 -1.1979  0.6801 -0.9204
 5922TIP3   OH217729   4.448   2.950   3.879 -0.0854  0.1521 -0.0351
 5922TIP3    H117730   4.450   2.867   3.926 -1.5429  0.0638 -0.0885
 5922TIP3    H217731   4.469   2.928   3.788 -2.0124 -0.4264 -0.3750
 5923TIP3   OH217732   4.824   2.297   2.326  0.2453 -0.1736 -0.4368
 5923TIP3    H117733   4.768   2.343   2.264  0.1344 -0.7397 -0.7644
 5923TIP3    H217734   4.821   2.206   2.298  0.1371 -0.4523  0.4423
 5924TIP3   OH217735   1.229   1.747   1.445 -0.2326  0.5801  0.4911
 5924TIP3    H117736   1.239   1.716   1.355  0.8080  2.1685  0.0132
 5924TIP3    H217737   1.293   1.817   1.454  0.8428 -0.5877  2.9992
 5925TIP3   OH217738   3.916   4.443   1.799  0.0829  0.1981 -0.1872
 5925TIP3    H117739   4.010   4.456   1.812  0.1648 -0.9020  0.4380
 5925TIP3    H217740   3.896   4.492   1.720  0.3668  3.9345  1.8099
 5926TIP3   OH217741   2.713   4.000   5.255 -0.2708 -0.1842 -0.5847
 5926TIP3    H117742   2.669   3.996   5.340 -0.3972 -0.5131 -0.6638
 5926TIP3    H217743   2.644   3.984   5.192 -0.3337  0.8987 -0.7987
 5927TIP3   OH217744   6.123   4.508   3.297  0.5837  0.3370  0.5734
 5927TIP3    H117745   6.199   4.492   3.241  0.5309 -2.5465  1.1510
 5927TIP3    H217746   6.155   4.494   3.386 -0.4837 -0.4308  0.8619
 5928TIP3   OH217747   4.364   2.308   5.587 -0.1789  0.1677  0.5868
 5928TIP3    H117748   4.384   2.218   5.612  0.7543  0.1911 -0.0305
 5928TIP3    H217749   4.271   2.318   5.608 -0.3167 -0.9610  0.5979
 5929TIP3   OH217750   4.142   4.751   1.057 -0.6577 -0.4567 -0.5208
 5929TIP3    H117751   4.082   4.726   0.987  0.1539 -1.1369 -0.9860
 5929TIP3    H217752   4.104   4.712   1.136 -0.5244 -1.3903 -0.9064
 5930TIP3   OH217753   4.173   4.285   5.128 -0.3992 -1.2299 -0.2049
 5930TIP3    H117754   4.118   4.259   5.054  0.1123 -0.7467 -0.7581
 5930TIP3    H217755   4.163   4.380   5.134  0.2811 -1.1526 -0.2317
 5931TIP3   OH217756   3.847   3.486   3.567 -0.0691  0.3015 -0.3139
 5931TIP3    H117757   3.870   3.482   3.660 -1.9704  0.6474  0.2145
 5931TIP3    H217758   3.852   3.579   3.545 -1.6576  0.4980  0.0377
 5932TIP3   OH217759   1.535   3.123   2.290  0.3269 -0.2165 -0.2170
 5932TIP3    H117760   1.482   3.138   2.212  0.5374  0.0840 -0.3011
 5932TIP3    H217761   1.506   3.189   2.352  2.1678  1.4932 -1.0379
 5933TIP3   OH217762   6.279   5.449   0.815  0.3261  0.0350 -0.0146
 5933TIP3    H117763   6.200   5.415   0.774 -1.2982  1.7401  1.4813
 5933TIP3    H217764   6.324   5.372   0.849 -0.4661 -1.0092 -1.2888
 5934TIP3   OH217765   0.334   4.166   2.134  0.9931  0.6956 -0.2429
 5934TIP3    H117766   0.321   4.191   2.042  1.2726 -0.8721 -0.7423
 5934TIP3    H217767   0.305   4.075   2.138  0.6138  0.8582  1.3352
 5935TIP3   OH217768   5.424   0.972   4.494 -0.2006  0.3630  0.0285
 5935TIP3    H117769   5.436   0.921   4.413  1.3794  0.3111  0.2631
 5935TIP3    H217770   5.387   1.055   4.465  0.2338  0.2992 -0.7507
 5936TIP3   OH217771   3.346   3.777   4.641 -0.1479 -0.1207 -0.3671
 5936TIP3    H117772   3.322   3.735   4.558 -0.7024 -0.3283 -0.1108
 5936TIP3    H217773   3.394   3.709   4.689 -0.0153 -0.0738 -0.4356
 5937TIP3   OH217774   1.398   4.126   1.510 -0.0245 -0.1492 -0.0732
 5937TIP3    H117775   1.305   4.105   1.501  0.1084 -0.0571 -2.1334
 5937TIP3    H217776   1.399   4.219   1.532 -0.4192 -0.3036  0.6423
 5938TIP3   OH217777   6.344   0.675   0.105 -0.5453  0.1093 -0.2609
 5938TIP3    H117778   6.261   0.718   0.085 -0.8167 -0.6971 -0.9339
 5938TIP3    H217779   6.319   0.601   0.161 -0.3849 -0.5708 -1.0668
 5939TIP3   OH217780   1.930   4.538   1.158 -0.5676 -0.2625 -0.5371
 5939TIP3    H117781   1.887   4.484   1.092 -1.1751 -1.3455  0.6972
 5939TIP3    H217782   1.859   4.591   1.196 -0.5002 -0.7276  0.2524
 5940TIP3   OH217783   3.339   5.949   2.714 -0.4522  0.9294 -0.2120
 5940TIP3    H117784   3.283   5.888   2.666  0.1916  0.1435  0.0205
 5940TIP3    H217785   3.278   5.998   2.770 -0.8344 -0.6217  0.8123
 5941TIP3   OH217786   6.391   2.276   0.165  0.1606 -0.4292  0.9927
 5941TIP3    H117787   6.371   2.242   0.078 -1.3821  0.5060  0.9430
 5941TIP3    H217788   6.465   2.335   0.151 -1.4394  1.4512 -0.1547
 5942TIP3   OH217789   3.446   6.313   4.874 -0.5177 -0.1727 -0.6300
 5942TIP3    H117790   3.502   6.276   4.805 -2.0969  0.1275 -2.1527
 5942TIP3    H217791   3.495   6.388   4.907  0.4927 -0.6157 -1.0844
 5943TIP3   OH217792   6.393   1.049   4.878  0.5834 -0.0263  0.0010
 5943TIP3    H117793   6.347   1.132   4.861  0.1301  0.1979  2.0450
 5943TIP3    H217794   6.466   1.074   4.934  0.2765 -1.0492  0.8738
 5944TIP3   OH217795   2.523   5.088   3.718 -0.8264 -0.1296 -0.1505
 5944TIP3    H117796   2.498   5.151   3.786 -0.4091 -0.9246  0.7693
 5944TIP3    H217797   2.445   5.034   3.706 -1.1890  0.5547 -0.9496
 5945TIP3   OH217798   1.766   2.917   4.533 -0.2880 -0.1030 -0.9037
 5945TIP3    H117799   1.699   2.861   4.494 -1.4010 -1.0254  2.0105
 5945TIP3    H217800   1.846   2.865   4.528  0.3158  0.9583 -4.3095
 5946TIP3   OH217801   0.130   0.777   2.951 -0.1112 -0.3043  0.0856
 5946TIP3    H117802   0.139   0.691   2.909 -1.2381 -0.0750 -0.6951
 5946TIP3    H217803   0.170   0.838   2.889  0.3336 -0.2173  0.4555
 5947TIP3   OH217804   7.014   1.692   0.544  0.1698 -0.1795  0.4470
 5947TIP3    H117805   6.975   1.703   0.631  2.6865  1.2955  1.4858
 5947TIP3    H217806   7.050   1.603   0.545 -2.0148 -1.1448 -0.1289
 5948TIP3   OH217807   1.528   5.783   4.982 -0.2053  0.3829 -0.6424
 5948TIP3    H117808   1.535   5.872   5.017 -0.1387  0.7714 -1.6009
 5948TIP3    H217809   1.614   5.744   4.996 -0.0352  0.6972 -0.8241
 5949TIP3   OH217810   4.950   0.865   4.772 -0.4562 -0.2287 -0.6585
 5949TIP3    H117811   4.955   0.855   4.867 -1.5422 -0.7192 -0.6417
 5949TIP3    H217812   5.032   0.908   4.748  0.0918 -0.6421  0.4234
 5950TIP3   OH217813   2.287   1.180   2.671 -0.2750  0.3914 -0.6233
 5950TIP3    H117814   2.347   1.145   2.737 -0.8652  0.7978  0.1600
 5950TIP3    H217815   2.230   1.239   2.721 -2.7116 -1.5528 -0.8948
 5951TIP3   OH217816   7.032   4.460   4.874 -0.2996 -0.2724  0.4137
 5951TIP3    H117817   6.968   4.511   4.824  0.9287  0.1858 -0.7506
 5951TIP3    H217818   6.987   4.439   4.956 -1.6878  0.6120 -0.0862
 5952TIP3   OH217819   4.593   5.068   5.631 -0.1098 -0.0709  0.6329
 5952TIP3    H117820   4.666   5.117   5.669 -0.1148  0.4767 -0.0360
 5952TIP3    H217821   4.628   4.981   5.612  0.6400  0.4557 -0.4989
 5953TIP3   OH217822   6.924   6.681   0.902  0.0615 -0.1875  0.0244
 5953TIP3    H117823   6.944   6.599   0.858  0.3222 -0.9318  1.4611
 5953TIP3    H217824   6.963   6.672   0.989  1.2702  2.0170 -0.2284
 5954TIP3   OH217825   4.826   1.445   3.688 -0.6279  0.3874 -0.3628
 5954TIP3    H117826   4.767   1.504   3.735  0.7753  1.2940  0.3040
 5954TIP3    H217827   4.769   1.400   3.625 -2.2915  0.1285  1.2617
 5955TIP3   OH217828   3.185   2.791   3.985  0.0998  0.1367  0.3077
 5955TIP3    H117829   3.095   2.822   3.984  0.4891  1.4495  1.5243
 5955TIP3    H217830   3.178   2.696   3.980 -1.3757  0.1818  0.9985
 5956TIP3   OH217831   4.237   0.541   3.702  0.1066 -0.0212  0.8297
 5956TIP3    H117832   4.228   0.466   3.642  0.9232 -0.2256  0.9618
 5956TIP3    H217833   4.155   0.541   3.752 -0.8702  0.5102 -0.6713
 5957TIP3   OH217834   1.956   1.085   1.847 -0.0876 -0.3720  0.1954
 5957TIP3    H117835   1.897   1.032   1.793 -0.1716  0.4791 -0.5762
 5957TIP3    H217836   1.909   1.095   1.930 -0.7894 -0.1712 -0.2147
 5958TIP3   OH217837   3.198   6.194   4.930 -0.4360  0.1995 -0.3525
 5958TIP3    H117838   3.120   6.242   4.902 -0.7827  0.6645  1.2545
 5958TIP3    H217839   3.272   6.242   4.894 -0.7961  1.7900  0.9184
 5959TIP3   OH217840   5.956   5.753   2.739 -0.4149 -0.2138 -0.3517
 5959TIP3    H117841   5.981   5.665   2.766 -1.9025 -0.5578 -0.0253
 5959TIP3    H217842   5.876   5.741   2.688 -1.2158  1.0392  0.5567
 5960TIP3   OH217843   0.823   0.596   1.982 -0.6640 -0.1390  0.5101
 5960TIP3    H117844   0.821   0.545   2.062 -1.2941 -1.5611 -0.3777
 5960TIP3    H217845   0.731   0.608   1.958 -0.6123  2.3511  1.2246
 5961TIP3   OH217846   6.219   2.988   1.022  0.5731  0.3062 -0.5982
 5961TIP3    H117847   6.295   2.981   1.079  0.0729  2.0333  0.3424
 5961TIP3    H217848   6.246   3.046   0.951  0.2537  0.6693 -0.4314
 5962TIP3   OH217849   0.106   1.785   3.496  0.6487  0.4992  0.1641
 5962TIP3    H117850   0.142   1.710   3.544  1.5848  0.3628 -0.7055
 5962TIP3    H217851   0.157   1.787   3.415 -1.4991  0.1338 -1.2732
 5963TIP3   OH217852   4.172   4.862   5.722 -0.8233 -0.1501 -0.3456
 5963TIP3    H117853   4.078   4.873   5.737 -0.5887  0.2646  0.9278
 5963TIP3    H217854   4.209   4.949   5.737  0.1685 -0.9809  2.6507
 5964TIP3   OH217855   3.682   5.801   1.923  0.1864 -0.3858 -0.0284
 5964TIP3    H117856   3.715   5.728   1.975 -0.0347 -0.2677  0.2770
 5964TIP3    H217857   3.743   5.806   1.849 -0.0304 -1.1261 -0.2603
 5965TIP3   OH217858   4.412   1.870   4.543 -0.4697 -0.4143  0.4642
 5965TIP3    H117859   4.346   1.881   4.475  0.4151  2.4508 -0.0870
 5965TIP3    H217860   4.397   1.944   4.602  1.1172 -0.7296  1.3147
 5966TIP3   OH217861   1.072   2.297   2.553 -0.2508  0.2951 -0.0966
 5966TIP3    H117862   1.115   2.295   2.638  0.3471 -0.6179 -0.4056
 5966TIP3    H217863   1.142   2.313   2.490 -0.2051 -1.8774 -0.6674
 5967TIP3   OH217864   2.125   4.962   4.169  0.4081  0.3749  0.3000
 5967TIP3    H117865   2.123   4.951   4.074  0.5254  0.8712  0.2334
 5967TIP3    H217866   2.033   4.956   4.196  0.4964 -1.1482  0.3385
 5968TIP3   OH217867   5.284   0.209   4.730 -0.0955  0.1392 -0.4034
 5968TIP3    H117868   5.337   0.248   4.799 -0.6210 -0.5410  0.4130
 5968TIP3    H217869   5.346   0.190   4.660  0.3137  1.5652 -0.4478
 5969TIP3   OH217870   3.787   0.061   1.479  0.0464  0.3733  0.0591
 5969TIP3    H117871   3.788   0.086   1.387 -2.1223  2.0938  0.4194
 5969TIP3    H217872   3.855   0.116   1.519 -0.5805  1.3090 -0.1475
 5970TIP3   OH217873   4.517   1.078   3.480  0.0243  0.0179  0.3565
 5970TIP3    H117874   4.562   1.149   3.525  0.3413 -0.3514  0.6278
 5970TIP3    H217875   4.492   1.017   3.549 -0.4509 -0.0265  0.1515
 5971TIP3   OH217876   0.263   6.782   0.011 -0.1566 -0.4061 -0.4925
 5971TIP3    H117877   0.232   6.718   0.076 -0.8869 -0.4239 -0.8532
 5971TIP3    H217878   0.215   6.761  -0.069 -1.6480  1.6221 -0.1961
 5972TIP3   OH217879   5.869   6.027   5.281 -0.0962 -0.2434  0.1045
 5972TIP3    H117880   5.933   5.956   5.292  0.3266  0.0488 -0.3906
 5972TIP3    H217881   5.793   6.000   5.332  0.4345 -0.5881  0.7203
 5973TIP3   OH217882   0.557   0.880   0.277  0.4456 -0.6334  0.6380
 5973TIP3    H117883   0.488   0.814   0.280 -2.0410  1.8009  0.6997
 5973TIP3    H217884   0.582   0.892   0.369 -1.0383  0.3566  0.9434
 5974TIP3   OH217885   0.003   6.235   4.778 -0.2743  0.3754 -0.2514
 5974TIP3    H117886  -0.010   6.290   4.700  1.3909 -0.5230 -1.2123
 5974TIP3    H217887   0.066   6.168   4.751  0.4636  0.1010  1.8969
 5975TIP3   OH217888   3.255   4.544   3.089 -0.1106 -0.5680 -0.6874
 5975TIP3    H117889   3.291   4.520   3.004  0.4322 -2.2568 -0.0217
 5975TIP3    H217890   3.184   4.481   3.103 -1.5902  0.9853 -0.7539
 5976TIP3   OH217891   0.920   2.924   2.237 -0.2596  0.4374 -0.7313
 5976TIP3    H117892   0.905   2.841   2.284  0.8581  0.3207 -0.5503
 5976TIP3    H217893   0.940   2.987   2.306  0.7326  0.4174 -0.9888
 5977TIP3   OH217894   3.410   2.948   1.179  0.3593 -0.0411  0.1464
 5977TIP3    H117895   3.375   2.927   1.266  0.1089  0.8184  0.2579
 5977TIP3    H217896   3.344   2.915   1.118  1.3884 -2.3557  0.1763
 5978TIP3   OH217897   6.099   5.090   1.175  0.0180  0.0765 -0.0282
 5978TIP3    H117898   6.045   5.123   1.103 -1.3047  1.5419  1.5595
 5978TIP3    H217899   6.086   4.995   1.173 -1.6623  0.2856 -0.4461
 5979TIP3   OH217900   3.240   5.478   4.744  0.3326 -0.4968 -0.2624
 5979TIP3    H117901   3.248   5.561   4.697 -0.6343 -0.1916  0.0940
 5979TIP3    H217902   3.215   5.414   4.677 -0.3127 -0.2106 -0.3034
 5980TIP3   OH217903   6.119   2.573   3.832 -0.4491  0.2780 -0.0365
 5980TIP3    H117904   6.090   2.656   3.870  0.9689  1.9901 -2.4208
 5980TIP3    H217905   6.170   2.531   3.902 -1.1880  1.3981  1.2218
 5981TIP3   OH217906   2.486   1.610   1.473  0.1294 -0.1711  0.0607
 5981TIP3    H117907   2.473   1.549   1.401  0.5968 -1.0316  0.6852
 5981TIP3    H217908   2.465   1.696   1.436 -0.2584 -0.6678 -0.9113
 5982TIP3   OH217909   0.917   4.828   3.676  0.2972 -0.1599 -0.0105
 5982TIP3    H117910   0.941   4.756   3.618  1.9185  0.4087 -0.0989
 5982TIP3    H217911   0.994   4.885   3.677 -0.6610  1.1953  0.6417
 5983TIP3   OH217912   0.444   2.227   4.283 -0.0688 -0.0797  0.3014
 5983TIP3    H117913   0.513   2.173   4.247 -1.0227 -0.8526 -0.4029
 5983TIP3    H217914   0.379   2.235   4.213 -1.3648 -0.5563  1.3976
 5984TIP3   OH217915   1.336   6.340   5.297 -0.2739  0.5844 -0.2791
 5984TIP3    H117916   1.255   6.370   5.338 -0.4233 -0.8447  0.5535
 5984TIP3    H217917   1.321   6.247   5.281  1.1566  0.3319 -0.2361
 5985TIP3   OH217918   1.104   1.571   4.238  0.8176 -0.5044 -0.5129
 5985TIP3    H117919   1.044   1.646   4.235  0.8901 -0.3635  0.8711
 5985TIP3    H217920   1.116   1.546   4.147  1.0446  1.3770 -1.0380
 5986TIP3   OH217921   6.128   0.120   4.294  0.7060  0.2373  0.1872
 5986TIP3    H117922   6.086   0.174   4.361 -2.6664 -0.8180 -0.8742
 5986TIP3    H217923   6.135   0.177   4.218  0.5552  0.2261  0.1645
 5987TIP3   OH217924   2.239   5.955   1.098  0.3232  0.2868 -0.1767
 5987TIP3    H117925   2.299   5.977   1.169  0.5658  0.5285 -0.4603
 5987TIP3    H217926   2.163   6.011   1.113  0.2388  0.1121  0.0732
 5988TIP3   OH217927   5.526   2.052   0.833  0.7218 -1.0094 -0.0708
 5988TIP3    H117928   5.562   2.112   0.899  1.6919 -1.4345 -0.1992
 5988TIP3    H217929   5.565   1.967   0.854 -1.4900 -1.8867  0.7866
 5989TIP3   OH217930   0.244   1.428   4.376 -0.2419  0.4825  0.2853
 5989TIP3    H117931   0.311   1.456   4.314 -1.1060  0.4145 -0.7013
 5989TIP3    H217932   0.287   1.363   4.431  0.7050  0.9834  0.1564
 5990TIP3   OH217933   0.404   1.158   5.443  0.5621 -0.3291 -0.1347
 5990TIP3    H117934   0.389   1.064   5.457  0.5493 -0.2310  0.5348
 5990TIP3    H217935   0.493   1.163   5.407 -0.5912 -0.8592 -3.4519
 5991TIP3   OH217936   4.092   4.515   3.304  0.2085  0.2972  0.1832
 5991TIP3    H117937   4.146   4.488   3.378 -1.3205  1.2069  1.6864
 5991TIP3    H217938   4.147   4.575   3.254  1.0613  0.1124  0.8875
 5992TIP3   OH217939   6.461   1.897   4.006  0.0039 -0.1173  0.1512
 5992TIP3    H117940   6.539   1.927   4.053 -1.5507  0.6921  2.4108
 5992TIP3    H217941   6.469   1.802   4.004  0.9753 -0.0549  0.4731
 5993TIP3   OH217942   0.419   0.671   0.340  0.6103  0.4267 -0.1691
 5993TIP3    H117943   0.428   0.628   0.255 -2.3955 -0.3326 -0.2215
 5993TIP3    H217944   0.441   0.602   0.403  0.2290  0.1637 -0.3160
 5994TIP3   OH217945   6.470   0.561   0.699 -0.1106 -0.0837 -0.0785
 5994TIP3    H117946   6.445   0.642   0.743 -1.1690 -1.4629  1.9726
 5994TIP3    H217947   6.389   0.528   0.660  0.0444 -0.8056  0.1948
 5995TIP3   OH217948   4.795   5.467   0.032 -0.1814  0.0536 -0.2169
 5995TIP3    H117949   4.802   5.372   0.037 -1.3722 -0.1194 -1.4368
 5995TIP3    H217950   4.819   5.488  -0.058  0.4762  0.9684  0.1549
 5996TIP3   OH217951   0.877   5.384   3.313 -0.1228 -0.4807 -0.0544
 5996TIP3    H117952   0.858   5.451   3.248  0.8696  0.7024  0.8240
 5996TIP3    H217953   0.792   5.344   3.332 -0.5735 -0.1292 -1.2884
 5997TIP3   OH217954   3.921   4.061   2.021  0.4762  0.4618 -0.8360
 5997TIP3    H117955   3.981   4.085   2.092 -0.4512  0.9397 -0.1750
 5997TIP3    H217956   3.959   3.982   1.982  0.9795  0.1428  0.2550
 5998TIP3   OH217957   5.034   5.057   0.344 -0.1220  0.1667  0.1001
 5998TIP3    H117958   5.041   5.126   0.409  1.8692  0.9865 -0.9014
 5998TIP3    H217959   5.112   5.003   0.357 -0.0879 -0.1041 -1.0779
 5999TIP3   OH217960   3.466   0.247   5.752 -0.1279 -0.1643  0.2394
 5999TIP3    H117961   3.420   0.169   5.724 -0.9372  0.3793  0.0148
 5999TIP3    H217962   3.451   0.252   5.847 -2.2888  1.0811 -0.0984
 6000TIP3   OH217963   1.111   6.588   2.771  0.3783  0.1413 -0.3432
 6000TIP3    H117964   1.194   6.628   2.744  0.0394 -0.3346 -2.2029
 6000TIP3    H217965   1.048   6.659   2.767  0.3574  0.1047 -0.6690
 6001TIP3   OH217966   0.429   4.666   3.165  0.1017  0.7984  0.1139
 6001TIP3    H117967   0.338   4.692   3.181  0.7195  3.4925 -0.2069
 6001TIP3    H217968   0.428   4.627   3.078 -0.7296  0.9753  0.0381
 6002TIP3   OH217969   2.030   5.584   5.060  0.2501  0.0248 -0.0125
 6002TIP3    H117970   2.102   5.521   5.063 -0.0799 -0.3712 -0.2178
 6002TIP3    H217971   2.066   5.664   5.099  0.9694  0.0006 -0.5987
 6003TIP3   OH217972   6.933   6.645   4.468 -0.1839  0.0609  0.0415
 6003TIP3    H117973   6.974   6.641   4.382  0.0679  0.1562  0.1564
 6003TIP3    H217974   6.961   6.730   4.504 -2.1486  1.1135 -0.7300
 6004TIP3   OH217975   5.685   3.992   1.254 -0.0552  0.3450  0.2568
 6004TIP3    H117976   5.757   4.038   1.211 -0.6503  1.8640  0.8298
 6004TIP3    H217977   5.671   3.914   1.200  0.9479  0.8546 -0.7735
 6005TIP3   OH217978   4.523   4.228   1.567 -0.2274 -0.1916 -0.5624
 6005TIP3    H117979   4.455   4.187   1.620  1.2774 -3.0015 -0.6131
 6005TIP3    H217980   4.576   4.279   1.629 -0.6799 -0.3589 -0.0396
 6006TIP3   OH217981   4.565   5.864   2.238 -0.3636  0.0912  1.1215
 6006TIP3    H117982   4.578   5.866   2.333 -0.5065 -0.8801  1.1764
 6006TIP3    H217983   4.653   5.855   2.202 -0.3411  0.0414  1.1881
 6007TIP3   OH217984   4.293   3.796   5.618 -0.5116 -0.1094  0.4618
 6007TIP3    H117985   4.339   3.788   5.701 -1.0857 -1.9183  0.6498
 6007TIP3    H217986   4.354   3.842   5.561  0.2687  0.2944  1.5917
 6008TIP3   OH217987   2.898   0.081   2.355  0.9256  0.0126 -0.6025
 6008TIP3    H117988   2.976   0.064   2.407 -1.1395 -0.6891  2.5047
 6008TIP3    H217989   2.868  -0.006   2.327  0.0835  0.0458  0.1396
 6009TIP3   OH217990   3.932   1.121   4.723  0.5193 -0.0954  0.0542
 6009TIP3    H117991   3.921   1.216   4.716  0.5863 -0.1376 -0.6131
 6009TIP3    H217992   3.885   1.098   4.803  1.3422  0.6300  0.7644
 6010TIP3   OH217993   2.199   5.897   3.756  0.1773  0.0053 -0.3374
 6010TIP3    H117994   2.106   5.878   3.758  0.3605 -0.9872  2.0376
 6010TIP3    H217995   2.205   5.991   3.740 -1.3126  0.4011  1.2533
 6011TIP3   OH217996   2.428   3.101   2.713 -0.0993  0.5831  0.1154
 6011TIP3    H117997   2.512   3.055   2.712 -1.1538 -1.5208  1.4356
 6011TIP3    H217998   2.393   3.087   2.625 -0.8864 -2.2779  0.7749
 6012TIP3   OH217999   6.431   3.165   0.458  0.1553  0.0177  0.3035
 6012TIP3    H118000   6.395   3.077   0.471  1.9692 -0.8424 -0.1786
 6012TIP3    H218001   6.379   3.221   0.515 -1.3021 -1.2878  0.3343
 6013TIP3   OH218002   3.812   5.560   4.472  0.1782 -0.7761  0.2249
 6013TIP3    H118003   3.752   5.633   4.487 -0.0423 -1.0694  0.8215
 6013TIP3    H218004   3.899   5.600   4.475  0.1178 -0.6968  1.7068
 6014TIP3   OH218005   0.785   2.809   5.312 -0.5686  0.2285  0.1172
 6014TIP3    H118006   0.761   2.902   5.301 -0.2177  0.4951  1.4549
 6014TIP3    H218007   0.708   2.761   5.280 -1.0581  0.9962  0.1064
 6015TIP3   OH218008   4.693   3.294   4.373 -0.5407  0.0912  0.3715
 6015TIP3    H118009   4.788   3.288   4.389 -0.5819 -0.0298  0.5914
 6015TIP3    H218010   4.681   3.374   4.323 -0.1286 -0.7872 -1.1850
 6016TIP3   OH218011   0.485   5.970   3.460 -0.3919  0.4171 -0.1856
 6016TIP3    H118012   0.502   6.043   3.401  0.7218  0.8236  0.5947
 6016TIP3    H218013   0.410   5.925   3.421  1.9004 -0.9777 -3.4921
 6017TIP3   OH218014   0.133   1.504   3.564 -0.2963  0.2898  0.2552
 6017TIP3    H118015   0.077   1.480   3.639 -3.4129  0.9260 -1.6661
 6017TIP3    H218016   0.139   1.424   3.512  3.2338 -0.6284  1.7796
 6018TIP3   OH218017   2.925   0.597   3.203  0.2723  0.2406 -0.5101
 6018TIP3    H118018   2.848   0.628   3.154  0.0976 -0.9905 -1.0563
 6018TIP3    H218019   2.993   0.589   3.137  0.7653  0.9352 -0.0965
 6019TIP3   OH218020   5.932   1.334   4.229 -0.2612  0.5083  0.4419
 6019TIP3    H118021   6.008   1.303   4.179 -0.5509  1.9233 -0.9293
 6019TIP3    H218022   5.866   1.266   4.217  0.0339  0.3295 -0.2055
 6020TIP3   OH218023   5.885   3.715   0.143 -0.4291  0.1417 -0.3825
 6020TIP3    H118024   5.855   3.711   0.234  0.2661  0.6209 -0.1173
 6020TIP3    H218025   5.897   3.808   0.126  0.0209  0.0180 -0.7631
 6021TIP3   OH218026   3.765   4.332   1.425 -0.3156 -0.0010  0.0935
 6021TIP3    H118027   3.754   4.328   1.329 -0.6023  1.6947  0.0264
 6021TIP3    H218028   3.857   4.353   1.438 -0.2302 -0.4367  0.2019
 6022TIP3   OH218029   5.589   4.319   4.850 -0.2742  0.5066 -0.4059
 6022TIP3    H118030   5.568   4.309   4.943  3.1094 -0.9779  0.3166
 6022TIP3    H218031   5.548   4.243   4.808  0.7291 -0.5220  0.4161
 6023TIP3   OH218032   7.080   1.336   5.816  0.3089  0.2524 -0.0409
 6023TIP3    H118033   7.082   1.249   5.775  0.8019  0.5505 -0.6799
 6023TIP3    H218034   7.025   1.388   5.758 -0.3850  0.2464  0.6045
 6024TIP3   OH218035   3.114   1.051   5.131 -0.1589  0.5556  0.4898
 6024TIP3    H118036   3.178   1.029   5.198 -1.1621 -0.8861  1.0350
 6024TIP3    H218037   3.043   1.094   5.178 -0.1314  1.0743  0.0736
 6025TIP3   OH218038   1.135   2.068   4.609  0.6651  0.0103 -0.3953
 6025TIP3    H118039   1.094   2.149   4.639  1.2478  0.5510 -1.0214
 6025TIP3    H218040   1.119   2.006   4.680  1.2984  1.0215  0.6783
 6026TIP3   OH218041   5.274   5.471   3.003 -0.2073  0.3169  0.1068
 6026TIP3    H118042   5.240   5.516   3.081 -0.2094 -1.4924  1.2123
 6026TIP3    H218043   5.330   5.401   3.038  1.3867  0.6538 -1.5800
 6027TIP3   OH218044   0.810   4.119   5.394 -0.1604  0.1578 -0.6705
 6027TIP3    H118045   0.863   4.077   5.461 -0.8500  0.5521  0.1468
 6027TIP3    H218046   0.832   4.212   5.401 -0.1344  0.1849 -1.0853
 6028TIP3   OH218047   3.340   3.658   5.541 -0.0394  0.1117 -0.1335
 6028TIP3    H118048   3.357   3.638   5.633  1.2202  0.8735 -0.1763
 6028TIP3    H218049   3.256   3.703   5.541  0.5792  1.3075  0.8160
 6029TIP3   OH218050   6.211   6.577   0.486 -0.4536 -0.3589  0.2438
 6029TIP3    H118051   6.125   6.601   0.452  0.1432  0.5433 -0.6606
 6029TIP3    H218052   6.260   6.549   0.408  0.3322 -0.0740  0.6349
 6030TIP3   OH218053   5.959   5.134   3.318 -0.0010 -0.5780  0.2832
 6030TIP3    H118054   6.048   5.101   3.302 -0.5037 -0.7086 -2.8264
 6030TIP3    H218055   5.904   5.056   3.317 -0.5209 -0.2279 -1.3790
 6031TIP3   OH218056   2.562   4.411   2.393 -0.2208  0.3717  0.0751
 6031TIP3    H118057   2.638   4.390   2.446 -0.1244 -3.5488 -1.2533
 6031TIP3    H218058   2.567   4.505   2.378  2.8154  0.6735  2.2569
 6032TIP3   OH218059   0.542   3.154   2.467  0.3299  0.0603  0.0558
 6032TIP3    H118060   0.448   3.141   2.452  0.1230  0.8506  0.6254
 6032TIP3    H218061   0.562   3.093   2.539  0.9241 -2.3255 -1.9798
 6033TIP3   OH218062   1.712   6.127   5.297 -0.2994  0.4884  0.5390
 6033TIP3    H118063   1.643   6.104   5.235  0.6729 -2.5950  0.4355
 6033TIP3    H218064   1.748   6.210   5.263 -1.1229 -0.0475 -1.8779
 6034TIP3   OH218065   6.137   1.554   3.762  0.3715  0.0796  0.0891
 6034TIP3    H118066   6.052   1.580   3.797 -0.3412 -0.9338 -0.8187
 6034TIP3    H218067   6.185   1.636   3.753 -0.6482  0.7217  0.2603
 6035TIP3   OH218068   0.467   6.248   2.378 -0.5495 -0.0510 -0.1054
 6035TIP3    H118069   0.529   6.281   2.313 -0.0532 -0.3836  0.1947
 6035TIP3    H218070   0.397   6.208   2.327 -1.0631  1.2654 -0.4757
 6036TIP3   OH218071   1.495   0.614   3.523 -0.9841 -0.0621 -0.3114
 6036TIP3    H118072   1.561   0.545   3.512  0.1532  0.6455  1.5030
 6036TIP3    H218073   1.530   0.688   3.475  0.5589  0.8813  2.0657
 6037TIP3   OH218074   6.569   2.089   0.796  0.6780 -0.2638 -0.1742
 6037TIP3    H118075   6.582   2.114   0.705  0.9716  1.2371  0.2584
 6037TIP3    H218076   6.517   2.009   0.792  1.1505 -0.5160 -1.6639
 6038TIP3   OH218077   0.126   3.559   0.714  0.7436 -0.1500  0.1724
 6038TIP3    H118078   0.049   3.528   0.762 -0.4436 -0.5109 -1.8184
 6038TIP3    H218079   0.118   3.518   0.628  2.6738  0.5813 -0.4117
 6039TIP3   OH218080   2.960   1.517   3.255 -0.1772 -0.1568  0.4076
 6039TIP3    H118081   3.018   1.470   3.195 -1.6763 -1.1378 -0.3286
 6039TIP3    H218082   3.009   1.596   3.279  0.5316  0.2056 -1.9813
 6040TIP3   OH218083   2.340   3.307   2.332 -0.0844  0.0612  0.3327
 6040TIP3    H118084   2.434   3.292   2.319 -0.0610  0.6255 -0.1631
 6040TIP3    H218085   2.331   3.321   2.426  0.4032  0.5183  0.3163
 6041TIP3   OH218086   5.893   1.235   4.584 -0.1332  0.2537  0.3446
 6041TIP3    H118087   5.948   1.305   4.548  2.1464 -1.1778  0.8320
 6041TIP3    H218088   5.947   1.194   4.652 -0.5186 -3.2327 -1.2208
 6042TIP3   OH218089   4.342   2.668   0.893 -0.1002  0.6756 -0.2062
 6042TIP3    H118090   4.348   2.617   0.812  1.0931 -0.6694  0.6839
 6042TIP3    H218091   4.357   2.758   0.865 -1.3077  0.4575 -1.6954
 6043TIP3   OH218092   2.225   1.145   4.011  0.7025 -0.1978  0.4508
 6043TIP3    H118093   2.281   1.222   4.013  0.3181  0.1351 -0.6060
 6043TIP3    H218094   2.277   1.076   4.052  1.6167  0.2718  0.1166
 6044TIP3   OH218095   1.665   2.673   4.949 -0.0442 -0.1998 -0.2980
 6044TIP3    H118096   1.741   2.652   4.895 -0.0914  0.1727 -0.5139
 6044TIP3    H218097   1.640   2.589   4.988  0.0313 -0.4627 -0.8016
 6045TIP3   OH218098   4.347   1.773   2.942  0.0036  0.3664  0.8086
 6045TIP3    H118099   4.301   1.823   3.010 -0.8147  0.8122 -0.0569
 6045TIP3    H218100   4.288   1.700   2.923  1.0563 -0.7994  1.8511
 6046TIP3   OH218101   3.962   3.465   4.613  0.7111 -0.4683  0.3989
 6046TIP3    H118102   3.954   3.528   4.685 -0.4044  1.7154 -1.4982
 6046TIP3    H218103   3.981   3.519   4.536 -1.6536 -2.2581 -1.6136
 6047TIP3   OH218104   5.399   5.272   1.680 -0.2298  0.5591 -0.0125
 6047TIP3    H118105   5.446   5.221   1.747 -0.2534 -0.0642 -0.4575
 6047TIP3    H218106   5.328   5.215   1.652 -0.9052  1.2703  0.2311
 6048TIP3   OH218107   6.274   4.660   4.677  0.0172 -0.0723 -0.3179
 6048TIP3    H118108   6.207   4.693   4.737 -1.8402  0.3065 -2.4507
 6048TIP3    H218109   6.229   4.591   4.628  0.7272  1.0822 -2.7197
 6049TIP3   OH218110   6.987   0.450   1.817  0.1193 -0.2307 -0.2631
 6049TIP3    H118111   7.044   0.453   1.741 -0.8529  1.2191 -0.9918
 6049TIP3    H218112   6.986   0.540   1.850 -4.0441  0.6775 -2.1504
 6050TIP3   OH218113   6.906   4.517   2.181  0.2374 -0.0464  0.6287
 6050TIP3    H118114   6.869   4.444   2.230  0.5135 -0.5900  0.0481
 6050TIP3    H218115   6.951   4.475   2.107 -0.0444  0.7333  0.0007
 6051TIP3   OH218116   5.753   4.131   4.038 -0.1407  0.3978 -0.2437
 6051TIP3    H118117   5.698   4.101   4.110  0.6405 -0.4981  0.0081
 6051TIP3    H218118   5.730   4.075   3.965  0.6627 -0.2168 -0.0389
 6052TIP3   OH218119   5.692   1.926   1.356  0.4083 -0.4652  0.5929
 6052TIP3    H118120   5.742   1.948   1.434  2.4469  0.5837 -0.9178
 6052TIP3    H218121   5.715   1.834   1.337 -0.0562 -0.7054  1.1741
 6053TIP3   OH218122   6.994   1.540   3.025 -0.2261  0.5823 -0.2756
 6053TIP3    H118123   7.084   1.525   3.054 -0.5184 -2.3008 -0.6022
 6053TIP3    H218124   6.940   1.497   3.091 -1.1583 -0.6360 -1.7523
 6054TIP3   OH218125   6.712   5.469   5.574 -0.2947  0.0111  0.0896
 6054TIP3    H118126   6.728   5.481   5.480  0.6065  1.4057  0.3926
 6054TIP3    H218127   6.765   5.393   5.598 -0.4102 -0.2596 -0.4990
 6055TIP3   OH218128   2.555   4.239   1.352  0.6079  0.1085 -0.3876
 6055TIP3    H118129   2.501   4.313   1.383  0.0525 -0.3070 -0.3377
 6055TIP3    H218130   2.599   4.273   1.274 -0.0510  0.3375 -0.6719
 6056TIP3   OH218131   1.781   6.110   4.914  0.2381  1.0889 -0.0514
 6056TIP3    H118132   1.724   6.077   4.984  0.1330 -1.0616 -1.0443
 6056TIP3    H218133   1.721   6.157   4.855 -0.2541  0.2816 -0.2244
 6057TIP3   OH218134   1.445   0.022   2.686 -0.0396  0.0221  0.2295
 6057TIP3    H118135   1.410   0.077   2.756  0.1221  0.5993 -0.1334
 6057TIP3    H218136   1.503   0.081   2.637  1.7854 -0.9844  1.0594
 6058TIP3   OH218137   6.188   6.553   2.818  0.3613 -0.1209 -0.1662
 6058TIP3    H118138   6.272   6.527   2.856  0.1350  1.6849  1.7119
 6058TIP3    H218139   6.210   6.585   2.731  1.8076  1.3080  0.6836
 6059TIP3   OH218140   3.357   0.399   1.267 -0.2359 -0.0589  0.4240
 6059TIP3    H118141   3.298   0.326   1.248  0.7340 -1.0487  1.0809
 6059TIP3    H218142   3.429   0.359   1.315  0.5774  1.2586  0.3387
 6060TIP3   OH218143   1.087   3.777   5.637 -0.6027  0.6073  0.4305
 6060TIP3    H118144   1.061   3.869   5.626  0.4139  0.6894 -1.8475
 6060TIP3    H218145   1.006   3.728   5.622 -0.8713  1.0824  0.2860
 6061TIP3   OH218146   5.435   1.880   4.599  0.3225  0.0992  0.0267
 6061TIP3    H118147   5.483   1.962   4.593 -0.3506  0.5137  0.2019
 6061TIP3    H218148   5.503   1.812   4.602  0.9454  0.7532  1.9620
 6062TIP3   OH218149   2.936   3.797   1.193  0.5100 -0.1530 -0.3638
 6062TIP3    H118150   2.961   3.879   1.150 -0.3719  0.5165  0.3629
 6062TIP3    H218151   2.845   3.783   1.169  0.4544 -0.5667  0.0588
 6063TIP3   OH218152   1.134   5.489   4.626 -0.2957 -0.4202 -0.2576
 6063TIP3    H118153   1.186   5.409   4.624 -1.9138 -1.5549  0.3094
 6063TIP3    H218154   1.045   5.458   4.644 -1.2597  1.3823 -1.6749
 6064TIP3   OH218155   2.911   1.650   2.618  0.6052 -0.4476  0.8350
 6064TIP3    H118156   2.816   1.662   2.615  0.3524 -2.3568 -0.1863
 6064TIP3    H218157   2.947   1.739   2.621 -1.2374  0.3125  3.4577
 6065TIP3   OH218158   2.444   6.155   4.205 -0.3913 -0.3747 -0.2289
 6065TIP3    H118159   2.473   6.133   4.117  0.6821 -0.9801  0.2637
 6065TIP3    H218160   2.388   6.082   4.231 -0.6353 -0.2394 -0.3724
 6066TIP3   OH218161   1.467   4.983   1.940 -0.1213 -0.0020  0.2566
 6066TIP3    H118162   1.421   4.975   1.856  0.2780  0.3960 -0.0038
 6066TIP3    H218163   1.483   5.076   1.950  3.2149 -0.2710 -1.1066
 6067TIP3   OH218164   6.368   5.728   2.647 -0.1210  0.0200 -0.0739
 6067TIP3    H118165   6.332   5.693   2.566  0.5290  0.0162 -0.3727
 6067TIP3    H218166   6.372   5.823   2.632  1.2474 -0.0943 -0.5884
 6068TIP3   OH218167   0.556   4.309   3.198  0.5054  0.8732  0.6147
 6068TIP3    H118168   0.517   4.331   3.113  1.8748  2.3862  0.3275
 6068TIP3    H218169   0.495   4.343   3.263 -0.2694  0.2144  0.2439
 6069TIP3   OH218170   2.130   0.701   3.940 -0.1762 -0.0778 -0.0182
 6069TIP3    H118171   2.192   0.704   4.014  1.3795 -0.8253 -1.2371
 6069TIP3    H218172   2.071   0.775   3.956 -0.2744 -0.5742  2.2727
 6070TIP3   OH218173   0.521   1.910   0.651  0.0924  0.1620 -0.1652
 6070TIP3    H118174   0.506   1.976   0.719  0.3148  1.0311 -0.9276
 6070TIP3    H218175   0.507   1.826   0.695 -0.8745  0.7318  0.6767
 6071TIP3   OH218176   6.042   6.674   4.440  0.3362  0.1263 -0.0838
 6071TIP3    H118177   6.100   6.632   4.505  1.8609  0.5700 -1.1054
 6071TIP3    H218178   5.967   6.703   4.491  0.5740 -1.2834  1.1441
 6072TIP3   OH218179   3.936   4.977   1.315  0.0476 -0.2432  0.0422
 6072TIP3    H118180   4.018   5.021   1.297  1.4066 -1.9273  1.7104
 6072TIP3    H218181   3.886   5.039   1.368  0.6129  0.4321 -0.2001
 6073TIP3   OH218182   7.143   6.507   1.377 -0.0631  0.0882  0.3664
 6073TIP3    H118183   7.067   6.565   1.376 -0.2457 -0.1485 -0.5758
 6073TIP3    H218184   7.165   6.497   1.470 -1.2555  0.0560  0.6574
 6074TIP3   OH218185   0.454   4.500   2.169 -0.6023 -0.2571 -0.4223
 6074TIP3    H118186   0.406   4.423   2.137 -1.0698  0.2755 -1.0055
 6074TIP3    H218187   0.543   4.468   2.180 -0.7526 -0.8435 -0.8181
 6075TIP3   OH218188   4.135   5.841   2.958  0.1883 -0.1259  0.2324
 6075TIP3    H118189   4.165   5.898   2.887  0.3401  0.9745  1.1539
 6075TIP3    H218190   4.213   5.792   2.984  0.5455  0.6633  0.7122
 6076TIP3   OH218191   4.908   2.610   2.327 -0.1817  0.0751  0.3999
 6076TIP3    H118192   4.829   2.570   2.362 -0.9013 -0.0478 -1.2878
 6076TIP3    H218193   4.980   2.563   2.370 -1.0125 -0.4125  1.2877
 6077TIP3   OH218194   1.361   6.166   3.146 -0.5748  0.0864  0.0600
 6077TIP3    H118195   1.365   6.249   3.098 -1.2202  1.2417  1.8918
 6077TIP3    H218196   1.380   6.099   3.080  2.3423  1.8090 -1.0592
 6078TIP3   OH218197   0.082   4.544   0.337 -0.4993 -0.2628  0.1214
 6078TIP3    H118198   0.057   4.615   0.278 -0.8046 -0.0570  0.4928
 6078TIP3    H218199   0.056   4.464   0.291 -0.4509 -0.1193 -0.1580
 6079TIP3   OH218200   5.466   2.560   4.774 -0.6186 -0.0001  0.1420
 6079TIP3    H118201   5.434   2.471   4.788 -0.2258 -0.7932 -3.1067
 6079TIP3    H218202   5.534   2.572   4.840 -0.0160 -2.4780  0.0496
 6080TIP3   OH218203   4.551   4.956   4.751  0.0217  0.3928 -0.0439
 6080TIP3    H118204   4.501   4.948   4.670  0.7037 -0.3652 -0.4023
 6080TIP3    H218205   4.639   4.927   4.728  0.0814 -0.3853  1.1087
 6081TIP3   OH218206   2.208   1.639   2.624  0.8882  0.0714 -0.6458
 6081TIP3    H118207   2.275   1.628   2.691  1.1360  1.0958 -0.7087
 6081TIP3    H218208   2.132   1.673   2.672  0.4914 -0.8426 -0.6147
 6082TIP3   OH218209   6.072   0.599   0.270 -0.2402 -0.4148 -0.2353
 6082TIP3    H118210   6.009   0.623   0.338 -0.2799 -0.9092 -0.0990
 6082TIP3    H218211   6.050   0.509   0.246  1.6029 -1.3150  1.1650
 6083TIP3   OH218212   1.029   3.098   0.998  0.0308  0.4484  0.1554
 6083TIP3    H118213   1.044   3.037   0.926 -1.3232  2.3452 -1.8229
 6083TIP3    H218214   0.936   3.116   0.996  0.0436  0.9821  2.0882
 6084TIP3   OH218215   4.796   3.576   2.381  0.1913  0.4509  0.3666
 6084TIP3    H118216   4.804   3.662   2.421 -0.0469 -0.3031  2.1239
 6084TIP3    H218217   4.881   3.534   2.396  0.6636  0.7043 -1.3777
 6085TIP3   OH218218   4.084   4.668   4.609 -0.1565 -0.7677  0.4968
 6085TIP3    H118219   4.021   4.739   4.620  0.3572 -0.1719 -0.2880
 6085TIP3    H218220   4.030   4.590   4.598 -0.7283 -0.5565  1.6581
 6086TIP3   OH218221   2.341   6.223   1.585 -0.0162  0.1664 -0.0741
 6086TIP3    H118222   2.290   6.262   1.655  0.2837 -0.1901  0.3519
 6086TIP3    H218223   2.296   6.141   1.564 -0.2702  0.4101 -0.5056
 6087TIP3   OH218224   6.867   6.201   4.757  0.0010 -0.2468  0.0240
 6087TIP3    H118225   6.811   6.177   4.683  1.7032 -1.6919 -0.8556
 6087TIP3    H218226   6.937   6.136   4.757  1.2185  0.9741  1.6252
 6088TIP3   OH218227   5.522   3.848   5.732  0.2629 -0.0459  0.1171
 6088TIP3    H118228   5.445   3.801   5.700  0.5071  0.2647 -1.0024
 6088TIP3    H218229   5.488   3.910   5.796 -0.2953 -0.5199  0.2913
 6089TIP3   OH218230   4.899   0.097   4.151  0.1082  0.0658 -0.2917
 6089TIP3    H118231   4.972   0.040   4.128 -0.0986 -0.4551  0.3012
 6089TIP3    H218232   4.821   0.046   4.130 -0.1090  0.9560 -1.7548
 6090TIP3   OH218233   6.095   3.669   0.623 -0.6836  0.6813 -0.3855
 6090TIP3    H118234   6.116   3.748   0.673 -0.0784  0.9602 -1.0705
 6090TIP3    H218235   6.161   3.665   0.555  0.0835 -1.1170  0.4011
 6091TIP3   OH218236   2.099   3.367   4.918  0.0579 -0.2824 -0.7014
 6091TIP3    H118237   2.062   3.410   4.841  0.2451 -0.7709 -1.0716
 6091TIP3    H218238   2.032   3.304   4.945  0.3322 -0.6872 -0.9598
 6092TIP3   OH218239   4.089   3.553   2.866 -0.6695  0.5479 -0.1462
 6092TIP3    H118240   4.137   3.590   2.792 -2.8769  2.2760 -0.8460
 6092TIP3    H218241   4.092   3.459   2.852  3.6019  0.3833  0.6739
 6093TIP3   OH218242   3.360   0.126   0.216 -0.1631 -0.6818 -0.0977
 6093TIP3    H118243   3.342   0.181   0.140  1.5434  1.4390  0.9321
 6093TIP3    H218244   3.279   0.128   0.266  0.2363  2.1983  0.6130
 6094TIP3   OH218245   2.926   2.641   0.198 -0.0001  0.3821 -0.1872
 6094TIP3    H118246   2.956   2.559   0.159 -1.1661  0.0726 -0.4956
 6094TIP3    H218247   2.932   2.627   0.292 -0.7853 -0.3079 -0.2300
 6095TIP3   OH218248   2.569   6.400   1.918 -0.3861 -0.6080  0.1733
 6095TIP3    H118249   2.553   6.492   1.937 -1.9347 -0.9613  0.6843
 6095TIP3    H218250   2.488   6.369   1.878  1.0446 -1.1151 -2.6412
 6096TIP3   OH218251   6.205   2.859   3.377  0.2722  0.0135  0.6959
 6096TIP3    H118252   6.188   2.770   3.408 -0.0164  0.0547  0.6666
 6096TIP3    H218253   6.144   2.913   3.428  1.4342  0.3723  1.7317
 6097TIP3   OH218254   0.266   0.476   2.767 -0.2286  0.3457  0.1932
 6097TIP3    H118255   0.181   0.498   2.807 -0.6965 -1.3263  0.2110
 6097TIP3    H218256   0.299   0.404   2.820  0.0350 -0.6580 -1.2919
 6098TIP3   OH218257   6.638   0.113   3.638 -0.0852 -0.3991  0.5131
 6098TIP3    H118258   6.634   0.119   3.542  0.9444  1.8691  0.5485
 6098TIP3    H218259   6.697   0.183   3.664  1.4300 -2.3208  2.7132
 6099TIP3   OH218260   0.672   5.590   1.218  0.1196  0.6132  0.2977
 6099TIP3    H118261   0.732   5.628   1.154  0.5856 -0.3246  0.1574
 6099TIP3    H218262   0.690   5.639   1.299 -0.4797  1.8068 -0.2612
 6100TIP3   OH218263   0.091   2.988   0.637  0.1572  0.5136  0.2919
 6100TIP3    H118264   0.121   3.013   0.724 -2.1656 -1.3941  1.7953
 6100TIP3    H218265   0.171   2.969   0.588  1.5160  0.9581  2.2380
 6101TIP3   OH218266   1.045   4.402   5.004  0.4418 -0.3137  0.1241
 6101TIP3    H118267   1.073   4.313   4.982  1.2930 -0.0443  0.0868
 6101TIP3    H218268   0.973   4.420   4.944  0.8561 -0.6505 -0.4856
 6102TIP3   OH218269   3.596   6.434   5.262 -0.7240  0.1660 -0.2171
 6102TIP3    H118270   3.642   6.377   5.323  0.2447 -0.1466 -1.2063
 6102TIP3    H218271   3.657   6.445   5.189 -1.4726  1.2973 -0.7021
 6103TIP3   OH218272   4.767   2.756   2.164 -0.1798  0.0539 -0.8839
 6103TIP3    H118273   4.814   2.718   2.238 -1.1030  1.5933  0.5755
 6103TIP3    H218274   4.826   2.747   2.090  0.7623 -1.5849  0.0244
 6104TIP3   OH218275   2.564   1.107   0.774  0.2216 -0.0684  0.7334
 6104TIP3    H118276   2.519   1.022   0.775  0.4015 -0.1871 -0.2479
 6104TIP3    H218277   2.644   1.092   0.823  0.5410 -0.6438  0.0527
 6105TIP3   OH218278   5.961   0.341   5.448  0.1587  0.4345  0.0542
 6105TIP3    H118279   5.900   0.289   5.395 -0.7713  3.8084 -2.5797
 6105TIP3    H218280   6.041   0.289   5.451 -0.9357 -1.4966 -1.6467
 6106TIP3   OH218281   5.605   3.881   5.199 -0.2224  0.3863 -0.1580
 6106TIP3    H118282   5.676   3.859   5.138 -2.7283 -0.4550 -2.9742
 6106TIP3    H218283   5.649   3.886   5.285  3.1818 -0.2207 -1.6837
 6107TIP3   OH218284   2.268   3.435   4.235 -0.2012 -0.1591  0.2051
 6107TIP3    H118285   2.280   3.379   4.159 -0.7053  1.6769 -1.3038
 6107TIP3    H218286   2.186   3.405   4.274  0.0292 -1.0824  0.0075
 6108TIP3   OH218287   1.325   6.007   0.071  0.4373  0.0678  0.2182
 6108TIP3    H118288   1.246   6.004   0.126 -0.4267  1.5448 -0.8878
 6108TIP3    H218289   1.307   5.945   0.001  0.8259 -0.5527  0.6552
 6109TIP3   OH218290   6.858   6.032   2.871 -0.2481 -0.3613  0.4259
 6109TIP3    H118291   6.769   5.999   2.860 -0.2217 -0.9228  1.6884
 6109TIP3    H218292   6.848   6.127   2.873 -0.8004 -0.4162  0.4567
 6110TIP3   OH218293   1.542   4.482   0.792 -0.5672 -0.1372 -0.1178
 6110TIP3    H118294   1.566   4.434   0.712  0.7467  0.8012 -0.3223
 6110TIP3    H218295   1.453   4.452   0.811  0.1266 -2.5603 -0.2776
 6111TIP3   OH218296   6.003   3.325   2.746 -0.2473  0.5573 -0.0157
 6111TIP3    H118297   6.060   3.257   2.710  0.0035  1.4042 -1.2739
 6111TIP3    H218298   6.052   3.406   2.737 -1.7224  1.3618 -1.4084
 6112TIP3   OH218299   4.375   5.207   4.663  0.1818  0.3967 -0.0466
 6112TIP3    H118300   4.373   5.133   4.602 -0.0708  0.3550  0.0118
 6112TIP3    H218301   4.464   5.242   4.655  1.0139 -1.2353  1.5038
 6113TIP3   OH218302   4.762   3.257   1.306  0.4361  0.0393  0.0574
 6113TIP3    H118303   4.697   3.198   1.266 -0.5875  0.4840  1.0148
 6113TIP3    H218304   4.811   3.202   1.366  0.1278 -0.0372  0.2375
 6114TIP3   OH218305   4.118   3.271   2.749  0.0708  0.4287  0.1214
 6114TIP3    H118306   4.136   3.193   2.697 -1.0069 -0.1183  0.5363
 6114TIP3    H218307   4.197   3.325   2.741  0.4141 -0.2310 -1.0114
 6115TIP3   OH218308   0.374   0.315   1.723  0.0557  0.2356  0.3768
 6115TIP3    H118309   0.364   0.404   1.689  1.2907 -0.5269 -2.2896
 6115TIP3    H218310   0.462   0.312   1.759 -0.1372  0.1834  0.8547
 6116TIP3   OH218311   3.785   1.275   1.964 -0.3831 -0.1227  0.5875
 6116TIP3    H118312   3.789   1.255   1.870 -0.8256  1.7386  0.1345
 6116TIP3    H218313   3.692   1.273   1.985 -0.2592 -0.9066  1.0894
 6117TIP3   OH218314   3.579   4.157   2.964  0.5303  0.6904  0.2314
 6117TIP3    H118315   3.547   4.149   2.875  0.0418 -0.4405  0.4912
 6117TIP3    H218316   3.672   4.134   2.959  0.3136 -0.1619  0.1429
 6118TIP3   OH218317   3.957   2.945   5.592 -0.0341  0.2544  0.7884
 6118TIP3    H118318   4.015   2.873   5.617  0.9890  1.0646  0.7782
 6118TIP3    H218319   3.871   2.903   5.579  0.8537 -1.2327 -0.7222
 6119TIP3   OH218320   1.620   3.375   2.895  0.0570 -0.4265  0.4141
 6119TIP3    H118321   1.559   3.426   2.948 -1.3114 -0.1619 -1.3231
 6119TIP3    H218322   1.601   3.284   2.919  1.3029 -0.2465  2.2540
 6120TIP3   OH218323   6.052   3.251   1.724  0.4962 -0.7984 -0.0773
 6120TIP3    H118324   5.972   3.294   1.693  0.5778 -1.1142 -0.7502
 6120TIP3    H218325   6.120   3.317   1.711  0.0120  0.3822  2.7636
 6121TIP3   OH218326   2.010   1.414   2.401  0.2335 -0.6183 -0.1274
 6121TIP3    H118327   1.989   1.349   2.334 -0.4065 -0.5146 -0.0339
 6121TIP3    H218328   2.106   1.420   2.400  0.3126 -1.6825 -0.0290
 6122TIP3   OH218329   2.951   2.840   4.293  0.5141  0.0364 -0.1874
 6122TIP3    H118330   3.017   2.901   4.261 -0.1472  0.6750 -0.3566
 6122TIP3    H218331   2.869   2.890   4.291  0.2878 -0.2011  1.5779
 6123TIP3   OH218332   4.925   0.947   2.555  0.2446 -0.0286 -0.0572
 6123TIP3    H118333   4.896   1.024   2.604 -0.0247 -0.4049  0.3948
 6123TIP3    H218334   4.995   0.979   2.499 -0.9466  0.9002 -1.0939
 6124TIP3   OH218335   3.975   4.774   2.016  0.0928  0.8910 -0.0125
 6124TIP3    H118336   3.888   4.797   2.048 -0.1365  0.9020 -0.6190
 6124TIP3    H218337   3.968   4.785   1.921  0.3432 -0.4974 -0.2112
 6125TIP3   OH218338   4.059   0.060   3.680  0.7129 -0.4149  0.1866
 6125TIP3    H118339   4.102   0.012   3.751  0.0232 -1.8584 -0.3285
 6125TIP3    H218340   4.120   0.055   3.607 -0.9048 -4.1615 -1.1844
 6126TIP3   OH218341   6.242   1.095   5.776 -0.3155  0.3709 -0.0093
 6126TIP3    H118342   6.244   1.011   5.731  0.0874 -0.6843  1.8923
 6126TIP3    H218343   6.154   1.128   5.760 -0.3611 -0.2175 -1.0813
 6127TIP3   OH218344   5.139   1.982   3.464 -0.0815  0.0265  0.2092
 6127TIP3    H118345   5.224   1.970   3.507  0.1694 -0.4439 -0.3996
 6127TIP3    H218346   5.098   1.895   3.467  0.0768 -0.0898 -0.7732
 6128TIP3   OH218347   1.219   5.224   0.371  0.0821  0.1622  0.0324
 6128TIP3    H118348   1.309   5.191   0.368 -0.3524 -1.2168  1.3672
 6128TIP3    H218349   1.165   5.148   0.350 -0.7715  1.4172 -2.8691
 6129TIP3   OH218350   5.800   1.241   3.888  0.5651 -0.0841  0.2215
 6129TIP3    H118351   5.794   1.187   3.967  1.5543 -0.3206  0.1399
 6129TIP3    H218352   5.802   1.331   3.921 -0.1282 -0.1217  0.3981
 6130TIP3   OH218353   0.723   1.713   1.721 -0.0715 -0.4210 -0.2142
 6130TIP3    H118354   0.790   1.705   1.653 -0.1202  1.0152 -0.4544
 6130TIP3    H218355   0.669   1.787   1.693  0.6985  1.0904  2.0336
 6131TIP3   OH218356   2.130   0.315   2.264 -0.0236  0.1906 -0.4379
 6131TIP3    H118357   2.206   0.313   2.322 -0.2536  1.1113 -0.0852
 6131TIP3    H218358   2.055   0.321   2.323 -0.1666  3.8056 -0.7349
 6132TIP3   OH218359   0.266   3.256   2.633 -0.3696 -0.0051  0.0251
 6132TIP3    H118360   0.234   3.168   2.613 -0.4926 -1.0375  3.8527
 6132TIP3    H218361   0.188   3.312   2.629 -1.0795 -0.8649  1.2070
 6133TIP3   OH218362   0.580   2.185   3.625  0.1664  0.2916  0.0641
 6133TIP3    H118363   0.537   2.149   3.703  0.1199 -0.8002 -0.4464
 6133TIP3    H218364   0.613   2.109   3.578  2.3778  1.0578  0.2364
 6134TIP3   OH218365   2.278   2.129   0.407 -0.1033  0.2858  0.0541
 6134TIP3    H118366   2.234   2.045   0.391 -1.5881  1.3134 -1.6284
 6134TIP3    H218367   2.263   2.147   0.500 -0.4243 -0.9451  0.2529
 6135TIP3   OH218368   4.434   0.431   1.677  0.1450 -0.3572  0.8183
 6135TIP3    H118369   4.347   0.421   1.715  0.4568  0.9829  1.9960
 6135TIP3    H218370   4.491   0.444   1.753  0.7920  2.5814 -0.0555
 6136TIP3   OH218371   6.773   3.161   0.665  0.2378  0.2074  0.0062
 6136TIP3    H118372   6.788   3.214   0.586 -0.0531  1.2457  0.6232
 6136TIP3    H218373   6.730   3.082   0.633  1.0012  0.1707 -0.9879
 6137TIP3   OH218374   1.271   0.973   0.549 -0.3481  0.1919 -0.2228
 6137TIP3    H118375   1.265   1.066   0.570 -3.6554 -0.1165  0.7417
 6137TIP3    H218376   1.260   0.929   0.633 -0.5598 -1.0936 -0.9041
 6138TIP3   OH218377   1.955   4.676   3.790 -0.5284 -0.6924 -0.2180
 6138TIP3    H118378   1.876   4.729   3.806  0.2981  1.1900 -1.9591
 6138TIP3    H218379   1.927   4.612   3.725 -1.1288 -1.3698  0.6935
 6139TIP3   OH218380   2.676   2.873   3.381 -0.5477  0.2934  0.0321
 6139TIP3    H118381   2.723   2.947   3.420  0.6709 -0.7369  0.5690
 6139TIP3    H218382   2.587   2.881   3.414  0.3064 -0.2387  2.6602
 6140TIP3   OH218383   3.844   5.017   5.403  0.1934 -0.4053  0.5725
 6140TIP3    H118384   3.843   4.955   5.476  1.2254  0.5138  1.4189
 6140TIP3    H218385   3.785   4.980   5.338 -1.3409 -0.8910  2.1804
 6141TIP3   OH218386   1.690   6.371   3.375  0.5852 -0.3720 -0.0315
 6141TIP3    H118387   1.666   6.424   3.451 -2.9189 -1.1086 -0.4776
 6141TIP3    H218388   1.753   6.307   3.408  2.9223  2.2975  1.0729
 6142TIP3   OH218389   5.673   3.109   2.741 -0.6859 -0.2466 -0.4135
 6142TIP3    H118390   5.585   3.099   2.776  0.2810 -1.2311  1.9735
 6142TIP3    H218391   5.725   3.140   2.815  1.5521 -2.7095 -0.7802
 6143TIP3   OH218392   1.952   6.431   0.431 -0.2097  0.5029 -0.3422
 6143TIP3    H118393   1.946   6.341   0.462  1.5288  0.5190  0.1851
 6143TIP3    H218394   1.965   6.424   0.337 -0.0621  0.1972 -0.2979
 6144TIP3   OH218395   3.377   6.679   4.271  0.2139  0.4294 -0.0521
 6144TIP3    H118396   3.288   6.712   4.279  0.2032  0.3462  0.1871
 6144TIP3    H218397   3.414   6.686   4.360 -1.2938 -4.4843  1.2758
 6145TIP3   OH218398   6.133   1.638   5.103 -0.3744 -0.6373 -0.4780
 6145TIP3    H118399   6.121   1.545   5.086 -0.3546 -1.1390  1.9276
 6145TIP3    H218400   6.162   1.643   5.194  1.9318  1.5949 -1.2012
 6146TIP3   OH218401   1.301   3.113   5.287 -0.0807 -0.6434 -0.0494
 6146TIP3    H118402   1.241   3.040   5.273  0.5345 -1.0675 -0.5156
 6146TIP3    H218403   1.381   3.088   5.241  0.2475  0.1839  0.0468
 6147TIP3   OH218404   3.268   4.446   0.213 -0.2111  0.0456  0.1840
 6147TIP3    H118405   3.255   4.379   0.147  1.2111 -0.5031  0.4161
 6147TIP3    H218406   3.313   4.517   0.166 -2.7524  1.4184 -0.3519
 6148TIP3   OH218407   1.002   2.317   4.351  0.0520 -0.2015 -0.5524
 6148TIP3    H118408   1.072   2.376   4.378  0.8124 -1.2075 -0.2194
 6148TIP3    H218409   1.048   2.243   4.311 -0.7462 -1.3580  0.6016
 6149TIP3   OH218410   4.114   1.138   5.396 -0.1778 -0.0130  0.0444
 6149TIP3    H118411   4.124   1.082   5.320 -0.2280 -1.1350  0.8430
 6149TIP3    H218412   4.037   1.191   5.378 -0.9517 -1.1771 -0.1372
 6150TIP3   OH218413   4.359   2.509   2.282  0.0301 -0.1882 -0.0688
 6150TIP3    H118414   4.290   2.517   2.349  0.4198 -0.8264  0.4251
 6150TIP3    H218415   4.399   2.424   2.300  1.2797  0.3863 -0.0270
 6151TIP3   OH218416   6.220   6.297   0.100  0.0891 -0.8309 -1.0494
 6151TIP3    H118417   6.186   6.223   0.049  1.9915 -0.8767 -2.3610
 6151TIP3    H218418   6.196   6.374   0.048 -3.6076 -0.1759  1.2450
 6152TIP3   OH218419   2.822   4.667   0.920  0.1708  0.0545 -0.4790
 6152TIP3    H118420   2.745   4.724   0.917  0.2113  0.1810  0.5391
 6152TIP3    H218421   2.798   4.592   0.865  0.5388  1.5155 -2.7663
 6153TIP3   OH218422   3.514   1.825   0.499  0.9561  0.1462  0.0445
 6153TIP3    H118423   3.453   1.879   0.447 -0.4477  0.4416  1.8965
 6153TIP3    H218424   3.600   1.850   0.467  0.2998  2.6406 -0.0071
 6154TIP3   OH218425   2.911   5.541   2.738  0.7319 -0.3031 -0.0985
 6154TIP3    H118426   2.985   5.602   2.732  0.3298  0.1143 -1.0183
 6154TIP3    H218427   2.943   5.470   2.794  1.3275  0.5775  0.7112
 6155TIP3   OH218428   5.777   0.359   3.795 -0.6002 -0.0793  0.4247
 6155TIP3    H118429   5.805   0.286   3.850 -0.8439  1.3147  2.5331
 6155TIP3    H218430   5.858   0.395   3.759 -0.3853 -0.6703  0.3009
 6156TIP3   OH218431   2.509   3.074   4.730  0.4859  0.0836 -0.2069
 6156TIP3    H118432   2.419   3.099   4.750 -0.0909  0.2178 -2.6991
 6156TIP3    H218433   2.503   2.986   4.695  1.2977  0.1654 -0.5762
 6157TIP3   OH218434   6.236   3.454   1.705  0.3392  0.6418 -0.6748
 6157TIP3    H118435   6.159   3.503   1.678 -0.2299  0.2023  0.1305
 6157TIP3    H218436   6.306   3.519   1.707 -0.3700  1.4139  0.2171
 6158TIP3   OH218437   3.515   5.643   1.700 -0.0701  0.4651  0.0470
 6158TIP3    H118438   3.600   5.682   1.683  0.0652 -0.1462 -0.7466
 6158TIP3    H218439   3.534   5.568   1.758 -0.0858  0.4140 -0.0134
 6159TIP3   OH218440   1.042   5.706   1.318  0.0035  0.1145 -0.1990
 6159TIP3    H118441   1.064   5.724   1.409 -0.4463 -0.5849  0.0584
 6159TIP3    H218442   1.100   5.634   1.293 -0.3548 -0.1561 -0.2518
 6160TIP3   OH218443   4.271   4.928   1.435 -0.2577  0.2830  0.0576
 6160TIP3    H118444   4.282   4.833   1.432 -1.6995  0.0073  2.0481
 6160TIP3    H218445   4.361   4.962   1.445  0.3777 -0.7600 -1.7648
 6161TIP3   OH218446   5.140   0.528   0.063 -0.1088  0.0521  0.1855
 6161TIP3    H118447   5.066   0.475   0.033 -0.5189  1.2128 -0.9480
 6161TIP3    H218448   5.119   0.617   0.034  1.6387  0.4441  0.0146
 6162TIP3   OH218449   6.601   5.780   3.772 -0.5163  0.3899  0.7247
 6162TIP3    H118450   6.638   5.742   3.692 -1.3367 -1.3035  1.1147
 6162TIP3    H218451   6.636   5.869   3.774  3.1011 -0.8992  0.8076
 6163TIP3   OH218452   3.140   5.939   3.708 -0.3822  0.1526  0.6587
 6163TIP3    H118453   3.166   5.979   3.625 -0.8840  0.4485  0.6400
 6163TIP3    H218454   3.076   6.000   3.745 -1.5784 -0.8881  0.3708
 6164TIP3   OH218455   0.885   5.915   2.149 -0.3232  0.7477 -0.2557
 6164TIP3    H118456   0.932   5.929   2.067  1.1149  1.2952  0.6296
 6164TIP3    H218457   0.815   5.981   2.148  0.8361  2.0358 -0.2368
 6165TIP3   OH218458   0.601   0.357   1.250 -0.1280  0.3482  0.1113
 6165TIP3    H118459   0.580   0.266   1.269 -0.2881  0.7665  2.0920
 6165TIP3    H218460   0.539   0.408   1.301  1.5328  1.5760  1.0098
 6166TIP3   OH218461   3.827   6.524   3.037  0.3121  0.6916  0.1283
 6166TIP3    H118462   3.876   6.464   2.980  0.6339  0.3703  0.7408
 6166TIP3    H218463   3.793   6.469   3.107 -0.4328  1.0187  0.0383
 6167TIP3   OH218464   5.372   5.091   3.912 -0.1427 -0.5470  0.3783
 6167TIP3    H118465   5.440   5.153   3.937 -0.3754 -0.7747  1.6892
 6167TIP3    H218466   5.416   5.006   3.910  0.0726 -0.4206 -0.9458
 6168TIP3   OH218467   1.669   3.834   0.236 -0.1508 -0.2503  0.0306
 6168TIP3    H118468   1.657   3.746   0.200 -0.1770 -0.3685  0.3186
 6168TIP3    H218469   1.595   3.884   0.201 -0.5511 -0.5360  0.4418
 6169TIP3   OH218470   3.451   4.999   2.566  0.9937  0.0549 -0.7082
 6169TIP3    H118471   3.539   5.010   2.601  0.4892  0.7007  0.4143
 6169TIP3    H218472   3.408   5.083   2.583  0.3956  0.0115 -1.9308
 6170TIP3   OH218473   1.133   1.264   1.679 -0.5269 -0.8369 -0.0546
 6170TIP3    H118474   1.192   1.284   1.606 -0.6734 -3.7802 -1.1268
 6170TIP3    H218475   1.052   1.310   1.657  0.7389  1.8826  0.5897
 6171TIP3   OH218476   4.006   6.260   1.978 -0.8474  0.1838 -0.7459
 6171TIP3    H118477   4.093   6.285   2.010 -0.2155  0.0204 -2.2273
 6171TIP3    H218478   3.968   6.209   2.050  1.5839 -2.5297 -1.1807
 6172TIP3   OH218479   0.920   2.799   0.447 -0.1570 -0.1645  0.2183
 6172TIP3    H118480   0.848   2.753   0.492 -1.0469 -1.1898 -2.0852
 6172TIP3    H218481   0.882   2.884   0.423 -0.3412 -0.3789 -0.2648
 6173TIP3   OH218482   0.894   5.082   2.612  0.0786  0.3527 -0.8183
 6173TIP3    H118483   0.907   5.002   2.562 -0.0645  0.1860 -0.5950
 6173TIP3    H218484   0.835   5.056   2.684  0.0028  0.6634 -0.7637
 6174TIP3   OH218485   2.473   5.516   3.371 -0.0355  0.4338  0.4378
 6174TIP3    H118486   2.423   5.512   3.289  2.1644  0.1264 -0.9729
 6174TIP3    H218487   2.460   5.431   3.411 -1.5464  0.7646  0.6936
 6175TIP3   OH218488   5.851   4.959   3.037  0.0608  0.1977  0.3917
 6175TIP3    H118489   5.881   4.945   2.947  0.1739  1.6583  0.1830
 6175TIP3    H218490   5.896   4.891   3.088  0.3211 -0.3824 -0.5852
 6176TIP3   OH218491   2.804   1.020   3.643 -0.1737  0.8698 -0.3688
 6176TIP3    H118492   2.889   1.040   3.604  0.3763  0.3681  0.5481
 6176TIP3    H218493   2.751   0.988   3.570  1.0523 -0.7362 -0.6046
 6177TIP3   OH218494   6.221   5.655   4.961 -0.5551  0.2619 -0.3310
 6177TIP3    H118495   6.216   5.665   4.866 -1.3871  0.0913 -0.3186
 6177TIP3    H218496   6.130   5.661   4.990 -0.7100 -2.7842  0.1353
 6178TIP3   OH218497   6.001   1.789   2.283 -0.3947  0.2859  0.0514
 6178TIP3    H118498   5.932   1.826   2.228 -1.4092  0.5609  1.4562
 6178TIP3    H218499   6.057   1.741   2.223 -0.5830  1.8492 -1.4432
 6179TIP3   OH218500   2.312   5.306   5.634 -0.2838 -0.1131 -0.0872
 6179TIP3    H118501   2.221   5.333   5.630 -0.4668 -0.5225  0.9479
 6179TIP3    H218502   2.317   5.229   5.577 -0.3163  0.5812 -1.0483
 6180TIP3   OH218503   3.602   4.552   2.205 -0.1346  0.2305 -0.3182
 6180TIP3    H118504   3.507   4.563   2.205 -0.2532 -0.5716  1.3229
 6180TIP3    H218505   3.619   4.492   2.133 -1.2428 -2.0666  1.1970
 6181TIP3   OH218506   0.472   1.786   5.667 -0.3289  0.4175  0.3229
 6181TIP3    H118507   0.385   1.755   5.692 -0.1213  0.0047  0.5567
 6181TIP3    H218508   0.530   1.713   5.688 -0.1211  0.0831 -1.3003
 6182TIP3   OH218509   3.140   0.842   2.171  0.0866 -0.2569  0.1334
 6182TIP3    H118510   3.069   0.799   2.219 -0.6420 -0.3756 -0.9913
 6182TIP3    H218511   3.219   0.795   2.198 -0.3824 -0.7183  0.7409
 6183TIP3   OH218512   0.027   1.841   1.022 -0.2848  0.5372  0.0882
 6183TIP3    H118513   0.067   1.816   0.939 -1.4462 -1.5745  0.1048
 6183TIP3    H218514   0.101   1.849   1.083  0.3250 -1.3374 -0.3497
 6184TIP3   OH218515   4.542   2.390   4.107  0.2140  0.0944 -0.3726
 6184TIP3    H118516   4.604   2.388   4.034 -2.5689  1.7320 -2.9813
 6184TIP3    H218517   4.594   2.423   4.181  2.5797  0.7805 -2.2219
 6185TIP3   OH218518   2.259   0.852   5.559  0.1430 -0.4619  0.1834
 6185TIP3    H118519   2.276   0.931   5.507  1.8037 -0.6831  0.3343
 6185TIP3    H218520   2.228   0.788   5.496 -0.0139 -0.0609 -0.1511
 6186TIP3   OH218521   3.823   5.487   5.255 -0.0244 -0.0567  0.1270
 6186TIP3    H118522   3.782   5.528   5.332  2.0860 -1.6185  2.2447
 6186TIP3    H218523   3.772   5.408   5.240 -0.6388  0.4155 -0.3153
 6187TIP3   OH218524   4.935   2.979   4.003 -0.1745 -0.4108  0.6002
 6187TIP3    H118525   4.901   2.968   3.914 -0.0161 -0.7832  0.5817
 6187TIP3    H218526   4.857   2.980   4.059 -0.2460 -0.7999  0.5138
 6188TIP3   OH218527   3.194   5.404   5.003 -0.4015 -0.8584  1.1781
 6188TIP3    H118528   3.270   5.407   4.945 -0.2073 -2.5924  1.2924
 6188TIP3    H218529   3.137   5.474   4.972  0.6515 -0.3774  0.2606
 6189TIP3   OH218530   4.186   0.068   4.125  0.3181 -0.3178 -0.1606
 6189TIP3    H118531   4.204   0.028   4.040 -0.2820  0.7756 -0.8119
 6189TIP3    H218532   4.122   0.010   4.166 -1.6796  0.6564 -1.7076
 6190TIP3   OH218533   0.806   3.400   3.502 -0.2217 -0.8662  0.6143
 6190TIP3    H118534   0.724   3.390   3.550 -0.5128  1.1503  0.6233
 6190TIP3    H218535   0.872   3.415   3.569 -0.0475 -1.2760  0.5391
 6191TIP3   OH218536   4.667   4.799   5.284  0.4777  0.5920 -0.3350
 6191TIP3    H118537   4.573   4.788   5.272  0.2981  0.6192  0.9047
 6191TIP3    H218538   4.706   4.719   5.249 -0.1684 -0.2652  0.8520
 6192TIP3   OH218539   4.088   6.173   1.474 -0.4926 -0.0019  0.0646
 6192TIP3    H118540   4.105   6.246   1.414 -0.2756 -0.3123 -0.2602
 6192TIP3    H218541   4.112   6.206   1.560  2.7651 -0.6932 -0.4490
 6193TIP3   OH218542   5.591   4.190   3.371  0.3029  0.1939 -0.2995
 6193TIP3    H118543   5.536   4.175   3.294 -1.0850 -0.2112  0.7272
 6193TIP3    H218544   5.557   4.271   3.409  1.3115  0.6689 -0.3674
 6194TIP3   OH218545   6.276   0.908   4.235 -0.6635  0.5335 -0.1843
 6194TIP3    H118546   6.194   0.955   4.216  0.0657  3.5034  3.0405
 6194TIP3    H218547   6.256   0.855   4.312  0.0104 -0.2941 -0.5563
 6195TIP3   OH218548   0.163   1.793   0.807  0.0528 -0.6126 -0.4445
 6195TIP3    H118549   0.176   1.709   0.762  1.2693 -1.2564  1.0217
 6195TIP3    H218550   0.109   1.844   0.746  1.3807 -1.5090 -2.5095
 6196TIP3   OH218551   3.438   4.895   0.613 -0.1575  0.1364 -0.6782
 6196TIP3    H118552   3.520   4.866   0.574  1.1923  3.4990 -0.6967
 6196TIP3    H218553   3.447   4.875   0.706 -1.2218 -3.2890 -1.1948
 6197TIP3   OH218554   3.451   0.150   4.829  0.5589 -0.5427 -0.1201
 6197TIP3    H118555   3.391   0.120   4.898  0.6244 -1.0288 -0.2757
 6197TIP3    H218556   3.393   0.186   4.762  0.4873 -0.2005  0.1173
 6198TIP3   OH218557   5.070   4.830   1.271  0.5265  0.2885  0.2890
 6198TIP3    H118558   4.991   4.785   1.301 -0.6376  1.2082 -1.2341
 6198TIP3    H218559   5.132   4.759   1.253 -1.3019 -0.8375 -2.1751
 6199TIP3   OH218560   0.770   3.235   0.979  0.1474 -0.3822  0.5632
 6199TIP3    H118561   0.687   3.187   0.983  0.5499 -1.0419  1.0176
 6199TIP3    H218562   0.771   3.289   1.058  0.2527 -0.5427  0.6718
 6200TIP3   OH218563   0.234   2.005   3.622  0.2103 -1.0131  0.2255
 6200TIP3    H118564   0.172   1.941   3.587  0.8602 -0.5633 -1.8911
 6200TIP3    H218565   0.246   2.068   3.551  1.4093  0.1308  1.3895
 6201TIP3   OH218566   3.398   0.272   2.953 -0.0024 -0.2513 -0.1269
 6201TIP3    H118567   3.375   0.255   3.044  1.1611  0.1359  0.2570
 6201TIP3    H218568   3.477   0.220   2.938  0.1879  0.1958 -0.7171
 6202TIP3   OH218569   4.859   2.867   5.754 -0.2286 -0.4667  0.2247
 6202TIP3    H118570   4.790   2.806   5.727  0.5920 -1.9430  1.2835
 6202TIP3    H218571   4.914   2.877   5.676  0.0749 -1.7643  0.2484
 6203TIP3   OH218572   0.273   0.549   3.543  0.2447 -0.4312 -0.3627
 6203TIP3    H118573   0.223   0.630   3.557  3.2539  1.1302  2.7940
 6203TIP3    H218574   0.253   0.525   3.453 -3.5036  1.8201 -0.3730
 6204TIP3   OH218575   1.842   6.204   3.036  0.4519  0.2120 -0.2302
 6204TIP3    H118576   1.833   6.128   3.094 -1.4200  0.7404  0.2449
 6204TIP3    H218577   1.767   6.197   2.976 -0.1631  2.0229  0.2662
 6205TIP3   OH218578   0.883   1.902   5.724  0.0069  0.0124 -0.8502
 6205TIP3    H118579   0.936   1.823   5.736 -1.5602 -1.0846 -0.8191
 6205TIP3    H218580   0.865   1.905   5.630  2.1759  1.8249 -1.2991
 6206TIP3   OH218581   4.575   0.196   1.600 -0.1708  0.0185  0.0784
 6206TIP3    H118582   4.667   0.219   1.609 -0.2954  0.2716  0.7898
 6206TIP3    H218583   4.528   0.277   1.619 -0.5111  0.5727 -2.7118
 6207TIP3   OH218584   7.119   3.081   2.753  0.4594  0.1911  0.2681
 6207TIP3    H118585   7.101   2.997   2.795  1.8025 -0.0968  0.3355
 6207TIP3    H218586   7.155   3.135   2.824 -0.8661  1.0097  0.3417
 6208TIP3   OH218587   0.854   0.011   3.446 -0.1672 -0.0396  0.7246
 6208TIP3    H118588   0.932   0.036   3.495  0.1022 -1.0711  0.8283
 6208TIP3    H218589   0.781   0.033   3.505  0.1782 -2.0162  1.9732
 6209TIP3   OH218590   0.723   5.320   1.516  0.1731 -0.2471  0.0792
 6209TIP3    H118591   0.697   5.268   1.591 -1.6813  0.5288  0.0083
 6209TIP3    H218592   0.674   5.283   1.442 -0.3266  0.8782 -0.1719
 6210TIP3   OH218593   7.066   5.709   1.848  0.4152 -0.2856 -0.8549
 6210TIP3    H118594   7.145   5.748   1.810  2.2980 -1.6084  1.4027
 6210TIP3    H218595   7.069   5.617   1.822  0.5315 -0.7008  0.5314
 6211TIP3   OH218596   5.842   4.248   0.807 -0.0610  0.0830  0.3079
 6211TIP3    H118597   5.848   4.329   0.857  0.0524 -1.4233  2.9054
 6211TIP3    H218598   5.923   4.244   0.757  0.9424  0.5721  1.8161
 6212TIP3   OH218599   3.977   2.156   0.346 -0.9149 -0.3185  0.4348
 6212TIP3    H118600   3.919   2.185   0.277 -0.6844  5.4656  2.1581
 6212TIP3    H218601   4.056   2.126   0.300 -0.5424  3.7454 -2.1058
 6213TIP3   OH218602   5.118   2.567   0.359 -0.2862 -0.2789 -0.1789
 6213TIP3    H118603   5.189   2.599   0.415 -0.0160  0.1857 -0.7828
 6213TIP3    H218604   5.107   2.635   0.293  0.8931 -1.8096 -2.0357
 6214TIP3   OH218605   7.212   6.434   4.604 -0.0562 -0.2075  0.2024
 6214TIP3    H118606   7.147   6.463   4.668  1.2246  1.6260  0.7520
 6214TIP3    H218607   7.250   6.515   4.571  2.8922 -1.2224  0.8700
 6215TIP3   OH218608   6.485   4.767   4.939 -0.6001 -0.5482  0.5894
 6215TIP3    H118609   6.437   4.684   4.943  0.3560 -1.2528 -1.4117
 6215TIP3    H218610   6.421   4.833   4.966 -1.8667 -1.7606  0.6608
 6216TIP3   OH218611   4.883   3.864   2.728  0.3485  0.4807 -0.4829
 6216TIP3    H118612   4.870   3.917   2.649  0.9196  0.2140 -0.7596
 6216TIP3    H218613   4.886   3.774   2.696  1.2518  0.4187 -0.2340
 6217TIP3   OH218614   0.719   1.280   3.799  0.6399 -0.0170  0.2130
 6217TIP3    H118615   0.814   1.278   3.798  0.6766  0.2421  1.4539
 6217TIP3    H218616   0.697   1.352   3.860 -0.3189 -1.4832  1.6849
 6218TIP3   OH218617   1.806   3.005   1.335 -0.5332  0.2445 -0.4157
 6218TIP3    H118618   1.803   3.089   1.381 -0.8848  1.7426 -2.9404
 6218TIP3    H218619   1.714   2.986   1.314 -0.4723 -0.8905  0.2609
 6219TIP3   OH218620   1.434   2.538   2.134  0.4808  0.4438  0.3654
 6219TIP3    H118621   1.448   2.486   2.055 -2.0320 -0.7150  0.6033
 6219TIP3    H218622   1.421   2.627   2.102 -0.1502  0.0508 -0.5027
 6220TIP3   OH218623   1.874   1.431   0.143 -0.1536 -0.1129 -0.2475
 6220TIP3    H118624   1.879   1.516   0.100  1.1037  1.5506  2.8382
 6220TIP3    H218625   1.782   1.422   0.168  0.0308  1.3859  1.1516
 6221TIP3   OH218626   5.961   5.541   2.054 -0.7055 -0.3894 -0.1438
 6221TIP3    H118627   5.900   5.596   2.102 -1.3791  0.2499 -1.6739
 6221TIP3    H218628   5.923   5.453   2.059 -0.8091 -0.3156  0.4088
 6222TIP3   OH218629   7.079   0.349   4.711  0.5747 -0.2106  0.0003
 6222TIP3    H118630   7.088   0.278   4.775 -1.7183 -2.5841 -2.0385
 6222TIP3    H218631   7.167   0.385   4.702  1.5725 -1.8814  2.1314
 6223TIP3   OH218632   5.962   1.769   4.601  0.4128  0.4919 -0.1619
 6223TIP3    H118633   5.986   1.712   4.675 -1.8918  0.2383  0.4712
 6223TIP3    H218634   5.982   1.857   4.632  0.5461  0.3036  0.3053
 6224TIP3   OH218635   5.406   0.068   5.429 -0.4552 -0.5383  0.7526
 6224TIP3    H118636   5.499   0.053   5.446 -0.2100 -0.9873 -0.8043
 6224TIP3    H218637   5.368   0.083   5.515  0.9406 -1.0197  1.4859
 6225TIP3   OH218638   6.451   3.962   2.258  0.6876 -0.0135 -0.4332
 6225TIP3    H118639   6.485   3.874   2.242 -0.9916 -0.6889 -0.4993
 6225TIP3    H218640   6.504   4.019   2.202  2.4669 -0.8153  0.3481
 6226TIP3   OH218641   2.664   3.142   1.114 -0.0656 -0.0767  0.0114
 6226TIP3    H118642   2.613   3.071   1.153  0.2764 -0.0063  0.5914
 6226TIP3    H218643   2.685   3.200   1.187  0.3064  0.2247 -0.3296
 6227TIP3   OH218644   0.498   4.781   1.242  0.2317  0.4135  0.3844
 6227TIP3    H118645   0.483   4.875   1.258  1.3121  0.7096 -0.2548
 6227TIP3    H218646   0.593   4.772   1.238  0.1158 -0.3920 -1.3428
 6228TIP3   OH218647   5.302   3.047   5.408  0.1112  0.2051 -0.0234
 6228TIP3    H118648   5.349   3.081   5.484 -0.3954  1.5779 -0.2807
 6228TIP3    H218649   5.294   3.123   5.349  1.1457 -0.9979 -1.7940
 6229TIP3   OH218650   5.270   0.956   1.972  0.0944  0.3278 -0.0898
 6229TIP3    H118651   5.213   1.025   2.007  1.4477  0.7887  1.3020
 6229TIP3    H218652   5.211   0.897   1.925 -1.4695  0.9931  0.9804
 6230TIP3   OH218653   4.640   0.244   4.922 -0.1904  0.6695  0.6584
 6230TIP3    H118654   4.575   0.174   4.917  0.9363 -0.3115 -2.7465
 6230TIP3    H218655   4.589   0.322   4.942 -2.1748 -0.3667 -0.0300
 6231TIP3   OH218656   4.277   3.010   4.611  0.1034 -0.6031  0.5377
 6231TIP3    H118657   4.353   3.045   4.658  0.3354 -1.6046  0.9303
 6231TIP3    H218658   4.213   3.082   4.613  1.7775  1.0817 -1.6993
 6232TIP3   OH218659   0.444   5.660   3.862  0.3851  0.3591  0.7592
 6232TIP3    H118660   0.540   5.670   3.864  0.4468  0.3625 -0.9353
 6232TIP3    H218661   0.430   5.566   3.875  0.4834  0.5889  2.9348
 6233TIP3   OH218662   2.577   2.148   4.322  0.0531 -0.2677  0.5747
 6233TIP3    H118663   2.492   2.150   4.365 -0.8125 -2.4454 -0.8352
 6233TIP3    H218664   2.556   2.141   4.229  1.8434  2.7429 -0.1902
 6234TIP3   OH218665   6.218   0.877   2.199  0.4439 -0.3720 -0.1313
 6234TIP3    H118666   6.169   0.798   2.179  2.2026 -1.5452 -0.0105
 6234TIP3    H218667   6.308   0.856   2.176  1.1615  1.1538  1.0919
 6235TIP3   OH218668   6.553   6.183   5.668 -0.1644 -0.6421 -0.0940
 6235TIP3    H118669   6.633   6.148   5.628 -0.0235 -0.1956 -0.2063
 6235TIP3    H218670   6.544   6.134   5.750  0.5826 -0.2314  0.2375
 6236TIP3   OH218671   1.890   3.283   3.539 -0.3765  0.7299 -0.4055
 6236TIP3    H118672   1.912   3.266   3.631  0.6865  0.5610 -0.6769
 6236TIP3    H218673   1.935   3.365   3.518 -1.6359  1.4309 -0.4388
 6237TIP3   OH218674   1.221   0.837   1.381  0.5603  0.2310  0.1234
 6237TIP3    H118675   1.267   0.807   1.460  0.1169 -0.4800  0.1163
 6237TIP3    H218676   1.151   0.774   1.369 -0.9693  1.7646  0.6105
 6238TIP3   OH218677   5.294   1.928   0.796 -0.0635  0.3273  0.3272
 6238TIP3    H118678   5.360   1.988   0.830 -0.7860  0.1034  2.2335
 6238TIP3    H218679   5.247   1.896   0.873 -1.1564 -0.9935 -0.8082
 6239TIP3   OH218680   4.980   4.122   0.365  0.1776 -0.3817 -0.5188
 6239TIP3    H118681   4.914   4.158   0.306  1.2788  1.9794 -0.4250
 6239TIP3    H218682   4.933   4.107   0.448 -0.4433  0.4490 -0.7055
 6240TIP3   OH218683   5.209   2.327   5.790 -0.4892 -0.2956  0.2038
 6240TIP3    H118684   5.182   2.256   5.849  1.3271 -2.0375 -0.9575
 6240TIP3    H218685   5.287   2.364   5.832  0.2205 -0.8783 -0.5852
 6241TIP3   OH218686   1.155   2.921   1.231 -0.7523 -0.3301 -0.7403
 6241TIP3    H118687   1.167   2.854   1.164 -0.1643 -0.9888 -0.0017
 6241TIP3    H218688   1.183   3.002   1.189 -0.7162 -0.6772 -1.3997
 6242TIP3   OH218689   2.750   3.883   4.896  0.0137  0.3173  0.5714
 6242TIP3    H118690   2.681   3.824   4.927  1.2113 -0.8728  1.1056
 6242TIP3    H218691   2.710   3.933   4.826 -2.0866  1.3692  2.3964
 6243TIP3   OH218692   6.007   6.243   0.554 -0.0864 -0.0908  0.1613
 6243TIP3    H118693   6.015   6.237   0.459  1.5342 -0.7182  0.3033
 6243TIP3    H218694   6.052   6.166   0.587  0.5992  0.8162  1.4678
 6244TIP3   OH218695   1.735   1.524   3.049  0.0950 -1.0274 -0.2663
 6244TIP3    H118696   1.707   1.531   2.958  0.4593 -0.1834 -0.3232
 6244TIP3    H218697   1.750   1.615   3.076  0.8402 -1.3349  0.3720
 6245TIP3   OH218698   6.354   3.389   0.204  0.2955  0.3981 -0.0682
 6245TIP3    H118699   6.447   3.385   0.180  0.7301  2.2936  1.1215
 6245TIP3    H218700   6.352   3.432   0.289 -1.7518  1.5026 -0.5958
 6246TIP3   OH218701   6.883   2.162   4.293 -0.0249  0.2479  0.0763
 6246TIP3    H118702   6.958   2.114   4.329 -0.1556 -0.7692 -0.9164
 6246TIP3    H218703   6.806   2.113   4.324 -0.0987 -2.1011 -3.3071
 6247TIP3   OH218704   7.095   2.862   3.064  0.4758  0.3080  0.2749
 6247TIP3    H118705   7.153   2.886   3.136  1.3626  3.0770 -1.2383
 6247TIP3    H218706   7.153   2.832   2.994 -0.0131  1.3720 -0.6158
 6248TIP3   OH218707   4.717   6.155   1.319  0.3553  0.1617  0.1930
 6248TIP3    H118708   4.630   6.182   1.288 -0.2725 -1.3272  0.5808
 6248TIP3    H218709   4.747   6.092   1.254  0.9965  0.4044  0.2503
 6249TIP3   OH218710   4.100   5.786   1.138 -0.0464 -0.0790 -0.0223
 6249TIP3    H118711   4.067   5.713   1.190  0.9521 -0.3504  0.2581
 6249TIP3    H218712   4.102   5.860   1.199  1.1485 -0.4030  0.3626
 6250TIP3   OH218713   0.395   6.787   5.003 -0.5387 -0.5149  0.1963
 6250TIP3    H118714   0.310   6.787   4.959 -0.3108  0.9734 -0.3009
 6250TIP3    H218715   0.386   6.721   5.072 -2.2793  0.0064  0.5098
 6251TIP3   OH218716   1.299   4.161   2.181 -0.3703  0.6123 -0.1593
 6251TIP3    H118717   1.318   4.068   2.169 -1.8687  0.4214 -1.2938
 6251TIP3    H218718   1.258   4.166   2.267 -1.7839 -0.0460 -0.7675
 6252TIP3   OH218719   6.030   3.429   5.608 -0.1596  0.2517  0.0475
 6252TIP3    H118720   6.022   3.428   5.703 -0.2919  1.3385  0.0607
 6252TIP3    H218721   6.098   3.365   5.589  1.2534  1.3812  1.0399
 6253TIP3   OH218722   0.814   4.327   1.924 -0.1079  0.0483 -0.4678
 6253TIP3    H118723   0.816   4.336   1.829 -3.0209 -0.2526 -0.6472
 6253TIP3    H218724   0.860   4.244   1.942 -0.7520 -0.6117 -1.7582
 6254TIP3   OH218725   3.818   3.739   3.488  0.3424 -0.0377 -0.1051
 6254TIP3    H118726   3.785   3.780   3.568  1.3021 -0.1930  0.3758
 6254TIP3    H218727   3.880   3.803   3.452 -0.8131  0.4834 -1.2928
 6255TIP3   OH218728   4.680   3.168   3.661 -0.5150  0.3473  0.7139
 6255TIP3    H118729   4.693   3.209   3.746  0.4980  0.2494  0.6216
 6255TIP3    H218730   4.715   3.232   3.598  1.1386 -0.6377  0.5688
 6256TIP3   OH218731   4.667   0.565   3.977  0.0166 -0.6334  0.0343
 6256TIP3    H118732   4.643   0.574   3.885  0.8118 -1.8815 -0.3262
 6256TIP3    H218733   4.589   0.592   4.025  0.3901  2.3963 -0.9039
 6257TIP3   OH218734   5.425   4.111   1.160  0.3629  0.5645 -0.0393
 6257TIP3    H118735   5.405   4.065   1.078 -0.3426  0.0909  0.3873
 6257TIP3    H218736   5.466   4.044   1.215 -0.0944  0.6034  0.3574
 6258TIP3   OH218737   4.148   4.136   3.223 -0.1075  0.3666  0.0192
 6258TIP3    H118738   4.160   4.098   3.135 -2.7575 -2.4761  0.6838
 6258TIP3    H218739   4.080   4.202   3.211 -0.9043 -0.4359 -0.0505
 6259TIP3   OH218740   5.836   2.759   0.694  0.4164 -0.0131  0.2263
 6259TIP3    H118741   5.758   2.746   0.747 -1.1684 -0.7904 -2.1133
 6259TIP3    H218742   5.855   2.672   0.658  0.1733  0.7865 -2.0166
 6260TIP3   OH218743   2.547   4.989   5.386 -0.1098  0.3641  0.1186
 6260TIP3    H118744   2.540   4.972   5.480 -2.0760  2.9410  0.5414
 6260TIP3    H218745   2.479   4.936   5.346  0.2601 -0.1851  0.2017
 6261TIP3   OH218746   0.193   1.806   5.375  0.0802  0.9418  0.8643
 6261TIP3    H118747   0.136   1.791   5.451  1.0253  0.7725  1.5537
 6261TIP3    H218748   0.209   1.719   5.340  0.0833  0.9725  0.7911
 6262TIP3   OH218749   5.008   5.828   0.687  0.1712 -0.3170 -0.7314
 6262TIP3    H118750   4.929   5.865   0.725 -0.4634 -1.7534 -0.5752
 6262TIP3    H218751   5.053   5.902   0.647 -2.0885  0.3045 -2.3111
 6263TIP3   OH218752   6.245   5.804   3.574 -0.4359  0.5893  0.4337
 6263TIP3    H118753   6.187   5.856   3.518 -0.0987  1.1076  0.5622
 6263TIP3    H218754   6.278   5.866   3.639 -1.3251 -0.1380  1.6126
 6264TIP3   OH218755   6.279   3.056   1.594  0.0624  0.1684 -0.7846
 6264TIP3    H118756   6.240   3.093   1.515  2.1081  0.8447 -1.5336
 6264TIP3    H218757   6.319   3.130   1.639 -0.1062 -0.3847  0.3193
 6265TIP3   OH218758   5.054   5.000   3.456 -0.4737  0.1885  0.0232
 6265TIP3    H118759   5.122   5.046   3.505 -0.6421  3.4194 -2.4366
 6265TIP3    H218760   5.095   4.979   3.371 -1.1590 -2.2888  0.2118
 6266TIP3   OH218761   2.987   5.534   2.314 -0.6778 -0.1571 -0.2052
 6266TIP3    H118762   3.006   5.465   2.251 -3.2336 -0.4512 -0.7500
 6266TIP3    H218763   3.059   5.597   2.302  0.5741 -1.6826 -1.1534
 6267TIP3   OH218764   2.597   2.383   4.982 -0.4113  0.0220 -0.2327
 6267TIP3    H118765   2.609   2.431   5.064 -0.4639  0.2414 -0.3502
 6267TIP3    H218766   2.659   2.310   4.988 -0.9070 -0.3601  0.2938
 6268TIP3   OH218767   4.727   6.638   4.175 -0.0176  0.2286  0.2085
 6268TIP3    H118768   4.787   6.602   4.110 -1.6829  0.0058 -1.2955
 6268TIP3    H218769   4.725   6.573   4.245  1.3362  0.1621  0.2032
 6269TIP3   OH218770   6.173   4.353   0.925  0.0671 -0.0164  0.2704
 6269TIP3    H118771   6.080   4.372   0.934  0.2663  0.6789  0.9769
 6269TIP3    H218772   6.191   4.366   0.832 -0.7703 -1.3087 -0.1018
 6270TIP3   OH218773   3.297   4.646   2.328 -0.0260  0.8006 -0.3518
 6270TIP3    H118774   3.216   4.636   2.278  1.1889  2.1229 -2.7147
 6270TIP3    H218775   3.310   4.560   2.369 -1.6652 -0.0071 -1.4062
 6271TIP3   OH218776   5.929   4.881   2.672 -0.3051  0.1476  0.4458
 6271TIP3    H118777   5.942   4.815   2.741  0.0274  0.4548  0.6794
 6271TIP3    H218778   5.838   4.908   2.683 -0.8900 -1.2869 -0.5578
 6272TIP3   OH218779   5.827   2.749   5.795 -0.1019  0.8404  0.2453
 6272TIP3    H118780   5.774   2.828   5.808  0.0068  0.9513  0.0162
 6272TIP3    H218781   5.917   2.780   5.802 -0.0664  0.5404  1.3112
 6273TIP3   OH218782   2.459   6.246   3.395 -0.2246 -0.0048 -0.1934
 6273TIP3    H118783   2.524   6.193   3.440 -0.9847 -0.9059 -0.1183
 6273TIP3    H218784   2.429   6.191   3.323 -0.4317  0.6561 -0.6217
 6274TIP3   OH218785   6.972   2.145   2.931 -0.1068 -0.2457 -0.1107
 6274TIP3    H118786   6.884   2.110   2.914  0.2113 -0.6882 -0.9165
 6274TIP3    H218787   6.971   2.170   3.023 -1.1114 -0.1576 -0.1335
 6275TIP3   OH218788   3.630   3.278   0.576  0.4688 -0.3290  0.0231
 6275TIP3    H118789   3.605   3.244   0.662  0.2947 -0.5339 -0.1087
 6275TIP3    H218790   3.548   3.295   0.531  0.5429  1.0534  0.3858
 6276TIP3   OH218791   0.302   6.515   5.638 -0.0824  0.4882 -0.4140
 6276TIP3    H118792   0.251   6.567   5.575  0.2472  0.8183 -0.4075
 6276TIP3    H218793   0.391   6.519   5.605 -0.0992 -0.3139 -0.5722
 6277TIP3   OH218794   4.413   6.621   1.017 -0.7231  0.4417  0.3984
 6277TIP3    H118795   4.352   6.603   0.945 -0.6719 -2.0859  0.8992
 6277TIP3    H218796   4.498   6.632   0.975 -0.7290 -0.8181  0.0293
 6278TIP3   OH218797   0.373   0.471   0.159 -0.2904  0.2970  0.1500
 6278TIP3    H118798   0.415   0.454   0.074 -1.6553  0.5833 -0.6066
 6278TIP3    H218799   0.366   0.384   0.199 -1.6138 -0.1668 -1.0068
 6279TIP3   OH218800   0.544   2.213   1.157  0.0954  0.1672 -0.2779
 6279TIP3    H118801   0.451   2.218   1.176  0.2435  1.6056  0.1982
 6279TIP3    H218802   0.572   2.130   1.194 -1.3135 -1.1441 -1.9938
 6280TIP3   OH218803   0.360   5.776   0.814 -1.0498  0.0581 -0.3618
 6280TIP3    H118804   0.331   5.695   0.772  1.0335 -0.4401 -0.9408
 6280TIP3    H218805   0.383   5.749   0.903 -0.8570  0.1143 -0.3940
 6281TIP3   OH218806   1.717   4.085   2.753 -0.2038  0.4723  0.1446
 6281TIP3    H118807   1.811   4.102   2.762  0.2952 -2.3185  1.2627
 6281TIP3    H218808   1.711   4.028   2.676 -0.9886  0.4474  0.2246
 6282TIP3   OH218809   3.107   0.924   5.771 -0.3643  0.4797  0.2244
 6282TIP3    H118810   3.062   0.851   5.815 -1.8716  1.1482 -0.1545
 6282TIP3    H218811   3.108   0.899   5.679  0.2551  0.3741  0.2555
 6283TIP3   OH218812   5.642   4.508   0.844  0.3139  0.4127  0.3428
 6283TIP3    H118813   5.713   4.461   0.887 -1.8248 -3.5336  0.0829
 6283TIP3    H218814   5.650   4.484   0.751 -0.6555  0.8571  0.1285
 6284TIP3   OH218815   0.264   3.316   1.000 -0.0375  0.5269 -0.4911
 6284TIP3    H118816   0.226   3.262   1.069 -1.5834  1.4361 -0.5961
 6284TIP3    H218817   0.265   3.404   1.037  1.4127  0.6534 -0.7440
 6285TIP3   OH218818   2.188   3.219   4.428 -0.4022  0.1530 -0.2430
 6285TIP3    H118819   2.209   3.301   4.472  1.7494 -0.0907 -0.7045
 6285TIP3    H218820   2.093   3.223   4.415 -0.5583  1.9190  0.9749
 6286TIP3   OH218821   7.184   3.556   2.266 -0.1839  0.3475 -0.0790
 6286TIP3    H118822   7.116   3.503   2.224  0.0809 -0.6087  0.6571
 6286TIP3    H218823   7.257   3.554   2.205 -0.3242  0.2205 -0.2445
 6287TIP3   OH218824   4.808   5.216   5.771  0.8164 -0.2391 -0.1747
 6287TIP3    H118825   4.841   5.266   5.696  0.0185 -0.5531 -0.7620
 6287TIP3    H218826   4.817   5.275   5.846 -1.3708  1.3688 -1.0557
 6288TIP3   OH218827   4.633   3.031   0.398  0.6167  0.4116  0.5946
 6288TIP3    H118828   4.617   3.118   0.363 -1.1501 -0.2034 -0.2722
 6288TIP3    H218829   4.686   2.987   0.332 -1.4149 -0.2411 -0.7079
 6289TIP3   OH218830   1.909   1.886   3.914  0.1973 -0.0114  0.4979
 6289TIP3    H118831   1.834   1.837   3.882 -1.2454  2.0182  0.6113
 6289TIP3    H218832   1.874   1.940   3.985  1.2898  2.4799 -0.7702
 6290TIP3   OH218833   3.889   0.603   2.048 -0.4908  0.1750  0.1409
 6290TIP3    H118834   3.947   0.587   2.122 -0.0294  1.2949  0.0439
 6290TIP3    H218835   3.905   0.695   2.025 -2.0281  0.4039 -0.1154
 6291TIP3   OH218836   1.091   1.813   5.492 -0.2422  0.6526 -0.1129
 6291TIP3    H118837   1.050   1.762   5.423  1.1613  0.1949 -0.6463
 6291TIP3    H218838   1.053   1.900   5.483 -1.4859  0.1160 -0.2178
 6292TIP3   OH218839   1.124   1.500   1.249 -0.1070  0.5356 -0.1992
 6292TIP3    H118840   1.039   1.472   1.282 -0.4042  0.9051 -0.6428
 6292TIP3    H218841   1.104   1.560   1.178  0.5165  1.6161  0.5078
 6293TIP3   OH218842   3.955   1.941   3.182  0.2110 -0.0821  0.3691
 6293TIP3    H118843   3.984   2.025   3.219  0.0173  0.1982 -0.1159
 6293TIP3    H218844   4.014   1.926   3.108 -1.1965  0.7769 -0.9950
 6294TIP3   OH218845   5.078   0.937   5.369 -0.1008  0.2475  0.2692
 6294TIP3    H118846   5.102   0.970   5.283  0.7146  0.8190  0.6987
 6294TIP3    H218847   5.121   0.997   5.430  0.1394 -0.7103  1.0688
 6295TIP3   OH218848   4.875   2.248   4.425 -0.2987  0.4061 -0.7173
 6295TIP3    H118849   4.853   2.289   4.509 -0.1810  1.4410 -1.1722
 6295TIP3    H218850   4.870   2.154   4.442  1.9398  0.5229  1.0555
 6296TIP3   OH218851   1.273   2.058   5.117  0.2146 -0.0231  0.6448
 6296TIP3    H118852   1.183   2.058   5.150 -0.0295  2.3929  0.2340
 6296TIP3    H218853   1.325   2.020   5.187 -0.7061  1.8646  2.4729
 6297TIP3   OH218854   4.783   5.914   5.228 -0.2266 -0.2685 -0.4374
 6297TIP3    H118855   4.865   5.872   5.200  0.4963  1.4298 -1.0469
 6297TIP3    H218856   4.797   5.936   5.320 -0.5599 -1.2377 -0.1513
 6298TIP3   OH218857   6.570   2.298   5.395 -0.0717  0.2149 -0.1076
 6298TIP3    H118858   6.567   2.273   5.488 -0.3888 -0.8637 -0.3846
 6298TIP3    H218859   6.481   2.325   5.375 -0.5854 -1.6700 -0.6103
 6299TIP3   OH218860   0.946   5.801   4.225  0.9499 -0.3961 -0.9329
 6299TIP3    H118861   1.041   5.786   4.221  1.2084  0.1297  1.6019
 6299TIP3    H218862   0.917   5.751   4.300 -0.4222  1.0193 -0.4662
 6300TIP3   OH218863   6.647   1.583   2.517  0.2163 -0.5296 -0.8130
 6300TIP3    H118864   6.715   1.518   2.495  1.0141  0.4206 -1.2371
 6300TIP3    H218865   6.566   1.546   2.482  0.6791 -1.2392 -1.1572
 6301TIP3   OH218866   0.868   3.865   5.833 -0.4418 -0.4821 -0.3682
 6301TIP3    H118867   0.778   3.885   5.861 -0.2596  0.3580 -0.3453
 6301TIP3    H218868   0.881   3.774   5.857 -0.9245 -0.3063  0.6118
 6302TIP3   OH218869   0.896   2.392   5.466  0.7214  0.4372 -0.0009
 6302TIP3    H118870   0.835   2.320   5.483  0.5507  0.4125 -0.6684
 6302TIP3    H218871   0.856   2.468   5.508  0.5356  0.2916  0.0882
 6303TIP3   OH218872   1.072   3.724   4.402  0.0245  0.3062 -0.2094
 6303TIP3    H118873   1.072   3.719   4.498 -2.4786  0.3822 -0.1393
 6303TIP3    H218874   1.140   3.787   4.381 -1.4435  2.7075  1.7359
 6304TIP3   OH218875   1.290   6.564   4.152  0.5773  0.4879 -0.3270
 6304TIP3    H118876   1.327   6.540   4.237 -0.4445 -0.7564 -0.1947
 6304TIP3    H218877   1.258   6.482   4.116  0.2074  1.1378 -1.5360
 6305TIP3   OH218878   0.682   6.726   5.376 -0.6115 -0.0646  0.1619
 6305TIP3    H118879   0.661   6.743   5.284  0.4445  0.7849  0.0568
 6305TIP3    H218880   0.758   6.781   5.394 -1.2248  0.3279  1.7504
 6306TIP3   OH218881   5.209   6.547   5.167  0.0318  0.5858  0.1931
 6306TIP3    H118882   5.158   6.471   5.196  0.0064 -0.3016 -1.9756
 6306TIP3    H218883   5.146   6.619   5.166 -0.2246  0.3849  1.2105
 6307TIP3   OH218884   4.026   0.756   2.706 -0.5747  0.2028  0.7627
 6307TIP3    H118885   4.065   0.668   2.712 -2.0327 -0.5552 -0.3400
 6307TIP3    H218886   4.001   0.777   2.796  1.0310  0.1138  1.2690
 6308TIP3   OH218887   0.195   4.340   3.872 -0.5205  0.4501  0.1714
 6308TIP3    H118888   0.131   4.374   3.934 -1.2074 -0.8490  0.2237
 6308TIP3    H218889   0.257   4.290   3.926 -1.2234 -0.8349 -0.1624
 6309TIP3   OH218890   5.435   1.470   0.892 -0.1375  0.1321 -0.3111
 6309TIP3    H118891   5.422   1.515   0.808  0.7416 -2.0050 -1.6692
 6309TIP3    H218892   5.438   1.541   0.956 -1.7101  1.7878 -1.9383
 6310TIP3   OH218893   4.031   4.360   1.455 -0.3280  0.0990  0.1092
 6310TIP3    H118894   4.076   4.423   1.511  1.7765 -1.2323  0.0089
 6310TIP3    H218895   4.050   4.388   1.366  0.4663 -0.5525  0.0652
 6311TIP3   OH218896   4.082   4.575   2.163  0.0133 -0.8048  0.3178
 6311TIP3    H118897   4.039   4.619   2.089  0.1698  0.7232  1.0837
 6311TIP3    H218898   4.148   4.638   2.193 -0.9911 -0.7589  2.6328
 6312TIP3   OH218899   0.118   2.733   2.069 -0.1774 -0.3837  0.3481
 6312TIP3    H118900   0.081   2.762   2.152 -1.7040 -2.6234  0.5590
 6312TIP3    H218901   0.070   2.782   2.002 -0.3388  0.0031  0.7471
 6313TIP3   OH218902   0.439   3.572   1.365 -0.2134 -1.1595 -0.0271
 6313TIP3    H118903   0.506   3.621   1.413 -1.2158  1.7703 -1.4061
 6313TIP3    H218904   0.370   3.557   1.430  0.7108 -2.0830  0.7825
 6314TIP3   OH218905   1.947   1.181   5.367 -0.0944 -0.6870 -0.2931
 6314TIP3    H118906   1.912   1.119   5.430 -0.9809  0.4997  0.4293
 6314TIP3    H218907   2.016   1.227   5.414 -0.3763 -0.1896 -0.3484
 6315TIP3   OH218908   5.217   0.909   3.031  0.2977 -0.0960 -0.4200
 6315TIP3    H118909   5.167   0.941   2.955 -0.2606 -0.0755 -0.0470
 6315TIP3    H218910   5.151   0.888   3.096  0.8545  2.2609  1.0193
 6316TIP3   OH218911   1.307   3.391   4.317  0.5737  0.4339 -0.0697
 6316TIP3    H118912   1.213   3.381   4.335  0.6887 -0.2925  0.1503
 6316TIP3    H218913   1.324   3.332   4.244  0.9885  0.0443  0.3339
 6317TIP3   OH218914   4.382   5.177   2.508 -0.6681  0.5407 -0.1648
 6317TIP3    H118915   4.412   5.098   2.553  0.3523  1.2052  0.3692
 6317TIP3    H218916   4.378   5.152   2.416  1.4860  0.3475 -0.2686
 6318TIP3   OH218917   0.805   0.283   4.720 -0.2213 -0.0033 -0.0735
 6318TIP3    H118918   0.877   0.253   4.777 -1.1291  0.1893  1.2250
 6318TIP3    H218919   0.774   0.203   4.677  2.0241  0.1781 -2.2223
 6319TIP3   OH218920   5.481   4.503   2.187  0.1687 -0.4497 -0.0546
 6319TIP3    H118921   5.421   4.515   2.260  0.6550  3.2222 -0.0734
 6319TIP3    H218922   5.502   4.409   2.188 -1.4622 -0.9132  3.1645
 6320TIP3   OH218923   6.785   5.881   2.546  0.4300  0.1224  0.2856
 6320TIP3    H118924   6.723   5.897   2.617  0.2956 -0.5007  0.3107
 6320TIP3    H218925   6.869   5.913   2.580  0.4516 -0.5525  0.8923
 6321TIP3   OH218926   4.821   0.830   1.295 -0.0095  0.3271 -0.1262
 6321TIP3    H118927   4.890   0.834   1.362  1.5219  0.8578 -1.6548
 6321TIP3    H218928   4.851   0.890   1.227 -2.0981  0.6926 -0.7903
 6322TIP3   OH218929   5.237   3.007   2.467  0.1048 -0.6548  0.2356
 6322TIP3    H118930   5.277   2.926   2.499 -0.3987 -0.5751  1.0969
 6322TIP3    H218931   5.305   3.047   2.412  0.6945 -1.1992  0.5550
 6323TIP3   OH218932   6.004   2.406   0.372  0.2500 -0.5865 -0.5694
 6323TIP3    H118933   6.033   2.386   0.461  0.0974  0.4598 -0.2698
 6323TIP3    H218934   5.950   2.484   0.381 -2.5600 -2.3126 -1.1456
 6324TIP3   OH218935   3.726   1.582   5.274  0.2691 -0.2265  0.3896
 6324TIP3    H118936   3.640   1.540   5.268 -0.3116  0.7790  1.3695
 6324TIP3    H218937   3.709   1.674   5.258  0.6043  0.5352  3.7965
 6325TIP3   OH218938   0.163   0.462   2.028 -0.1523 -0.3112  0.4369
 6325TIP3    H118939   0.110   0.538   2.004 -2.5791 -2.2335 -0.7807
 6325TIP3    H218940   0.144   0.447   2.121  0.2350  0.4482  0.6467
 6326TIP3   OH218941   2.716   4.526   5.672  0.0499 -0.1091 -0.3220
 6326TIP3    H118942   2.745   4.435   5.673 -1.1604 -0.6204  2.8505
 6326TIP3    H218943   2.630   4.523   5.629 -0.2919 -0.6490  0.3638
 6327TIP3   OH218944   3.682   4.112   3.313  0.3015 -0.1136 -0.7397
 6327TIP3    H118945   3.716   4.165   3.242 -0.6218 -1.0156 -1.8967
 6327TIP3    H218946   3.644   4.035   3.270  2.8660 -2.5052  0.9026
 6328TIP3   OH218947   3.998   0.943   5.539  0.0569  0.1989  0.2493
 6328TIP3    H118948   3.919   0.995   5.552 -0.1266 -0.0565  0.1655
 6328TIP3    H218949   4.053   0.996   5.481  0.7261  1.1747  1.7290
 6329TIP3   OH218950   1.321   5.397   2.704 -0.2020  0.4333  0.2355
 6329TIP3    H118951   1.389   5.417   2.640 -0.8425 -0.9599 -0.9446
 6329TIP3    H218952   1.239   5.417   2.660 -0.6705 -0.8462  0.4599
 6330TIP3   OH218953   2.714   5.791   5.273  0.2947  0.1352  0.0152
 6330TIP3    H118954   2.701   5.738   5.194 -0.8222  0.0359  0.2506
 6330TIP3    H218955   2.807   5.812   5.272  0.4787 -0.6356 -0.8428
 6331TIP3   OH218956   0.610   0.677   3.483 -0.0169 -0.3485  0.0676
 6331TIP3    H118957   0.580   0.587   3.493  1.7563 -1.0078 -0.1632
 6331TIP3    H218958   0.586   0.702   3.394 -1.6119 -0.1190  0.5269
 6332TIP3   OH218959   5.033   5.810   5.156  0.6390 -0.4259  0.2923
 6332TIP3    H118960   5.031   5.754   5.078 -1.6065  0.5207 -0.4110
 6332TIP3    H218961   5.109   5.866   5.143  2.7647 -3.0075  0.8658
 6333TIP3   OH218962   2.253   6.185   4.869 -0.7077 -0.8084  0.2492
 6333TIP3    H118963   2.240   6.145   4.783  0.4994 -1.1124  0.1982
 6333TIP3    H218964   2.165   6.215   4.894 -1.2658 -1.6604 -0.6088
 6334TIP3   OH218965   2.029   4.293   4.944 -0.4941  0.1705  0.2453
 6334TIP3    H118966   2.061   4.328   4.861  0.7845  0.4106  0.8233
 6334TIP3    H218967   1.977   4.216   4.919  1.2234 -0.7373 -0.6803
 6335TIP3   OH218968   3.297   0.033   5.682  0.1086  0.9672 -0.0350
 6335TIP3    H118969   3.210  -0.007   5.674  0.3950  0.4709 -0.9121
 6335TIP3    H218970   3.343  -0.021   5.746  0.0416  0.7189 -0.1955
 6336TIP3   OH218971   3.631   6.544   0.211 -0.0522  0.6352  0.0233
 6336TIP3    H118972   3.564   6.598   0.169  0.2470  0.1230 -1.1308
 6336TIP3    H218973   3.604   6.541   0.303  0.6146  3.8275  0.4491
 6337TIP3   OH218974   2.232   6.420   0.477  0.4319  0.2139  0.0297
 6337TIP3    H118975   2.141   6.450   0.480  0.4006  0.0177  1.5648
 6337TIP3    H218976   2.237   6.370   0.395 -0.5711  1.0400 -0.5593
 6338TIP3   OH218977   2.030   3.006   1.147  0.6169  0.3960  0.4070
 6338TIP3    H118978   1.944   2.975   1.118  1.1778 -1.4783  0.6160
 6338TIP3    H218979   2.018   3.031   1.238 -0.9625  5.5389 -0.8810
 6339TIP3   OH218980   4.667   4.996   2.784  0.2113  0.3328  0.0571
 6339TIP3    H118981   4.600   4.986   2.717 -0.6585 -1.2334  1.0931
 6339TIP3    H218982   4.687   5.090   2.784 -2.9432  1.1118  0.6003
 6340TIP3   OH218983   6.074   6.671   5.617  0.5223  0.2806  0.3136
 6340TIP3    H118984   6.052   6.630   5.533 -0.9060  0.3805  0.6000
 6340TIP3    H218985   5.994   6.718   5.642  2.3577  4.2195 -0.4937
 6341TIP3   OH218986   6.538   6.434   2.465  0.3172 -0.4539  0.2143
 6341TIP3    H118987   6.474   6.408   2.399  1.0757  0.0590 -0.7536
 6341TIP3    H218988   6.544   6.359   2.524 -0.3452 -0.9404 -0.3202
 6342TIP3   OH218989   5.416   6.046   5.337  0.4047  0.4887  0.3824
 6342TIP3    H118990   5.491   5.998   5.371 -0.2172 -0.7969  0.0097
 6342TIP3    H218991   5.388   5.996   5.260 -1.7307  0.0475  1.3649
 6343TIP3   OH218992   5.790   4.867   5.809  0.6424 -0.1408  0.3458
 6343TIP3    H118993   5.759   4.945   5.855 -0.5955 -0.3418 -0.1377
 6343TIP3    H218994   5.760   4.878   5.719  2.4785 -0.0747 -0.3078
 6344TIP3   OH218995   2.831   1.254   4.831  0.1034  0.0576 -1.3416
 6344TIP3    H118996   2.872   1.306   4.762  1.5388 -0.8424 -1.2146
 6344TIP3    H218997   2.861   1.164   4.815 -0.2534 -0.3110 -0.0865
 6345TIP3   OH218998   2.366   2.596   4.133  0.2753  0.1978 -0.8377
 6345TIP3    H118999   2.305   2.664   4.160 -0.6467 -0.8726 -0.1269
 6345TIP3    H219000   2.328   2.514   4.165  3.0759 -0.3583  1.5458
 6346TIP3   OH219001   0.561   3.591   1.789  0.3042 -0.1405 -0.1926
 6346TIP3    H119002   0.586   3.648   1.716  0.9825  0.1831  0.2863
 6346TIP3    H219003   0.598   3.505   1.766 -3.1976 -1.2680 -2.3780
 6347TIP3   OH219004   4.278   2.148   2.135  0.4839  0.0451 -0.1743
 6347TIP3    H119005   4.199   2.201   2.119  1.0313  0.7189 -0.7237
 6347TIP3    H219006   4.310   2.178   2.220 -0.9479 -1.6521  1.0199
 6348TIP3   OH219007   2.531   5.192   5.751 -0.4672  0.3356 -0.5621
 6348TIP3    H119008   2.563   5.248   5.822 -1.0496  1.8635 -1.4409
 6348TIP3    H219009   2.444   5.225   5.731 -0.4302 -0.2296 -1.7958
 6349TIP3   OH219010   1.076   1.267   4.312  0.2272 -0.6751  0.6765
 6349TIP3    H119011   1.032   1.351   4.299  0.2843 -0.7956 -0.4437
 6349TIP3    H219012   1.168   1.285   4.293  0.1093 -1.1613 -0.4627
 6350TIP3   OH219013   0.867   6.592   1.715 -0.2680  0.3604  0.8224
 6350TIP3    H119014   0.793   6.652   1.701 -2.0892 -1.4791  1.9983
 6350TIP3    H219015   0.905   6.620   1.798 -1.2832 -0.2403  1.5070
 6351TIP3   OH219016   5.536   2.110   0.171  0.3350  0.1006 -0.5653
 6351TIP3    H119017   5.590   2.168   0.226  1.2334  0.9714 -2.2765
 6351TIP3    H219018   5.534   2.027   0.219  2.4364  0.3230  0.0499
 6352TIP3   OH219019   4.320   0.180   3.023  0.2303 -0.1624 -0.2068
 6352TIP3    H119020   4.341   0.086   3.023 -0.6762 -0.3993  1.7427
 6352TIP3    H219021   4.374   0.217   3.093 -0.7328  0.4408  0.2438
 6353TIP3   OH219022   3.947   6.066   2.490 -0.3245  0.1324  0.0603
 6353TIP3    H119023   3.992   6.150   2.505 -0.3744  0.0234  0.9040
 6353TIP3    H219024   4.018   6.002   2.482 -0.1926 -0.5315  4.2629
 6354TIP3   OH219025   0.436   2.578   3.084  0.1194  0.1940 -0.4716
 6354TIP3    H119026   0.361   2.520   3.098  0.7091 -0.7414 -1.1063
 6354TIP3    H219027   0.434   2.638   3.159 -0.9416 -0.1602 -0.1998
 6355TIP3   OH219028   4.292   0.454   3.985 -0.5670  0.2649 -0.4419
 6355TIP3    H119029   4.221   0.389   3.992  1.2503 -1.7624  0.2714
 6355TIP3    H219030   4.346   0.424   3.912  1.3878 -0.2279  1.1106
 6356TIP3   OH219031   4.044   0.228   3.099 -0.3138  0.0926  1.1007
 6356TIP3    H119032   3.990   0.264   3.028  0.5421  1.7067  1.2338
 6356TIP3    H219033   4.134   0.236   3.067  0.0532  0.4348  2.1912
 6357TIP3   OH219034   3.494   2.396   4.474 -0.1770  0.7953 -1.1988
 6357TIP3    H119035   3.581   2.435   4.484 -0.3040  1.5621 -2.7030
 6357TIP3    H219036   3.435   2.471   4.467 -1.4754  0.3775  2.7644
 6358TIP3   OH219037   2.053   5.050   3.351  0.0073  0.2226  0.9206
 6358TIP3    H119038   2.016   4.984   3.292  0.0974 -1.9315  3.1095
 6358TIP3    H219039   2.131   5.009   3.388  0.0174  1.5135  2.4630
 6359TIP3   OH219040   1.726   4.464   2.185 -0.3107 -0.2885 -0.8323
 6359TIP3    H119041   1.678   4.383   2.202  1.1296 -0.9671  0.1651
 6359TIP3    H219042   1.817   4.442   2.202  0.2934  1.1456 -2.0453
 6360TIP3   OH219043   5.678   1.823   0.914  0.2274 -0.2274  0.3104
 6360TIP3    H119044   5.749   1.883   0.938  0.3851 -0.3768  0.2244
 6360TIP3    H219045   5.653   1.782   0.997  0.0884 -0.0083  0.3755
 6361TIP3   OH219046   2.703   6.040   2.599 -0.0898  0.5596 -0.0366
 6361TIP3    H119047   2.637   6.056   2.532  0.4470 -0.0008 -0.7105
 6361TIP3    H219048   2.671   6.087   2.676 -1.8485 -0.6140  0.0058
 6362TIP3   OH219049   6.704   5.102   0.769 -0.1528  0.5861 -0.5374
 6362TIP3    H119050   6.696   5.028   0.830 -0.8167 -0.4065 -1.7877
 6362TIP3    H219051   6.694   5.180   0.825  1.9518 -0.1605  1.0434
 6363TIP3   OH219052   6.528   2.838   5.309 -0.5240 -0.2980 -0.0521
 6363TIP3    H119053   6.457   2.773   5.308 -1.4667  0.6796  0.9420
 6363TIP3    H219054   6.534   2.867   5.218 -2.8159  1.0319  0.1328
 6364TIP3   OH219055   5.615   3.749   1.549  0.2879 -0.5370  0.1747
 6364TIP3    H119056   5.520   3.760   1.537 -0.0955 -1.0039  2.4123
 6364TIP3    H219057   5.624   3.713   1.637  2.6694  1.1863  0.7274
 6365TIP3   OH219058   0.235   2.332   5.504  0.2865  0.1323 -0.6123
 6365TIP3    H119059   0.231   2.330   5.408 -2.0259 -2.3889 -0.6003
 6365TIP3    H219060   0.203   2.245   5.531  0.1183  1.0295  2.4703
 6366TIP3   OH219061   4.075   2.532   0.190  0.7255 -0.2843 -0.2787
 6366TIP3    H119062   4.106   2.554   0.103 -2.1973  0.0226 -1.3621
 6366TIP3    H219063   4.074   2.616   0.237 -1.9132  0.4928 -1.5092
 6367TIP3   OH219064   0.864   5.902   5.288  0.2476 -0.0581 -0.0814
 6367TIP3    H119065   0.855   5.977   5.228 -1.1775 -0.4647 -0.4062
 6367TIP3    H219066   0.906   5.939   5.366  1.7416  0.5741 -1.1379
 6368TIP3   OH219067   5.118   5.028   4.851 -0.2381 -0.0791 -0.2089
 6368TIP3    H119068   5.174   5.104   4.867  0.1091 -0.5779  1.0354
 6368TIP3    H219069   5.180   4.958   4.828 -0.3500 -0.5710  0.9329
 6369TIP3   OH219070   6.187   0.622   5.391 -0.1296 -0.4108  0.5685
 6369TIP3    H119071   6.257   0.602   5.453 -0.9105  0.0680  1.6363
 6369TIP3    H219072   6.166   0.714   5.408 -0.9048 -0.5060  0.1568
 6370TIP3   OH219073   2.922   0.757   1.315  0.3925  0.5861 -0.0110
 6370TIP3    H119074   2.956   0.759   1.404 -1.2411 -0.4439  0.6915
 6370TIP3    H219075   2.830   0.730   1.325 -0.0319  1.1274 -1.9513
 6371TIP3   OH219076   1.841   1.073   4.961 -0.4665  0.3809  0.0628
 6371TIP3    H119077   1.766   1.057   5.020 -0.3785 -0.4596 -0.0488
 6371TIP3    H219078   1.918   1.053   5.014 -0.4199 -1.4554 -0.6533
 6372TIP3   OH219079   1.849   3.115   2.293  0.1209 -0.1010  0.3245
 6372TIP3    H119080   1.801   3.116   2.210 -0.2628  0.5654  0.5435
 6372TIP3    H219081   1.781   3.103   2.359  0.2537  0.7985  0.6371
 6373TIP3   OH219082   1.067   5.659   1.608 -0.1908 -0.0447 -0.2838
 6373TIP3    H119083   1.052   5.571   1.574 -1.7128  0.0781 -0.0016
 6373TIP3    H219084   1.023   5.660   1.693 -0.2370  1.0005 -0.3025
 6374TIP3   OH219085   2.553   4.571   4.938  0.1694  0.1728  0.1938
 6374TIP3    H119086   2.507   4.566   5.021  0.2290 -1.0339  0.1717
 6374TIP3    H219087   2.485   4.591   4.874 -0.2934 -1.2145  0.2162
 6375TIP3   OH219088   4.539   3.688   5.772 -0.1581 -0.1922  0.0983
 6375TIP3    H119089   4.560   3.611   5.719 -0.1563 -0.6376  0.7336
 6375TIP3    H219090   4.594   3.680   5.849 -0.5864  0.1378  0.4451
 6376TIP3   OH219091   4.879   2.853   2.508 -0.2557 -0.5561 -0.5765
 6376TIP3    H119092   4.806   2.815   2.557 -0.3583 -0.4138 -0.6160
 6376TIP3    H219093   4.922   2.779   2.467  0.4298 -0.7811  0.5268
 6377TIP3   OH219094   4.526   5.240   3.074  0.3370  0.0929 -0.2232
 6377TIP3    H119095   4.461   5.307   3.056 -1.3304 -1.5060 -0.4026
 6377TIP3    H219096   4.592   5.284   3.128 -1.7617  1.3706  1.4577
 6378TIP3   OH219097   4.117   5.043   4.413 -0.1393  0.4181 -0.0598
 6378TIP3    H119098   4.111   5.079   4.324 -1.8398  0.1798 -0.0582
 6378TIP3    H219099   4.170   5.107   4.461 -0.8616  1.5484 -0.7390
 6379TIP3   OH219100   7.080   4.272   2.045  0.6593  0.1347 -0.1473
 6379TIP3    H119101   7.161   4.322   2.057 -0.5017  1.7777  1.2294
 6379TIP3    H219102   7.098   4.187   2.085  1.9733  0.1673 -0.6262
 6380TIP3   OH219103   0.602   6.634   4.876  0.3134 -0.0857  0.3657
 6380TIP3    H119104   0.572   6.560   4.930 -0.8466 -0.2952 -0.5185
 6380TIP3    H219105   0.522   6.683   4.856  0.6901 -0.0453 -1.1796
 6381TIP3   OH219106   3.306   1.173   5.769 -0.0734 -0.2985 -0.1772
 6381TIP3    H119107   3.267   1.258   5.790  1.1091  0.0641  0.6911
 6381TIP3    H219108   3.288   1.119   5.845  2.2996  0.3265  0.9197
 6382TIP3   OH219109   7.144   5.562   0.515 -0.0158  0.2042 -0.3151
 6382TIP3    H119110   7.061   5.529   0.480  0.7384 -0.8700 -1.1720
 6382TIP3    H219111   7.131   5.657   0.522 -1.4255  0.0140 -0.0836
 6383TIP3   OH219112   4.596   0.464   3.139  0.7774  0.1877  0.7106
 6383TIP3    H119113   4.561   0.377   3.160 -0.4371  0.0160 -1.6965
 6383TIP3    H219114   4.689   0.448   3.123  0.5100 -0.7510 -0.0126
 6384TIP3   OH219115   0.941   3.802   0.773 -0.0718  0.2983 -0.4466
 6384TIP3    H119116   0.851   3.810   0.804 -0.2996  0.3154 -1.1140
 6384TIP3    H219117   0.992   3.784   0.853 -0.4759  1.5832  0.1360
 6385TIP3   OH219118   3.205   1.980   2.749  0.6673 -0.2782 -0.1548
 6385TIP3    H119119   3.233   2.055   2.697  0.7701 -1.0986 -1.3463
 6385TIP3    H219120   3.281   1.921   2.748  0.2326 -0.8443 -0.1225
 6386TIP3   OH219121   4.943   6.493   5.663  0.0352  0.3184 -0.2000
 6386TIP3    H119122   4.935   6.409   5.618 -0.2039 -0.6440  1.5372
 6386TIP3    H219123   4.997   6.474   5.740  0.2462  1.8457  0.0753
 6387TIP3   OH219124   2.191   2.768   4.271  0.0221 -0.0230 -0.5192
 6387TIP3    H119125   2.135   2.834   4.229  0.6056 -0.0562 -1.3814
 6387TIP3    H219126   2.265   2.817   4.305 -0.2642 -0.0480  0.1484
 6388TIP3   OH219127   0.197   4.223   3.335  0.4972 -0.1542  0.7790
 6388TIP3    H119128   0.267   4.215   3.400 -0.8390  1.2064  2.5006
 6388TIP3    H219129   0.205   4.312   3.302 -1.0455  0.4364  1.8550
 6389TIP3   OH219130   4.708   0.898   3.640 -0.3899  0.2780  0.2362
 6389TIP3    H119131   4.623   0.863   3.663 -0.1130 -1.3341 -1.0069
 6389TIP3    H219132   4.768   0.824   3.648  0.7234  1.1383  0.1697
 6390TIP3   OH219133   0.030   2.169   1.508  0.2702 -0.3675 -0.2743
 6390TIP3    H119134   0.100   2.129   1.559  0.3087  0.1118  0.0474
 6390TIP3    H219135   0.049   2.262   1.508 -0.8866 -0.0895  0.6743
 6391TIP3   OH219136   0.778   5.449   0.854  0.2841 -0.2025  0.1274
 6391TIP3    H119137   0.808   5.490   0.935 -0.4351  1.2012 -0.2939
 6391TIP3    H219138   0.704   5.395   0.881  0.9275 -0.8587  0.6113
 6392TIP3   OH219139   2.175   3.511   3.821  0.3649  0.2166 -0.0620
 6392TIP3    H119140   2.237   3.576   3.789  2.8394 -1.1552  1.5808
 6392TIP3    H219141   2.105   3.562   3.862  0.5565  1.8233 -1.6375
 6393TIP3   OH219142   5.495   6.667   2.288 -0.0156 -0.1316 -0.2793
 6393TIP3    H119143   5.480   6.576   2.261 -1.1239  0.0603 -0.3725
 6393TIP3    H219144   5.525   6.660   2.378  0.7673 -0.6262 -0.5614
 6394TIP3   OH219145   1.730   2.790   3.621 -0.3648  0.2302  0.2903
 6394TIP3    H119146   1.816   2.791   3.580  0.2686 -1.4231  1.4383
 6394TIP3    H219147   1.675   2.738   3.561 -0.0882 -0.1672  0.3782
 6395TIP3   OH219148   1.470   2.762   0.866  0.0537 -0.5596 -0.0856
 6395TIP3    H119149   1.541   2.780   0.805  0.8090 -0.7875  0.7106
 6395TIP3    H219150   1.390   2.780   0.816  0.6599 -0.5664 -1.0729
 6396TIP3   OH219151   1.671   5.411   3.532 -0.0811 -0.8176  0.3546
 6396TIP3    H119152   1.581   5.379   3.530 -0.0967 -0.8480  1.4096
 6396TIP3    H219153   1.694   5.421   3.439 -1.4487 -0.0128  0.0709
 6397TIP3   OH219154   5.810   1.323   0.551 -0.5734  0.3685  0.2371
 6397TIP3    H119155   5.751   1.305   0.478 -0.0269 -0.5267  0.0032
 6397TIP3    H219156   5.844   1.237   0.577  1.5418  0.9448 -0.4170
 6398TIP3   OH219157   3.603   4.103   0.501  0.0464  0.3615  0.2418
 6398TIP3    H119158   3.634   4.165   0.435 -0.4871  0.0351 -0.3216
 6398TIP3    H219159   3.556   4.036   0.452  0.2253 -0.2544  0.8910
 6399TIP3   OH219160   1.006   6.444   1.536  1.0397  0.1850 -0.2235
 6399TIP3    H119161   1.027   6.362   1.581 -0.4945  0.4887  1.1307
 6399TIP3    H219162   0.944   6.488   1.594 -1.0851  0.5917 -2.6167
 6400TIP3   OH219163   6.138   0.407   4.190 -0.5568  0.3762 -0.0243
 6400TIP3    H119164   6.196   0.430   4.262 -1.4307  2.5610  0.0616
 6400TIP3    H219165   6.052   0.397   4.231 -0.9600  1.0993 -0.6522
 6401TIP3   OH219166   2.421   6.734   0.058  0.4792  0.3273 -0.0194
 6401TIP3    H119167   2.350   6.798   0.057  0.0172 -0.1402  0.9352
 6401TIP3    H219168   2.467   6.751   0.140 -0.5273 -1.4597  0.9941
 6402TIP3   OH219169   0.637   0.446   0.692 -0.0650 -0.1954 -0.1936
 6402TIP3    H119170   0.726   0.478   0.705 -0.0605 -0.7153  1.2814
 6402TIP3    H219171   0.604   0.431   0.781 -0.7480 -2.3310 -0.7567
 6403TIP3   OH219172   4.225   5.879   4.474  0.1043  0.5383  0.3059
 6403TIP3    H119173   4.216   5.873   4.379  1.6854  0.0524  0.1565
 6403TIP3    H219174   4.154   5.937   4.501 -0.5690  0.4306 -1.1273
 6404TIP3   OH219175   5.561   5.117   4.321 -0.8485 -0.2328 -0.1181
 6404TIP3    H119176   5.627   5.071   4.373 -1.1755  0.6657  1.1596
 6404TIP3    H219177   5.511   5.047   4.278 -0.7577 -1.0405  1.0323
 6405TIP3   OH219178   5.413   1.589   5.512  0.5213 -0.0714 -0.3311
 6405TIP3    H119179   5.406   1.680   5.539 -1.1857 -0.5310  0.9862
 6405TIP3    H219180   5.492   1.557   5.556  1.0254  0.7195 -0.6493
 6406TIP3   OH219181   0.551   0.660   2.704  0.8889 -0.6919  0.7689
 6406TIP3    H119182   0.458   0.681   2.697  0.9170 -0.7440  0.1796
 6406TIP3    H219183   0.557   0.566   2.688  1.0345 -0.6982  0.8538
 6407TIP3   OH219184   2.487   3.475   1.252  0.2712  0.6062 -0.3119
 6407TIP3    H119185   2.482   3.426   1.170  0.5416  0.7935 -0.4430
 6407TIP3    H219186   2.458   3.563   1.228 -2.6511 -0.0733  0.4447
 6408TIP3   OH219187   1.572   0.948   4.226 -0.3656 -0.0920  0.1846
 6408TIP3    H119188   1.544   0.901   4.148  2.9783 -1.2278 -0.5180
 6408TIP3    H219189   1.577   0.880   4.294  3.8389 -0.8990 -0.6631
 6409TIP3   OH219190   1.068   2.184   1.667  0.6983  0.3254  0.1781
 6409TIP3    H119191   1.108   2.131   1.736 -0.7162 -1.6725 -0.4431
 6409TIP3    H219192   1.071   2.129   1.589 -0.9648  1.0920 -0.4710
 6410TIP3   OH219193   2.672   3.641   4.684  0.0855  0.0076 -0.1249
 6410TIP3    H119194   2.725   3.705   4.733  0.9759  1.9563 -3.3226
 6410TIP3    H219195   2.733   3.603   4.621 -1.4521 -0.7445 -1.2125
 6411TIP3   OH219196   0.282   4.241   2.752 -0.1507  0.2454  0.0146
 6411TIP3    H119197   0.254   4.206   2.837  0.6650  0.3822  0.3580
 6411TIP3    H219198   0.375   4.217   2.747 -0.1738  0.3217 -0.8017
 6412TIP3   OH219199   1.830   5.007   2.727  0.3906 -0.1484 -0.0162
 6412TIP3    H119200   1.761   4.949   2.696  0.1459  0.3033 -0.3191
 6412TIP3    H219201   1.801   5.033   2.815 -0.8713  1.6627 -0.9046
 6413TIP3   OH219202   5.928   5.122   5.738 -0.4838  0.2761 -0.1004
 6413TIP3    H119203   6.016   5.157   5.751  0.9375 -3.4184  1.3615
 6413TIP3    H219204   5.871   5.186   5.782  1.7918  1.2033  1.7277
 6414TIP3   OH219205   4.778   4.000   5.397  0.0970  0.2604 -0.2898
 6414TIP3    H119206   4.746   3.910   5.385 -0.2746  0.2693  0.5654
 6414TIP3    H219207   4.873   3.992   5.389  0.0186 -0.0689 -1.0354
 6415TIP3   OH219208   6.345   5.993   0.617  0.1683 -0.1243  0.4110
 6415TIP3    H119209   6.364   6.066   0.557  0.8483 -1.6769 -1.3855
 6415TIP3    H219210   6.366   6.027   0.704  1.4610  1.4915 -0.4766
 6416TIP3   OH219211   6.250   5.537   3.484 -0.9939 -0.0336 -0.4431
 6416TIP3    H119212   6.261   5.628   3.509  0.7578  0.0798 -1.3963
 6416TIP3    H219213   6.156   5.523   3.481 -1.2799  1.5489  0.3624
 6417TIP3   OH219214   4.989   2.530   2.803  0.0510 -0.8148  0.5497
 6417TIP3    H119215   4.907   2.579   2.801  0.4727  0.1275  3.1862
 6417TIP3    H219216   4.963   2.439   2.808 -0.7913 -0.6241 -0.1458
 6418TIP3   OH219217   2.765   4.470   0.733 -0.4511  0.0306  0.1543
 6418TIP3    H119218   2.713   4.477   0.654 -1.1271 -0.2398  0.5680
 6418TIP3    H219219   2.725   4.399   0.783  0.9329 -0.8792  0.0228
 6419TIP3   OH219220   5.188   3.083   0.097  0.2134 -0.2560 -0.4577
 6419TIP3    H119221   5.098   3.115   0.102 -0.4199 -1.7214 -1.5953
 6419TIP3    H219222   5.185   3.015   0.029  2.1742 -0.3546 -0.4906
 6420TIP3   OH219223   4.910   0.918   1.066 -0.2777 -0.1870 -0.1337
 6420TIP3    H119224   4.888   0.980   0.997 -0.4281  0.1387  0.2111
 6420TIP3    H219225   5.002   0.936   1.086 -0.6050  0.6473  0.7047
 6421TIP3   OH219226   0.711   1.514   0.299 -0.5961 -0.3398  0.0681
 6421TIP3    H119227   0.620   1.489   0.284 -1.6703  2.0957  1.7776
 6421TIP3    H219228   0.727   1.583   0.235 -0.3106 -0.0480  0.4512
 6422TIP3   OH219229   4.557   6.592   3.435 -0.0264  0.0605 -0.4558
 6422TIP3    H119230   4.607   6.536   3.494  2.9869  1.8783 -1.0617
 6422TIP3    H219231   4.571   6.554   3.348 -2.4831 -1.2320 -0.3805
 6423TIP3   OH219232   3.067   1.243   1.004 -0.2155  0.0522 -0.5403
 6423TIP3    H119233   3.074   1.244   1.100 -1.3790 -0.0887 -0.4385
 6423TIP3    H219234   3.137   1.183   0.976  1.7848  1.9868  0.0113
 6424TIP3   OH219235   1.571   2.867   2.349  0.3296 -0.0410 -0.5293
 6424TIP3    H119236   1.541   2.958   2.339 -1.7574 -0.6496 -0.4243
 6424TIP3    H219237   1.581   2.836   2.259 -0.5613 -0.1704 -0.5915
 6425TIP3   OH219238   2.277   5.109   4.333 -0.2113 -0.6400 -0.2475
 6425TIP3    H119239   2.296   5.193   4.293 -0.9396  0.2043  1.1266
 6425TIP3    H219240   2.211   5.070   4.276 -1.4513  0.6672  0.2558
 6426TIP3   OH219241   4.038   5.365   3.732  0.0046  0.5527 -0.3507
 6426TIP3    H119242   4.102   5.423   3.692 -0.8100  1.7984  0.0905
 6426TIP3    H219243   4.005   5.414   3.808 -1.1047 -0.2455 -0.2877
 6427TIP3   OH219244   5.274   3.943   5.578 -0.3508  0.0839 -0.2246
 6427TIP3    H119245   5.192   3.983   5.609 -0.4515 -0.5642  0.3660
 6427TIP3    H219246   5.333   4.017   5.565 -1.2906  0.6444 -1.4893
 6428TIP3   OH219247   4.058   4.035   0.042  0.2141  0.1081  0.1283
 6428TIP3    H119248   3.984   4.077   0.086 -0.4722  1.6770 -2.3361
 6428TIP3    H219249   4.060   3.946   0.078 -3.8843 -0.5333 -0.8037
 6429TIP3   OH219250   6.545   2.481   4.052  0.0329 -0.6869 -0.1547
 6429TIP3    H119251   6.511   2.570   4.056 -1.0221 -1.1172  0.7778
 6429TIP3    H219252   6.490   2.437   3.987 -1.6338 -1.5316  1.7482
 6430TIP3   OH219253   4.864   2.563   5.050 -0.0204  0.6943  0.2949
 6430TIP3    H119254   4.867   2.468   5.053 -0.5826  0.6035 -1.0482
 6430TIP3    H219255   4.955   2.591   5.060  0.0767  0.0509  1.2551
 6431TIP3   OH219256   2.899   5.953   0.507  0.3391  0.3206 -0.6045
 6431TIP3    H119257   2.835   5.918   0.445  1.4802 -0.1909 -1.5352
 6431TIP3    H219258   2.983   5.944   0.462  1.0520  1.1199  0.5233
 6432TIP3   OH219259   5.988   3.766   3.087 -0.0095 -0.2309 -0.3085
 6432TIP3    H119260   6.072   3.810   3.088  0.2586 -0.7395 -0.0196
 6432TIP3    H219261   5.999   3.693   3.026  0.5828 -1.8490  1.6445
 6433TIP3   OH219262   5.882   6.663   1.314 -0.1196  0.2584  0.6942
 6433TIP3    H119263   5.957   6.604   1.321  0.5614  0.9259 -0.7167
 6433TIP3    H219264   5.891   6.705   1.228 -2.6555 -0.3926  0.0097
 6434TIP3   OH219265   3.395   5.194   0.551 -0.1093  0.8995  0.2703
 6434TIP3    H119266   3.414   5.195   0.457 -1.3378  1.5609  0.0086
 6434TIP3    H219267   3.380   5.101   0.571  0.4080  0.7254 -0.1228
 6435TIP3   OH219268   5.687   6.655   4.312  0.4207 -0.0689 -0.1658
 6435TIP3    H119269   5.615   6.593   4.328 -0.0598  0.2327 -1.0917
 6435TIP3    H219270   5.701   6.650   4.218  0.4187  1.1900 -0.2373
 6436TIP3   OH219271   1.705   1.745   2.387 -0.1504  0.1259  0.0032
 6436TIP3    H119272   1.679   1.775   2.475 -0.9150  2.5848 -0.9715
 6436TIP3    H219273   1.792   1.785   2.374 -0.3103  0.2781 -0.5846
 6437TIP3   OH219274   6.892   6.310   0.540  0.3662 -0.4596 -0.7690
 6437TIP3    H119275   6.875   6.264   0.458  0.2200  0.0050 -1.0050
 6437TIP3    H219276   6.971   6.269   0.575 -0.0082 -1.1835 -0.7484
 6438TIP3   OH219277   0.121   3.398   3.707  0.2818  0.0400  0.2192
 6438TIP3    H119278   0.118   3.358   3.794 -1.9337  0.4458  0.4061
 6438TIP3    H219279   0.093   3.489   3.721  0.7769  0.3682 -0.8032
 6439TIP3   OH219280   6.613   6.716   2.384 -0.8911 -0.0395  0.7707
 6439TIP3    H119281   6.621   6.621   2.386  0.5537  0.0670  1.3415
 6439TIP3    H219282   6.698   6.748   2.416 -1.0241  1.4525 -0.2645
 6440TIP3   OH219283   7.131   4.507   0.823  0.1911  0.2561  0.0218
 6440TIP3    H119284   7.120   4.537   0.732  1.4698  1.2403  0.1517
 6440TIP3    H219285   7.226   4.492   0.831 -0.1657 -2.0608  0.5503
 6441TIP3   OH219286   3.789   1.161   1.715  0.1700  0.1149  0.1299
 6441TIP3    H119287   3.706   1.170   1.669  0.7964 -0.1116 -1.1177
 6441TIP3    H219288   3.819   1.072   1.692  0.7434  0.1911  0.5604
 6442TIP3   OH219289   6.654   2.092   2.431 -0.2133 -0.0222 -0.6408
 6442TIP3    H119290   6.683   2.124   2.346 -0.2788 -1.0485 -1.0705
 6442TIP3    H219291   6.615   2.006   2.412  3.4219 -2.2469  0.8612
 6443TIP3   OH219292   3.721   0.561   1.111 -0.1051 -0.4942  0.0270
 6443TIP3    H119293   3.778   0.636   1.095 -0.6432 -0.2334 -0.7270
 6443TIP3    H219294   3.733   0.540   1.204  1.2391 -0.4753 -0.1317
 6444TIP3   OH219295   5.224   1.563   1.807  0.3858 -0.0111 -0.0749
 6444TIP3    H119296   5.200   1.649   1.841  2.0801  0.4051  0.1328
 6444TIP3    H219297   5.140   1.518   1.794 -0.6244  2.0883 -1.3463
 6445TIP3   OH219298   2.817   6.652   3.312  0.5124 -0.7124 -0.1380
 6445TIP3    H119299   2.722   6.652   3.311  0.4614  1.5911  0.0829
 6445TIP3    H219300   2.841   6.612   3.396 -0.2441 -0.9601 -0.0380
 6446TIP3   OH219301   1.902   6.035   2.089  0.2595  0.2386 -0.1877
 6446TIP3    H119302   1.938   5.953   2.055  0.4250  0.6933 -1.1673
 6446TIP3    H219303   1.889   6.089   2.011 -1.3958  0.5483  0.2759
 6447TIP3   OH219304   5.291   4.410   4.362  0.0091 -0.0279 -0.0875
 6447TIP3    H119305   5.268   4.328   4.320  0.6453  0.2021 -0.9136
 6447TIP3    H219306   5.363   4.387   4.422 -0.6875 -0.2958  0.6697
 6448TIP3   OH219307   6.708   4.967   3.015 -0.5912  0.1477  0.0101
 6448TIP3    H119308   6.713   5.023   2.937  2.1528 -0.5524 -0.4331
 6448TIP3    H219309   6.779   4.997   3.071  1.8199 -3.4584 -0.7690
 6449TIP3   OH219310   6.707   5.751   4.789  0.1288  0.1934  0.1946
 6449TIP3    H119311   6.637   5.806   4.752  1.4214  1.7544 -0.0525
 6449TIP3    H219312   6.778   5.812   4.805  0.9686 -1.1336  1.7196
 6450TIP3   OH219313   0.633   5.598   4.187 -0.4572  0.5524 -0.4648
 6450TIP3    H119314   0.560   5.652   4.218 -0.2328  0.7238 -0.2344
 6450TIP3    H219315   0.593   5.537   4.125 -1.2285 -1.0508  1.5260
 6451TIP3   OH219316   5.340   6.410   1.258 -0.0339  1.0463  0.0887
 6451TIP3    H119317   5.401   6.340   1.235  0.8213  1.1546  1.8655
 6451TIP3    H219318   5.257   6.366   1.272 -0.5046  0.9266 -2.6162
 6452TIP3   OH219319   6.344   5.773   5.190  0.7125 -0.2378 -0.4298
 6452TIP3    H119320   6.257   5.813   5.195  0.8899  0.1844 -0.6804
 6452TIP3    H219321   6.340   5.717   5.113 -0.0850 -2.0618  0.8645
 6453TIP3   OH219322   2.216   6.549   0.043  0.0744 -0.2287  0.4091
 6453TIP3    H119323   2.170   6.624   0.080 -0.3561 -0.2785 -0.0121
 6453TIP3    H219324   2.306   6.580   0.031 -0.3974  0.6900 -1.0136
 6454TIP3   OH219325   2.227   4.204   2.064 -0.0101  0.0345  0.3822
 6454TIP3    H119326   2.160   4.244   2.119 -0.1472  1.8451 -1.0035
 6454TIP3    H219327   2.303   4.261   2.073  0.5755 -0.6899  0.1304
 6455TIP3   OH219328   2.303   2.914   5.633  0.2578 -0.1791  0.4117
 6455TIP3    H119329   2.230   2.963   5.595 -0.1204  0.0679  1.4256
 6455TIP3    H219330   2.379   2.973   5.624  0.1343 -0.0509  0.2103
 6456TIP3   OH219331   6.566   1.883   0.246  0.1852 -0.0710 -0.0234
 6456TIP3    H119332   6.593   1.837   0.326  0.6219  1.9733  1.0798
 6456TIP3    H219333   6.489   1.933   0.273 -0.3464 -0.2130 -1.2187
 6457TIP3   OH219334   6.882   5.423   4.976  0.1552  0.2412 -0.2816
 6457TIP3    H119335   6.974   5.400   4.985  0.4201  1.0123 -0.8694
 6457TIP3    H219336   6.836   5.339   4.970  0.8628 -0.1448 -0.3774
 6458TIP3   OH219337   3.717   4.936   4.563 -0.0819 -0.1216  0.0727
 6458TIP3    H119338   3.623   4.940   4.550  0.0591  0.8776 -0.7900
 6458TIP3    H219339   3.735   5.000   4.632  0.0912  0.6391 -0.6587
 6459TIP3   OH219340   2.832   4.149   1.915 -0.1451  0.3752 -0.2538
 6459TIP3    H119341   2.892   4.144   1.989  0.2990 -1.7880 -0.7163
 6459TIP3    H219342   2.884   4.122   1.840 -0.7999  1.8146 -1.2748
 6460TIP3   OH219343   3.182   1.896   3.480  0.1900  0.1489 -0.4656
 6460TIP3    H119344   3.168   1.929   3.568  1.1592 -1.7817  0.4777
 6460TIP3    H219345   3.220   1.970   3.432  1.5704  0.6489  1.3110
 6461TIP3   OH219346   4.697   6.020   0.374 -0.5975 -0.6891  0.0796
 6461TIP3    H119347   4.786   5.985   0.365 -0.6368 -0.6386 -0.5485
 6461TIP3    H219348   4.657   6.007   0.288 -0.2595  1.8970 -0.5601
 6462TIP3   OH219349   7.136   5.341   0.310 -0.2909  0.3400 -0.4506
 6462TIP3    H119350   7.217   5.389   0.326 -0.6517  1.2104 -1.1068
 6462TIP3    H219351   7.069   5.409   0.302 -0.9486 -0.3183 -0.6975
 6463TIP3   OH219352   3.877   3.108   1.771  0.0162  0.2336 -0.0701
 6463TIP3    H119353   3.893   3.078   1.860 -3.2689 -0.4117  0.4445
 6463TIP3    H219354   3.843   3.197   1.781 -1.5012 -0.2598 -0.4919
 6464TIP3   OH219355   3.691   1.024   0.827 -0.0695 -0.7933  0.3853
 6464TIP3    H119356   3.782   1.047   0.809 -0.2859  0.5757  0.9312
 6464TIP3    H219357   3.685   0.931   0.804  1.1882 -0.6451 -0.6785
 6465TIP3   OH219358   0.912   4.407   5.374 -0.0093 -0.2743  0.1195
 6465TIP3    H119359   0.889   4.485   5.322  0.9318  0.1409  0.3007
 6465TIP3    H219360   0.963   4.442   5.447  0.4550 -1.0689  0.1802
 6466TIP3   OH219361   1.702   2.076   2.778  0.1072  0.2586  0.1474
 6466TIP3    H119362   1.652   2.131   2.838 -0.3865  1.2334 -1.1034
 6466TIP3    H219363   1.778   2.047   2.829  0.5066  2.2999  0.7867
 6467TIP3   OH219364   0.224   1.454   1.025 -0.4754 -0.0548  0.0747
 6467TIP3    H119365   0.165   1.495   0.961 -0.2093  0.9545  0.4704
 6467TIP3    H219366   0.284   1.402   0.972 -0.3339  0.6730 -0.4882
 6468TIP3   OH219367   2.882   0.142   4.190 -0.0826  0.0553  0.0116
 6468TIP3    H119368   2.923   0.122   4.274  0.2612  0.9297  0.0567
 6468TIP3    H219369   2.803   0.088   4.188 -0.6472  0.8134  1.3488
 6469TIP3   OH219370   2.438   5.142   2.282  0.3790 -0.2367  0.0406
 6469TIP3    H119371   2.440   5.059   2.330  0.1648  0.0986  0.6439
 6469TIP3    H219372   2.530   5.171   2.280  0.2044  0.6049  1.8106
 6470TIP3   OH219373   2.676   5.259   2.263 -0.0266  0.2944 -0.1705
 6470TIP3    H119374   2.766   5.245   2.235 -0.4427  0.3494 -1.6404
 6470TIP3    H219375   2.675   5.348   2.299  0.8157 -0.2711  1.3125
 6471TIP3   OH219376   4.015   3.201   3.008 -0.9752 -1.0107 -0.3493
 6471TIP3    H119377   4.100   3.172   3.041 -0.8901  1.2397  1.7089
 6471TIP3    H219378   4.032   3.229   2.918  0.2340 -1.5752 -0.3069
 6472TIP3   OH219379   3.635   3.204   1.503  0.5326 -0.4008  0.3027
 6472TIP3    H119380   3.632   3.273   1.569  1.7764  1.3915 -1.4082
 6472TIP3    H219381   3.666   3.127   1.551 -0.6901  0.2226  2.2216
 6473TIP3   OH219382   4.059   3.825   0.651 -0.0773 -0.3644 -0.0895
 6473TIP3    H119383   4.148   3.840   0.621 -0.1093 -0.7734 -0.3976
 6473TIP3    H219384   4.067   3.811   0.746 -0.0456  1.4937  0.2164
 6474TIP3   OH219385   1.632   6.134   0.715 -0.5781 -0.5100  0.0844
 6474TIP3    H119386   1.635   6.096   0.628  0.7027 -0.8657  0.2601
 6474TIP3    H219387   1.603   6.063   0.772 -2.4876  0.0129 -0.1647
 6475TIP3   OH219388   2.381   4.456   1.335  0.1343 -0.5019  0.0464
 6475TIP3    H119389   2.314   4.400   1.296  0.3282 -1.7396  1.3985
 6475TIP3    H219390   2.335   4.538   1.354 -0.5474 -0.7133 -0.6245
 6476TIP3   OH219391   6.801   0.311   3.720 -0.2460 -0.3064 -0.5050
 6476TIP3    H119392   6.852   0.303   3.800  0.1781  1.1354 -0.5903
 6476TIP3    H219393   6.862   0.350   3.657 -0.4550 -1.7556 -1.6600
 6477TIP3   OH219394   3.073   4.766   2.771  0.3095  0.4945  0.2771
 6477TIP3    H119395   3.141   4.788   2.834  2.0509  0.9890 -1.6547
 6477TIP3    H219396   3.106   4.799   2.687 -2.0902  0.2865 -0.8456
 6478TIP3   OH219397   2.562   2.758   3.161  0.0738  0.0327  0.3483
 6478TIP3    H119398   2.606   2.813   3.226  1.8691 -1.9247  0.8806
 6478TIP3    H219399   2.482   2.729   3.204  0.1899  0.4550  0.8657
 6479TIP3   OH219400   3.623   4.755   1.203 -0.0568 -0.8384 -0.0028
 6479TIP3    H119401   3.565   4.699   1.150  0.6360 -2.1761  0.5967
 6479TIP3    H219402   3.666   4.811   1.139 -0.5476 -1.1947 -0.6673
 6480TIP3   OH219403   4.509   1.454   4.606  0.7938 -0.0166  0.1502
 6480TIP3    H119404   4.494   1.448   4.511  1.8076  2.7808 -0.2874
 6480TIP3    H219405   4.602   1.435   4.617  0.6712 -0.3688  0.5945
 6481TIP3   OH219406   1.661   4.323   3.319  0.2423 -0.4071  0.1972
 6481TIP3    H119407   1.750   4.289   3.328 -0.1710 -1.4898  0.3349
 6481TIP3    H219408   1.659   4.361   3.231  1.2485  0.9372  0.7181
 6482TIP3   OH219409   5.727   4.299   4.342 -1.1935 -0.1467  0.1846
 6482TIP3    H119410   5.718   4.210   4.306 -1.6468  0.4775 -1.3621
 6482TIP3    H219411   5.649   4.310   4.397 -1.4667 -0.4989 -0.1205
 6483TIP3   OH219412   1.502   0.145   3.711  0.2114  0.0123  0.4735
 6483TIP3    H119413   1.437   0.087   3.751  0.0481 -0.0140  0.1735
 6483TIP3    H219414   1.457   0.181   3.634  0.2733  0.6267  0.7254
 6484TIP3   OH219415   4.913   2.796   1.443  0.1371  0.3558 -0.1663
 6484TIP3    H119416   4.850   2.743   1.392 -0.2831  1.1084 -0.4393
 6484TIP3    H219417   4.993   2.744   1.441  0.2727  0.5517 -1.9967
 6485TIP3   OH219418   1.340   4.384   1.622  0.0337  0.0336  0.4256
 6485TIP3    H119419   1.370   4.424   1.541 -0.2425 -0.7207 -0.0620
 6485TIP3    H219420   1.366   4.445   1.690  1.5322  0.0154 -0.0959
 6486TIP3   OH219421   2.241   5.253   2.424  0.3856 -0.4236 -0.2922
 6486TIP3    H119422   2.295   5.302   2.486  0.4958 -0.9019 -0.0034
 6486TIP3    H219423   2.304   5.208   2.368  0.3669 -2.4780  1.2093
 6487TIP3   OH219424   7.051   5.933   2.613 -0.0453 -0.4525  0.0158
 6487TIP3    H119425   7.108   6.005   2.584 -0.9270  0.9788  1.6258
 6487TIP3    H219426   7.087   5.907   2.698 -2.3600  1.3033  1.6474
 6488TIP3   OH219427   1.794   0.322   1.639  0.2857 -0.0870  0.1648
 6488TIP3    H119428   1.863   0.269   1.680  0.9987 -0.5001 -1.4849
 6488TIP3    H219429   1.739   0.259   1.593 -0.9144  0.2986  1.0489
 6489TIP3   OH219430   7.134   0.472   1.581 -0.0457  0.3437 -0.5228
 6489TIP3    H119431   7.115   0.378   1.592  0.4298  0.3158  0.0774
 6489TIP3    H219432   7.174   0.478   1.495  0.0923 -0.0321 -0.4861
 6490TIP3   OH219433   2.752   5.803   1.380 -0.0289 -0.4858 -0.3859
 6490TIP3    H119434   2.815   5.832   1.315  1.8738 -1.0876  1.1024
 6490TIP3    H219435   2.695   5.741   1.333 -0.1934  0.8095 -1.9943
 6491TIP3   OH219436   2.177   5.684   3.980 -0.1752 -0.2829  0.3102
 6491TIP3    H119437   2.204   5.740   3.908 -4.4102  0.5035 -0.9179
 6491TIP3    H219438   2.141   5.744   4.045 -1.7846 -1.3211  0.4243
 6492TIP3   OH219439   0.269   5.039   2.028  0.5226 -0.3425 -0.8402
 6492TIP3    H119440   0.294   5.004   2.114  0.6521  0.5509 -0.5064
 6492TIP3    H219441   0.235   5.127   2.047 -3.1126 -1.4846 -1.1904
 6493TIP3   OH219442   0.069   4.169   5.834 -0.2212 -0.3598  0.2422
 6493TIP3    H119443   0.140   4.231   5.815 -0.5997 -0.2200 -0.8141
 6493TIP3    H219444   0.082   4.098   5.770 -0.3663 -0.8948  0.7988
 6494TIP3   OH219445   5.382   6.516   3.501 -0.3719  0.4012 -0.0207
 6494TIP3    H119446   5.437   6.516   3.423 -0.7951 -1.0559 -0.3462
 6494TIP3    H219447   5.313   6.579   3.482 -0.3187  0.2573 -0.7288
 6495TIP3   OH219448   1.383   1.149   0.835  0.0964 -0.5703  0.0815
 6495TIP3    H119449   1.379   1.157   0.930 -0.5333  0.7907 -0.0392
 6495TIP3    H219450   1.408   1.237   0.804  1.2111 -1.2195 -0.9685
 6496TIP3   OH219451   4.385   2.946   2.063  0.4826 -0.0854  0.3360
 6496TIP3    H119452   4.294   2.978   2.066  0.1925 -0.8655  0.2027
 6496TIP3    H219453   4.398   2.905   2.149  0.5281 -0.4467  0.1575
 6497TIP3   OH219454   0.427   0.016   1.478  0.3036 -0.2649 -0.1350
 6497TIP3    H119455   0.343   0.058   1.462  0.5646 -0.2452 -1.6362
 6497TIP3    H219456   0.487   0.089   1.496  0.0961 -0.2477  0.4997
 6498TIP3   OH219457   0.080   0.439   2.262  0.2984 -0.2778  0.0029
 6498TIP3    H119458  -0.005   0.470   2.294 -0.2381 -0.0476 -1.5415
 6498TIP3    H219459   0.144   0.473   2.325 -0.3198  3.2781 -1.0194
 6499TIP3   OH219460   1.299   1.291   4.641  0.4460 -0.3292 -0.3401
 6499TIP3    H119461   1.288   1.342   4.561 -0.6946  1.5083  0.9121
 6499TIP3    H219462   1.233   1.222   4.635 -1.4542  1.3734  0.1547
 6500TIP3   OH219463   5.135   3.721   5.669  0.0984 -0.4350  0.0342
 6500TIP3    H119464   5.195   3.647   5.682 -0.0052 -0.4461  0.4465
 6500TIP3    H219465   5.193   3.796   5.654  0.2150 -0.4800  0.2548
 6501TIP3   OH219466   1.980   6.691   0.473 -0.0030  0.4660 -0.1632
 6501TIP3    H119467   1.959   6.598   0.466 -0.6882  0.6077 -0.1396
 6501TIP3    H219468   1.901   6.735   0.441  0.7701  1.0336 -1.4008
 6502TIP3   OH219469   4.300   1.621   5.303 -0.8657  0.0812  0.2077
 6502TIP3    H119470   4.310   1.716   5.296 -1.0284  0.0542 -0.4518
 6502TIP3    H219471   4.348   1.597   5.382  0.1380  0.5750 -0.2351
 6503TIP3   OH219472   6.422   0.487   2.352  0.4284  0.3646 -0.0481
 6503TIP3    H119473   6.375   0.512   2.431 -1.1213  1.9684 -1.3777
 6503TIP3    H219474   6.497   0.547   2.348 -0.4700  1.4891 -0.6441
 6504TIP3   OH219475   7.079   2.083   4.473 -0.5538  0.0419  0.3594
 6504TIP3    H119476   7.139   2.010   4.492  0.3504  0.5719 -0.3322
 6504TIP3    H219477   7.014   2.079   4.542 -0.2597 -1.1453  0.5997
 6505TIP3   OH219478   2.214   1.452   1.467 -0.2972  0.0140  0.0760
 6505TIP3    H119479   2.196   1.545   1.453 -1.6437 -0.3346 -0.6558
 6505TIP3    H219480   2.287   1.433   1.408  0.4348  0.7412  0.7220
 6506TIP3   OH219481   6.722   5.621   5.057  0.2716  0.0265 -0.2854
 6506TIP3    H119482   6.802   5.571   5.041  2.0489  2.1858  1.2390
 6506TIP3    H219483   6.712   5.675   4.979  0.3152 -0.1906 -0.4458
 6507TIP3   OH219484   1.995   4.298   0.939  0.3732  0.6812  0.1503
 6507TIP3    H119485   2.079   4.254   0.936  0.5735  1.0589  0.2031
 6507TIP3    H219486   1.996   4.359   0.865 -1.4142 -2.0657 -2.4003
 6508TIP3   OH219487   0.443   1.567   4.248  0.4848 -0.1976 -0.0163
 6508TIP3    H119488   0.505   1.633   4.216  1.4893 -1.0501  0.1012
 6508TIP3    H219489   0.466   1.488   4.200  0.3634 -0.8668  1.0018
 6509TIP3   OH219490   5.696   1.089   0.003 -0.8274  0.3226  0.1214
 6509TIP3    H119491   5.616   1.068   0.051 -0.2418 -0.0656  0.9481
 6509TIP3    H219492   5.762   1.104   0.071 -0.0401 -0.0109 -0.5525
 6510TIP3   OH219493   6.964   1.210   1.714 -0.2761  0.0528  0.0092
 6510TIP3    H119494   7.041   1.261   1.737 -0.0437  0.3756 -1.4065
 6510TIP3    H219495   6.982   1.177   1.626 -1.5725 -0.2160 -0.1793
 6511TIP3   OH219496   2.412   3.919   4.187  0.8111 -0.0229  0.2084
 6511TIP3    H119497   2.496   3.963   4.179  2.0354 -2.2987 -0.3420
 6511TIP3    H219498   2.393   3.887   4.099  1.7313 -3.4543  1.1055
 6512TIP3   OH219499   6.366   0.481   2.046 -0.0346 -0.7532 -0.0445
 6512TIP3    H119500   6.363   0.445   1.957 -1.9835 -3.4946  0.9703
 6512TIP3    H219501   6.429   0.426   2.092  1.2259  0.8668  0.2437
 6513TIP3   OH219502   4.550   3.564   2.250 -0.7706  0.2246  0.0878
 6513TIP3    H119503   4.506   3.632   2.301 -1.3530  0.7783 -1.1127
 6513TIP3    H219504   4.640   3.566   2.281 -0.5856  2.1022 -0.4360
 6514TIP3   OH219505   3.392   2.570   5.077  0.0282  0.3799 -0.4797
 6514TIP3    H119506   3.470   2.625   5.067  0.0990  0.6749  1.3711
 6514TIP3    H219507   3.320   2.626   5.048  0.0744  1.5950  1.5336
 6515TIP3   OH219508   5.175   0.561   2.032  0.3785  0.0802  0.2287
 6515TIP3    H119509   5.209   0.484   2.079  1.1937  0.7076  0.6982
 6515TIP3    H219510   5.209   0.551   1.943  1.4526  0.4657  0.5772
 6516TIP3   OH219511   1.907   6.411   2.525  0.5336  0.3538 -0.0966
 6516TIP3    H119512   1.914   6.328   2.571  0.2785  0.0201 -0.6447
 6516TIP3    H219513   1.872   6.472   2.590 -1.3181 -0.4744 -0.2535
 6517TIP3   OH219514   6.258   4.817   2.082  0.2151 -0.2306  0.2634
 6517TIP3    H119515   6.348   4.831   2.050  0.1017 -0.0663  0.0080
 6517TIP3    H219516   6.269   4.768   2.163  0.5385 -0.1993  0.2427
 6518TIP3   OH219517   6.519   3.625   1.787 -0.3661 -0.9552  0.2714
 6518TIP3    H119518   6.486   3.636   1.876  0.6868  0.3010  0.5483
 6518TIP3    H219519   6.444   3.644   1.730 -0.3838  0.9551  0.8796
 6519TIP3   OH219520   1.942   1.827   1.034 -0.3010 -0.5429  0.6753
 6519TIP3    H119521   1.995   1.747   1.034 -0.4442 -0.6432  1.3172
 6519TIP3    H219522   1.958   1.866   1.119 -1.9331 -1.0245  1.2415
 6520TIP3   OH219523   0.408   1.299   0.064  0.5990  0.2919  0.2000
 6520TIP3    H119524   0.470   1.315  -0.008 -1.0848 -0.4338 -1.4837
 6520TIP3    H219525   0.365   1.384   0.077  0.6542  0.3355  0.1017
 6521TIP3   OH219526   2.326   2.736   0.664 -0.8127 -0.0759 -0.1683
 6521TIP3    H119527   2.387   2.698   0.601 -0.1288 -1.0497  1.0365
 6521TIP3    H219528   2.289   2.812   0.618  1.7671  0.9676 -0.7488
 6522TIP3   OH219529   6.335   6.448   5.013 -0.5065 -0.0056  0.0989
 6522TIP3    H119530   6.349   6.384   4.944  1.6203  0.9630 -0.4215
 6522TIP3    H219531   6.386   6.416   5.087  1.8043  1.7524 -0.6411
 6523TIP3   OH219532   1.418   1.919   4.834  0.1309 -0.4017  0.3964
 6523TIP3    H119533   1.363   1.855   4.789  0.6946 -1.5904  1.3389
 6523TIP3    H219534   1.417   1.892   4.925  1.3669  0.2250  0.6250
 6524TIP3   OH219535   1.183   0.949   5.198  0.1296  0.2359  0.3573
 6524TIP3    H119536   1.159   0.911   5.114  2.6797  0.3404 -0.5021
 6524TIP3    H219537   1.203   0.874   5.254  0.3956  0.2017  0.2183
 6525TIP3   OH219538   0.503   3.833   2.594  0.0488  0.0805 -0.1450
 6525TIP3    H119539   0.458   3.749   2.586  0.0331  0.1466 -0.8028
 6525TIP3    H219540   0.594   3.814   2.571 -0.1450  0.4188 -1.2516
 6526TIP3   OH219541   0.354   0.795   2.087 -0.1565 -0.3004  0.2750
 6526TIP3    H119542   0.443   0.780   2.055 -0.1739  0.8217 -0.3517
 6526TIP3    H219543   0.317   0.858   2.026 -1.2964 -0.5309  0.6966
 6527TIP3   OH219544   4.445   2.816   5.589 -0.0736 -0.3305 -0.2873
 6527TIP3    H119545   4.464   2.890   5.532 -1.3423  1.6600  1.6953
 6527TIP3    H219546   4.531   2.783   5.614  0.5666  1.0698 -0.5056
 6528TIP3   OH219547   3.135   1.665   1.431 -0.4221  0.1958  0.2865
 6528TIP3    H119548   3.107   1.639   1.519  0.0120 -1.4639 -0.0349
 6528TIP3    H219549   3.229   1.678   1.439 -0.1257 -1.4564 -0.2427
 6529TIP3   OH219550   5.897   1.387   2.562  0.2523  0.0989  0.5472
 6529TIP3    H119551   5.970   1.430   2.605  0.9264  1.4843 -1.7915
 6529TIP3    H219552   5.825   1.450   2.568  0.5318  0.5752 -0.7983
 6530TIP3   OH219553   4.990   4.190   0.643  0.0987 -0.0381  0.3168
 6530TIP3    H119554   5.019   4.263   0.698 -0.5073  1.0699 -0.7794
 6530TIP3    H219555   5.047   4.117   0.667  2.2357  1.3995 -0.0799
 6531TIP3   OH219556   5.703   0.987   2.031  0.3638  0.1030  0.2665
 6531TIP3    H119557   5.728   1.061   1.975  1.0127 -0.5205 -0.2967
 6531TIP3    H219558   5.759   0.996   2.108 -0.1658  0.6753  0.5903
 6532TIP3   OH219559   2.422   2.723   2.540  0.5433 -0.0398 -0.5446
 6532TIP3    H119560   2.391   2.634   2.555  1.8237 -0.4986 -0.4219
 6532TIP3    H219561   2.518   2.715   2.543  0.6723  1.5261  0.5181
 6533TIP3   OH219562   3.124   1.864   4.675 -0.0457 -0.2441 -0.0157
 6533TIP3    H119563   3.127   1.842   4.582  0.6922 -1.3852  0.2606
 6533TIP3    H219564   3.056   1.807   4.712 -0.4581  0.3263  0.1260
 6534TIP3   OH219565   0.945   4.567   5.591 -0.0090  0.4730 -0.3908
 6534TIP3    H119566   0.900   4.530   5.667 -0.3456  1.4207 -0.1164
 6534TIP3    H219567   0.981   4.650   5.622  0.3963  0.5661 -1.0940
 6535TIP3   OH219568   5.813   0.623   4.998  0.4705  0.4316  0.3260
 6535TIP3    H119569   5.831   0.690   5.065  1.3077  1.3029 -0.7328
 6535TIP3    H219570   5.864   0.547   5.027 -2.2974 -0.6854  2.8109
 6536TIP3   OH219571   2.356  -0.003   4.068  0.0612 -0.1756 -0.4506
 6536TIP3    H119572   2.294  -0.051   4.012  1.9925 -0.2032 -2.7103
 6536TIP3    H219573   2.331   0.089   4.057  0.2700 -0.2000 -1.2109
 6537TIP3   OH219574   6.700   4.556   3.844 -0.5008 -0.7812 -0.3489
 6537TIP3    H119575   6.737   4.573   3.931 -2.1040  0.6716  0.1027
 6537TIP3    H219576   6.746   4.477   3.814  2.1549  0.2861  0.5752
 6538TIP3   OH219577   1.705   3.431   0.419 -0.6398  0.1590 -0.2399
 6538TIP3    H119578   1.767   3.503   0.408 -0.7608  0.0649 -1.8600
 6538TIP3    H219579   1.626   3.472   0.454 -0.7948  0.8929 -1.3972
 6539TIP3   OH219580   2.103   0.857   1.045  0.0014  0.7137  0.5229
 6539TIP3    H119581   2.089   0.770   1.083  2.6103 -0.6722 -1.4115
 6539TIP3    H219582   2.164   0.900   1.104  0.4226  0.3714  0.3388
 6540TIP3   OH219583   0.808   4.420   0.240  0.6281 -0.2018 -0.1797
 6540TIP3    H119584   0.746   4.484   0.273  1.5688  1.4441 -1.4352
 6540TIP3    H219585   0.782   4.337   0.281 -1.8116  0.5860 -0.0027
 6541TIP3   OH219586   1.590   0.775   3.320 -0.0958  0.7065 -0.0034
 6541TIP3    H119587   1.631   0.751   3.237 -1.3734 -2.2433  0.0930
 6541TIP3    H219588   1.661   0.812   3.372  1.5465 -0.5397 -1.2294
 6542TIP3   OH219589   3.195   3.532   0.222 -0.4971  0.0660 -0.0087
 6542TIP3    H119590   3.163   3.443   0.208 -1.7312  0.2735  1.3227
 6542TIP3    H219591   3.288   3.527   0.201 -0.9592 -0.9930 -2.1645
 6543TIP3   OH219592   2.095   1.203   4.872  0.2349 -0.5788  0.0889
 6543TIP3    H119593   2.071   1.242   4.957  1.4519 -0.7632  0.5413
 6543TIP3    H219594   2.024   1.227   4.814  0.4922  1.6031  0.5771
 6544TIP3   OH219595   1.096   2.794   1.731  0.2889  0.2055 -0.1742
 6544TIP3    H119596   1.097   2.836   1.817  0.0397 -1.0034  0.4477
 6544TIP3    H219597   1.165   2.838   1.681  0.7766  0.5794  0.8175
 6545TIP3   OH219598   3.718   3.122   5.776  0.2053  0.3845 -0.1055
 6545TIP3    H119599   3.651   3.148   5.713 -0.3629 -1.0609 -0.1193
 6545TIP3    H219600   3.777   3.066   5.726  0.0277 -0.3684  0.5071
 6546TIP3   OH219601   2.476   3.847   3.393 -0.2034  0.2800 -0.2285
 6546TIP3    H119602   2.516   3.786   3.330  1.1765  2.0353 -1.1651
 6546TIP3    H219603   2.382   3.835   3.382  0.0054 -1.9996 -0.0043
 6547TIP3   OH219604   3.120   0.186   3.074  0.2577  0.0655 -0.1957
 6547TIP3    H119605   3.185   0.215   3.138 -2.5086  0.5807  2.6199
 6547TIP3    H219606   3.041   0.235   3.095 -1.7179 -2.0879 -1.9786
 6548TIP3   OH219607   4.703   0.841   2.437  0.1921  0.9024  0.4664
 6548TIP3    H119608   4.666   0.910   2.382 -0.9382 -0.1955 -0.2183
 6548TIP3    H219609   4.789   0.873   2.462  0.0272  2.1811 -0.5311
 6549TIP3   OH219610   3.793   3.939   2.254  0.3216 -0.6865 -0.1567
 6549TIP3    H119611   3.801   3.993   2.176 -1.5355  1.9489  1.3371
 6549TIP3    H219612   3.876   3.951   2.300 -0.3711  1.7448  0.5803
 6550TIP3   OH219613   2.587   5.693   1.837  0.3487  0.4489  0.3061
 6550TIP3    H119614   2.614   5.668   1.926  1.7326 -0.6207 -0.3699
 6550TIP3    H219615   2.614   5.785   1.830  1.3314  0.2033  0.6147
 6551TIP3   OH219616   3.971   0.514   5.237 -0.3975 -0.4869  0.0233
 6551TIP3    H119617   3.994   0.432   5.193  0.5735 -0.1230 -0.1655
 6551TIP3    H219618   3.965   0.490   5.329 -0.9770 -0.9416 -0.1198
 6552TIP3   OH219619   5.679   3.837   5.516  0.0473  0.3780  0.0199
 6552TIP3    H119620   5.634   3.850   5.599 -1.9950  1.5880 -1.2240
 6552TIP3    H219621   5.673   3.742   5.501 -1.3628  0.4056  0.2870
 6553TIP3   OH219622   6.781   1.508   0.931 -0.2520 -0.2923  0.0875
 6553TIP3    H119623   6.758   1.539   0.844  1.0988  1.6494  0.3679
 6553TIP3    H219624   6.699   1.514   0.981 -0.2190  2.4640 -0.0208
 6554TIP3   OH219625   6.929   2.159   5.523  0.1171 -0.3020 -0.4257
 6554TIP3    H119626   6.902   2.192   5.438 -0.7861  0.3125  0.0843
 6554TIP3    H219627   7.023   2.143   5.514  0.4773  1.7416 -0.9369
 6555TIP3   OH219628   1.072   5.489   2.621 -0.2033 -0.6109 -0.1913
 6555TIP3    H119629   1.009   5.511   2.553 -0.5563  0.2707  0.3992
 6555TIP3    H219630   1.121   5.570   2.635  1.8651 -1.5549 -1.4301
 6556TIP3   OH219631   2.121   1.411   3.878  0.4779  0.0712 -0.4760
 6556TIP3    H119632   2.132   1.433   3.970  0.5117 -0.5673 -0.3268
 6556TIP3    H219633   2.047   1.351   3.876 -0.6836  1.4655 -1.0677
 6557TIP3   OH219634   2.958   2.221   0.252 -0.0606  0.4188  0.1059
 6557TIP3    H119635   2.923   2.169   0.180  3.3609 -1.6670 -0.2905
 6557TIP3    H219636   3.005   2.293   0.208  0.4569  0.2196  0.3230
 6558TIP3   OH219637   5.229   4.839   0.362 -0.0701  1.1181  0.5021
 6558TIP3    H119638   5.203   4.757   0.404  1.0686  0.4585 -0.0366
 6558TIP3    H219639   5.197   4.831   0.272  0.3595  1.0949  0.3474
 6559TIP3   OH219640   0.200   4.522   5.488  0.2724 -0.5899 -0.5654
 6559TIP3    H119641   0.208   4.443   5.434  0.2775 -0.7777 -0.2932
 6559TIP3    H219642   0.134   4.575   5.443 -0.6013 -1.2769 -0.1274
 6560TIP3   OH219643   4.466   4.928   1.764 -0.1059  0.4658  0.3934
 6560TIP3    H119644   4.547   4.968   1.797 -0.9745  2.4076  0.2474
 6560TIP3    H219645   4.469   4.941   1.670  0.8075 -2.1991 -0.0431
 6561TIP3   OH219646   0.166   4.586   3.717  0.3427  0.1864  0.2727
 6561TIP3    H119647   0.164   4.496   3.748  0.1089 -0.1996 -0.8344
 6561TIP3    H219648   0.259   4.606   3.707  0.3721 -0.9258 -2.2241
 6562TIP3   OH219649   2.705   1.055   5.479  0.3895  0.7435 -0.0696
 6562TIP3    H119650   2.705   1.016   5.567  0.7694  2.3560  0.6684
 6562TIP3    H219651   2.795   1.084   5.466  0.2719  0.7418 -0.9054
 6563TIP3   OH219652   5.200   2.087   3.221 -0.2217  0.4511  0.2508
 6563TIP3    H119653   5.176   2.050   3.306 -0.7458  1.0695  0.3823
 6563TIP3    H219654   5.117   2.121   3.186  0.1980  1.2233  0.0010
 6564TIP3   OH219655   6.111   6.371   5.129  0.1476  0.3549 -0.2831
 6564TIP3    H119656   6.133   6.278   5.139 -0.1323 -0.0264 -2.5641
 6564TIP3    H219657   6.191   6.411   5.095  0.0615  0.8193  0.0541
 6565TIP3   OH219658   5.442   2.430   1.050 -0.1848  0.2334  0.0489
 6565TIP3    H119659   5.482   2.517   1.054  1.1662 -0.3701  4.5560
 6565TIP3    H219660   5.509   2.374   1.012 -0.2624  0.7389 -0.8716
 6566TIP3   OH219661   2.630   0.894   4.407 -0.1810  0.2390  0.0537
 6566TIP3    H119662   2.664   0.984   4.409  2.0238 -0.4961 -1.1323
 6566TIP3    H219663   2.572   0.888   4.483  1.3477  2.0046  1.4378
 6567TIP3   OH219664   0.133   1.787   0.457 -0.1065 -0.0392  0.2876
 6567TIP3    H119665   0.219   1.781   0.497 -0.3629 -1.3760  0.7125
 6567TIP3    H219666   0.098   1.697   0.462 -0.8654  0.1212 -1.3240
 6568TIP3   OH219667   2.641   5.997   5.417  0.1137 -0.5721 -1.0220
 6568TIP3    H119668   2.691   5.969   5.493 -2.3584 -0.9184  0.5806
 6568TIP3    H219669   2.640   5.921   5.358 -0.4016 -1.3522 -0.0337
 6569TIP3   OH219670   6.903   0.278   5.410  0.0907  0.2771 -0.5895
 6569TIP3    H119671   6.852   0.211   5.456  0.8601 -1.1274 -1.7011
 6569TIP3    H219672   6.867   0.279   5.322  1.2582  0.0212 -1.0843
 6570TIP3   OH219673   0.436   5.964   3.803 -0.1176  0.2926 -0.0735
 6570TIP3    H119674   0.439   5.869   3.797  0.2317  0.2583  0.5748
 6570TIP3    H219675   0.402   5.981   3.891  0.9166  0.7672  0.2466
 6571TIP3   OH219676   6.860   2.200   0.121  0.8846 -0.3851  0.1530
 6571TIP3    H119677   6.852   2.189   0.216  0.0935 -1.2695 -0.0060
 6571TIP3    H219678   6.800   2.271   0.099  2.4639  1.1395  0.5428
 6572TIP3   OH219679   6.634   1.871   1.004  0.0672 -0.1450  0.1879
 6572TIP3    H119680   6.711   1.909   1.045  0.4650 -1.1883  0.4296
 6572TIP3    H219681   6.566   1.874   1.071 -0.3325  1.3820 -0.2303
 6573TIP3   OH219682   5.785   3.701   1.985  0.7153 -0.2876 -0.7572
 6573TIP3    H119683   5.800   3.782   1.937  1.9466  1.1031  1.7867
 6573TIP3    H219684   5.689   3.693   1.988  0.4382  2.3969  0.8625
 6574TIP3   OH219685   1.233   3.556   5.761 -0.1531 -0.8472 -0.2856
 6574TIP3    H119686   1.195   3.643   5.750  1.8560  0.1496  0.0869
 6574TIP3    H219687   1.230   3.540   5.856  2.8141  0.5587  0.1779
 6575TIP3   OH219688   5.720   6.231   0.511 -0.2973  0.1003  0.2305
 6575TIP3    H119689   5.670   6.225   0.592  0.8332  0.7150  1.0069
 6575TIP3    H219690   5.762   6.145   0.503  1.5457  0.8015  1.6595
 6576TIP3   OH219691   0.020   0.134   0.618 -0.3241  0.0885 -0.2781
 6576TIP3    H119692   0.022   0.039   0.608 -0.9023  0.0676 -0.2444
 6576TIP3    H219693  -0.023   0.166   0.539 -0.8961  0.2541  0.0914
 6577TIP3   OH219694   3.355   0.246   1.958  0.3635  0.7136 -0.6274
 6577TIP3    H119695   3.432   0.280   2.004  0.7988  0.8565 -1.4484
 6577TIP3    H219696   3.306   0.199   2.026  1.3988  0.2426 -0.1858
 6578TIP3   OH219697   3.106   0.928   3.947 -0.0751  0.1483 -0.0372
 6578TIP3    H119698   3.164   0.904   3.875 -0.9165  0.1588 -0.7446
 6578TIP3    H219699   3.163   0.968   4.013  0.6753  0.3885 -0.8166
 6579TIP3   OH219700   3.552   3.190   0.845 -0.0535 -0.3164  0.0838
 6579TIP3    H119701   3.466   3.202   0.886 -0.9413 -0.8697 -1.5244
 6579TIP3    H219702   3.609   3.163   0.917 -1.2308  0.0160  1.1834
 6580TIP3   OH219703   6.795   3.118   1.642 -0.5163 -0.3995  0.1042
 6580TIP3    H119704   6.714   3.071   1.664  0.7786 -2.8706 -0.1401
 6580TIP3    H219705   6.844   3.122   1.724  0.3124 -1.4098 -0.3257
 6581TIP3   OH219706   5.491  -0.005   5.791 -0.0540 -0.5438  0.1396
 6581TIP3    H119707   5.415   0.011   5.734 -1.5184  0.5425  2.2619
 6581TIP3    H219708   5.547   0.071   5.779 -0.4654 -0.2118  0.2990
 6582TIP3   OH219709   3.722   2.248   5.311  0.3819 -0.0899  0.6347
 6582TIP3    H119710   3.799   2.236   5.256  1.0523 -1.0089  1.7142
 6582TIP3    H219711   3.688   2.159   5.324 -0.9778  0.3212  0.0298
 6583TIP3   OH219712   1.467   1.937   5.326 -0.4435 -0.0324  0.5581
 6583TIP3    H119713   1.407   1.899   5.390 -0.3971 -0.8879  0.1155
 6583TIP3    H219714   1.545   1.959   5.377  0.8858 -3.6157  0.4053
 6584TIP3   OH219715   1.719   6.397   4.531 -0.2956 -0.2201  0.0576
 6584TIP3    H119716   1.728   6.434   4.443  1.6251 -3.5202 -1.3276
 6584TIP3    H219717   1.707   6.303   4.516  0.1446 -0.9159  3.3382
 6585TIP3   OH219718   3.978   3.715   4.136  0.1966 -0.4378  0.1537
 6585TIP3    H119719   4.050   3.657   4.114 -0.7605 -1.5911 -0.0781
 6585TIP3    H219720   3.959   3.763   4.055  1.4836  0.8004  0.5508
 6586TIP3   OH219721   3.111   3.316   5.600 -0.6587 -0.4366 -0.2821
 6586TIP3    H119722   3.084   3.271   5.680 -0.5828 -2.2005 -1.1912
 6586TIP3    H219723   3.167   3.253   5.555  0.1401  0.9116 -1.2553
 6587TIP3   OH219724   1.562   0.143   4.401  0.7578  0.0498 -0.1382
 6587TIP3    H119725   1.560   0.096   4.485 -0.6547 -0.6755 -0.5326
 6587TIP3    H219726   1.601   0.080   4.340  1.7181  0.5509 -0.0566
 6588TIP3   OH219727   3.099   4.115   4.587 -0.4208 -0.1536  0.1290
 6588TIP3    H119728   3.161   4.065   4.642  0.4426  0.0801 -0.6113
 6588TIP3    H219729   3.025   4.133   4.645  1.2049  1.6038  1.8047
 6589TIP3   OH219730   2.291   4.862   2.210  0.4727 -0.7422  0.2269
 6589TIP3    H119731   2.240   4.842   2.132  1.9680 -1.6155 -0.5887
 6589TIP3    H219732   2.270   4.791   2.271 -1.5921  0.5650  1.1388
 6590TIP3   OH219733   5.266   0.857   0.353 -0.1303  0.2237  0.2946
 6590TIP3    H119734   5.200   0.867   0.422 -0.4705 -0.6733  0.1143
 6590TIP3    H219735   5.217   0.865   0.271  0.1493  0.5102  0.1523
 6591TIP3   OH219736   5.374   1.754   0.124  0.1223 -0.1139  0.2205
 6591TIP3    H119737   5.385   1.837   0.170  1.8920  0.3316 -0.9163
 6591TIP3    H219738   5.401   1.688   0.188  2.4968  0.4930 -0.0626
 6592TIP3   OH219739   3.952   5.160   2.698 -0.2014 -0.2609 -0.2722
 6592TIP3    H119740   4.030   5.108   2.678 -1.1622 -1.2155 -1.8480
 6592TIP3    H219741   3.880   5.096   2.695 -1.1993  0.8303 -0.2930
 6593TIP3   OH219742   4.521   0.212   1.112 -0.4455 -0.1201  0.2813
 6593TIP3    H119743   4.560   0.276   1.171  1.2088 -0.9228  0.1313
 6593TIP3    H219744   4.447   0.257   1.072  1.2891  2.0938 -0.6305
 6594TIP3   OH219745   2.200   1.453   2.071  0.2532  0.1619 -0.1179
 6594TIP3    H119746   2.118   1.404   2.063  0.6589 -0.8234  1.3162
 6594TIP3    H219747   2.180   1.523   2.133 -0.0224  1.1553 -1.3052
 6595TIP3   OH219748   2.712   2.011   3.935  0.2510 -0.0526  0.0884
 6595TIP3    H119749   2.770   1.937   3.913 -1.6555 -1.4169 -0.6316
 6595TIP3    H219750   2.702   2.058   3.852 -0.2599 -0.2780  0.0179
 6596TIP3   OH219751   3.505   1.197   0.712 -0.1513 -0.0250  0.1408
 6596TIP3    H119752   3.560   1.144   0.770  0.3103 -0.1558 -0.3988
 6596TIP3    H219753   3.567   1.237   0.651 -0.7174 -1.0114 -1.1496
 6597TIP3   OH219754   2.116   6.129   2.490 -0.0805  0.2557  0.2259
 6597TIP3    H119755   2.021   6.126   2.500 -0.2662  0.7081 -1.2450
 6597TIP3    H219756   2.131   6.184   2.414  1.3694  0.0952  0.3627
 6598TIP3   OH219757   0.469   1.386   5.064 -1.1496 -0.2390 -0.4723
 6598TIP3    H119758   0.507   1.472   5.042  0.2863 -0.5203  0.7617
 6598TIP3    H219759   0.411   1.404   5.138 -1.9275 -0.1315 -1.0946
 6599TIP3   OH219760   2.417   2.241   3.951  0.1604 -0.3612  0.4973
 6599TIP3    H119761   2.428   2.260   4.045  3.7134  1.1323 -0.0455
 6599TIP3    H219762   2.408   2.327   3.911  0.3125 -0.8803 -0.6712
 6600TIP3   OH219763   0.202   0.468   1.215 -0.3307 -0.6543 -0.1211
 6600TIP3    H119764   0.111   0.448   1.238 -0.4996 -0.1782 -0.3719
 6600TIP3    H219765   0.229   0.394   1.161  0.4926 -2.4750  2.5729
 6601TIP3   OH219766   3.113   6.757   4.296 -0.0150  0.2324  0.1967
 6601TIP3    H119767   3.020   6.779   4.289 -0.5637 -2.2400 -2.0530
 6601TIP3    H219768   3.114   6.678   4.350  0.8134  0.2992  0.2793
 6602TIP3   OH219769   6.379   2.783   1.415 -0.0764  0.1827 -0.1573
 6602TIP3    H119770   6.322   2.736   1.476  1.5381 -1.6798  0.0011
 6602TIP3    H219771   6.435   2.837   1.470  1.3467 -1.4608  0.1164
 6603TIP3   OH219772   5.164   3.526   4.568 -0.7142  0.3068 -0.1029
 6603TIP3    H119773   5.197   3.496   4.652  5.4759  0.1039 -2.1207
 6603TIP3    H219774   5.163   3.621   4.575 -0.0222  0.2986  0.2038
 6604TIP3   OH219775   5.623   0.730   4.131  0.4926  0.0852  0.1217
 6604TIP3    H119776   5.608   0.655   4.189 -0.1206  1.3841  1.6911
 6604TIP3    H219777   5.551   0.725   4.067  1.1063 -1.2829 -0.5238
 6605TIP3   OH219778   4.011   1.576   2.191 -0.5509 -0.2815 -0.2870
 6605TIP3    H119779   4.038   1.666   2.179 -0.0800 -0.4120 -0.2175
 6605TIP3    H219780   4.056   1.527   2.122 -0.2765 -0.5626  0.0871
 6606TIP3   OH219781   3.435   2.713   0.106  0.0422 -0.4467 -0.0244
 6606TIP3    H119782   3.476   2.793   0.074  0.0115 -0.6535 -0.5835
 6606TIP3    H219783   3.357   2.743   0.153  0.0769 -0.1429 -0.1615
 6607TIP3   OH219784   3.401   3.977   2.103 -0.7308  0.0178 -0.2322
 6607TIP3    H119785   3.455   3.935   2.171 -1.3685 -1.1178 -0.3904
 6607TIP3    H219786   3.365   4.055   2.145  1.5615  1.2241 -0.3345
 6608TIP3   OH219787   5.062   1.231   3.277  0.0363 -0.1256  0.4033
 6608TIP3    H119788   5.051   1.227   3.182  0.3979 -0.0376  0.3559
 6608TIP3    H219789   5.001   1.166   3.311  0.2290 -0.4783  0.0824
 6609TIP3   OH219790   0.136   5.142   3.810 -0.3929  0.4829  0.6370
 6609TIP3    H119791   0.051   5.161   3.769 -0.8517 -0.4212  1.1469
 6609TIP3    H219792   0.130   5.051   3.837  0.9868  0.2123  0.1307
 6610TIP3   OH219793   5.698   4.015   4.293  0.2834  0.3534  0.6181
 6610TIP3    H119794   5.620   3.962   4.309  0.6945 -0.4729 -0.0660
 6610TIP3    H219795   5.770   3.953   4.296  0.6256  0.5239 -1.9230
 6611TIP3   OH219796   1.981   4.014   2.105  0.5389 -0.1036 -0.2292
 6611TIP3    H119797   2.063   3.964   2.108  0.6587  0.0488 -0.7847
 6611TIP3    H219798   1.966   4.029   2.011 -0.4996 -0.7381 -0.1738
 6612TIP3   OH219799   7.214   6.182   3.646 -0.2405  0.2631 -1.2012
 6612TIP3    H119800   7.137   6.222   3.686  0.5365  1.9200 -1.2718
 6612TIP3    H219801   7.196   6.184   3.552 -0.0174  0.8762 -1.2341
 6613TIP3   OH219802   0.275   6.586   3.535  0.6048 -0.1637  0.2629
 6613TIP3    H119803   0.341   6.625   3.592  0.7340 -1.1712  0.8335
 6613TIP3    H219804   0.318   6.509   3.497  0.2293 -0.0011 -0.5055
 6614TIP3   OH219805   2.551   1.786   2.912  0.2089  0.5195 -0.1988
 6614TIP3    H119806   2.646   1.791   2.907  0.1121  1.7819 -1.0428
 6614TIP3    H219807   2.529   1.832   2.993  0.3369 -0.3441  0.3437
 6615TIP3   OH219808   6.571   2.683   0.967  0.1127  0.1229 -0.1953
 6615TIP3    H119809   6.479   2.699   0.988 -0.0805 -0.0399 -0.8944
 6615TIP3    H219810   6.573   2.592   0.935 -0.0722  1.1173 -3.3735
 6616TIP3   OH219811   5.189   3.531   3.283 -0.2898 -0.0492  0.2849
 6616TIP3    H119812   5.217   3.622   3.274 -2.2650  0.5393 -0.3350
 6616TIP3    H219813   5.137   3.513   3.205  0.5474 -1.9395  0.0869
 6617TIP3   OH219814   4.648   6.503   1.606  0.7659 -0.2541  0.1993
 6617TIP3    H119815   4.680   6.593   1.608 -1.0694  0.5260 -1.6799
 6617TIP3    H219816   4.601   6.492   1.688 -0.2751  1.0453 -0.1966
 6618TIP3   OH219817   7.043   5.984   4.481 -0.3658 -0.0254  0.0183
 6618TIP3    H119818   7.097   5.948   4.411  0.6739  0.2194  0.6632
 6618TIP3    H219819   7.022   6.073   4.452  2.3599  1.1157  1.1218
 6619TIP3   OH219820   0.204   2.313   0.256 -0.7089  0.0961 -0.3037
 6619TIP3    H119821   0.225   2.327   0.348 -0.1401 -0.3054 -0.3647
 6619TIP3    H219822   0.153   2.232   0.255 -0.5201 -0.0243 -0.3587
 6620TIP3   OH219823   1.325   4.031   4.283 -0.6913  0.1665  0.4778
 6620TIP3    H119824   1.337   3.967   4.353 -1.4249 -0.1559  0.3199
 6620TIP3    H219825   1.412   4.043   4.246 -0.0142  1.3574  2.3118
 6621TIP3   OH219826   5.970   4.856   4.510  0.2056  0.2588  0.3063
 6621TIP3    H119827   6.010   4.801   4.442  0.1669  0.1259  0.3911
 6621TIP3    H219828   6.012   4.826   4.591  2.3586  2.2926  0.0520
 6622TIP3   OH219829   6.426   5.738   1.374  0.0188  0.5860  0.2992
 6622TIP3    H119830   6.452   5.647   1.362  0.1066  0.2979  2.3579
 6622TIP3    H219831   6.472   5.785   1.304 -1.3802 -1.1218 -1.8955
 6623TIP3   OH219832   0.306   4.340   5.321  0.4105  0.1164 -0.1875
 6623TIP3    H119833   0.349   4.358   5.238  1.1900  0.2857  0.2501
 6623TIP3    H219834   0.351   4.263   5.355 -1.4500 -1.4534 -1.0109
 6624TIP3   OH219835   3.812   5.308   3.602 -0.4639  0.5931  0.4440
 6624TIP3    H119836   3.894   5.317   3.651  1.1520 -1.1115 -1.7774
 6624TIP3    H219837   3.807   5.388   3.550 -0.2942  0.7562  0.6723
 6625TIP3   OH219838   6.025   1.368   1.736 -0.1840  0.0900 -0.8524
 6625TIP3    H119839   5.980   1.399   1.657 -0.0627  0.9696 -0.5870
 6625TIP3    H219840   6.000   1.431   1.804 -0.6375 -0.9086 -0.0707
 6626TIP3   OH219841   2.649   1.409   4.625 -0.0819 -0.3361 -0.1073
 6626TIP3    H119842   2.660   1.314   4.631  0.1935 -0.5080 -2.3010
 6626TIP3    H219843   2.704   1.444   4.695 -0.0907 -1.7730  0.6668
 6627TIP3   OH219844   2.679   6.811   5.424 -0.0917 -0.5672  0.0013
 6627TIP3    H119845   2.730   6.834   5.502 -0.4245  0.6404 -0.1043
 6627TIP3    H219846   2.666   6.717   5.430  1.9968 -0.8873  0.1106
 6628TIP3   OH219847   4.627   6.097   5.107  0.1518 -0.0089  0.4094
 6628TIP3    H119848   4.622   6.155   5.184 -0.2703 -0.6651  0.8860
 6628TIP3    H219849   4.679   6.023   5.138  1.8900  0.7228 -0.6074
 6629TIP3   OH219850   5.722   5.685   3.765 -0.1384 -0.5091  0.3087
 6629TIP3    H119851   5.816   5.682   3.747 -0.3450 -0.3459 -0.8970
 6629TIP3    H219852   5.688   5.602   3.730 -0.8212  0.5932 -1.7956
 6630TIP3   OH219853   6.170   4.108   5.779  0.0829 -0.0984  0.1187
 6630TIP3    H119854   6.099   4.119   5.716 -0.1063  0.3562  0.4066
 6630TIP3    H219855   6.136   4.144   5.861  0.4638 -0.3322  0.3851
 6631TIP3   OH219856   6.673   4.595   2.074  0.1966 -0.0281  0.0439
 6631TIP3    H119857   6.747   4.566   2.127  0.6875  0.5700 -0.2910
 6631TIP3    H219858   6.713   4.620   1.990 -0.5456 -0.8555 -0.5712
 6632TIP3   OH219859   6.944   5.105   2.749 -0.2410  0.0887  0.2053
 6632TIP3    H119860   6.972   5.140   2.664 -1.1410 -0.5323 -0.3709
 6632TIP3    H219861   6.848   5.112   2.747 -0.4084 -1.8036  0.3257
 6633TIP3   OH219862   1.044   3.527   1.705  0.0487 -0.0788  0.1467
 6633TIP3    H119863   1.073   3.443   1.671  1.0363  0.3568 -0.1168
 6633TIP3    H219864   0.965   3.548   1.654 -0.9793 -1.4300  1.1088
 6634TIP3   OH219865   5.219   6.311   1.829  0.4755  0.2036  0.0858
 6634TIP3    H119866   5.246   6.273   1.746  1.9464 -0.8389  0.9902
 6634TIP3    H219867   5.249   6.402   1.825  1.1083 -0.0136 -0.2782
 6635TIP3   OH219868   2.325   3.775   1.561  0.1115  0.7593 -0.0685
 6635TIP3    H119869   2.236   3.803   1.539 -0.0169  1.1314  0.8730
 6635TIP3    H219870   2.361   3.743   1.478 -0.2292  2.3828 -0.8869
 6636TIP3   OH219871   3.082   3.174   0.444 -0.3375  0.4823 -0.7302
 6636TIP3    H119872   3.096   3.084   0.471 -2.5330 -0.3698 -2.1212
 6636TIP3    H219873   3.160   3.198   0.395  0.0873 -0.8183 -0.7088
 6637TIP3   OH219874   2.201   6.754   3.981  0.1589 -0.1159  0.5500
 6637TIP3    H119875   2.206   6.739   3.886  1.0663  1.1023  0.3852
 6637TIP3    H219876   2.284   6.720   4.015  0.2983  0.4123  0.7517
 6638TIP3   OH219877   2.426   3.623   3.772 -0.3147 -0.0816 -0.0795
 6638TIP3    H119878   2.451   3.600   3.862 -0.3692  0.6684  0.1354
 6638TIP3    H219879   2.506   3.609   3.721  0.1202  0.7842  0.3299
 6639TIP3   OH219880   2.102   2.552   1.884  0.9737  0.1640 -0.0253
 6639TIP3    H119881   2.102   2.491   1.810  2.5594 -0.8467  0.7476
 6639TIP3    H219882   2.132   2.635   1.847  2.1573 -0.4361 -0.4764
 6640TIP3   OH219883   7.118   3.351   0.126 -0.5650  0.3762  0.0656
 6640TIP3    H119884   7.186   3.308   0.074  1.4965  1.6475  1.5676
 6640TIP3    H219885   7.150   3.440   0.137 -3.0040  1.3335  0.0150
 6641TIP3   OH219886   2.351   2.218   2.788 -0.0127  0.0584 -0.0010
 6641TIP3    H119887   2.406   2.185   2.859 -0.6781  0.1420  0.5547
 6641TIP3    H219888   2.332   2.308   2.811 -0.9777 -0.1804  0.1815
 6642TIP3   OH219889   4.326   3.732   3.271 -0.1645 -0.1591 -0.1016
 6642TIP3    H119890   4.257   3.696   3.215  0.5672 -1.3189 -0.3066
 6642TIP3    H219891   4.352   3.658   3.326  1.0263  0.2103 -0.1503
 6643TIP3   OH219892   0.289   1.470   3.275  0.4654  0.3386 -0.3382
 6643TIP3    H119893   0.369   1.465   3.328 -1.9506 -1.5877  3.6356
 6643TIP3    H219894   0.277   1.381   3.242 -0.5034  0.3520 -0.0390
 6644TIP3   OH219895   3.300   2.319   2.049  0.2260  0.4093 -0.3841
 6644TIP3    H119896   3.216   2.324   2.004 -0.5528 -0.4486  0.9017
 6644TIP3    H219897   3.312   2.404   2.090 -0.6221  0.1440  0.4358
 6645TIP3   OH219898   4.833   4.530   3.278 -0.3570  0.3933  0.5152
 6645TIP3    H119899   4.835   4.517   3.183  2.6372  1.2182  0.3807
 6645TIP3    H219900   4.795   4.449   3.312 -0.5204 -0.3558 -1.3105
 6646TIP3   OH219901   3.891   3.669   5.535 -0.4431 -0.4649 -0.0950
 6646TIP3    H119902   3.930   3.599   5.588  1.3173 -0.1515 -0.8949
 6646TIP3    H219903   3.813   3.630   5.497  0.5224 -2.0250 -0.5523
 6647TIP3   OH219904   4.469   3.806   1.527 -0.2584  0.5214 -0.1541
 6647TIP3    H119905   4.539   3.836   1.584  0.2881  2.3970 -1.7098
 6647TIP3    H219906   4.431   3.887   1.491  0.0096 -0.5517 -3.1081
 6648TIP3   OH219907   4.922   0.783   2.862  0.3196  0.0592 -0.3911
 6648TIP3    H119908   4.968   0.701   2.878  0.0633 -0.1228 -0.5697
 6648TIP3    H219909   4.868   0.766   2.784 -0.1752  0.2086 -0.0900
 6649TIP3   OH219910   0.999   6.561   4.778  0.0095 -0.1596 -0.2891
 6649TIP3    H119911   0.909   6.564   4.745 -0.5629 -0.6359  1.1574
 6649TIP3    H219912   1.045   6.629   4.728 -1.1246  0.0357 -1.1103
 6650TIP3   OH219913   1.000   0.848   4.252 -0.3194 -0.8766  0.7845
 6650TIP3    H119914   1.037   0.916   4.308  0.0458 -0.0460 -0.4337
 6650TIP3    H219915   1.014   0.879   4.163 -0.7005 -2.2652  0.2047
 6651TIP3   OH219916   5.320   2.922   3.490  0.3125 -0.0818  0.4112
 6651TIP3    H119917   5.250   2.875   3.537  0.0550  1.3622  1.5404
 6651TIP3    H219918   5.312   3.013   3.520  1.8849  0.3581 -0.4049
 6652TIP3   OH219919   6.387   0.909   3.763 -0.2299  0.3565  0.0699
 6652TIP3    H119920   6.387   0.847   3.690  1.0685  0.8257 -0.3659
 6652TIP3    H219921   6.395   0.855   3.841  0.6589 -0.0577 -0.2880
 6653TIP3   OH219922   5.955   2.141   0.210 -0.5380 -0.6144  0.1322
 6653TIP3    H119923   5.961   2.072   0.276 -1.4200 -0.8809 -0.0513
 6653TIP3    H219924   5.934   2.220   0.260 -2.2678 -1.0154  0.0989
 6654TIP3   OH219925   0.713   5.945   1.063 -0.0066  0.6621  0.2666
 6654TIP3    H119926   0.752   5.893   0.993  0.4967 -0.1871  1.1434
 6654TIP3    H219927   0.764   5.922   1.141 -0.7120  1.3876  0.9630
 6655TIP3   OH219928   2.171   4.979   4.637  0.7342  0.1250  0.3948
 6655TIP3    H119929   2.249   5.030   4.659  1.7718 -1.0640 -0.3631
 6655TIP3    H219930   2.102   5.044   4.625  2.2143  1.4771 -1.4317
 6656TIP3   OH219931   1.189   1.513   0.640  0.3021  0.1500  0.3044
 6656TIP3    H119932   1.257   1.492   0.704  0.8433 -1.0411 -0.6240
 6656TIP3    H219933   1.237   1.543   0.563 -0.2859  0.5040  0.0705
 6657TIP3   OH219934   4.816   2.672   0.126  0.5948 -0.2623 -0.7359
 6657TIP3    H119935   4.909   2.684   0.106  1.6362 -2.9271  1.6852
 6657TIP3    H219936   4.815   2.607   0.196 -3.0894  0.4516  0.1131
 6658TIP3   OH219937   4.813   0.886   4.098 -0.3282 -0.8753  0.4148
 6658TIP3    H119938   4.810   0.828   4.174 -0.4319  0.5021  1.4819
 6658TIP3    H219939   4.725   0.922   4.090  0.1838  0.5468  0.9019
 6659TIP3   OH219940   4.646   0.701   2.674  0.2954  0.0364 -0.3644
 6659TIP3    H119941   4.727   0.657   2.646 -1.7453 -2.2964 -3.2621
 6659TIP3    H219942   4.624   0.758   2.600 -1.5203 -0.6727 -0.4252
 6660TIP3   OH219943   0.110   5.189   1.728 -0.3859  0.4229  0.5049
 6660TIP3    H119944   0.139   5.116   1.783 -0.2898 -1.2448 -1.6264
 6660TIP3    H219945   0.136   5.268   1.776  0.6563 -0.9467  2.2913
 6661TIP3   OH219946   0.526   4.470   4.541  0.5162 -0.4205 -0.1149
 6661TIP3    H119947   0.460   4.442   4.477  1.4714 -1.1163 -0.8138
 6661TIP3    H219948   0.605   4.424   4.516  1.6553  1.4319 -0.1137
 6662TIP3   OH219949   2.072   6.599   2.368 -0.2995  0.8168 -0.4709
 6662TIP3    H119950   2.018   6.528   2.401 -1.0912  0.0609 -3.1766
 6662TIP3    H219951   2.011   6.670   2.350 -0.0642  0.8298 -1.2673
 6663TIP3   OH219952   1.726   5.366   2.713 -0.1457  0.3030 -0.0973
 6663TIP3    H119953   1.655   5.302   2.702 -1.3679  1.5368  0.3688
 6663TIP3    H219954   1.735   5.376   2.807  0.7853  0.0274 -0.1503
 6664TIP3   OH219955   5.720   4.019   2.126  0.5283 -0.4415  0.1702
 6664TIP3    H119956   5.809   3.990   2.107  0.1735 -1.1068 -0.5258
 6664TIP3    H219957   5.701   3.983   2.213  1.8252  1.8428  1.4948
 6665TIP3   OH219958   1.810   4.632   1.622  0.0343 -0.1327  0.1867
 6665TIP3    H119959   1.743   4.618   1.689 -1.2835  0.2219 -0.9939
 6665TIP3    H219960   1.819   4.547   1.578  0.4192 -0.1979  0.3869
 6666TIP3   OH219961   4.113   1.095   0.654 -0.0770 -0.0486 -0.1211
 6666TIP3    H119962   4.162   1.128   0.578 -0.9183  0.0821 -0.6282
 6666TIP3    H219963   4.172   1.033   0.696 -0.0491 -1.0928 -1.6293
 6667TIP3   OH219964   3.588   5.226   2.059 -0.1845 -0.0399  0.6995
 6667TIP3    H119965   3.522   5.197   1.996 -0.6686  0.2329  1.0767
 6667TIP3    H219966   3.551   5.202   2.144  0.6009 -0.6810  0.8701
 6668TIP3   OH219967   2.449   0.435   5.552  0.1250 -0.1021 -0.1062
 6668TIP3    H119968   2.468   0.525   5.524  0.4994 -0.5900 -1.5134
 6668TIP3    H219969   2.525   0.384   5.524 -0.5308 -1.0340 -0.2559
 6669TIP3   OH219970   6.830   4.760   0.751  0.3317 -0.1842 -0.1745
 6669TIP3    H119971   6.818   4.675   0.709 -0.1276 -0.0401 -0.3374
 6669TIP3    H219972   6.802   4.824   0.685  0.2758  0.0745  0.0954
 6670TIP3   OH219973   4.167   2.435   3.973 -0.1447  0.4606  0.9871
 6670TIP3    H119974   4.172   2.462   4.065 -2.2940  0.4322  1.1607
 6670TIP3    H219975   4.091   2.377   3.969  1.2281 -1.3805 -0.4003
 6671TIP3   OH219976   1.090   6.401   0.829 -0.2891  0.7428  0.1681
 6671TIP3    H119977   1.078   6.439   0.742  0.5916  0.6067 -0.0278
 6671TIP3    H219978   1.083   6.307   0.816  1.3679  0.6218 -0.0515
 6672TIP3   OH219979   3.454   3.462   4.435 -0.3190 -0.1130 -0.5481
 6672TIP3    H119980   3.538   3.483   4.476  0.3907 -0.5904 -1.7001
 6672TIP3    H219981   3.426   3.544   4.394 -0.0667 -0.1349 -0.7613
 6673TIP3   OH219982   4.132   4.833   4.871  0.3752  0.6587 -0.2842
 6673TIP3    H119983   4.079   4.865   4.798  0.7131  0.6511 -0.5327
 6673TIP3    H219984   4.157   4.912   4.919  0.5244  0.7025 -0.4319
 6674TIP3   OH219985   3.912   1.939   5.141 -0.0639 -0.7754  0.1447
 6674TIP3    H119986   3.957   1.864   5.102 -1.3910 -1.4678 -0.1026
 6674TIP3    H219987   3.821   1.911   5.148 -0.4644  0.5944  0.6293
 6675TIP3   OH219988   4.630   5.137   0.325 -0.6520  0.1514  0.3841
 6675TIP3    H119989   4.556   5.080   0.347  0.7823 -1.3701  1.5732
 6675TIP3    H219990   4.592   5.224   0.316 -2.6120 -0.6223  0.7350
 6676TIP3   OH219991   6.079   5.740   0.166 -0.4894  0.6086  0.1483
 6676TIP3    H119992   6.006   5.747   0.104 -0.6074  0.1907  0.2412
 6676TIP3    H219993   6.157   5.731   0.111 -0.9273 -4.1549 -0.0487
 6677TIP3   OH219994   5.349   5.578   4.963 -0.1453 -0.0181  0.3406
 6677TIP3    H119995   5.402   5.545   4.890 -0.0378 -0.2824  0.5367
 6677TIP3    H219996   5.408   5.577   5.038 -0.8090 -1.6791  0.8841
 6678TIP3   OH219997   5.596   2.572   1.720 -0.0117 -0.5450  0.0642
 6678TIP3    H119998   5.526   2.563   1.656  0.2208 -0.2423 -0.2333
 6678TIP3    H219999   5.667   2.615   1.673  0.4316 -0.9859  0.3244
 6679TIP3   OH220000   0.603   5.559   0.645  0.0405 -0.5671 -0.2779
 6679TIP3    H120001   0.586   5.485   0.704  2.6651 -0.7519  0.3877
 6679TIP3    H220002   0.525   5.614   0.653 -0.6596 -1.7007  1.6263
 6680TIP3   OH220003   6.327   1.125   1.519  0.2986 -0.1054  0.4288
 6680TIP3    H120004   6.337   1.042   1.566 -0.7860 -1.6925 -1.9317
 6680TIP3    H220005   6.412   1.168   1.527  1.8014 -2.6722 -0.4009
 6681TIP3   OH220006   2.202   0.224   4.061 -0.1011 -0.1390  0.1186
 6681TIP3    H120007   2.109   0.238   4.081 -0.0003 -0.2078  0.6602
 6681TIP3    H220008   2.248   0.289   4.115  0.2626 -1.2197  1.1324
 6682TIP3   OH220009   1.146   2.674   4.856  0.1735  0.3369  0.2224
 6682TIP3    H120010   1.113   2.757   4.890  0.6138  1.0219 -0.9657
 6682TIP3    H220011   1.236   2.670   4.888  0.0267  0.1090  0.6186
 6683TIP3   OH220012   2.346   4.871   5.024 -0.3784  0.5684 -0.2363
 6683TIP3    H120013   2.421   4.842   4.972 -0.3839  1.1143 -0.5642
 6683TIP3    H220014   2.270   4.839   4.975 -0.3696 -0.5109  0.4111
 6684TIP3   OH220015   0.217   0.396   4.121  0.0300  0.3173  0.4260
 6684TIP3    H120016   0.275   0.465   4.152  0.1489 -0.3470  1.7293
 6684TIP3    H220017   0.236   0.390   4.027  0.0724  1.9760  0.3037
 6685TIP3   OH220018   0.180   0.132   1.372 -0.2517 -0.4668  0.4263
 6685TIP3    H120019   0.143   0.047   1.351 -0.9767 -0.2676  0.8599
 6685TIP3    H220020   0.194   0.174   1.287 -2.5824  0.0950  0.2367
 6686TIP3   OH220021   0.677   5.857   4.711  0.1037  0.3231 -0.0130
 6686TIP3    H120022   0.594   5.872   4.756 -0.3986 -1.1762 -0.3925
 6686TIP3    H220023   0.743   5.896   4.769 -0.7816  0.8645  0.6572
 6687TIP3   OH220024   1.866   6.681   3.028 -0.3001 -0.1368 -0.1272
 6687TIP3    H120025   1.773   6.684   3.051 -0.6241  1.2835 -1.4333
 6687TIP3    H220026   1.888   6.588   3.029 -1.3121 -0.4114  1.7109
 6688TIP3   OH220027   7.060   5.857   0.936  0.1861  0.0984 -0.2581
 6688TIP3    H120028   7.035   5.832   1.025  0.5473 -0.1004 -0.2107
 6688TIP3    H220029   6.987   5.910   0.904 -0.0131  0.0394  0.1011
 6689TIP3   OH220030   0.412   1.030   3.006 -0.2906  0.5411  0.4094
 6689TIP3    H120031   0.376   1.000   3.090  1.1648 -0.6130  0.6493
 6689TIP3    H220032   0.483   0.970   2.987 -0.9983  0.3582 -2.0186
 6690TIP3   OH220033   1.393   0.638   2.711  0.2652  0.3869  0.3439
 6690TIP3    H120034   1.334   0.665   2.781  0.8368  1.7822  0.3241
 6690TIP3    H220035   1.343   0.654   2.630  0.5268  1.2272  0.3411
 6691TIP3   OH220036   4.177   0.070   0.375  0.7058 -0.1328  0.2724
 6691TIP3    H120037   4.087   0.068   0.406 -0.5070 -0.2509 -2.9090
 6691TIP3    H220038   4.204   0.161   0.387  0.5297 -0.2639  1.9985
 6692TIP3   OH220039   2.688   1.272   4.080  0.7904  0.3544  0.5895
 6692TIP3    H120040   2.739   1.208   4.031 -1.0784 -1.1437  0.4742
 6692TIP3    H220041   2.652   1.222   4.154 -2.2329  0.6667 -0.5027
 6693TIP3   OH220042   1.223   0.325   2.610  0.3833  0.3830  0.7063
 6693TIP3    H120043   1.271   0.345   2.690 -1.4463  0.9964  1.7052
 6693TIP3    H220044   1.139   0.369   2.621  0.9430  2.6551 -2.6543
 6694TIP3   OH220045   5.344   2.384   4.445 -0.6584 -0.6503 -0.2416
 6694TIP3    H120046   5.269   2.403   4.389 -2.2312 -1.7874  1.3670
 6694TIP3    H220047   5.329   2.295   4.476  1.8395 -1.2535 -0.5486
 6695TIP3   OH220048   3.409   2.723   2.428 -0.0731 -0.1526 -0.3182
 6695TIP3    H120049   3.416   2.663   2.503  0.7452  1.5685  1.0449
 6695TIP3    H220050   3.361   2.798   2.462 -1.4608 -0.1624 -2.1145
 6696TIP3   OH220051   4.806   4.117   1.820  0.5560 -0.0629 -0.2026
 6696TIP3    H120052   4.880   4.127   1.760  1.6657 -0.7508  1.0045
 6696TIP3    H220053   4.841   4.141   1.905 -0.8323  0.3219  0.2841
 6697TIP3   OH220054   0.028   0.893   5.908 -0.3489 -0.4377 -0.3723
 6697TIP3    H120055  -0.025   0.813   5.910  0.5389 -1.0559 -0.9075
 6697TIP3    H220056   0.065   0.895   5.820 -0.4960  0.6672 -0.4229
 6698TIP3   OH220057   0.951   0.783   4.621  0.7210  0.1790 -0.1007
 6698TIP3    H120058   0.878   0.721   4.630  0.9507 -0.0447  0.2044
 6698TIP3    H220059   0.933   0.850   4.686  1.1051 -0.1880  0.3859
 6699TIP3   OH220060   4.036   3.191   0.085 -0.2313  0.3943 -0.1001
 6699TIP3    H120061   4.019   3.284   0.101 -0.6582  0.5392 -1.2616
 6699TIP3    H220062   4.043   3.184  -0.011 -1.7562 -1.0008 -0.1634
 6700TIP3   OH220063   5.059   2.102   1.596  0.1089 -0.2642 -0.3345
 6700TIP3    H120064   5.061   2.059   1.511 -2.2627  1.2812 -1.2867
 6700TIP3    H220065   5.029   2.033   1.656 -2.5484 -0.3670 -1.6168
 6701TIP3   OH220066   7.143   5.165   0.800 -0.2848 -0.2233 -0.0473
 6701TIP3    H120067   7.103   5.088   0.760 -0.0403  0.0920 -0.9223
 6701TIP3    H220068   7.221   5.132   0.845 -0.0977 -0.4586 -0.5464
 6702TIP3   OH220069   4.514   4.716   4.540  0.5760 -0.1548 -0.3635
 6702TIP3    H120070   4.429   4.717   4.495 -0.4955  1.9589  1.5146
 6702TIP3    H220071   4.563   4.787   4.498  0.3595  0.4157  0.3194
 6703TIP3   OH220072   6.737   2.877   4.683  0.1149  0.0265 -0.0551
 6703TIP3    H120073   6.816   2.876   4.629 -0.3179 -0.0513 -0.7074
 6703TIP3    H220074   6.754   2.814   4.753  1.2724  1.2279  0.7804
 6704TIP3   OH220075   3.942   3.715   0.430 -0.1944  0.0368 -0.2276
 6704TIP3    H120076   3.955   3.777   0.502 -4.2654  1.1698 -0.2210
 6704TIP3    H220077   3.938   3.629   0.472  1.6456  0.1465  0.2580
 6705TIP3   OH220078   3.600   5.899   1.424 -0.4965 -0.0968 -0.3349
 6705TIP3    H120079   3.638   5.978   1.462  1.0471 -0.3223 -1.3089
 6705TIP3    H220080   3.510   5.923   1.402  0.2970  1.8238 -1.7748
 6706TIP3   OH220081   6.311   5.003   1.351 -0.1721 -0.1712  0.2193
 6706TIP3    H120082   6.266   5.041   1.427 -3.1917  0.2290 -1.6055
 6706TIP3    H220083   6.310   5.073   1.285 -0.0547 -1.3615 -1.0808
 6707TIP3   OH220084   1.106   5.966   0.236 -0.4817 -0.0731 -0.5612
 6707TIP3    H120085   1.063   5.953   0.320  2.0649  1.1407  1.0503
 6707TIP3    H220086   1.085   6.057   0.212  0.5464  0.2959 -0.1113
 6708TIP3   OH220087   2.530   0.319   2.795  0.1373 -0.3409 -0.6891
 6708TIP3    H120088   2.595   0.252   2.819 -0.5709 -1.0396 -0.6750
 6708TIP3    H220089   2.446   0.274   2.804 -0.2798  0.1533 -2.0034
 6709TIP3   OH220090   7.166   0.404   1.279  0.7999  0.0245 -0.1849
 6709TIP3    H120091   7.125   0.318   1.271 -1.0493  0.7219  1.0146
 6709TIP3    H220092   7.094   0.466   1.268  2.2734  1.5070 -2.1718
 6710TIP3   OH220093   6.455   0.786   4.756 -0.4652 -0.1832 -0.2511
 6710TIP3    H120094   6.456   0.850   4.828 -1.8336  0.2392 -0.5759
 6710TIP3    H220095   6.385   0.725   4.780  0.3896 -1.2063 -0.2723
 6711TIP3   OH220096   3.432   2.829   3.409  0.2537  0.3370  0.0857
 6711TIP3    H120097   3.348   2.873   3.424  0.4699  0.7551  0.0859
 6711TIP3    H220098   3.412   2.762   3.344  0.1599  1.2198 -0.8140
 6712TIP3   OH220099   4.455   0.558   4.165  0.0379  0.4510  0.2035
 6712TIP3    H120100   4.388   0.520   4.107  0.4882  0.0643 -0.0620
 6712TIP3    H220101   4.491   0.484   4.213 -0.1517  0.7388  0.8015
 6713TIP3   OH220102   1.992   2.426   0.298  0.2677  0.7820  0.2984
 6713TIP3    H120103   2.035   2.357   0.248  1.3089  1.2249  0.5718
 6713TIP3    H220104   1.908   2.439   0.254  1.2603  1.3482 -1.5120
 6714TIP3   OH220105   3.327   4.672   0.031  0.0128  0.1342 -0.2586
 6714TIP3    H120106   3.304   4.670  -0.062 -0.1651  0.1768 -0.2143
 6714TIP3    H220107   3.392   4.742   0.038  1.3687 -1.0394 -0.6663
 6715TIP3   OH220108   1.068   3.114   4.469  0.4342  0.7020  0.5759
 6715TIP3    H120109   1.135   3.101   4.401  0.7080  1.5626  0.6593
 6715TIP3    H220110   0.986   3.115   4.420  0.2993 -1.8615  0.6454
 6716TIP3   OH220111   4.262   1.457   5.005 -0.3549 -0.6441  0.2037
 6716TIP3    H120112   4.349   1.485   5.033 -0.6696  0.0493  0.5083
 6716TIP3    H220113   4.227   1.533   4.958 -1.1054 -0.6224  0.7769
 6717TIP3   OH220114   1.636   4.912   5.470  0.2221  0.4610 -0.3055
 6717TIP3    H120115   1.612   4.852   5.399  1.3726 -0.6098  0.1670
 6717TIP3    H220116   1.556   4.919   5.523 -0.6383  1.2420 -1.6545
 6718TIP3   OH220117   1.604   0.096   1.205  0.4233  0.3358  0.5824
 6718TIP3    H120118   1.624   0.139   1.121  0.5511 -0.2681  0.2970
 6718TIP3    H220119   1.667   0.024   1.210  0.3274  0.2886  1.1385
 6719TIP3   OH220120   3.482   2.706   0.432  0.3947 -0.0764 -0.2255
 6719TIP3    H120121   3.519   2.728   0.517  3.2840 -1.6056 -0.9435
 6719TIP3    H220122   3.546   2.647   0.392 -0.2320  1.4438 -3.9220
 6720TIP3   OH220123   2.346   4.434   4.570 -0.3374 -0.4235 -0.2436
 6720TIP3    H120124   2.412   4.497   4.598 -3.2293  1.5983  2.8519
 6720TIP3    H220125   2.342   4.443   4.475  2.3370  0.8145 -0.3371
 6721TIP3   OH220126   0.337   4.654   0.424  0.3267 -0.4929  0.5727
 6721TIP3    H120127   0.257   4.616   0.387  1.2274 -1.3987 -0.5044
 6721TIP3    H220128   0.342   4.741   0.384 -0.3884 -0.2251  1.0517
 6722TIP3   OH220129   3.291   0.418   2.280 -0.5154 -0.9039 -0.0497
 6722TIP3    H120130   3.248   0.418   2.366  0.9260 -0.2894  0.7162
 6722TIP3    H220131   3.326   0.330   2.271  0.3994 -0.6245  0.5901
 6723TIP3   OH220132   6.687   5.297   3.408 -0.2860 -0.7942 -0.4129
 6723TIP3    H120133   6.613   5.327   3.462 -0.4411  2.4550 -2.2067
 6723TIP3    H220134   6.759   5.354   3.433  0.6244 -1.5786 -1.2001
 6724TIP3   OH220135   4.719   3.246   2.254 -0.3793 -0.6055  0.2784
 6724TIP3    H120136   4.696   3.243   2.347 -0.1569 -2.3417  0.3101
 6724TIP3    H220137   4.804   3.203   2.248 -0.3907 -0.5244 -0.7243
 6725TIP3   OH220138   1.647   2.827   3.922  0.3147 -0.0607 -0.0746
 6725TIP3    H120139   1.554   2.843   3.904  0.3160 -0.0948 -0.1131
 6725TIP3    H220140   1.662   2.739   3.889 -0.5230 -1.6048  3.2320
 6726TIP3   OH220141   4.239   1.269   4.620  0.1350  0.0594  0.0562
 6726TIP3    H120142   4.315   1.327   4.617  0.2431 -0.1175 -2.1240
 6726TIP3    H220143   4.198   1.287   4.704  1.1896  1.9668  0.2054
 6727TIP3   OH220144   6.235   6.535   4.580  0.4730 -0.2420  0.0316
 6727TIP3    H120145   6.199   6.505   4.664 -0.0276  1.5098  0.4776
 6727TIP3    H220146   6.324   6.564   4.601  1.4262 -2.4347 -0.6392
 6728TIP3   OH220147   0.513   4.832   4.490  0.1157  0.0982 -0.1758
 6728TIP3    H120148   0.461   4.846   4.570 -0.5752  1.1874 -0.7818
 6728TIP3    H220149   0.456   4.781   4.433  0.4854 -0.4011 -0.1004
 6729TIP3   OH220150   3.410   1.039   0.284  0.2265 -0.3807  0.1245
 6729TIP3    H120151   3.429   0.956   0.240  1.3727 -0.5511  0.8659
 6729TIP3    H220152   3.464   1.036   0.363  1.5466  1.7579 -0.6041
 6730TIP3   OH220153   4.326   5.732   5.657  0.1181 -0.3250  0.3222
 6730TIP3    H120154   4.304   5.640   5.649  0.0276 -0.1662 -1.8490
 6730TIP3    H220155   4.261   5.767   5.718 -1.4910 -1.1895 -0.8371
 6731TIP3   OH220156   1.513   0.317   0.097 -0.4153 -0.2322  0.1974
 6731TIP3    H120157   1.551   0.394   0.141  0.8643 -0.9968  0.4681
 6731TIP3    H220158   1.442   0.289   0.155  0.2157 -0.2654  0.9721
 6732TIP3   OH220159   5.172   5.131   2.844  0.4329 -0.4064 -0.0590
 6732TIP3    H120160   5.167   5.212   2.793 -0.2042 -0.2742  0.2075
 6732TIP3    H220161   5.139   5.154   2.930 -0.2781 -1.0737 -0.1378
 6733TIP3   OH220162   3.506   1.226   5.244 -0.0710 -0.4563  0.3826
 6733TIP3    H120163   3.492   1.319   5.264 -1.3725 -0.4961 -0.2677
 6733TIP3    H220164   3.512   1.184   5.329  0.2853  0.1798  0.6858
 6734TIP3   OH220165   6.678   1.836   0.521  0.2188  0.7505 -0.3115
 6734TIP3    H120166   6.673   1.930   0.540  0.5672  0.3962  1.7365
 6734TIP3    H220167   6.641   1.794   0.598  1.7139 -0.8494 -0.4062
 6735TIP3   OH220168   5.276   1.793   3.204 -0.0465 -0.2798 -0.2322
 6735TIP3    H120169   5.232   1.878   3.196 -1.1577 -0.9850 -3.2040
 6735TIP3    H220170   5.368   1.812   3.187  0.1628  0.6060  1.6306
 6736TIP3   OH220171   7.047   6.064   1.332  0.3040  0.0216 -0.1466
 6736TIP3    H120172   7.055   6.036   1.423 -0.0193 -3.7075 -1.1100
 6736TIP3    H220173   7.136   6.059   1.298  0.2236  0.1070 -0.3733
 6737TIP3   OH220174   0.081   2.937   3.235 -0.3107 -0.1346  0.4937
 6737TIP3    H120175   0.145   2.943   3.306 -0.7153 -0.5540  0.9044
 6737TIP3    H220176   0.030   3.017   3.243  0.4844  0.4455 -0.1588
 6738TIP3   OH220177   6.043   3.560   3.490  0.1926 -0.0524  0.2249
 6738TIP3    H120178   6.067   3.468   3.485  2.0095  0.2802  1.5914
 6738TIP3    H220179   6.124   3.607   3.471 -0.8425  1.2960 -1.0922
 6739TIP3   OH220180   3.245   4.212   1.256 -0.2888  0.5281  0.2875
 6739TIP3    H120181   3.279   4.140   1.204 -2.0332 -2.0713  2.4511
 6739TIP3    H220182   3.320   4.243   1.307  0.0092 -1.7716  1.3834
 6740TIP3   OH220183   4.584   0.190   4.254  0.3342 -0.2513  0.5524
 6740TIP3    H120184   4.582   0.255   4.324  0.6704 -1.4280  1.6911
 6740TIP3    H220185   4.515   0.128   4.275  1.6414 -1.6606  0.9293
 6741TIP3   OH220186   6.636   0.088   1.898 -0.5018  0.5320  0.3558
 6741TIP3    H120187   6.673   0.163   1.853  1.0384 -0.7370 -0.6098
 6741TIP3    H220188   6.705   0.022   1.895 -0.9819 -0.2236  3.0583
 6742TIP3   OH220189   5.829   6.265   1.984 -0.0804 -0.2246  0.0798
 6742TIP3    H120190   5.741   6.252   1.949 -0.4681  0.9591  0.5623
 6742TIP3    H220191   5.872   6.180   1.973 -0.5599 -0.2512 -2.1267
 6743TIP3   OH220192   0.466   3.030   1.712 -0.3901 -0.2934 -0.1099
 6743TIP3    H120193   0.388   2.987   1.678 -1.2157  0.1537  1.1481
 6743TIP3    H220194   0.525   2.958   1.735 -0.6748 -0.6543 -0.4964
 6744TIP3   OH220195   3.273   4.784   4.050  0.2488  0.1773  0.1206
 6744TIP3    H120196   3.325   4.706   4.030 -0.5107 -0.4773  0.6164
 6744TIP3    H220197   3.305   4.812   4.136  0.1315  0.0764  0.1971
 6745TIP3   OH220198   6.894   2.753   0.097 -0.2540 -0.2037  0.2923
 6745TIP3    H120199   6.984   2.727   0.077  0.6474  2.0234  1.0949
 6745TIP3    H220200   6.863   2.794   0.017  0.1310  0.6719  0.5797
 6746TIP3   OH220201   3.043   5.621   3.441  0.5615  0.0308 -0.7536
 6746TIP3    H120202   2.951   5.627   3.416  0.0193 -1.4132  0.7070
 6746TIP3    H220203   3.081   5.704   3.414 -2.2778  2.9523  3.1012
 6747TIP3   OH220204   2.470   5.174   1.814 -0.6716 -0.0356  0.2378
 6747TIP3    H120205   2.507   5.262   1.816  1.7675 -0.9029 -1.1129
 6747TIP3    H220206   2.468   5.146   1.905  0.1556  0.8380  0.5334
 6748TIP3   OH220207   3.623   0.705   2.895  0.1022 -0.1531 -0.0308
 6748TIP3    H120208   3.575   0.631   2.859 -1.9578  1.6805 -1.2921
 6748TIP3    H220209   3.624   0.690   2.990 -1.2933 -1.2122 -0.1594
 6749TIP3   OH220210   2.050   2.785   4.003 -0.1303 -0.0784  0.0530
 6749TIP3    H120211   1.980   2.797   4.067 -0.3974  1.0102 -0.4165
 6749TIP3    H220212   2.016   2.718   3.943  0.3529 -1.5117  1.3259
 6750TIP3   OH220213   4.994   6.509   1.130 -0.2847 -0.3427  0.5155
 6750TIP3    H120214   5.022   6.450   1.200 -1.9303  0.1875  1.6746
 6750TIP3    H220215   4.919   6.465   1.090  0.6103 -0.6161 -0.9274
 6751TIP3   OH220216   1.733   2.520   3.069  0.2488 -0.1697 -0.1515
 6751TIP3    H120217   1.690   2.438   3.094  0.8741 -0.3376  0.3817
 6751TIP3    H220218   1.724   2.577   3.145  1.4069 -0.3854  0.1616
 6752TIP3   OH220219   2.579   4.230   3.431  0.5275 -0.0655  0.4876
 6752TIP3    H120220   2.586   4.322   3.454 -2.1917  0.0708  1.1217
 6752TIP3    H220221   2.584   4.228   3.335  2.3328  0.4878  0.5403
 6753TIP3   OH220222   5.622   5.113   0.366 -0.1014  0.2088 -0.3849
 6753TIP3    H120223   5.554   5.123   0.432 -1.6571 -0.0171 -1.8852
 6753TIP3    H220224   5.599   5.031   0.321  2.6218 -1.2856  0.6581
 6754TIP3   OH220225   3.608   2.695   1.817 -0.0530  0.1160  0.4205
 6754TIP3    H120226   3.604   2.605   1.784  1.1107 -0.2109  1.1298
 6754TIP3    H220227   3.702   2.714   1.824 -0.2655  0.6726  2.1700
 6755TIP3   OH220228   1.231   0.773   2.547  0.4617  0.1305  0.1978
 6755TIP3    H120229   1.164   0.723   2.501 -1.2091  0.6699  1.8910
 6755TIP3    H220230   1.213   0.864   2.525  0.7219  0.2676  0.5387
 6756TIP3   OH220231   2.611   6.059   0.038 -0.0282  0.1377 -0.2550
 6756TIP3    H120232   2.582   6.001   0.108 -0.8040  0.8705  0.0537
 6756TIP3    H220233   2.582   6.017  -0.042 -1.3539  0.4900  0.0106
 6757TIP3   OH220234   7.130   3.162   1.588  0.1996 -0.2627 -0.0144
 6757TIP3    H120235   7.137   3.121   1.674  0.2154  0.1922  0.2027
 6757TIP3    H220236   7.043   3.201   1.586  1.1367  2.0540  0.8589
 6758TIP3   OH220237   5.280   1.929   4.838 -0.1330 -0.0538 -0.6384
 6758TIP3    H120238   5.341   1.913   4.766 -0.5229 -1.2150 -0.7211
 6758TIP3    H220239   5.221   1.997   4.804  0.7054  0.6101 -0.7924
 6759TIP3   OH220240   4.672   6.123   3.968 -0.1828 -0.0045  0.1835
 6759TIP3    H120241   4.677   6.174   4.049 -0.0114 -0.9987  0.8097
 6759TIP3    H220242   4.725   6.172   3.906 -0.1005  0.6378  0.7473
 6760TIP3   OH220243   4.018   3.400   1.801  0.6938  0.2915  0.3037
 6760TIP3    H120244   4.039   3.494   1.794  0.9207  0.1629 -1.2039
 6760TIP3    H220245   3.991   3.376   1.713  1.7256 -1.3198  0.3831
 6761TIP3   OH220246   5.843   6.707   3.267  0.3374  0.3608  0.0955
 6761TIP3    H120247   5.900   6.784   3.259 -0.9653  1.2873 -0.8140
 6761TIP3    H220248   5.781   6.731   3.336  2.0319 -1.3497  2.3575
 6762TIP3   OH220249   5.757   4.534   1.185  0.1324  0.3321  0.0134
 6762TIP3    H120250   5.725   4.606   1.239 -0.6900  1.1073 -1.4481
 6762TIP3    H220251   5.689   4.467   1.192  1.2929 -0.7422  2.0682
 6763TIP3   OH220252   3.633   6.289   2.220  0.2973 -0.5081  0.1207
 6763TIP3    H120253   3.580   6.274   2.142 -1.2394 -1.9280  1.3596
 6763TIP3    H220254   3.630   6.383   2.233 -0.4508 -0.3793 -0.8364
 6764TIP3   OH220255   2.561   0.415   0.008  0.6445  0.0064  1.2977
 6764TIP3    H120256   2.610   0.379  -0.066  0.7297  2.0182  0.3352
 6764TIP3    H220257   2.629   0.446   0.068  0.5769 -1.6573  2.2876
 6765TIP3   OH220258   6.321   2.108   3.548  0.7685  1.0855  0.1494
 6765TIP3    H120259   6.279   2.105   3.463  0.9991  0.9154  0.0396
 6765TIP3    H220260   6.314   2.199   3.576  0.4294  1.0805  0.0838
 6766TIP3   OH220261   5.794   2.218   4.727  0.3937 -0.0756  0.0146
 6766TIP3    H120262   5.875   2.267   4.715 -0.2536  0.8601 -0.6848
 6766TIP3    H220263   5.739   2.275   4.780 -0.0155 -0.4617  0.0111
 6767TIP3   OH220264   0.645   3.356   3.765  0.0916  0.0695  0.2997
 6767TIP3    H120265   0.620   3.270   3.732  0.5402  0.3768 -0.9073
 6767TIP3    H220266   0.563   3.406   3.766  0.0351 -0.0029 -0.2055
 6768TIP3   OH220267   5.987   6.347   3.599  0.3287  0.0929 -0.5457
 6768TIP3    H120268   5.929   6.424   3.597  0.0822  0.2171  3.3756
 6768TIP3    H220269   5.928   6.273   3.585 -0.2846  0.3887  0.3655
 6769TIP3   OH220270   3.762   0.865   5.285  0.1318 -0.1858 -0.0103
 6769TIP3    H120271   3.697   0.841   5.219 -0.0747  0.0781  0.0958
 6769TIP3    H220272   3.800   0.947   5.252  0.2946 -0.2544  0.0080
 6770TIP3   OH220273   2.613   0.021   4.391  0.0335  0.3121 -0.2544
 6770TIP3    H120274   2.587   0.056   4.306  0.7348  1.2948 -0.0799
 6770TIP3    H220275   2.577   0.082   4.455 -0.7087 -0.5595  0.1812
 6771TIP3   OH220276   6.965   2.270   2.146 -0.0778 -0.2461 -0.5320
 6771TIP3    H120277   6.900   2.316   2.200  0.3387 -0.3482  0.0714
 6771TIP3    H220278   7.029   2.337   2.123 -0.9011  0.0857 -1.9727
 6772TIP3   OH220279   6.958   2.642   3.238  0.4421 -0.3770  0.1424
 6772TIP3    H120280   6.985   2.727   3.205  3.2484 -1.1431  0.2274
 6772TIP3    H220281   6.944   2.655   3.332  0.4288  0.0638  0.0776
 6773TIP3   OH220282   3.436   0.827   0.103  0.0461  0.2602  0.4925
 6773TIP3    H120283   3.406   0.795   0.018 -0.4320  1.5536  0.1480
 6773TIP3    H220284   3.406   0.762   0.166 -0.2214 -0.3485 -0.2534
 6774TIP3   OH220285   5.502   2.801   4.675 -0.2514 -1.0880 -0.5819
 6774TIP3    H120286   5.420   2.824   4.632 -0.0168  1.1566  0.0133
 6774TIP3    H220287   5.486   2.715   4.714 -1.5551 -1.6652 -2.3007
 6775TIP3   OH220288   4.414   2.192   0.878  0.1029 -0.0532 -0.0761
 6775TIP3    H120289   4.364   2.136   0.938  0.9271  0.7582  1.4212
 6775TIP3    H220290   4.347   2.234   0.824 -0.5833 -1.6884 -0.5511
 6776TIP3   OH220291   0.647   0.230   1.736  0.0234 -0.0953 -0.2380
 6776TIP3    H120292   0.638   0.234   1.641 -0.0052  0.7414 -0.2090
 6776TIP3    H220293   0.739   0.249   1.752  0.1551 -0.8070 -0.1230
 6777TIP3   OH220294   0.847   1.064   0.738 -0.0726 -0.3887  0.6475
 6777TIP3    H120295   0.883   1.143   0.699  0.8650  0.2677  2.6861
 6777TIP3    H220296   0.777   1.036   0.678 -2.0940  3.3157  1.0147
 6778TIP3   OH220297   2.851   1.177   3.857  0.4526 -0.3351 -0.1685
 6778TIP3    H120298   2.810   1.117   3.794 -1.0407  0.8852 -0.4116
 6778TIP3    H220299   2.935   1.200   3.818 -0.5432  0.5952 -1.8855
 6779TIP3   OH220300   5.509   6.049   3.889  0.3709 -0.0095  0.4460
 6779TIP3    H120301   5.525   5.998   3.810  0.8810  2.0537 -0.8474
 6779TIP3    H220302   5.453   5.993   3.943  0.1294 -1.5201 -1.2914
 6780TIP3   OH220303   0.261   6.329   2.710  0.0534  0.0968  0.4625
 6780TIP3    H120304   0.339   6.275   2.698  0.3409  0.1060  2.1526
 6780TIP3    H220305   0.284   6.414   2.673 -0.5293 -0.9247 -2.5929
 6781TIP3   OH220306   1.708   1.976   5.445  0.1606  0.2114  0.0122
 6781TIP3    H120307   1.753   1.893   5.424  0.7917  0.2184  1.2834
 6781TIP3    H220308   1.777   2.042   5.442  0.4018  0.1577  2.4414
 6782TIP3   OH220309   5.289   6.585   1.859  0.3804  0.3163  0.2023
 6782TIP3    H120310   5.309   6.679   1.860  0.9057  0.2361 -1.1084
 6782TIP3    H220311   5.291   6.560   1.952  2.2166  1.2155  0.4715
 6783TIP3   OH220312   4.557   2.169   4.596  0.0903  0.1230 -0.1761
 6783TIP3    H120313   4.587   2.156   4.506 -0.4400  2.0611 -0.6847
 6783TIP3    H220314   4.569   2.263   4.612  0.7065 -0.2730  1.9905
 6784TIP3   OH220315   5.136   3.985   2.345  0.1925 -0.4505 -0.1437
 6784TIP3    H120316   5.051   4.000   2.304 -0.4970 -2.3771  0.4741
 6784TIP3    H220317   5.136   4.043   2.421  0.6467  1.6351 -1.6472
 6785TIP3   OH220318   0.779   0.815   3.270  0.5055 -0.5667 -0.1732
 6785TIP3    H120319   0.762   0.769   3.187 -1.2691 -0.3280  0.0182
 6785TIP3    H220320   0.850   0.876   3.249  0.1329 -0.5594 -1.5030
 6786TIP3   OH220321   0.574   1.911   1.581 -0.0699 -0.4924 -0.2214
 6786TIP3    H120322   0.605   2.002   1.586 -1.0303 -0.0133 -2.0732
 6786TIP3    H220323   0.481   1.918   1.560 -0.5632 -1.9224  1.2949
 6787TIP3   OH220324   2.016   5.927   4.032 -0.2030  0.1599  0.3869
 6787TIP3    H120325   2.057   5.894   4.112  0.5622 -2.3128 -0.8960
 6787TIP3    H220326   1.922   5.923   4.050 -0.0450 -0.4985  1.1187
 6788TIP3   OH220327   6.378   5.480   5.118  0.0722 -0.1734  0.5153
 6788TIP3    H120328   6.373   5.391   5.082  1.1245 -0.2946  0.6339
 6788TIP3    H220329   6.350   5.537   5.046 -0.2963 -0.5765  0.3355
 6789TIP3   OH220330   1.610   4.483   3.098  0.1413  0.3334 -0.2193
 6789TIP3    H120331   1.678   4.550   3.091 -0.1665  0.4924 -2.5068
 6789TIP3    H220332   1.631   4.420   3.028  0.6708 -2.2806  2.1052
 6790TIP3   OH220333   1.385   2.704   4.971  0.7607 -0.2579 -0.5235
 6790TIP3    H120334   1.468   2.675   5.009  0.7131  0.4503  0.1694
 6790TIP3    H220335   1.411   2.757   4.896  1.1303  2.2029  1.1945
 6791TIP3   OH220336   4.858   1.091   1.879 -0.5947  0.8248 -0.1971
 6791TIP3    H120337   4.927   1.122   1.821 -0.2369  1.2430  0.4456
 6791TIP3    H220338   4.821   1.170   1.918 -1.0993  0.5711 -0.1490
 6792TIP3   OH220339   1.181   5.812   4.432  0.2160  0.0771 -0.2966
 6792TIP3    H120340   1.226   5.733   4.405  1.3998  0.0887  1.5253
 6792TIP3    H220341   1.105   5.781   4.482 -0.4829  0.1046 -1.2943
 6793TIP3   OH220342   0.785   1.555   1.004  0.0095  0.0595  0.0270
 6793TIP3    H120343   0.707   1.500   1.001 -0.1643  0.2223  1.2961
 6793TIP3    H220344   0.828   1.539   0.920 -1.1358 -0.3857 -0.5054
 6794TIP3   OH220345   0.518   6.719   2.860  0.9261 -0.3669  0.1338
 6794TIP3    H120346   0.566   6.671   2.792  0.5912 -0.1883 -0.2290
 6794TIP3    H220347   0.586   6.767   2.908  1.1799 -0.6238  0.0365
 6795TIP3   OH220348   5.466   0.863   1.270  0.3504  0.4229  0.3127
 6795TIP3    H120349   5.543   0.833   1.221 -0.6102  0.7832 -1.5332
 6795TIP3    H220350   5.484   0.839   1.361  0.8219 -3.3345 -0.6044
 6796TIP3   OH220351   3.913   4.446   4.573 -0.3903 -0.3670  0.1132
 6796TIP3    H120352   3.827   4.488   4.579 -0.5369 -0.8348  2.0729
 6796TIP3    H220353   3.903   4.380   4.505 -0.7974  1.2463 -1.4822
 6797TIP3   OH220354   5.211   5.906   5.697  0.0063 -0.0397  0.0882
 6797TIP3    H120355   5.192   5.997   5.719  0.8706  0.8323 -2.4510
 6797TIP3    H220356   5.301   5.893   5.726  0.1578  0.1708 -0.2887
 6798TIP3   OH220357   6.168   3.573   5.852  0.2347 -0.1939  0.8473
 6798TIP3    H120358   6.263   3.576   5.852  0.2123  1.8216  1.8220
 6798TIP3    H220359   6.140   3.646   5.797 -0.7557 -0.4215  1.0143
 6799TIP3   OH220360   3.114   1.388   5.790 -0.0965 -0.5150  0.0493
 6799TIP3    H120361   3.121   1.469   5.740  0.7457 -0.7867 -0.3024
 6799TIP3    H220362   3.028   1.353   5.767  0.2659 -0.6354 -1.2435
 6800TIP3   OH220363   3.844   4.770   5.533 -0.0001  0.4833 -0.1176
 6800TIP3    H120364   3.820   4.687   5.492  1.0857  0.5277 -0.8835
 6800TIP3    H220365   3.807   4.765   5.621  0.1730 -0.8694 -0.1102
 6801TIP3   OH220366   5.224   1.729   4.172 -0.1146  0.4487  0.0412
 6801TIP3    H120367   5.265   1.812   4.196  1.9562 -0.3894 -0.4364
 6801TIP3    H220368   5.219   1.680   4.254 -0.7049  0.7563  0.1969
 6802TIP3   OH220369   7.117   5.578   3.481  0.8056 -0.0918  0.1643
 6802TIP3    H120370   7.100   5.518   3.409  2.1584  1.7043 -1.7533
 6802TIP3    H220371   7.156   5.522   3.549 -0.2025 -1.7728 -0.5638
 6803TIP3   OH220372   2.967   5.951   5.277  0.3594  0.4985 -0.0600
 6803TIP3    H120373   2.978   6.042   5.250 -0.4452  0.6468  0.0870
 6803TIP3    H220374   3.017   5.901   5.213 -1.3234  0.8617 -1.7402
 6804TIP3   OH220375   4.296   6.593   2.870 -0.6678  0.0292 -0.4114
 6804TIP3    H120376   4.348   6.653   2.817 -0.7022  0.0392 -0.4332
 6804TIP3    H220377   4.213   6.584   2.824 -0.5436 -0.2864 -0.5779
 6805TIP3   OH220378   4.274   2.603   3.784  0.0123 -0.0658  0.0709
 6805TIP3    H120379   4.202   2.661   3.759 -1.2830 -1.5770  0.1456
 6805TIP3    H220380   4.255   2.578   3.874  0.6727 -0.4278  0.1150
 6806TIP3   OH220381   5.416   4.887   4.270  0.2779  0.2580  0.3169
 6806TIP3    H120382   5.488   4.852   4.217  0.2108  0.4966  0.0650
 6806TIP3    H220383   5.357   4.812   4.282 -0.9734  0.7554 -2.0800
 6807TIP3   OH220384   4.814   6.643   5.261 -0.5482  0.2649  0.5155
 6807TIP3    H120385   4.910   6.643   5.258 -0.5591  1.2778 -1.0803
 6807TIP3    H220386   4.791   6.719   5.314 -0.4801 -0.3930  1.5063
 6808TIP3   OH220387   2.885   1.152   0.769 -0.2818 -0.1747 -0.1143
 6808TIP3    H120388   2.844   1.075   0.808  0.5167 -0.4554  0.2013
 6808TIP3    H220389   2.950   1.179   0.834 -1.5268  1.6471  0.4397
 6809TIP3   OH220390   5.193   5.450   0.948 -0.6713  0.1108  0.4570
 6809TIP3    H120391   5.226   5.531   0.909  2.4311  0.1194  2.7093
 6809TIP3    H220392   5.148   5.479   1.028 -3.1510 -0.1993 -0.7444
 6810TIP3   OH220393   3.032   5.450   3.690 -0.0678 -0.0926 -0.6655
 6810TIP3    H120394   3.019   5.476   3.599  1.6177  2.3144 -0.3245
 6810TIP3    H220395   3.062   5.359   3.684 -1.3922 -0.4745 -2.3699
 6811TIP3   OH220396   4.655   6.210   4.241  0.0890  0.0505 -0.2038
 6811TIP3    H120397   4.638   6.269   4.314  0.3116 -1.9791  1.6155
 6811TIP3    H220398   4.684   6.129   4.283 -1.8732 -1.9475 -2.4184
 6812TIP3   OH220399   0.434   6.109   4.340  0.2831  0.0567 -0.0629
 6812TIP3    H120400   0.502   6.042   4.340 -0.1252 -0.4028  1.8581
 6812TIP3    H220401   0.352   6.061   4.327  0.2070  0.5226 -1.5332
 6813TIP3   OH220402   3.308   5.889   1.703  0.0452  0.4732  0.6555
 6813TIP3    H120403   3.363   5.821   1.743  2.0398  1.1264 -0.8071
 6813TIP3    H220404   3.293   5.952   1.773  0.7773  0.0528  1.2130
 6814TIP3   OH220405   0.893   2.777   0.989 -0.3385 -0.2541 -0.1398
 6814TIP3    H120406   0.852   2.838   1.050 -0.3787 -0.7583  0.3431
 6814TIP3    H220407   0.973   2.748   1.034  0.2697  0.2956 -0.8363
 6815TIP3   OH220408   6.760   1.596   1.784  0.0084  0.3285  1.0805
 6815TIP3    H120409   6.777   1.528   1.719  2.3124  0.8702  1.0066
 6815TIP3    H220410   6.736   1.673   1.733 -1.5644 -0.1338  1.1020
 6816TIP3   OH220411   1.324   3.246   1.731  0.0645  0.1512  1.0263
 6816TIP3    H120412   1.384   3.307   1.688  0.1791 -0.6036  0.0567
 6816TIP3    H220413   1.242   3.254   1.681  0.4996 -1.4514 -0.0237
 6817TIP3   OH220414   2.432   2.203   1.736  0.2447  0.1252  1.2040
 6817TIP3    H120415   2.439   2.172   1.826 -1.7005  1.4175  1.8887
 6817TIP3    H220416   2.436   2.299   1.743  0.2410  0.2478 -0.1135
 6818TIP3   OH220417   2.341   2.323   4.219  0.4436  0.1472  0.3392
 6818TIP3    H120418   2.295   2.248   4.182  1.5939  0.2922 -1.5039
 6818TIP3    H220419   2.304   2.333   4.307 -1.0449 -1.4077 -0.0617
 6819TIP3   OH220420   5.522   2.139   3.753  0.0383  0.1447  0.0865
 6819TIP3    H120421   5.479   2.130   3.838  0.5247 -0.4314  0.2816
 6819TIP3    H220422   5.615   2.142   3.774  0.2289 -1.0794 -0.4889
 6820TIP3   OH220423   6.945   3.829   1.692  0.2366 -0.4582 -0.1524
 6820TIP3    H120424   7.009   3.781   1.745  0.2314 -1.1565 -0.7532
 6820TIP3    H220425   6.890   3.760   1.655 -1.1983  0.1600  0.7633
 6821TIP3   OH220426   4.721   6.132   1.622 -0.4403  0.1509 -0.0972
 6821TIP3    H120427   4.733   6.226   1.635 -1.5748  0.2821  0.0872
 6821TIP3    H220428   4.718   6.121   1.527  3.0829 -0.1845 -0.3079
 6822TIP3   OH220429   6.802   4.283   3.758  0.2946 -0.2474  0.2179
 6822TIP3    H120430   6.809   4.195   3.721  0.7414 -0.3496  0.5434
 6822TIP3    H220431   6.824   4.272   3.850 -0.5283  0.0562  0.4614
 6823TIP3   OH220432   3.066   2.156   4.863 -0.1701  0.5486  0.0999
 6823TIP3    H120433   3.003   2.109   4.807 -1.3188  2.1513 -0.0116
 6823TIP3    H220434   3.032   2.245   4.867  1.5478  1.1958  0.9303
 6824TIP3   OH220435   5.369   4.198   0.758 -0.0189  0.7260  0.3433
 6824TIP3    H120436   5.395   4.231   0.672 -0.3946  0.4963  0.1426
 6824TIP3    H220437   5.451   4.170   0.799  0.1596  0.8393  0.0655
 6825TIP3   OH220438   1.611   4.593   0.326  0.6243  0.8013 -0.0448
 6825TIP3    H120439   1.601   4.619   0.234 -0.0701 -2.1339 -0.9204
 6825TIP3    H220440   1.690   4.539   0.327  1.5564  2.1133  1.4809
 6826TIP3   OH220441   4.110   6.096   5.465 -0.1793  0.7624 -0.0613
 6826TIP3    H120442   4.145   6.039   5.533  2.5725  1.2867 -0.9266
 6826TIP3    H220443   4.051   6.040   5.414  1.1818 -0.8824  0.0950
 6827TIP3   OH220444   6.531   3.645   3.274  0.1253  0.4396  0.4128
 6827TIP3    H120445   6.599   3.697   3.318  0.1276  0.3938  0.4633
 6827TIP3    H220446   6.564   3.634   3.184  0.5882 -0.3027  0.6664
 6828TIP3   OH220447   2.720   4.661   3.845 -0.0687 -0.1062  0.6230
 6828TIP3    H120448   2.629   4.647   3.871  0.7130 -2.1874  2.6661
 6828TIP3    H220449   2.753   4.726   3.907 -0.0826  0.4518  0.0522
 6829TIP3   OH220450   0.703   5.676   1.539 -0.4966 -0.2527  0.0771
 6829TIP3    H120451   0.736   5.766   1.540 -1.8346  0.2768  1.4706
 6829TIP3    H220452   0.608   5.685   1.528 -0.5643 -1.5565 -0.6653
 6830TIP3   OH220453   1.284   1.563   5.122 -0.1482  0.7172 -0.2308
 6830TIP3    H120454   1.340   1.508   5.177  0.6267  2.0239  0.3337
 6830TIP3    H220455   1.279   1.516   5.039  1.8906  0.5785 -0.3303
 6831TIP3   OH220456   6.884   2.823   4.137 -0.0869  0.1285 -0.6600
 6831TIP3    H120457   6.832   2.743   4.146 -2.0980  1.1772 -2.1099
 6831TIP3    H220458   6.829   2.891   4.175  0.9056  1.0713 -0.8727
 6832TIP3   OH220459   0.176   3.138   1.165 -0.3262 -0.4444 -0.0995
 6832TIP3    H120460   0.147   3.070   1.104 -1.0477  0.6610 -1.0276
 6832TIP3    H220461   0.157   3.102   1.252 -1.3899 -1.1281 -0.6018
 6833TIP3   OH220462   7.107   3.588   3.723 -0.5419  0.4303  0.2031
 6833TIP3    H120463   7.083   3.676   3.753  0.3047  0.8046 -0.1754
 6833TIP3    H220464   7.064   3.578   3.638  0.8613  1.2248 -0.6259
 6834TIP3   OH220465   3.935   4.195   3.741  0.2214 -0.5568  0.1873
 6834TIP3    H120466   3.988   4.195   3.821 -0.5166 -0.5089  0.6889
 6834TIP3    H220467   3.940   4.285   3.709  3.5068 -1.3254 -1.8900
 6835TIP3   OH220468   3.371   4.436   0.465  0.1319 -0.1678  0.1266
 6835TIP3    H120469   3.304   4.491   0.505  1.9694  1.8955  0.5520
 6835TIP3    H220470   3.351   4.440   0.371 -0.0392  0.8672  0.1895
 6836TIP3   OH220471   2.928   4.036   3.684 -0.2997 -0.3687  0.0920
 6836TIP3    H120472   2.909   4.129   3.693 -1.3680 -0.5485 -0.2114
 6836TIP3    H220473   3.009   4.023   3.735 -1.2134  0.3515  1.7907
 6837TIP3   OH220474   1.386   0.778   2.994 -0.1074 -0.4512 -0.0370
 6837TIP3    H120475   1.481   0.785   2.987  0.0195 -0.6320  1.3363
 6837TIP3    H220476   1.371   0.708   3.057 -1.1527 -0.3190 -0.1179
 6838TIP3   OH220477   3.502   2.053   0.333 -0.0835 -0.1286  0.6948
 6838TIP3    H120478   3.559   2.012   0.268 -0.5497  0.1228  0.1246
 6838TIP3    H220479   3.513   2.147   0.319 -0.6183 -0.0800  0.6077
 6839TIP3   OH220480   6.666   1.632   3.659 -0.3517 -0.0042  0.0551
 6839TIP3    H120481   6.613   1.711   3.654 -0.3856  0.1258  1.7972
 6839TIP3    H220482   6.741   1.656   3.713 -0.6509 -1.2776  1.1020
 6840TIP3   OH220483   6.240   4.162   2.308 -0.3578 -0.0323  0.0277
 6840TIP3    H120484   6.278   4.074   2.306 -2.1010 -0.8310 -0.8341
 6840TIP3    H220485   6.212   4.174   2.398  1.1661  0.2610  0.4917
 6841TIP3   OH220486   2.469   3.229   3.762 -0.4831 -0.1266  0.2041
 6841TIP3    H120487   2.395   3.175   3.734 -0.2643 -0.0380 -0.5936
 6841TIP3    H220488   2.530   3.225   3.688 -0.7031  1.6613 -0.1456
 6842TIP3   OH220489   6.006   4.019   4.916 -0.0207 -0.1224  0.5358
 6842TIP3    H120490   5.972   4.012   5.005 -0.6126  2.4591  0.5970
 6842TIP3    H220491   5.943   4.076   4.871  0.6208 -0.8309 -1.3404
 6843TIP3   OH220492   0.792   3.781   4.980 -0.0154  0.2470  0.0951
 6843TIP3    H120493   0.812   3.745   5.066  4.2869 -0.3429 -0.9093
 6843TIP3    H220494   0.849   3.857   4.972  0.3494 -0.2055 -2.5197
 6844TIP3   OH220495   2.431   2.228   0.171 -0.3355  0.0695  0.1575
 6844TIP3    H120496   2.456   2.171   0.098 -0.4813 -0.7169  0.7167
 6844TIP3    H220497   2.397   2.169   0.238 -0.9782  0.8528  0.5496
 6845TIP3   OH220498   1.390   6.252   0.291  0.0798  0.4389 -0.1246
 6845TIP3    H120499   1.343   6.205   0.222  0.5164  1.7718 -1.3764
 6845TIP3    H220500   1.473   6.276   0.251 -0.5287  3.1513  0.0715
 6846TIP3   OH220501   2.571   5.437   0.456 -0.4274 -0.1542  0.0048
 6846TIP3    H120502   2.598   5.492   0.530 -0.4295 -0.3896  0.1829
 6846TIP3    H220503   2.644   5.377   0.442  0.4106  1.1419 -1.4467
 6847TIP3   OH220504   0.396   3.047   4.281  0.2650 -0.4416 -0.2721
 6847TIP3    H120505   0.487   3.047   4.250  0.4593  1.0632  0.2224
 6847TIP3    H220506   0.367   2.956   4.270  1.0041 -0.4646 -2.8146
 6848TIP3   OH220507   3.297   1.640   0.123 -0.2394 -0.7622 -0.0617
 6848TIP3    H120508   3.234   1.679   0.185 -0.2666 -1.6712  0.5075
 6848TIP3    H220509   3.325   1.713   0.068 -0.7467 -0.0658  0.5777
 6849TIP3   OH220510   3.863   4.527   2.314  0.4103 -0.7931 -0.0180
 6849TIP3    H120511   3.788   4.523   2.255  1.1501 -1.3041 -0.9425
 6849TIP3    H220512   3.937   4.549   2.258  1.2523 -1.9563  0.5913
 6850TIP3   OH220513   7.138   4.737   4.684  0.5206 -0.2363  0.2263
 6850TIP3    H120514   7.079   4.808   4.658  0.5111 -0.3877 -0.1745
 6850TIP3    H220515   7.153   4.751   4.778  1.7982  1.2185 -0.1622
 6851TIP3   OH220516   2.008   3.041   1.911 -0.0475 -0.2542  0.4612
 6851TIP3    H120517   1.966   3.108   1.965  1.0394  0.4776  0.4266
 6851TIP3    H220518   2.096   3.033   1.946  0.9032  0.7003 -1.5342
 6852TIP3   OH220519   6.927   6.025   3.544 -0.0084 -0.0959  0.0254
 6852TIP3    H120520   6.879   5.943   3.537  0.4030 -0.3326 -0.0886
 6852TIP3    H220521   6.862   6.090   3.571 -0.6173 -0.1826 -1.2074
 6853TIP3   OH220522   0.613   5.860   1.962  0.1939  0.6343 -0.3840
 6853TIP3    H120523   0.639   5.916   2.035  3.5949 -0.9777 -0.1575
 6853TIP3    H220524   0.652   5.901   1.885 -0.0898  0.2824 -0.7228
 6854TIP3   OH220525   3.074   4.913   4.600  0.1256  0.4784 -0.0058
 6854TIP3    H120526   3.141   4.968   4.558  0.8129 -1.4634 -1.6297
 6854TIP3    H220527   3.029   4.870   4.527 -1.1975 -0.2084  1.1623
 6855TIP3   OH220528   7.031   5.808   1.205 -0.4569 -0.0686 -0.1770
 6855TIP3    H120529   6.964   5.763   1.256 -0.6796  1.4280  0.8954
 6855TIP3    H220530   7.021   5.900   1.227  3.4202  0.0725  1.9199
 6856TIP3   OH220531   2.171   0.716   2.396 -0.1917  0.0944  0.5112
 6856TIP3    H120532   2.167   0.802   2.438  0.4596  0.1146  0.5421
 6856TIP3    H220533   2.095   0.669   2.429 -0.7722  0.7947  0.1982
 6857TIP3   OH220534   5.180   1.942   5.319 -0.5246 -0.3126  0.0352
 6857TIP3    H120535   5.134   1.966   5.399 -1.1937 -0.9349 -0.1527
 6857TIP3    H220536   5.117   1.962   5.249  0.8060  2.3065 -0.5713
 6858TIP3   OH220537   5.292   1.424   2.191 -0.2202 -0.6492 -0.3137
 6858TIP3    H120538   5.205   1.463   2.196 -0.3285 -0.9867  0.8907
 6858TIP3    H220539   5.284   1.355   2.125 -0.6366 -0.1525 -0.7912
 6859TIP3   OH220540   5.538   1.731   4.089 -0.4479 -0.7679  0.0135
 6859TIP3    H120541   5.500   1.660   4.036 -0.8742 -0.3588 -0.2375
 6859TIP3    H220542   5.464   1.789   4.108  0.2545  0.7502 -1.5891
 6860TIP3   OH220543   2.970   1.734   0.509  0.2369  0.3972  0.4566
 6860TIP3    H120544   2.889   1.783   0.497 -1.6070 -2.0409  2.1724
 6860TIP3    H220545   2.983   1.730   0.603  1.5703 -0.5125  0.2699
 6861TIP3   OH220546   4.135   6.334   0.094 -0.6006  0.2931  0.5973
 6861TIP3    H120547   4.049   6.356   0.058 -0.5546 -0.0738  0.2493
 6861TIP3    H220548   4.197   6.358   0.025 -0.4665  0.0815  0.6429
 6862TIP3   OH220549   6.594   0.852   4.551  0.2484 -0.1088 -0.0875
 6862TIP3    H120550   6.570   0.852   4.643  0.0282  1.6299 -0.1283
 6862TIP3    H220551   6.539   0.784   4.512 -1.9728  1.2543  0.5031
 6863TIP3   OH220552   6.762   5.641   1.013 -0.4007  0.0075  0.2685
 6863TIP3    H120553   6.811   5.596   1.082 -0.3333  1.7640  1.4428
 6863TIP3    H220554   6.808   5.619   0.932  0.2733 -1.1085  0.9295
 6864TIP3   OH220555   2.125   6.283   3.477  0.1238 -0.3056  0.4077
 6864TIP3    H120556   2.140   6.323   3.392  1.1913  0.0156  0.7332
 6864TIP3    H220557   2.069   6.207   3.458 -0.9733  0.6472 -0.3588
 6865TIP3   OH220558   4.228   0.373   0.045  0.1778  0.3917  0.0073
 6865TIP3    H120559   4.210   0.447   0.104  3.8632  1.1843  0.4125
 6865TIP3    H220560   4.259   0.414  -0.036  0.2528 -0.7260 -0.5475
 6866TIP3   OH220561   5.898   4.391   3.130 -0.2392 -0.4915  0.4542
 6866TIP3    H120562   5.952   4.430   3.199 -0.5658 -0.2403  0.5661
 6866TIP3    H220563   5.921   4.298   3.132  0.7605 -0.2695 -0.0178
 6867TIP3   OH220564   5.430   0.278   3.846 -1.0807  0.4847 -0.0682
 6867TIP3    H120565   5.400   0.281   3.937 -1.8743  1.1580 -0.3392
 6867TIP3    H220566   5.383   0.350   3.803 -0.7811  0.1180 -1.0287
 6868TIP3   OH220567   5.760   1.106   3.400 -0.4802 -0.2271  0.2534
 6868TIP3    H120568   5.687   1.045   3.404 -1.1636  0.6414  1.5470
 6868TIP3    H220569   5.720   1.193   3.401  0.5427  0.2642  0.3596
 6869TIP3   OH220570   3.696   5.197   0.984  0.2993  0.1990  0.3406
 6869TIP3    H120571   3.638   5.249   1.040 -0.7145 -2.0059  1.4732
 6869TIP3    H220572   3.655   5.198   0.898  1.0283  2.3349 -0.0237
 6870TIP3   OH220573   3.689   2.896   2.926 -0.3707  0.0507  0.0354
 6870TIP3    H120574   3.736   2.889   3.009  0.6163  0.1044 -0.5053
 6870TIP3    H220575   3.596   2.898   2.951 -0.0785  0.4193  1.1582
 6871TIP3   OH220576   0.172   3.788   2.161  0.4975 -0.2503 -0.1818
 6871TIP3    H120577   0.229   3.848   2.113  0.6039  0.4735  0.8118
 6871TIP3    H220578   0.159   3.714   2.102  0.9015  0.4547 -1.1737
 6872TIP3   OH220579   5.194   4.780   5.203 -0.0924  0.2483  0.3547
 6872TIP3    H120580   5.169   4.871   5.185 -0.6276  0.1707  0.6685
 6872TIP3    H220581   5.162   4.764   5.292  0.3473 -0.1268  0.4503
 6873TIP3   OH220582   1.723   4.320   5.722  0.9650 -0.3768  0.1569
 6873TIP3    H120583   1.726   4.311   5.817  0.7984  2.0144  0.4588
 6873TIP3    H220584   1.799   4.373   5.701  0.0714  0.5535 -0.8191
 6874TIP3   OH220585   3.528   4.882   0.058  0.7236 -0.0875 -0.0462
 6874TIP3    H120586   3.517   4.843   0.144 -0.8765 -0.4655 -0.3846
 6874TIP3    H220587   3.622   4.878   0.041  0.7040 -3.5519  0.0469
 6875TIP3   OH220588   3.635   4.107   1.230 -0.3860 -0.3896  0.4194
 6875TIP3    H120589   3.635   4.103   1.325 -0.6557  0.3066  0.4539
 6875TIP3    H220590   3.563   4.049   1.204 -0.5943 -0.2384  0.6583
 6876TIP3   OH220591   5.983   0.411   2.073 -0.1329 -0.7490  0.1201
 6876TIP3    H120592   5.986   0.498   2.033 -3.6461 -0.2296  0.6624
 6876TIP3    H220593   6.026   0.423   2.158  0.1306  0.2348 -0.1306
 6877TIP3   OH220594   4.043   2.563   5.421 -0.3539  0.1009 -0.3330
 6877TIP3    H120595   4.107   2.631   5.401  0.3731 -0.9416 -1.7275
 6877TIP3    H220596   4.081   2.483   5.384 -0.7424 -1.2604  2.0052
 6878TIP3   OH220597   6.079   6.598   4.192 -0.2744  0.3989 -0.7639
 6878TIP3    H120598   6.072   6.643   4.276  1.0151  1.1503 -1.0454
 6878TIP3    H220599   6.042   6.511   4.209  1.8758 -0.2354  1.1724
 6879TIP3   OH220600   3.000   3.345   2.416  0.0865  0.1068  0.4264
 6879TIP3    H120601   2.970   3.410   2.479  0.5664  1.7514 -0.9726
 6879TIP3    H220602   3.044   3.395   2.348  2.3149 -1.8533  0.2819
 6880TIP3   OH220603   4.062   0.204   4.794 -0.2070 -0.3583 -0.0071
 6880TIP3    H120604   4.133   0.267   4.777  0.0043 -0.8247 -0.8967
 6880TIP3    H220605   4.039   0.219   4.886  0.4260  0.4231  0.0404
 6881TIP3   OH220606   4.135   3.474   2.245 -0.1302 -0.6497  0.2316
 6881TIP3    H120607   4.179   3.559   2.247  1.1102 -1.2656 -0.2187
 6881TIP3    H220608   4.187   3.421   2.185 -1.0126 -1.6700  0.3387
 6882TIP3   OH220609   5.812   1.578   3.277 -0.2923  0.0286 -0.0588
 6882TIP3    H120610   5.733   1.631   3.279  0.4345  1.1355  0.2452
 6882TIP3    H220611   5.846   1.589   3.188  0.5253  1.0993  0.3740
 6883TIP3   OH220612   6.716   3.812   1.231  0.6286 -0.3515 -0.2620
 6883TIP3    H120613   6.755   3.899   1.238 -0.8447  0.3545 -0.3552
 6883TIP3    H220614   6.701   3.799   1.138 -0.5601 -0.0297 -0.1298
 6884TIP3   OH220615   0.415   6.384   3.448  0.0439  0.3686 -0.1110
 6884TIP3    H120616   0.456   6.342   3.372 -3.5845 -0.2372 -1.9659
 6884TIP3    H220617   0.420   6.319   3.517  2.5558  0.5492 -0.0352
 6885TIP3   OH220618   6.822   3.009   2.116 -0.0288  0.2905  0.8247
 6885TIP3    H120619   6.773   2.976   2.191  0.6871 -0.4949  0.9569
 6885TIP3    H220620   6.896   3.056   2.154  0.0496  0.3406  0.6151
 6886TIP3   OH220621   3.574   4.191   4.967  0.4897  0.1074  0.2488
 6886TIP3    H120622   3.548   4.102   4.941  1.3011  0.0436 -0.4089
 6886TIP3    H220623   3.637   4.177   5.038 -0.0943  0.1991  0.7908
 6887TIP3   OH220624   4.817   3.066   5.485  0.1409 -0.4052  0.2186
 6887TIP3    H120625   4.754   3.104   5.424  0.4907 -0.7824 -0.3873
 6887TIP3    H220626   4.764   3.035   5.559 -0.2410  0.4278  0.2993
 6888TIP3   OH220627   3.171   5.254   1.591 -0.3699 -0.1684 -0.2709
 6888TIP3    H120628   3.233   5.307   1.541  0.6090 -0.8147  0.2284
 6888TIP3    H220629   3.085   5.286   1.564  0.1287  3.3018  1.6632
 6889TIP3   OH220630   0.672   4.599   5.512 -0.4923  0.2790 -0.3041
 6889TIP3    H120631   0.641   4.633   5.596  0.0095 -0.7418  0.3091
 6889TIP3    H220632   0.764   4.577   5.527  0.1462  1.8012 -1.6598
 6890TIP3   OH220633   3.325   4.785   2.929 -0.4342  0.1188 -0.0000
 6890TIP3    H120634   3.287   4.733   3.000  0.6047 -0.4190  0.1840
 6890TIP3    H220635   3.407   4.819   2.965  0.5368 -0.8691 -1.1973
 6891TIP3   OH220636   4.398   5.745   3.002 -0.3038  0.5869 -0.3815
 6891TIP3    H120637   4.450   5.673   3.038 -0.2304  0.8929  0.1391
 6891TIP3    H220638   4.460   5.798   2.953  0.0427  1.3331  0.8081
 6892TIP3   OH220639   3.193   4.644   0.574 -0.7334 -0.0795  0.6349
 6892TIP3    H120640   3.251   4.715   0.546  0.8106 -1.9319 -1.1436
 6892TIP3    H220641   3.187   4.654   0.669  1.1391  1.1868  0.6640
 6893TIP3   OH220642   2.281   5.110   1.639  0.0398 -0.1886 -0.2657
 6893TIP3    H120643   2.327   5.039   1.594  0.3018 -0.6610  0.7200
 6893TIP3    H220644   2.332   5.124   1.719  0.3831  1.5742 -0.7524
 6894TIP3   OH220645   6.705   3.836   3.873 -0.3500 -0.6630  0.6706
 6894TIP3    H120646   6.724   3.757   3.823  2.1237  0.4994 -0.3737
 6894TIP3    H220647   6.776   3.841   3.938  0.8520  1.7836 -0.7072
 6895TIP3   OH220648   1.084   6.552   2.088  0.5739  0.6386  0.1046
 6895TIP3    H120649   1.171   6.569   2.125  0.3734  0.2122  0.7860
 6895TIP3    H220650   1.083   6.458   2.072 -0.9672 -0.0646  3.3853
 6896TIP3   OH220651   1.437   2.424   0.235 -0.0592 -0.4168 -0.3493
 6896TIP3    H120652   1.488   2.362   0.286 -0.6498  0.4797  1.3982
 6896TIP3    H220653   1.356   2.377   0.214  0.4155 -0.9753 -0.9741
 6897TIP3   OH220654   3.976   1.363   1.709 -0.0747  0.4028 -0.0931
 6897TIP3    H120655   3.927   1.284   1.687  0.5931  0.3790 -1.5980
 6897TIP3    H220656   3.982   1.411   1.627  3.0220  0.0530 -0.1978
 6898TIP3   OH220657   5.891   3.561   5.209 -0.5724 -0.2392  0.3707
 6898TIP3    H120658   5.855   3.515   5.285 -3.8320  1.7337  0.1802
 6898TIP3    H220659   5.984   3.539   5.210 -1.0532 -2.7135  3.1328
 6899TIP3   OH220660   5.145   2.603   5.065 -0.5580  0.6971 -0.0783
 6899TIP3    H120661   5.222   2.547   5.077 -0.2414  0.8552 -1.2599
 6899TIP3    H220662   5.180   2.685   5.030 -1.1128  1.3297  0.8139
 6900TIP3   OH220663   6.021   2.365   4.767 -0.4536 -0.0851 -0.0262
 6900TIP3    H120664   6.105   2.326   4.743 -0.1591  1.1148 -1.0313
 6900TIP3    H220665   6.044   2.444   4.815 -1.0351 -0.4785  0.9332
 6901TIP3   OH220666   2.555   3.881   0.254  0.7041  0.0247  0.0342
 6901TIP3    H120667   2.640   3.872   0.296  0.4653  0.2754  0.5805
 6901TIP3    H220668   2.558   3.967   0.211  1.2334 -0.5578 -1.1419
 6902TIP3   OH220669   0.991   2.055   5.151 -0.0292 -0.3215  0.2420
 6902TIP3    H120670   0.937   1.987   5.110  0.2127 -0.8420  0.7708
 6902TIP3    H220671   0.950   2.137   5.125 -0.1419 -0.6510 -0.6783
 6903TIP3   OH220672   2.887   4.381   0.160  0.2902  0.2940  0.2845
 6903TIP3    H120673   2.832   4.336   0.096 -0.9880  0.2344  1.4096
 6903TIP3    H220674   2.906   4.316   0.227 -1.0382  1.2058  1.5946
 6904TIP3   OH220675   0.399   5.307   3.402  0.3770 -0.2475 -0.3549
 6904TIP3    H120676   0.428   5.398   3.409  0.9925 -0.5556  1.6565
 6904TIP3    H220677   0.479   5.255   3.413 -0.2185 -1.0405  0.4066
 6905TIP3   OH220678   6.902   0.807   0.756 -0.2169  0.4281 -0.0700
 6905TIP3    H120679   6.852   0.743   0.706 -0.1419  1.0288 -0.9460
 6905TIP3    H220680   6.890   0.782   0.847  0.6592 -1.4617 -0.4227
 6906TIP3   OH220681   6.368   2.685   5.571 -0.1404  0.0233  0.5084
 6906TIP3    H120682   6.458   2.715   5.583 -0.2908  0.7542 -0.0902
 6906TIP3    H220683   6.375   2.590   5.568  0.2331 -0.1533  3.5217
 6907TIP3   OH220684   4.576   5.335   4.824 -0.3931 -0.1754  0.0724
 6907TIP3    H120685   4.591   5.425   4.856 -2.5248 -0.0346  0.8231
 6907TIP3    H220686   4.589   5.280   4.901 -1.2443 -0.2743  0.1551
 6908TIP3   OH220687   1.151   0.700   5.018  0.1520  0.1284 -0.3570
 6908TIP3    H120688   1.156   0.623   4.962 -2.7179 -1.3308  1.2060
 6908TIP3    H220689   1.134   0.772   4.957 -1.1804 -1.1409 -1.5715
 6909TIP3   OH220690   1.629   4.934   4.409 -0.3602 -0.1449  0.3272
 6909TIP3    H120691   1.673   4.988   4.474 -2.3741  2.1404 -0.0721
 6909TIP3    H220692   1.693   4.926   4.338  1.0910 -0.9417  1.6454
 6910TIP3   OH220693   2.792   5.762   0.949 -0.0874 -0.2169 -0.4929
 6910TIP3    H120694   2.825   5.812   0.874  0.8019 -0.7864 -0.4950
 6910TIP3    H220695   2.829   5.675   0.939 -1.4627 -0.8466 -0.3725
 6911TIP3   OH220696   2.797   3.622   5.520 -0.7100 -0.9858  0.2801
 6911TIP3    H120697   2.796   3.543   5.573  1.7303 -1.3800 -0.1742
 6911TIP3    H220698   2.712   3.664   5.538 -0.9281 -2.2923  2.6093
 6912TIP3   OH220699   3.231   2.937   0.538  0.5805 -0.0009  0.1811
 6912TIP3    H120700   3.178   2.882   0.595  0.1357 -0.8240 -0.9767
 6912TIP3    H220701   3.300   2.972   0.594 -0.1149 -0.4042  1.3011
 6913TIP3   OH220702   1.240   5.762   5.704 -0.5232 -0.0722  0.3826
 6913TIP3    H120703   1.191   5.834   5.743 -1.0330 -1.1342  1.7514
 6913TIP3    H220704   1.188   5.684   5.724  0.7803 -1.0015  0.2311
 6914TIP3   OH220705   3.609   2.269   4.780  0.1922 -0.0895  0.2042
 6914TIP3    H120706   3.615   2.219   4.862  1.5386  2.0232  1.4970
 6914TIP3    H220707   3.528   2.318   4.787 -0.6827 -1.3426 -0.6701
 6915TIP3   OH220708   2.939   3.611   1.855  0.1861  0.2319 -0.6343
 6915TIP3    H120709   2.859   3.651   1.821  0.4609  1.7441  0.4070
 6915TIP3    H220710   2.914   3.576   1.941  0.2126 -0.9666 -1.0877
 6916TIP3   OH220711   3.968   0.286   1.582  0.0681 -0.7277  0.2389
 6916TIP3    H120712   3.992   0.337   1.505 -2.8356  0.1423 -0.2119
 6916TIP3    H220713   3.960   0.351   1.652  0.3659 -1.1637  0.6819
 6917TIP3   OH220714   3.144   2.901   5.704 -0.0754 -0.3833 -0.2432
 6917TIP3    H120715   3.209   2.915   5.634  0.5830  0.1665  0.4546
 6917TIP3    H220716   3.060   2.904   5.659  0.3288  0.0737 -1.0028
 6918TIP3   OH220717   0.543   4.101   2.326  0.5541 -0.3411 -0.2709
 6918TIP3    H120718   0.504   4.018   2.297 -0.4092  0.2581 -0.7365
 6918TIP3    H220719   0.505   4.167   2.268  1.0329  0.4728  0.3240
 6919TIP3   OH220720   0.089   0.165   5.506  0.2462  0.6194  0.3595
 6919TIP3    H120721   0.161   0.104   5.521 -0.1739 -0.0452 -0.2567
 6919TIP3    H220722   0.075   0.163   5.411  0.2565  1.7128  0.3216
 6920TIP3   OH220723   0.086   1.204   2.352 -0.0269  0.0661  0.2406
 6920TIP3    H120724   0.144   1.132   2.330  1.3970  1.6059 -1.4067
 6920TIP3    H220725   0.058   1.186   2.442  3.2419 -0.6662  1.2684
 6921TIP3   OH220726   1.787   6.262   1.259  0.0404  0.9998 -0.0364
 6921TIP3    H120727   1.842   6.339   1.248  0.0659  0.7689 -1.7300
 6921TIP3    H220728   1.700   6.291   1.233 -0.6452  1.2700  2.3000
 6922TIP3   OH220729   6.938   2.491   2.487  0.3096 -0.1247 -0.3759
 6922TIP3    H120730   6.855   2.522   2.450  0.2857  0.0198 -0.2055
 6922TIP3    H220731   6.915   2.407   2.529 -0.0490  0.5549  0.8337
 6923TIP3   OH220732   5.607   1.157   5.317  0.2055 -0.5557  0.8115
 6923TIP3    H120733   5.530   1.105   5.339 -0.1303  0.2384  1.5531
 6923TIP3    H220734   5.637   1.120   5.233 -0.2671 -1.6461  1.1004
 6924TIP3   OH220735   5.602   5.264   4.100  0.7693  0.3128  0.0557
 6924TIP3    H120736   5.641   5.197   4.044  1.3942  0.3374  0.4451
 6924TIP3    H220737   5.599   5.225   4.187 -0.8828  0.0032 -0.1054
 6925TIP3   OH220738   5.660   3.672   3.009 -0.1974  0.2276 -0.6513
 6925TIP3    H120739   5.668   3.749   2.952 -0.7551 -0.0052 -1.0529
 6925TIP3    H220740   5.714   3.606   2.966  0.5016  0.4730 -0.1597
 6926TIP3   OH220741   5.281   0.728   0.771  0.1587 -0.0139  0.4066
 6926TIP3    H120742   5.289   0.675   0.850  1.1200 -1.2822 -0.5154
 6926TIP3    H220743   5.223   0.678   0.713 -0.8397  1.0772  0.4064
 6927TIP3   OH220744   6.476   2.990   5.810 -0.0967  0.2320  0.0826
 6927TIP3    H120745   6.496   3.079   5.781  1.5196 -0.0799  0.1636
 6927TIP3    H220746   6.559   2.943   5.803 -0.5328 -0.8373  1.6265
 6928TIP3   OH220747   4.506   5.340   2.239 -0.1904  0.1060 -0.1397
 6928TIP3    H120748   4.563   5.291   2.179 -0.1066  0.4107 -0.3126
 6928TIP3    H220749   4.429   5.284   2.250  0.4460 -0.6424  0.6702
 6929TIP3   OH220750   0.393   3.830   4.549  0.5374 -0.4146 -0.2535
 6929TIP3    H120751   0.407   3.811   4.642  0.9683 -1.0515 -0.4395
 6929TIP3    H220752   0.326   3.768   4.521 -2.3466  2.1354  0.4555
 6930TIP3   OH220753   0.746   6.627   0.216 -0.2734 -0.2937  0.8722
 6930TIP3    H120754   0.690   6.603   0.289 -2.0167  0.6775 -0.0947
 6930TIP3    H220755   0.690   6.676   0.157  0.8874 -1.5822 -1.4580
 6931TIP3   OH220756   1.118   3.891   3.857  0.2403  0.6804  0.1786
 6931TIP3    H120757   1.199   3.864   3.899 -1.2407 -1.3250  1.9647
 6931TIP3    H220758   1.093   3.971   3.903  0.4116  0.4271  0.7226
 6932TIP3   OH220759   6.710   3.864   0.256  0.6085  0.1878 -0.2741
 6932TIP3    H120760   6.626   3.906   0.272  0.2808 -0.4520 -0.3009
 6932TIP3    H220761   6.771   3.909   0.315  0.0981  0.1267  0.3049
 6933TIP3   OH220762   0.367   6.122   0.002  0.1774 -0.4389  0.6062
 6933TIP3    H120763   0.350   6.119   0.096  2.3757 -5.2762  1.1178
 6933TIP3    H220764   0.298   6.068  -0.036  0.1871  0.2463 -0.4082
 6934TIP3   OH220765   2.398   5.724   1.539 -0.2494  0.1237  0.3586
 6934TIP3    H120766   2.491   5.709   1.557 -0.4587  0.8791  2.4355
 6934TIP3    H220767   2.387   5.819   1.547 -0.9637  0.2135 -1.3260
 6935TIP3   OH220768   0.702   4.974   5.174  0.2867  0.1076  0.0740
 6935TIP3    H120769   0.762   4.945   5.242 -0.5140 -2.1859 -0.0949
 6935TIP3    H220770   0.635   5.024   5.220  2.1017  2.4587  0.2942
 6936TIP3   OH220771   3.772   0.064   0.827 -0.3622  0.1195 -0.4254
 6936TIP3    H120772   3.842  -0.000   0.836 -1.2995 -0.7194  1.6304
 6936TIP3    H220773   3.720   0.055   0.907 -1.4246  2.4004 -0.7516
 6937TIP3   OH220774   0.589   4.070   5.588  0.0824 -0.2480  0.3096
 6937TIP3    H120775   0.623   4.130   5.654  0.0622 -1.0964  1.1108
 6937TIP3    H220776   0.646   4.083   5.512  2.5912 -1.9339  1.7436
 6938TIP3   OH220777   0.018   0.087   4.354  0.3677  0.3111  0.0022
 6938TIP3    H120778  -0.014   0.071   4.443  0.9672 -0.3381  0.1060
 6938TIP3    H220779  -0.001   0.006   4.307 -0.2161  0.7554 -0.5489
 6939TIP3   OH220780   5.581   5.699   3.246  0.1118 -0.0046  0.3233
 6939TIP3    H120781   5.551   5.706   3.336 -0.6131 -2.1846  0.3034
 6939TIP3    H220782   5.649   5.631   3.248  0.5962  0.4193 -0.6725
 6940TIP3   OH220783   1.633   5.609   4.123  0.5796 -0.0085  0.1719
 6940TIP3    H120784   1.583   5.530   4.104  0.1586  0.6022 -1.4677
 6940TIP3    H220785   1.721   5.590   4.090  0.2304  0.5223 -1.1227
 6941TIP3   OH220786   5.297   3.773   3.759 -0.2502  0.1949  0.6287
 6941TIP3    H120787   5.326   3.683   3.746 -1.1408 -0.0793  0.4404
 6941TIP3    H220788   5.280   3.807   3.671  1.7945  1.1673  0.5610
 6942TIP3   OH220789   4.869   2.820   4.411 -0.0477  0.0881 -0.4886
 6942TIP3    H120790   4.935   2.853   4.350  0.8051 -0.3713  0.1743
 6942TIP3    H220791   4.887   2.867   4.493  0.2062 -0.8924  0.0256
 6943TIP3   OH220792   6.973   5.338   0.910 -0.1925  0.8608  0.1769
 6943TIP3    H120793   6.930   5.374   0.832 -1.0616 -2.2102 -0.9162
 6943TIP3    H220794   7.042   5.282   0.875  0.5940  0.8410  1.6994
 6944TIP3   OH220795   6.408   1.224   1.067 -0.1737  0.0036 -0.2864
 6944TIP3    H120796   6.331   1.184   1.026  0.8025 -1.9791 -0.2816
 6944TIP3    H220797   6.481   1.168   1.041  1.2355  1.6048  0.0398
 6945TIP3   OH220798   2.036   2.648   0.454 -0.0203 -0.0485 -0.3556
 6945TIP3    H120799   2.124   2.675   0.430  0.4010 -0.4374  0.7031
 6945TIP3    H220800   2.021   2.568   0.404  1.2626 -1.4544  1.3910
 6946TIP3   OH220801   0.066   0.057   0.318 -0.3033  0.1003 -0.0460
 6946TIP3    H120802   0.027   0.141   0.295  0.0668  0.0575 -0.8383
 6946TIP3    H220803   0.160   0.074   0.322 -0.3634  0.2348  1.9810
 6947TIP3   OH220804   1.134   2.487   5.697  0.3987  0.1521 -0.6743
 6947TIP3    H120805   1.055   2.495   5.750  2.0185 -0.0301  1.9355
 6947TIP3    H220806   1.139   2.394   5.674  1.6237 -0.6363  2.2964
 6948TIP3   OH220807   2.558   3.763   2.452 -0.2961 -0.5856 -0.3086
 6948TIP3    H120808   2.496   3.761   2.526  0.6715  0.8005  0.5927
 6948TIP3    H220809   2.539   3.845   2.406  1.5148  0.4390  0.6325
 6949TIP3   OH220810   1.112   3.121   3.714  0.1189  0.0301  0.6983
 6949TIP3    H120811   1.103   3.038   3.761  0.4528 -0.0716  0.5854
 6949TIP3    H220812   1.085   3.188   3.777  1.2010 -0.0416  1.2704
 6950TIP3   OH220813   4.740   2.377   3.381 -0.1099  0.4564 -0.0273
 6950TIP3    H120814   4.682   2.305   3.357  1.6989 -1.1303  0.1554
 6950TIP3    H220815   4.720   2.396   3.472 -0.6485  0.2324 -0.0984
 6951TIP3   OH220816   1.639   1.691   5.394  0.3849  0.1775 -1.0140
 6951TIP3    H120817   1.544   1.703   5.396  0.3971  0.2825  0.1577
 6951TIP3    H220818   1.664   1.689   5.487  1.4354 -0.6214 -1.2997
 6952TIP3   OH220819   4.221   0.431   1.934 -0.1214  0.5220  0.3979
 6952TIP3    H120820   4.189   0.438   1.843 -0.6405 -3.4551  0.1015
 6952TIP3    H220821   4.153   0.472   1.986 -2.3173 -1.4100 -0.7644
 6953TIP3   OH220822   3.479   4.166   3.755  0.3204 -0.1344  0.2755
 6953TIP3    H120823   3.538   4.127   3.691 -0.5799 -2.2587  0.6601
 6953TIP3    H220824   3.537   4.209   3.818  1.5769 -2.5431  0.8975
 6954TIP3   OH220825   5.623   4.123   1.695  0.0085 -0.4840 -0.8758
 6954TIP3    H120826   5.552   4.059   1.699  0.2989 -0.8865 -1.8465
 6954TIP3    H220827   5.681   4.089   1.627  1.6809 -0.7170  0.6123
 6955TIP3   OH220828   5.695   1.403   0.052 -0.0103 -0.1092  0.0062
 6955TIP3    H120829   5.687   1.493   0.021 -1.3506 -0.7670 -1.7579
 6955TIP3    H220830   5.749   1.360  -0.014 -1.3477 -1.1104 -0.5036
 6956TIP3   OH220831   4.683   0.626   1.416 -0.6229  0.4735 -0.0546
 6956TIP3    H120832   4.716   0.710   1.386 -0.8439  0.2288 -1.0286
 6956TIP3    H220833   4.595   0.621   1.379 -1.0471  0.3057  0.9482
 6957TIP3   OH220834   0.969   3.491   4.271 -0.1600 -0.6068  0.4429
 6957TIP3    H120835   1.019   3.556   4.320  1.2929 -1.1808 -0.2101
 6957TIP3    H220836   0.897   3.540   4.233 -0.4371  0.1440  1.8750
 6958TIP3   OH220837   2.443   0.898   3.619 -0.1085 -0.1126 -0.4232
 6958TIP3    H120838   2.494   0.895   3.700  1.4681  1.8923 -1.2424
 6958TIP3    H220839   2.383   0.971   3.631 -2.5012 -2.0840  0.2884
 6959TIP3   OH220840   5.191   4.138   3.383 -0.2666  0.2898  0.1554
 6959TIP3    H120841   5.184   4.122   3.289  1.9691  0.8211 -0.1512
 6959TIP3    H220842   5.266   4.196   3.392 -0.9145  0.8807  2.2275
 6960TIP3   OH220843   2.481   0.703   5.450 -0.2843 -0.3541 -0.1269
 6960TIP3    H120844   2.496   0.787   5.406  0.2707 -0.3050  0.1467
 6960TIP3    H220845   2.499   0.638   5.383  1.1742 -0.2942  0.1744
 6961TIP3   OH220846   2.891   3.616   0.907 -0.5059 -0.6990  0.1170
 6961TIP3    H120847   2.935   3.531   0.914 -1.0943 -0.9077  2.0295
 6961TIP3    H220848   2.798   3.596   0.915 -0.8625 -0.0802 -2.0159
 6962TIP3   OH220849   3.112   6.063   5.796  0.0685  0.9827 -0.7390
 6962TIP3    H120850   3.173   6.021   5.856 -1.2024 -1.3592 -0.9828
 6962TIP3    H220851   3.039   6.091   5.852  0.1933  1.4672 -0.8090
 6963TIP3   OH220852   2.560   6.540   1.196 -0.0385 -0.1171 -0.0561
 6963TIP3    H120853   2.625   6.564   1.261  0.9006 -0.8483 -0.6872
 6963TIP3    H220854   2.525   6.624   1.165 -0.6420  0.2327  1.4904
 6964TIP3   OH220855   0.707   1.338   0.812 -0.3377  0.1171  0.2905
 6964TIP3    H120856   0.795   1.341   0.850 -0.0573 -0.1173 -0.3388
 6964TIP3    H220857   0.716   1.382   0.728 -0.2574 -2.0540 -0.9056
 6965TIP3   OH220858   0.182   2.895   1.614  0.2649  0.0501  0.5162
 6965TIP3    H120859   0.154   2.960   1.549  0.0966  1.4193  1.8899
 6965TIP3    H220860   0.263   2.860   1.580 -1.5585 -1.9306 -2.1860
 6966TIP3   OH220861   3.945   1.388   4.700  0.5022 -0.1076  0.2097
 6966TIP3    H120862   3.998   1.443   4.641  0.9207  1.3510  1.8611
 6966TIP3    H220863   3.883   1.450   4.740  0.9659 -0.8155  2.1173
 6967TIP3   OH220864   4.306   0.346   4.781  0.3427 -0.4583 -0.1389
 6967TIP3    H120865   4.260   0.421   4.743 -3.5921 -2.8899 -0.7424
 6967TIP3    H220866   4.367   0.318   4.713 -0.9160 -0.0485 -1.4930
 6968TIP3   OH220867   5.856   0.529   1.740  0.3238 -0.3959  0.1760
 6968TIP3    H120868   5.909   0.460   1.700  0.8881  0.3688 -0.4451
 6968TIP3    H220869   5.769   0.517   1.704  0.2624 -1.1668  0.5653
 6969TIP3   OH220870   2.751   5.824   5.707  0.4751  0.5589  0.7049
 6969TIP3    H120871   2.754   5.730   5.687 -0.1740  0.7892 -0.5480
 6969TIP3    H220872   2.787   5.866   5.629 -0.3959  1.4102  0.7447
 6970TIP3   OH220873   4.395   4.483   5.038 -0.3382  0.2684 -0.0341
 6970TIP3    H120874   4.312   4.492   4.990 -0.1360 -0.2664 -0.5033
 6970TIP3    H220875   4.415   4.571   5.068 -1.2365  0.3483  0.3540
 6971TIP3   OH220876   0.504   4.346  -0.021  0.0233  0.1116  0.2268
 6971TIP3    H120877   0.576   4.329   0.040 -0.4099  0.8405  0.9571
 6971TIP3    H220878   0.427   4.307   0.021 -0.6033  2.0566  0.9844
 6972TIP3   OH220879   6.956   4.170   5.821 -0.6395 -0.3536  0.1889
 6972TIP3    H120880   6.950   4.251   5.770  1.5819  1.0298  1.9080
 6972TIP3    H220881   7.027   4.121   5.780 -0.6687 -0.5154  0.3304
 6973TIP3   OH220882   1.215   6.164   1.840 -0.1227 -0.3024  0.0400
 6973TIP3    H120883   1.297   6.125   1.810 -0.5932 -0.2036 -1.4734
 6973TIP3    H220884   1.233   6.258   1.844  0.3535 -0.4293  1.5155
 6974TIP3   OH220885   1.340   1.945   0.704  0.2854  0.8034  0.3556
 6974TIP3    H120886   1.361   2.016   0.765  0.4191  1.3348 -0.2953
 6974TIP3    H220887   1.257   1.971   0.664  0.7220  0.9910 -0.4569
 6975TIP3   OH220888   3.490   6.572   5.013 -0.2572  0.5985 -0.0532
 6975TIP3    H120889   3.412   6.617   4.980 -1.8075 -0.6970  1.6281
 6975TIP3    H220890   3.460   6.527   5.092  2.3182  0.3800  0.9011
 6976TIP3   OH220891   3.147   1.874   0.712 -0.3306 -0.7264 -0.0707
 6976TIP3    H120892   3.221   1.924   0.676 -1.5018 -0.4476 -2.3051
 6976TIP3    H220893   3.185   1.791   0.740  1.0081 -0.1250 -0.0417
 6977TIP3   OH220894   3.342   2.450   0.124 -0.5848  0.3377 -0.0004
 6977TIP3    H120895   3.373   2.530   0.081  1.3114 -0.6600 -0.5795
 6977TIP3    H220896   3.255   2.436   0.088 -0.9154  2.0792  0.0457
 6978TIP3   OH220897   5.653   4.285   3.024  0.3152  0.8658  0.2368
 6978TIP3    H120898   5.727   4.285   3.084  1.0248  1.4531 -0.6029
 6978TIP3    H220899   5.678   4.347   2.955 -0.3424  0.0140 -0.8132
 6979TIP3   OH220900   4.858   1.986   3.809 -0.4561 -0.8101 -0.1391
 6979TIP3    H120901   4.777   1.971   3.858  0.6906  2.1900  3.0520
 6979TIP3    H220902   4.833   2.047   3.739 -1.1240 -0.7051  0.1834
 6980TIP3   OH220903   1.033   2.012   4.313  0.3531 -0.3057  0.0525
 6980TIP3    H120904   0.962   2.058   4.359 -0.2662  1.8436 -2.8169
 6980TIP3    H220905   1.001   1.922   4.306 -1.4242  0.2675  0.1720
 6981TIP3   OH220906   4.293   2.745   3.224 -0.2104  0.6260  0.3774
 6981TIP3    H120907   4.299   2.823   3.280 -1.0390  1.6868 -0.9378
 6981TIP3    H220908   4.239   2.684   3.275 -2.5973  2.2902  0.0443
 6982TIP3   OH220909   5.889   1.542   3.021  0.4843  0.0140  0.5932
 6982TIP3    H120910   5.828   1.495   2.965  0.0550 -1.3843  2.1728
 6982TIP3    H220911   5.863   1.634   3.014 -0.5664 -0.3326 -0.2398
 6983TIP3   OH220912   6.298   3.909   5.467  0.0910 -0.5668 -0.2639
 6983TIP3    H120913   6.360   3.852   5.513 -0.4057 -1.1812 -0.3310
 6983TIP3    H220914   6.213   3.887   5.507 -0.2119 -0.4374 -0.8353
 6984TIP3   OH220915   5.261   5.793   0.363  0.1481  0.1084  0.0189
 6984TIP3    H120916   5.226   5.737   0.433  0.3243 -0.0562 -0.0254
 6984TIP3    H220917   5.329   5.741   0.322  0.7998  0.6147  0.4263
 6985TIP3   OH220918   2.733   4.043   4.525  0.2721  0.3944 -0.3618
 6985TIP3    H120919   2.828   4.039   4.515  0.3245  1.0403 -0.1990
 6985TIP3    H220920   2.705   4.105   4.458 -0.0520  0.0683 -0.5237
 6986TIP3   OH220921   4.288   4.512   0.516 -0.1662  0.1987  0.0584
 6986TIP3    H120922   4.206   4.465   0.498  0.5006 -0.5766 -1.1199
 6986TIP3    H220923   4.356   4.449   0.494  0.7561  1.1314  0.1860
 6987TIP3   OH220924   2.318   4.045   1.689 -0.1180  0.0484 -0.0329
 6987TIP3    H120925   2.225   4.047   1.668 -0.5748 -1.3102  1.7236
 6987TIP3    H220926   2.350   3.965   1.648  0.3302  0.5774 -0.7411
 6988TIP3   OH220927   1.511   5.172   1.540 -0.0391 -0.2658 -0.1678
 6988TIP3    H120928   1.456   5.217   1.604 -0.1708 -0.4890 -0.1227
 6988TIP3    H220929   1.599   5.207   1.555  0.4541 -2.1849  1.9123
 6989TIP3   OH220930   3.215   5.162   0.819  0.1994 -0.3896 -0.3079
 6989TIP3    H120931   3.151   5.191   0.754 -0.0775  1.1065  0.6006
 6989TIP3    H220932   3.203   5.221   0.893  1.8526 -0.8182  0.3419
 6990TIP3   OH220933   2.631   6.478   0.361 -0.3887  0.4999  0.0734
 6990TIP3    H120934   2.611   6.399   0.410  1.3963  1.3639  2.3808
 6990TIP3    H220935   2.586   6.548   0.408  1.1916  1.3263  0.4306
 6991TIP3   OH220936   0.708   0.159   1.469  0.6036 -0.1727  0.0736
 6991TIP3    H120937   0.757   0.240   1.482  1.5852 -0.7693  0.1832
 6991TIP3    H220938   0.775   0.092   1.459 -0.1551 -0.6599 -2.1792
 6992TIP3   OH220939   2.120   2.125   3.281  0.2300 -0.2032  0.3222
 6992TIP3    H120940   2.211   2.153   3.289  0.3415 -0.4572 -0.0241
 6992TIP3    H220941   2.098   2.143   3.190 -0.1774  0.1848  0.4953
 6993TIP3   OH220942   0.352   1.964   0.268 -0.0960 -0.0261  0.5361
 6993TIP3    H120943   0.321   1.943   0.180  2.6377  2.1431 -1.1600
 6993TIP3    H220944   0.376   2.057   0.263 -0.6329  0.4298  3.8950
 6994TIP3   OH220945   0.632   3.984   4.568  0.3367 -0.1095  0.8197
 6994TIP3    H120946   0.709   3.930   4.583  1.2203  0.1780 -2.0541
 6994TIP3    H220947   0.560   3.922   4.559  0.8168 -0.6220  0.4543
 6995TIP3   OH220948   1.353   1.711   5.454 -0.4358  0.2351  0.2285
 6995TIP3    H120949   1.387   1.622   5.444 -1.7366 -0.3067  0.3901
 6995TIP3    H220950   1.258   1.701   5.451 -0.6512  1.4227  1.8212
 6996TIP3   OH220951   3.654   2.282   3.848 -0.2053  0.0157  0.1130
 6996TIP3    H120952   3.597   2.354   3.876 -0.8463  0.9580 -3.1120
 6996TIP3    H220953   3.600   2.204   3.859 -0.9935  0.5261 -0.0071
 6997TIP3   OH220954   4.088   2.912   3.489 -0.3773 -0.0896  0.2289
 6997TIP3    H120955   3.998   2.945   3.490 -0.6623 -0.8082 -0.6890
 6997TIP3    H220956   4.079   2.817   3.485  0.3381 -0.1442 -3.1285
 6998TIP3   OH220957   1.401   2.265   5.494  0.2351 -0.5861  0.2638
 6998TIP3    H120958   1.420   2.328   5.424  0.5324  1.3052  1.9431
 6998TIP3    H220959   1.305   2.269   5.504  0.3720  0.8445  1.3815
 6999TIP3   OH220960   4.373   2.585   5.452  0.9154 -0.3301 -0.4226
 6999TIP3    H120961   4.424   2.505   5.445  0.6685 -0.6034  0.6974
 6999TIP3    H220962   4.404   2.627   5.533  1.0246  0.6884 -0.9748
 7000TIP3   OH220963   7.188   1.852   2.697  0.2304 -0.0025  0.0995
 7000TIP3    H120964   7.187   1.914   2.769  0.4724 -0.8928  0.8901
 7000TIP3    H220965   7.117   1.791   2.716 -0.1604  0.1510 -0.7904
 7001TIP3   OH220966   3.900   0.424   4.757  0.2077  0.2469 -0.3848
 7001TIP3    H120967   3.941   0.399   4.840  0.0038  0.2358 -0.2841
 7001TIP3    H220968   3.807   0.405   4.771  0.0426  1.1099 -0.2908
 7002TIP3   OH220969   6.687   0.608   5.470  0.9234  0.0315  0.1019
 7002TIP3    H120970   6.710   0.564   5.552  0.6140  1.2729  0.8744
 7002TIP3    H220971   6.772   0.634   5.433  1.1517 -1.6192 -0.6338
 7003TIP3   OH220972   5.721   5.246   0.900  0.2045  0.5095 -0.4235
 7003TIP3    H120973   5.663   5.244   0.823  0.1228 -3.4795 -0.4442
 7003TIP3    H220974   5.788   5.311   0.877 -1.5757  1.8025 -2.4223
 7004TIP3   OH220975   5.428   5.358   3.912 -0.2880  0.6277 -0.0308
 7004TIP3    H120976   5.341   5.399   3.911 -0.9525 -0.7351 -1.1533
 7004TIP3    H220977   5.452   5.358   4.005 -0.0208  3.9067  0.0073
 7005TIP3   OH220978   4.252   4.786   0.566  0.3699 -0.1332  0.1866
 7005TIP3    H120979   4.190   4.791   0.493  1.4378  0.1463 -0.7289
 7005TIP3    H220980   4.283   4.695   0.565  1.1725  0.1384 -0.3927
 7006TIP3   OH220981   6.406   1.977   5.583  0.2379 -0.0301 -0.2329
 7006TIP3    H120982   6.417   1.883   5.571  1.2249 -0.1547  1.2771
 7006TIP3    H220983   6.495   2.010   5.598 -0.1759  0.9933  0.0777
 7007TIP3   OH220984   1.519   6.300   5.095 -0.3826  0.1556  0.1750
 7007TIP3    H120985   1.460   6.334   5.163 -2.4087 -1.1356 -0.8492
 7007TIP3    H220986   1.494   6.347   5.016 -1.3242 -1.6910 -0.6590
 7008TIP3   OH220987   3.386   6.526   0.893  0.1884  0.9694  0.4548
 7008TIP3    H120988   3.394   6.507   0.799 -1.5490 -0.5173  0.5453
 7008TIP3    H220989   3.292   6.528   0.909  0.4272 -0.6402  2.4881
 7009TIP3   OH220990   0.575   2.055   0.926 -0.0438 -0.7923  0.2930
 7009TIP3    H120991   0.497   2.084   0.973 -0.2286 -3.8552  2.1176
 7009TIP3    H220992   0.613   1.986   0.981  3.7051  0.1622 -0.7643
 7010TIP3   OH220993   3.742   6.722   5.771  0.2005 -0.9289  0.2024
 7010TIP3    H120994   3.711   6.681   5.690  0.5988 -1.1603  0.1597
 7010TIP3    H220995   3.716   6.661   5.840  0.6258 -1.1717  0.1571
 7011TIP3   OH220996   6.171   3.658   4.502 -0.5343  0.0901 -0.3572
 7011TIP3    H120997   6.252   3.657   4.554 -2.0324  2.9057  2.3961
 7011TIP3    H220998   6.133   3.744   4.520 -4.6345 -1.4430 -0.6607
 7012TIP3   OH220999   2.271   0.568   2.825 -0.8340 -0.3653  0.3330
 7012TIP3    H121000   2.357   0.585   2.787 -1.7327  0.7711 -1.3309
 7012TIP3    H221001   2.261   0.473   2.819 -0.5046 -0.3253 -1.3888
 7013TIP3   OH221002   0.648   2.262   4.704  0.2411  0.3900  0.2568
 7013TIP3    H121003   0.579   2.302   4.756 -0.2267  0.2000 -0.2061
 7013TIP3    H221004   0.602   2.213   4.636  0.8303  0.4386 -0.1930
 7014TIP3   OH221005   3.403   6.197   3.164 -0.1628 -0.1643 -0.2945
 7014TIP3    H121006   3.308   6.194   3.181  0.0456  1.2959  1.5151
 7014TIP3    H221007   3.411   6.187   3.069 -2.2925  1.6777 -0.7493
 7015TIP3   OH221008   0.116   5.384   3.608 -0.8122  0.1956 -0.0634
 7015TIP3    H121009   0.168   5.361   3.531  0.5723  0.5856  0.7135
 7015TIP3    H221010   0.057   5.309   3.621  0.1845 -0.6859 -0.4560
 7016TIP3   OH221011   4.766   2.833   0.837 -0.1709  0.4450 -0.3160
 7016TIP3    H121012   4.833   2.780   0.794 -1.1538  0.3224 -1.7677
 7016TIP3    H221013   4.751   2.906   0.776  0.3103  1.7760  1.0919
 7017TIP3   OH221014   5.023   3.706   1.899 -0.2185  0.2293  0.3889
 7017TIP3    H121015   5.086   3.647   1.858 -1.1417  0.6085 -1.6546
 7017TIP3    H221016   5.073   3.748   1.969  2.2524  1.4667 -1.9530
 7018TIP3   OH221017   2.898   2.584   5.428 -0.1224  0.4354 -0.0590
 7018TIP3    H121018   2.810   2.616   5.450  0.0164  0.6485  0.1937
 7018TIP3    H221019   2.883   2.514   5.365 -0.4299  1.2611 -0.9447
 7019TIP3   OH221020   0.938   6.235   4.767 -0.1957 -0.8586  0.2291
 7019TIP3    H121021   0.882   6.290   4.712 -0.5570 -1.0990  0.3568
 7019TIP3    H221022   0.933   6.276   4.854 -0.5480 -1.1517  0.3484
 7020TIP3   OH221023   3.178   0.527   2.533  0.4974 -0.4809  0.4419
 7020TIP3    H121024   3.212   0.616   2.524 -0.6260 -0.0401  0.4827
 7020TIP3    H221025   3.084   0.535   2.518  0.3091 -1.5786  0.9541
 7021TIP3   OH221026   2.663   3.837   4.352 -0.1785 -0.3606 -0.1359
 7021TIP3    H121027   2.580   3.836   4.303  0.2578 -1.0738 -0.8786
 7021TIP3    H221028   2.652   3.907   4.416 -1.8132 -1.1913  0.5606
 7022TIP3   OH221029   0.745   0.535   2.237  0.0063  0.2212 -0.5611
 7022TIP3    H121030   0.702   0.611   2.276  1.1537  0.2398  0.7605
 7022TIP3    H221031   0.681   0.465   2.242 -0.6371  0.7975 -0.6774
 7023TIP3   OH221032   0.374   3.611   5.512  0.0717  0.0421  0.3817
 7023TIP3    H121033   0.440   3.680   5.510  1.0037 -0.8386 -0.1519
 7023TIP3    H221034   0.292   3.656   5.490  0.6519  0.9714  0.0440
 7024TIP3   OH221035   5.302   0.084   1.464 -0.5727  0.5606  0.4900
 7024TIP3    H121036   5.336   0.146   1.400 -1.8871  1.3361  0.5086
 7024TIP3    H221037   5.367   0.014   1.467 -0.7727  0.1803 -2.1754
 7025TIP3   OH221038   1.768   5.059   3.013  0.0854  0.6025 -0.4534
 7025TIP3    H121039   1.685   5.106   3.015  0.7622  1.7975  0.3622
 7025TIP3    H221040   1.743   4.967   3.002 -1.4049  0.7855  0.9983
 7026TIP3   OH221041   4.715   3.071   4.194 -0.1353  0.5107 -0.7578
 7026TIP3    H121042   4.621   3.077   4.182 -0.4115 -1.0000  0.3767
 7026TIP3    H221043   4.734   3.127   4.269  0.0514  1.6438 -1.6254
 7027TIP3   OH221044   2.348   4.639   4.766 -0.2069  0.1793 -0.1293
 7027TIP3    H121045   2.267   4.660   4.813  0.2368  1.8525 -0.0606
 7027TIP3    H221046   2.329   4.659   4.674  0.2036  0.8484 -0.0743
 7028TIP3   OH221047   6.779   0.921   2.208 -0.7762 -0.5400 -0.4246
 7028TIP3    H121048   6.850   0.940   2.269 -0.8203 -3.4163  0.6831
 7028TIP3    H221049   6.787   0.988   2.140  3.1892 -0.8774 -0.5215
 7029TIP3   OH221050   5.522   1.567   1.609 -0.0484 -0.1468 -0.2066
 7029TIP3    H121051   5.614   1.543   1.601 -0.5630 -1.7380 -2.1559
 7029TIP3    H221052   5.474   1.485   1.593 -1.8176  0.7296  0.3306
 7030TIP3   OH221053   2.197   0.318   3.799 -0.2133 -0.0014 -0.0209
 7030TIP3    H121054   2.255   0.374   3.747  0.1165 -1.4459 -1.3104
 7030TIP3    H221055   2.245   0.302   3.880  0.4229  0.2357 -0.3462
 7031TIP3   OH221056   0.208   4.900   3.481  0.0854  0.9389  0.2123
 7031TIP3    H121057   0.254   4.905   3.565  1.0025 -2.3615  0.0619
 7031TIP3    H221058   0.126   4.854   3.501  0.7060 -0.6693 -0.7438
 7032TIP3   OH221059   1.376   2.770   1.924  0.3529  0.4048 -0.4651
 7032TIP3    H121060   1.395   2.845   1.867 -1.1838  0.7230 -0.5891
 7032TIP3    H221061   1.293   2.792   1.966  0.5374 -0.6584  0.4965
 7033TIP3   OH221062   1.315   1.813   5.738 -0.2265 -0.8416  0.5533
 7033TIP3    H121063   1.386   1.874   5.719 -0.3782 -0.3855  1.3874
 7033TIP3    H221064   1.264   1.809   5.657  1.1181 -1.7150 -0.2886
 7034TIP3   OH221065   2.223   3.422   2.017 -0.5054 -0.1062 -0.0453
 7034TIP3    H121066   2.175   3.372   2.083 -2.2024  0.5806 -0.6948
 7034TIP3    H221067   2.263   3.494   2.065 -0.8440 -0.2105  0.4005
 7035TIP3   OH221068   2.346   1.039   1.679 -0.3351 -0.2353  1.1330
 7035TIP3    H121069   2.264   1.078   1.649  0.3868 -0.7099 -1.7558
 7035TIP3    H221070   2.408   1.112   1.679  0.3732 -0.7224 -1.6755
 7036TIP3   OH221071   0.699   1.306   3.113  0.7617  0.0305  0.0172
 7036TIP3    H121072   0.747   1.331   3.192  0.7541  0.9718 -0.2548
 7036TIP3    H221073   0.746   1.230   3.079 -0.0013 -1.2207  1.6100
 7037TIP3   OH221074   4.395   5.073   1.997 -0.1462 -0.1674 -0.1118
 7037TIP3    H121075   4.358   5.033   1.918  1.0387 -3.9828  1.0546
 7037TIP3    H221076   4.468   5.126   1.966  0.7812 -2.1974 -1.6259
 7038TIP3   OH221077   4.883   3.180   0.221 -0.0532  0.1016 -0.0141
 7038TIP3    H121078   4.915   3.120   0.289  1.6137  1.0942  0.1336
 7038TIP3    H221079   4.844   3.122   0.156  0.6904 -1.0935  0.5487
 7039TIP3   OH221080   7.022   6.399   5.297 -0.6144  0.1951  0.1502
 7039TIP3    H121081   7.002   6.475   5.243  0.4948  1.4024  1.3757
 7039TIP3    H221082   6.976   6.415   5.379 -0.3560 -0.4481  0.4281
 7040TIP3   OH221083   6.018   1.159   2.862  0.0650  0.5313  0.2363
 7040TIP3    H121084   5.943   1.126   2.811  0.8821  0.6899 -1.1301
 7040TIP3    H221085   5.990   1.152   2.953 -0.8650 -1.2782 -0.1437
 7041TIP3   OH221086   1.218   0.651   3.619 -0.5008 -0.6500 -0.2270
 7041TIP3    H121087   1.298   0.647   3.567  1.0633  1.7909  1.7900
 7041TIP3    H221088   1.172   0.728   3.587 -2.6434 -2.5014 -1.9691
 7042TIP3   OH221089   4.656   3.891   2.432 -0.2350  0.1204  0.5889
 7042TIP3    H121090   4.731   3.857   2.384 -0.5891 -0.6715  0.5798
 7042TIP3    H221091   4.650   3.982   2.405 -0.4382 -0.3079 -0.8835
 7043TIP3   OH221092   3.238   4.558   1.389  0.3048 -0.2531  0.1639
 7043TIP3    H121093   3.155   4.526   1.424  0.2977  0.1455  0.5225
 7043TIP3    H221094   3.261   4.495   1.321 -0.7703  0.1382 -0.5982
 7044TIP3   OH221095   6.960   2.665   1.240 -0.7022 -0.3065  0.0024
 7044TIP3    H121096   6.982   2.592   1.298 -1.7607 -0.9494 -0.3662
 7044TIP3    H221097   6.882   2.704   1.280 -0.1437  0.6275  0.1927
 7045TIP3   OH221098   4.718   2.688   0.522  0.1540 -0.0459 -0.0946
 7045TIP3    H121099   4.625   2.706   0.514 -0.2513 -2.0251 -0.3605
 7045TIP3    H221100   4.741   2.643   0.441  1.5223  0.9970 -0.3330
 7046TIP3   OH221101   0.302   3.918   3.273 -0.0590  0.2608  0.4311
 7046TIP3    H121102   0.330   3.978   3.343 -1.2528  2.6434 -1.0198
 7046TIP3    H221103   0.219   3.955   3.242 -0.3237 -1.6055 -1.2363
 7047TIP3   OH221104   6.970   5.463   1.752 -0.1462 -0.3221 -0.1543
 7047TIP3    H121105   6.932   5.381   1.783  1.0999 -1.4284 -1.4175
 7047TIP3    H221106   7.041   5.436   1.693  0.6445  1.6654 -0.1926
 7048TIP3   OH221107   0.210   5.300   2.063 -0.0044  0.1885  0.0580
 7048TIP3    H121108   0.139   5.359   2.088  1.7898  2.2864  0.5522
 7048TIP3    H221109   0.228   5.321   1.971 -0.4734 -0.8404 -0.2782
 7049TIP3   OH221110   3.156   4.651   2.010 -0.2054  0.6480  0.3950
 7049TIP3    H121111   3.102   4.577   2.038  2.0687 -0.7166  1.5373
 7049TIP3    H221112   3.157   4.646   1.915 -1.8181  0.5686  0.3539
 7050TIP3   OH221113   3.855   4.456   3.953 -0.2672 -0.7664  0.3667
 7050TIP3    H121114   3.796   4.530   3.948 -1.0103 -1.3966 -0.9281
 7050TIP3    H221115   3.908   4.463   3.873  0.6517 -0.8315  0.9565
 7051TIP3   OH221116   1.024   4.150   3.954 -0.0863  0.1157  0.1250
 7051TIP3    H121117   1.108   4.147   4.000  0.7815 -0.3462 -1.4460
 7051TIP3    H221118   1.045   4.186   3.868 -1.1523 -1.7153 -0.9608
 7052TIP3   OH221119   2.940   1.087   1.629  0.2559 -0.2647 -0.0259
 7052TIP3    H121120   2.942   1.003   1.583  1.0196  0.0026 -0.4857
 7052TIP3    H221121   2.867   1.078   1.690  1.4857 -1.9934  1.3027
 7053TIP3   OH221122   5.047   0.528   3.871  0.0099  0.0623 -0.1301
 7053TIP3    H121123   5.034   0.459   3.935  1.3234  0.2233  0.3253
 7053TIP3    H221124   5.099   0.488   3.802 -1.2759 -0.0719 -1.0702
 7054TIP3   OH221125   6.906   1.792   0.792  0.7282  0.6508  0.2034
 7054TIP3    H121126   6.916   1.825   0.881  0.0222 -0.1418  0.5804
 7054TIP3    H221127   6.818   1.756   0.789  1.1212 -0.2768 -0.5045
 7055TIP3   OH221128   5.572   6.291   0.941  0.2898 -0.3362 -0.1234
 7055TIP3    H121129   5.584   6.372   0.991 -1.5152  0.3529 -0.7499
 7055TIP3    H221130   5.543   6.227   1.007 -0.0990  0.0253  0.0601
 7056TIP3   OH221131   3.344   5.234   2.287  0.0700 -0.4339 -0.1894
 7056TIP3    H121132   3.295   5.299   2.237 -0.7967  0.0798  1.2689
 7056TIP3    H221133   3.399   5.285   2.346 -1.9986 -0.9310  2.3134
 7057TIP3   OH221134   6.337   6.451   1.060 -0.7845 -0.0860 -0.8222
 7057TIP3    H121135   6.282   6.376   1.083 -0.9607  0.3759  0.3513
 7057TIP3    H221136   6.403   6.415   1.000  0.8206 -1.8487  1.7744
 7058TIP3   OH221137   5.085   2.345   1.149 -0.6768  0.0686 -0.5859
 7058TIP3    H121138   5.030   2.411   1.107  0.4512  1.4327 -0.0351
 7058TIP3    H221139   5.067   2.356   1.243 -0.5371 -0.4886 -0.4887
 7059TIP3   OH221140   3.054   0.775   3.677  0.1596  0.2057  0.4738
 7059TIP3    H121141   3.050   0.747   3.585  2.2189  0.7544  0.1562
 7059TIP3    H221142   3.014   0.861   3.678  3.8562  2.1708 -0.8930
 7060TIP3   OH221143   2.674   2.792   5.441 -0.3242 -0.2828 -0.3139
 7060TIP3    H121144   2.629   2.809   5.358  1.0660 -1.7001 -1.4406
 7060TIP3    H221145   2.629   2.716   5.478  0.4419 -1.0701 -0.9412
 7061TIP3   OH221146   6.635   1.859   2.901  0.3301  0.8915  0.6576
 7061TIP3    H121147   6.567   1.792   2.900  1.3117 -0.1286  0.3799
 7061TIP3    H221148   6.669   1.861   2.812  1.3840  0.6241  1.0366
 7062TIP3   OH221149   1.566   4.727   4.597  0.2441 -0.6196 -0.2785
 7062TIP3    H121150   1.509   4.658   4.564 -0.2000 -0.8679  0.9354
 7062TIP3    H221151   1.586   4.781   4.521 -1.9928 -0.2620 -0.6871
 7063TIP3   OH221152   6.902   3.758   2.926  0.3310  0.2829 -0.3791
 7063TIP3    H121153   6.969   3.794   2.984 -0.6903  0.9411  0.4206
 7063TIP3    H221154   6.841   3.830   2.913 -1.9529 -1.1775  1.5149
 7064TIP3   OH221155   4.123   6.264   2.512  0.4194 -0.3855  0.0019
 7064TIP3    H121156   4.206   6.276   2.467 -0.2934  0.2641 -1.1943
 7064TIP3    H221157   4.131   6.317   2.592  0.8417  0.3908 -0.5391
 7065TIP3   OH221158   3.185   2.004   3.732 -0.7333  0.2387  0.1300
 7065TIP3    H121159   3.223   2.084   3.696 -1.1693 -0.6767 -2.5576
 7065TIP3    H221160   3.186   2.018   3.827  2.3694  1.9776 -0.0199
 7066TIP3   OH221161   0.127   6.526   5.248 -0.3069  0.4429 -0.2130
 7066TIP3    H121162   0.073   6.474   5.188  1.2875 -2.0578  0.3545
 7066TIP3    H221163   0.139   6.470   5.325  1.9252  1.4325  0.2483
 7067TIP3   OH221164   4.972   1.223   2.753 -0.3211  0.0617  0.4487
 7067TIP3    H121165   4.898   1.189   2.704  0.0662  0.2586 -0.2847
 7067TIP3    H221166   5.030   1.147   2.764  0.0803  0.2407 -0.3274
 7068TIP3   OH221167   3.807   2.874   3.162 -0.0846  0.2535  0.3375
 7068TIP3    H121168   3.898   2.875   3.130 -0.6504  0.9713 -1.3962
 7068TIP3    H221169   3.801   2.949   3.220  0.1317  0.9919 -0.5639
 7069TIP3   OH221170   2.271   3.047   3.652  0.4487 -0.4631  0.2370
 7069TIP3    H121171   2.243   3.012   3.568 -1.3202 -1.0615  1.0353
 7069TIP3    H221172   2.257   2.976   3.715 -0.3105  0.6375  1.3777
 7070TIP3   OH221173   2.791   1.223   1.074 -0.4004  0.1482 -0.5263
 7070TIP3    H121174   2.763   1.153   1.015  0.7896 -0.1585 -0.7501
 7070TIP3    H221175   2.883   1.238   1.053  0.5267 -0.9950  2.2150
 7071TIP3   OH221176   0.777   3.179   5.464  0.4460  1.0790  0.4453
 7071TIP3    H121177   0.691   3.155   5.430  0.4956 -0.8810  1.5405
 7071TIP3    H221178   0.813   3.238   5.398 -0.0658 -1.2860 -2.1596
 7072TIP3   OH221179   6.596   2.221   4.448  0.5120 -0.0023 -0.3808
 7072TIP3    H121180   6.643   2.299   4.476  0.4751  0.2059 -0.8866
 7072TIP3    H221181   6.560   2.244   4.362 -3.4835  1.1113  1.3784
 7073TIP3   OH221182   2.585   4.934   5.665 -0.0777  0.0772  0.0191
 7073TIP3    H121183   2.554   5.023   5.680 -0.2833  0.6339 -3.1239
 7073TIP3    H221184   2.515   4.879   5.701 -1.9769  1.2656 -1.6367
 7074TIP3   OH221185   6.293   6.252   3.351 -0.0325 -0.7940  0.1372
 7074TIP3    H121186   6.312   6.259   3.444  0.9222  1.3686 -0.1601
 7074TIP3    H221187   6.200   6.229   3.347 -0.7197  1.3903  1.6612
 7075TIP3   OH221188   3.057   3.266   4.355 -0.2212  0.0150  0.1541
 7075TIP3    H121189   3.107   3.322   4.416  1.1635 -1.3830  0.3700
 7075TIP3    H221190   2.988   3.323   4.322 -0.0566  1.2859  1.8363
 7076TIP3   OH221191   1.495   1.775   3.628 -0.0782 -0.3188 -0.1543
 7076TIP3    H121192   1.487   1.680   3.620  0.7636 -0.3487 -0.6674
 7076TIP3    H221193   1.573   1.789   3.681 -0.5567  0.0822  0.4640
 7077TIP3   OH221194   5.220   4.510   1.806 -0.2945 -0.0849  0.1640
 7077TIP3    H121195   5.226   4.564   1.728  0.0426  0.7640  0.7566
 7077TIP3    H221196   5.290   4.543   1.863 -0.6879 -0.5233  0.9169
 7078TIP3   OH221197   6.139   3.351   2.198  0.5576  0.3165 -0.2506
 7078TIP3    H121198   6.226   3.312   2.208 -0.3998 -2.2333 -1.1584
 7078TIP3    H221199   6.106   3.360   2.288  0.8294 -0.9629 -0.0136
 7079TIP3   OH221200   0.959   0.058   2.778 -0.0322 -0.2867 -0.1165
 7079TIP3    H121201   0.925  -0.028   2.803 -1.7762  0.9118  2.0686
 7079TIP3    H221202   1.038   0.068   2.831 -0.6049 -0.0283  0.7179
 7080TIP3   OH221203   1.031   4.074   4.253 -0.3931 -0.2114  0.0212
 7080TIP3    H121204   1.110   4.064   4.306  1.0750  0.2599 -1.9846
 7080TIP3    H221205   1.037   4.005   4.187 -0.5213  1.1359 -1.4620
 7081TIP3   OH221206   2.938   3.250   1.746 -0.5244  0.1684  0.2472
 7081TIP3    H121207   2.999   3.223   1.677  0.3582 -0.6081  1.2900
 7081TIP3    H221208   2.883   3.316   1.705 -0.0311 -0.2865 -1.1991
 7082TIP3   OH221209   4.337   6.437   5.672 -0.2990 -0.8957  0.1003
 7082TIP3    H121210   4.255   6.475   5.640  0.7316  0.4410 -1.1278
 7082TIP3    H221211   4.370   6.500   5.736 -0.7669 -1.9959  1.4656
 7083TIP3   OH221212   3.168   4.416   3.976 -0.7512  0.0357 -0.2831
 7083TIP3    H121213   3.137   4.382   3.891  0.8847 -1.2053 -0.4248
 7083TIP3    H221214   3.263   4.410   3.971 -0.6246 -0.5189  1.8188
 7084TIP3   OH221215   6.421   6.355   4.099  0.3706  0.0272  0.0443
 7084TIP3    H121216   6.356   6.374   4.166 -1.0303 -0.1580 -1.2029
 7084TIP3    H221217   6.425   6.259   4.096  0.2476  0.0285 -0.2746
 7085TIP3   OH221218   1.413   0.309   3.475  0.0817 -0.5577 -0.6145
 7085TIP3    H121219   1.343   0.373   3.459 -1.0745 -1.7490 -0.5214
 7085TIP3    H221220   1.420   0.260   3.393  0.4540 -0.7652 -0.4589
 7086TIP3   OH221221   1.994   1.997   5.155 -0.1893  0.2247  0.0725
 7086TIP3    H121222   1.991   2.061   5.084  1.3946  1.1595  0.7746
 7086TIP3    H221223   1.909   1.953   5.152 -0.2913  0.4514 -2.1663
 7087TIP3   OH221224   4.622   2.327   0.990 -0.2883 -0.0667 -0.1860
 7087TIP3    H121225   4.603   2.412   1.030 -1.2816 -0.1616 -0.4316
 7087TIP3    H221226   4.539   2.301   0.949  0.5122 -0.2789 -1.7388
 7088TIP3   OH221227   4.535   4.798   5.864 -0.1641  0.4120  0.9967
 7088TIP3    H121228   4.518   4.733   5.931  0.1211 -0.9912 -0.2513
 7088TIP3    H221229   4.564   4.748   5.788  0.4474  2.0245  0.1172
 7089TIP3   OH221230   3.394   5.919   0.557  0.4628  0.2478 -0.2268
 7089TIP3    H121231   3.351   5.904   0.473 -0.4118 -0.4097  0.3218
 7089TIP3    H221232   3.473   5.865   0.554 -1.2062 -2.4299  0.6097
 7090TIP3   OH221233   2.659   0.056   1.299  0.7555  0.0796  0.6150
 7090TIP3    H121234   2.714  -0.021   1.284  2.1750  0.8788  1.4570
 7090TIP3    H221235   2.685   0.117   1.229 -0.2997 -0.1565  0.0028
 7091TIP3   OH221236   2.612   5.541   0.211  0.2067 -0.3544  0.1307
 7091TIP3    H121237   2.574   5.629   0.210  1.6573  0.2950 -0.9304
 7091TIP3    H221238   2.596   5.509   0.300 -1.7822  0.3035  0.0708
 7092TIP3   OH221239   0.781   1.575   3.644  0.6710 -0.3239 -0.0418
 7092TIP3    H121240   0.842   1.616   3.583  0.4252 -1.4903 -1.0929
 7092TIP3    H221241   0.704   1.556   3.591 -1.1010  2.0495  1.4520
 7093TIP3   OH221242   4.218   0.856   4.552  0.2656 -0.1019 -0.1232
 7093TIP3    H121243   4.181   0.845   4.465 -0.0790  1.9315 -0.2772
 7093TIP3    H221244   4.311   0.834   4.542 -0.1306 -1.7047 -0.5442
 7094TIP3   OH221245   5.248   1.713   2.379  0.0078  0.2783 -0.3284
 7094TIP3    H121246   5.178   1.676   2.326 -0.8982 -0.4117  1.2881
 7094TIP3    H221247   5.323   1.719   2.320 -1.1239  0.1015 -1.8204
 7095TIP3   OH221248   0.495   5.380   4.026 -0.2579 -0.2042 -0.1598
 7095TIP3    H121249   0.558   5.311   4.043 -0.0106  0.0181 -0.1673
 7095TIP3    H221250   0.447   5.350   3.948 -0.9321 -0.8990  0.5037
 7096TIP3   OH221251   3.979   4.909   4.653  0.1990  0.0088  0.1648
 7096TIP3    H121252   3.887   4.933   4.642  0.5045  1.2322  0.1294
 7096TIP3    H221253   4.023   4.943   4.575  1.1757  2.2550  1.5927
 7097TIP3   OH221254   1.567   4.809   2.129 -0.1019  0.1810 -0.6299
 7097TIP3    H121255   1.657   4.832   2.149  0.2016 -0.5346 -1.1089
 7097TIP3    H221256   1.546   4.860   2.051 -0.6157  1.4539  0.3089
 7098TIP3   OH221257   3.642   2.661   3.188 -0.0242  0.1097 -0.2750
 7098TIP3    H121258   3.705   2.732   3.176 -0.0830  1.0649  3.6563
 7098TIP3    H221259   3.696   2.587   3.217 -0.4798  0.3342  1.1896
 7099TIP3   OH221260   4.658   2.433   2.129  0.4758 -0.2371 -0.4983
 7099TIP3    H121261   4.603   2.384   2.069 -0.6667 -0.4257  0.6536
 7099TIP3    H221262   4.696   2.503   2.076 -0.6831 -0.2583 -1.3807
 7100TIP3   OH221263   6.299   1.134   3.210  0.2622  0.2983  0.5269
 7100TIP3    H121264   6.314   1.184   3.290 -2.6412 -1.2670  2.2346
 7100TIP3    H221265   6.270   1.048   3.241  1.0740 -1.0868 -2.2626
 7101TIP3   OH221266   2.491   3.741   2.789 -0.4373 -0.0878 -0.2837
 7101TIP3    H121267   2.444   3.816   2.752  0.2693  0.1229 -0.7617
 7101TIP3    H221268   2.459   3.665   2.740 -0.9671 -0.0729  0.0312
 7102TIP3   OH221269   7.103   2.238   2.719  0.6368  0.3306  0.1362
 7102TIP3    H121270   7.051   2.212   2.795  2.0085 -0.6802  0.7600
 7102TIP3    H221271   7.049   2.212   2.644 -0.8603  1.5980  0.7041
 7103TIP3   OH221272   6.582   0.216   4.203  0.3089 -0.1320  0.3090
 7103TIP3    H121273   6.542   0.300   4.180 -2.5679 -0.9811  1.7215
 7103TIP3    H221274   6.615   0.182   4.121 -2.6083  0.3866 -1.2339
 7104TIP3   OH221275   5.217   3.871   4.845  0.3967 -0.6361  0.4318
 7104TIP3    H121276   5.140   3.816   4.857 -0.6821  0.9970  1.2142
 7104TIP3    H221277   5.202   3.947   4.900  1.7091  0.6174 -0.8335
 7105TIP3   OH221278   1.379   5.474   5.744 -0.8328 -0.1569 -0.9194
 7105TIP3    H121279   1.424   5.554   5.774 -1.0915 -0.6857  1.0333
 7105TIP3    H221280   1.435   5.403   5.775 -3.2020 -0.8763  2.2226
 7106TIP3   OH221281   6.580   6.603   3.565 -0.0069  0.3324 -0.3596
 7106TIP3    H121282   6.523   6.544   3.614 -1.1460  0.1489 -1.8199
 7106TIP3    H221283   6.599   6.557   3.484 -1.0417  1.9632 -1.6043
 7107TIP3   OH221284   2.291   2.315   2.370 -0.4119 -0.0412 -0.3068
 7107TIP3    H121285   2.231   2.388   2.358 -0.6115 -0.1583 -0.0327
 7107TIP3    H221286   2.246   2.240   2.332 -0.6550 -0.2272  0.3231
 7108TIP3   OH221287   2.480   5.635   5.400  0.2110 -0.2410  0.3274
 7108TIP3    H121288   2.427   5.571   5.354  3.7641 -1.9550 -1.7843
 7108TIP3    H221289   2.470   5.716   5.350 -0.6943 -0.4014  0.2400
 7109TIP3   OH221290   0.004   2.172   1.160 -0.5276 -0.3578  0.4702
 7109TIP3    H121291  -0.012   2.158   1.067 -0.3386 -1.0441  0.5383
 7109TIP3    H221292   0.037   2.262   1.166 -1.6832  0.1160  0.0144
 7110TIP3   OH221293   5.975   1.537   1.955 -0.1222  0.0718 -0.7978
 7110TIP3    H121294   5.931   1.601   1.899 -1.3992 -0.6479 -0.6471
 7110TIP3    H221295   5.905   1.498   2.007  0.5909 -1.6521 -1.0687
 7111TIP3   OH221296   4.739   4.288   3.343  0.0720  0.4557  0.0368
 7111TIP3    H121297   4.750   4.241   3.260  0.2240  0.0743  0.2712
 7111TIP3    H221298   4.645   4.285   3.360  0.1028  0.0644  0.1479
 7112TIP3   OH221299   1.546   3.365   3.161 -0.6643 -0.3539 -0.3108
 7112TIP3    H121300   1.455   3.368   3.191 -0.8366 -1.7851 -0.5877
 7112TIP3    H221301   1.584   3.293   3.211  0.2213  0.0004 -0.4675
 7113TIP3   OH221302   5.927   3.891   4.175 -0.6156  0.1681 -0.1680
 7113TIP3    H121303   5.937   3.813   4.122 -1.0029 -0.7297  1.0265
 7113TIP3    H221304   5.879   3.953   4.119 -1.4015 -0.9042 -0.7090
 7114TIP3   OH221305   3.931   4.658   4.948  0.2648 -0.2964  1.3545
 7114TIP3    H121306   3.870   4.717   4.994 -0.2255 -0.6456  1.1645
 7114TIP3    H221307   3.999   4.716   4.913 -1.2940  0.4607 -0.6156
 7115TIP3   OH221308   2.793   4.560   4.184  0.3784  0.7318 -0.6703
 7115TIP3    H121309   2.751   4.646   4.172  4.0363  2.9665  0.9711
 7115TIP3    H221310   2.764   4.531   4.270 -1.0381  0.1096 -1.3168
 7116TIP3   OH221311   3.673   6.404   0.899  0.1634  0.3507  0.2559
 7116TIP3    H121312   3.619   6.329   0.874  0.2852 -0.1001  1.3137
 7116TIP3    H221313   3.741   6.407   0.831 -0.3946  0.0967 -0.3236
 7117TIP3   OH221314   3.892   2.105   4.469  0.3130  0.3474 -0.3140
 7117TIP3    H121315   3.871   2.028   4.416 -0.2547 -0.2283  0.7008
 7117TIP3    H221316   3.947   2.159   4.413  0.7516 -0.8143 -1.0426
 7118TIP3   OH221317   1.055   6.121   0.473  0.1732 -0.0908  0.3728
 7118TIP3    H121318   0.975   6.143   0.424  0.2904 -1.8107 -0.6871
 7118TIP3    H221319   1.123   6.176   0.434 -0.1697  0.1660  0.1256
 7119TIP3   OH221320   0.431   4.428   2.559 -0.0768  0.4603  0.1112
 7119TIP3    H121321   0.385   4.351   2.590 -0.4408  0.6486  0.0387
 7119TIP3    H221322   0.362   4.488   2.531  0.1114  1.4476  1.6067
 7120TIP3   OH221323   5.727   1.832   4.255  0.3158 -0.4274  0.1713
 7120TIP3    H121324   5.663   1.791   4.196 -0.9886  0.9487  0.5571
 7120TIP3    H221325   5.721   1.926   4.234  1.6053 -0.1800  0.8221
 7121TIP3   OH221326   4.531   3.587   2.764  0.7548 -0.7303  0.1025
 7121TIP3    H121327   4.510   3.606   2.855  1.5750  0.1043  0.1387
 7121TIP3    H221328   4.542   3.673   2.724 -1.4263 -1.0323 -1.2569
 7122TIP3   OH221329   0.446   1.125   4.034  0.5289  0.0099  0.1797
 7122TIP3    H121330   0.442   1.056   3.967 -0.4586 -0.2102  0.4385
 7122TIP3    H221331   0.395   1.090   4.107  0.5796  0.7394  0.5733
 7123TIP3   OH221332   7.164   3.559   2.824 -0.5710  0.5916  0.4403
 7123TIP3    H121333   7.209   3.643   2.815 -1.5333  1.2046  1.1224
 7123TIP3    H221334   7.199   3.521   2.905 -1.9027  1.4925  1.4703
 7124TIP3   OH221335   5.899   0.884   3.329  0.0874 -0.1047  0.0691
 7124TIP3    H121336   5.848   0.962   3.350  1.7059  1.1570 -0.4400
 7124TIP3    H221337   5.840   0.829   3.278 -1.1398  0.7013  0.5826
 7125TIP3   OH221338   2.917   2.895   0.404 -0.1371 -0.0009 -0.4021
 7125TIP3    H121339   2.931   2.817   0.458 -0.0392  1.1876  1.3794
 7125TIP3    H221340   2.822   2.895   0.387 -0.4352  0.4034  1.1103
 7126TIP3   OH221341   5.662   3.867   3.986 -0.3112  0.2137 -0.3336
 7126TIP3    H121342   5.567   3.872   4.000 -0.4324 -0.4652 -0.8458
 7126TIP3    H221343   5.675   3.785   3.938  0.7478 -0.6662  1.3793
 7127TIP3   OH221344   4.990   2.965   0.333 -0.1492  0.1218 -0.6223
 7127TIP3    H121345   4.985   2.884   0.385  0.0294 -0.3249 -1.2841
 7127TIP3    H221346   5.053   3.019   0.380 -0.7853  0.1602  0.2030
 7128TIP3   OH221347   6.702   1.410   1.256 -0.6915 -0.4434 -0.1073
 7128TIP3    H121348   6.699   1.317   1.281 -0.3575  0.1966  2.5826
 7128TIP3    H221349   6.619   1.424   1.209  0.2002 -2.5333 -2.5477
 7129TIP3   OH221350   0.629   2.811   3.553 -0.3660  0.3398 -0.1872
 7129TIP3    H121351   0.631   2.726   3.509  1.3088 -0.0397  0.5377
 7129TIP3    H221352   0.572   2.797   3.629  1.2161 -0.6860  0.8753
 7130TIP3   OH221353   5.544   4.786   2.190  0.1242 -0.3738 -0.7851
 7130TIP3    H121354   5.487   4.821   2.258  0.1271  0.6890 -1.3132
 7130TIP3    H221355   5.546   4.692   2.207 -0.1453 -0.1774  0.4692
 7131TIP3   OH221356   2.729   1.632   1.614  0.1623  0.3531 -0.6726
 7131TIP3    H121357   2.641   1.604   1.592 -0.3098 -0.5507  1.9679
 7131TIP3    H221358   2.786   1.567   1.572 -0.5626 -0.4571 -0.4200
 7132TIP3   OH221359   6.875   0.823   2.801 -0.9369  0.3247 -0.3099
 7132TIP3    H121360   6.923   0.846   2.881 -1.6929  0.0532  0.2295
 7132TIP3    H221361   6.880   0.901   2.747  0.8879  0.0078 -0.6549
 7133TIP3   OH221362   5.266   5.708   0.830 -0.6801 -0.2693 -0.4401
 7133TIP3    H121363   5.260   5.701   0.734 -1.4912 -0.8037 -0.3692
 7133TIP3    H221364   5.203   5.776   0.852 -2.0526 -1.5686 -0.1484
 7134TIP3   OH221365   4.224   6.787   4.579 -0.4266  0.3712 -0.2605
 7134TIP3    H121366   4.231   6.813   4.671 -0.5075 -1.1660  0.1982
 7134TIP3    H221367   4.286   6.715   4.569  0.3137  1.1655 -1.6836
 7135TIP3   OH221368   3.066   5.213   0.403  0.3261 -0.2059 -0.0508
 7135TIP3    H121369   3.137   5.240   0.345  1.1863  1.9113  1.8160
 7135TIP3    H221370   3.086   5.122   0.425  2.7137  0.4034  0.6386
 7136TIP3   OH221371   4.897   0.173   4.899 -0.4047 -0.1367  0.0307
 7136TIP3    H121372   4.915   0.135   4.985  0.4713  3.4886  1.6654
 7136TIP3    H221373   4.808   0.207   4.906 -0.0870  0.7810 -0.2016
 7137TIP3   OH221374   4.496   2.557   5.706  0.2003  0.1832  0.1266
 7137TIP3    H121375   4.591   2.546   5.696  0.3425  1.3068  0.1234
 7137TIP3    H221376   4.459   2.473   5.677  1.0492  0.5676 -2.3026
 7138TIP3   OH221377   6.226   6.289   5.798 -1.0667 -0.1778  0.2464
 7138TIP3    H121378   6.307   6.314   5.753 -0.4785 -0.3893  1.1625
 7138TIP3    H221379   6.175   6.370   5.800 -1.1705 -0.1884 -0.8933
 7139TIP3   OH221380   4.725   1.177   2.685  0.4242 -0.1267 -0.3687
 7139TIP3    H121381   4.685   1.247   2.634 -0.0665  0.8127  1.2564
 7139TIP3    H221382   4.672   1.171   2.765  0.5235 -2.2712 -0.3897
 7140TIP3   OH221383   4.444   0.999   4.690  0.1410 -0.1750  0.1920
 7140TIP3    H121384   4.529   1.020   4.652  0.1018 -0.4595 -0.0518
 7140TIP3    H221385   4.464   0.946   4.767  0.2092  0.2185  0.4494
 7141TIP3   OH221386   2.748   5.060   0.659  0.0264  0.5282  0.5508
 7141TIP3    H121387   2.751   5.033   0.568 -2.1970 -0.7927  0.7732
 7141TIP3    H221388   2.799   4.994   0.706 -3.0333 -1.9681  0.7485
 7142TIP3   OH221389   6.804   0.561   3.127  0.1314 -0.2992  0.3232
 7142TIP3    H121390   6.862   0.637   3.135 -0.3622  0.0571  0.5807
 7142TIP3    H221391   6.841   0.496   3.186  1.4007 -0.8165 -0.9813
 7143TIP3   OH221392   1.402   6.502   3.354  0.2495  0.1008  0.3606
 7143TIP3    H121393   1.393   6.549   3.437  1.0744  1.1900 -0.1327
 7143TIP3    H221394   1.497   6.488   3.345  0.0254 -1.7064  0.5028
 7144TIP3   OH221395   3.912   1.917   4.726  0.2381  0.5241  0.7785
 7144TIP3    H121396   3.884   1.865   4.651 -2.2810  3.7319 -0.7779
 7144TIP3    H221397   3.988   1.966   4.695  0.0485  0.8223  0.7777
 7145TIP3   OH221398   6.578   0.814   0.073 -0.0298  0.0748 -0.1928
 7145TIP3    H121399   6.499   0.760   0.068  0.4030 -0.4955 -1.0307
 7145TIP3    H221400   6.650   0.753   0.060  0.8028  0.0542  3.4469
 7146TIP3   OH221401   5.243   1.056   5.587  0.8448 -0.1475 -0.5174
 7146TIP3    H121402   5.232   1.004   5.667 -2.0090  1.5003  0.3412
 7146TIP3    H221403   5.311   1.120   5.610  0.8316 -0.3831  0.2298
 7147TIP3   OH221404   5.180   6.290   2.862 -0.6195  0.5084 -0.5295
 7147TIP3    H121405   5.109   6.349   2.889 -0.2307  0.8760 -0.2925
 7147TIP3    H221406   5.259   6.343   2.871 -0.3205  0.1206 -0.8557
 7148TIP3   OH221407   3.122   0.776   4.878  0.0149 -0.0588  0.2034
 7148TIP3    H121408   3.135   0.728   4.960 -1.4402 -0.2605  0.3328
 7148TIP3    H221409   3.123   0.708   4.810 -0.2710 -0.0566  0.1997
 7149TIP3   OH221410   4.482   1.988   1.320  0.0489 -0.3720  0.0919
 7149TIP3    H121411   4.527   2.044   1.384  1.3388  0.0134 -1.0922
 7149TIP3    H221412   4.534   1.996   1.240 -1.1048 -1.4059 -0.8129
 7150TIP3   OH221413   1.122   4.486   4.202 -0.3207  0.2897  0.0187
 7150TIP3    H121414   1.099   4.573   4.236 -1.2158  1.0024 -2.2164
 7150TIP3    H221415   1.051   4.464   4.142  0.6671 -1.3167 -0.6342
 7151TIP3   OH221416   4.185   3.955   3.434  0.6061 -0.0731 -0.6452
 7151TIP3    H121417   4.171   4.019   3.364  1.7521 -1.0920 -1.8616
 7151TIP3    H221418   4.242   3.889   3.395 -0.3032 -1.7034  0.6395
 7152TIP3   OH221419   2.482   3.315   2.089  0.2316  0.1368  0.4063
 7152TIP3    H121420   2.429   3.367   2.150  0.4867  1.9406 -0.8458
 7152TIP3    H221421   2.501   3.374   2.017  0.7346 -1.6638 -1.0025
 7153TIP3   OH221422   6.199   0.083   1.943  0.2293 -0.4233 -0.3393
 7153TIP3    H121423   6.263   0.031   1.992  0.1735 -0.0743  0.1109
 7153TIP3    H221424   6.250   0.129   1.877  0.4023 -0.3579 -0.1588
 7154TIP3   OH221425   3.203   1.426   3.058 -0.0447 -0.3292  0.0637
 7154TIP3    H121426   3.171   1.481   2.987  1.3557 -0.3965 -0.6433
 7154TIP3    H221427   3.208   1.338   3.022  1.5542 -0.2110 -0.0862
 7155TIP3   OH221428   3.716   3.674   4.307  0.0894  0.3888  0.0177
 7155TIP3    H121429   3.736   3.717   4.390 -1.2814  2.3577 -0.5620
 7155TIP3    H221430   3.801   3.655   4.268  0.8187 -2.2827  2.5906
 7156TIP3   OH221431   1.443   5.489   3.325  0.0271 -0.2956  0.4566
 7156TIP3    H121432   1.381   5.421   3.352  1.4392 -1.8468 -0.0050
 7156TIP3    H221433   1.394   5.542   3.262 -0.9763 -1.1802  0.4534
 7157TIP3   OH221434   1.239   2.061   4.131  0.0376 -0.2114  0.6141
 7157TIP3    H121435   1.169   2.066   4.196 -1.0998 -0.5434 -0.5616
 7157TIP3    H221436   1.272   1.971   4.138 -0.8338 -0.5960 -0.0012
 7158TIP3   OH221437   2.157   4.663   5.406  0.3831  1.0347 -0.1172
 7158TIP3    H121438   2.178   4.746   5.363 -0.2499  1.1657 -0.1814
 7158TIP3    H221439   2.141   4.602   5.334  2.6902  0.3231 -0.1316
 7159TIP3   OH221440   3.150   4.177   0.624 -0.0878 -0.5584  0.3636
 7159TIP3    H121441   3.169   4.089   0.591  1.2820 -0.5736  1.1224
 7159TIP3    H221442   3.154   4.233   0.547  2.3825 -0.6923  0.3140
 7160TIP3   OH221443   6.935   3.279   4.988 -0.1356  0.6267 -0.2942
 7160TIP3    H121444   6.969   3.359   4.948  0.4106  0.7285  0.3621
 7160TIP3    H221445   6.975   3.277   5.075 -1.2472  0.3784  0.2340
 7161TIP3   OH221446   1.127   3.758   4.672 -0.3489 -0.6793  0.2063
 7161TIP3    H121447   1.213   3.799   4.681 -0.3646 -0.9164  1.7366
 7161TIP3    H221448   1.138   3.672   4.713 -1.6637 -0.1781  1.6891
 7162TIP3   OH221449   6.337   0.773   2.613  0.1612 -0.1867 -0.4631
 7162TIP3    H121450   6.429   0.788   2.632 -0.1489  1.3185 -0.0043
 7162TIP3    H221451   6.330   0.678   2.597  2.0535 -0.1196 -2.0794
 7163TIP3   OH221452   2.464   2.401   0.414  0.1058  0.1126  0.2608
 7163TIP3    H121453   2.379   2.411   0.456  0.2528  2.6941  0.1034
 7163TIP3    H221454   2.443   2.377   0.324 -0.4431  0.0781  0.3962
 7164TIP3   OH221455   1.693   1.675   4.466  0.3284 -0.2883  0.3150
 7164TIP3    H121456   1.715   1.726   4.544 -0.4254 -1.2591  1.2017
 7164TIP3    H221457   1.600   1.654   4.478 -0.4146  1.3162 -1.8978
 7165TIP3   OH221458   6.400   5.018   0.397  0.2144 -0.0556 -0.2308
 7165TIP3    H121459   6.411   4.923   0.395 -0.9939 -0.2016 -1.1334
 7165TIP3    H221460   6.411   5.042   0.489 -0.3585 -1.1906  0.1427
 7166TIP3   OH221461   2.214   2.815   1.093 -0.0230 -0.1729  0.2351
 7166TIP3    H121462   2.154   2.885   1.119 -1.0505 -1.0846  0.3654
 7166TIP3    H221463   2.158   2.741   1.073  1.1128 -1.5647  1.9062
 7167TIP3   OH221464   3.858   1.181   0.611  0.0275  0.5369  0.0230
 7167TIP3    H121465   3.887   1.253   0.554  1.4451  0.9471  1.2170
 7167TIP3    H221466   3.938   1.134   0.633 -0.7116 -0.5875  0.3976
 7168TIP3   OH221467   3.504   1.783   0.838  0.8108 -0.6389 -0.8604
 7168TIP3    H121468   3.419   1.738   0.844  1.9480 -3.0948 -2.0915
 7168TIP3    H221469   3.503   1.844   0.912 -1.3674 -1.7548  0.1302
 7169TIP3   OH221470   1.654   6.401   0.210 -0.4913 -0.0385  0.0965
 7169TIP3    H121471   1.650   6.405   0.114 -0.5426 -0.1509  0.0933
 7169TIP3    H221472   1.731   6.347   0.229 -1.5377 -1.6065  0.0833
 7170TIP3   OH221473   5.034   6.556   0.261  0.2660 -0.6573 -0.1354
 7170TIP3    H121474   5.025   6.582   0.169  0.0968 -1.8437 -0.4685
 7170TIP3    H221475   4.953   6.511   0.282  0.2527 -0.2829  0.6433
 7171TIP3   OH221476   1.845   3.484   5.828 -0.3715  0.5148 -0.9720
 7171TIP3    H121477   1.875   3.574   5.811 -0.3416  0.9032  0.8383
 7171TIP3    H221478   1.753   3.484   5.803 -0.1598  0.7924 -1.7843
 7172TIP3   OH221479   1.453   1.798   5.082 -0.3077  0.5464 -0.2408
 7172TIP3    H121480   1.410   1.731   5.134  0.7843  0.8381  1.1050
 7172TIP3    H221481   1.468   1.870   5.144  0.6181  1.0942 -1.0749
 7173TIP3   OH221482   4.472   5.462   0.762 -0.6989 -0.6466  0.7031
 7173TIP3    H121483   4.389   5.508   0.768 -0.8492 -0.7884 -0.1568
 7173TIP3    H221484   4.529   5.521   0.713  0.1862  0.0895  2.5060
 7174TIP3   OH221485   3.148   5.749   2.265  0.5714  0.2202 -0.4645
 7174TIP3    H121486   3.238   5.721   2.249  0.2570 -0.9130 -0.3752
 7174TIP3    H221487   3.154   5.843   2.277  1.6808  0.2298 -0.9217
 7175TIP3   OH221488   0.146   1.055   1.039 -0.2835  0.0661 -0.2292
 7175TIP3    H121489   0.101   1.032   1.121  0.9953 -0.3318  0.3833
 7175TIP3    H221490   0.124   0.983   0.979  1.7575 -1.6459  0.9469
 7176TIP3   OH221491   4.209   2.326   0.769  0.3676 -0.3356  0.2768
 7176TIP3    H121492   4.251   2.406   0.737  0.8399 -1.3689 -1.8358
 7176TIP3    H221493   4.118   2.334   0.740  0.4490 -0.6422 -0.0553
 7177TIP3   OH221494   1.520   6.637   5.838 -0.5116  0.5682 -0.2720
 7177TIP3    H121495   1.517   6.666   5.929  3.2206 -0.1148  0.2330
 7177TIP3    H221496   1.516   6.717   5.786  1.7249  1.4436  0.7688
 7178TIP3   OH221497   5.440   1.223   5.694 -0.4983  0.5900  0.6877
 7178TIP3    H121498   5.444   1.318   5.693 -0.2683  0.5764 -0.0389
 7178TIP3    H221499   5.502   1.197   5.762 -1.0209  0.9739  1.3261
 7179TIP3   OH221500   6.026   4.765   1.935 -0.0341  0.6928 -0.1281
 7179TIP3    H121501   5.964   4.806   1.994  1.0756  2.9104 -0.4031
 7179TIP3    H221502   6.110   4.772   1.980  0.0713 -2.7474  0.4934
 7180TIP3   OH221503   6.862   3.045   1.383  0.3452 -0.6105  0.6208
 7180TIP3    H121504   6.845   3.107   1.313  0.3305 -0.0097  1.1512
 7180TIP3    H221505   6.827   3.087   1.461 -0.3678 -1.6208  0.8621
 7181TIP3   OH221506   1.020   4.007   0.420  0.2928 -0.2144  0.0652
 7181TIP3    H121507   1.081   3.977   0.487 -0.5390 -0.8869  0.5401
 7181TIP3    H221508   0.954   4.056   0.469  0.4682  0.5523 -0.4509
 7182TIP3   OH221509   6.437   0.002   5.499 -0.7187  0.0740 -0.7110
 7182TIP3    H121510   6.352  -0.041   5.494  0.0651 -2.0446  2.2640
 7182TIP3    H221511   6.434   0.053   5.580  0.3877  1.1136 -1.2885
 7183TIP3   OH221512   6.388   4.162   3.943  0.4500 -0.4997  0.6034
 7183TIP3    H121513   6.350   4.116   4.019 -2.1030  2.8508  1.6171
 7183TIP3    H221514   6.432   4.238   3.981 -1.0319  1.3475 -1.1751
 7184TIP3   OH221515   4.125   3.573   2.537 -0.0376  0.2134 -0.4138
 7184TIP3    H121516   4.052   3.562   2.476 -0.8860 -1.1486  0.7667
 7184TIP3    H221517   4.188   3.507   2.510 -2.1065 -3.3012  2.4006
 7185TIP3   OH221518   2.696   4.752   3.552 -0.0361  0.2742 -0.3420
 7185TIP3    H121519   2.647   4.771   3.632 -0.9251 -2.5954 -0.0849
 7185TIP3    H221520   2.641   4.787   3.482 -0.5121  0.5427  0.1566
 7186TIP3   OH221521   4.230   5.568   0.697  0.1911 -0.5459  0.2970
 7186TIP3    H121522   4.230   5.657   0.662  1.6520 -0.9386 -0.8033
 7186TIP3    H221523   4.169   5.519   0.642 -0.4527 -0.2980  0.7721
 7187TIP3   OH221524   0.762   3.928   4.305  0.0213  0.5918  0.1913
 7187TIP3    H121525   0.728   3.996   4.362 -0.7345 -0.3542  0.8960
 7187TIP3    H221526   0.857   3.935   4.314 -0.0248 -1.2574  3.7601
 7188TIP3   OH221527   3.513   5.888   3.159 -0.1299 -0.4901  0.1459
 7188TIP3    H121528   3.597   5.853   3.129 -0.7984 -0.8410 -1.4000
 7188TIP3    H221529   3.488   5.951   3.092 -1.4765 -0.9845  0.1447
 7189TIP3   OH221530   2.843   3.503   5.029 -0.4071  0.0851  0.2560
 7189TIP3    H121531   2.794   3.421   5.028  0.9807 -1.0715 -4.9274
 7189TIP3    H221532   2.776   3.571   5.030 -1.8040 -1.2383  0.6035
 7190TIP3   OH221533   4.873   3.940   3.473 -0.2761  0.4570 -0.1496
 7190TIP3    H121534   4.968   3.928   3.466 -0.3829 -0.3729 -0.2420
 7190TIP3    H221535   4.842   3.939   3.383 -0.6455 -1.7664 -0.0663
 7191TIP3   OH221536   6.245   1.734   1.613 -0.3712 -0.4556 -0.5136
 7191TIP3    H121537   6.281   1.688   1.689  0.6507 -1.1748 -1.3994
 7191TIP3    H221538   6.153   1.749   1.635 -0.2443 -1.1844  0.6097
 7192TIP3   OH221539   3.469   6.690   4.547 -0.1532 -0.3094  0.5109
 7192TIP3    H121540   3.532   6.624   4.574  1.0946  0.7118  0.1653
 7192TIP3    H221541   3.411   6.699   4.623  1.3998  0.2488  1.6934
 7193TIP3   OH221542   6.126   4.441  -0.020 -0.2640  0.3376  0.6787
 7193TIP3    H121543   6.207   4.477   0.015 -0.5981  2.7734 -0.7805
 7193TIP3    H221544   6.058   4.502   0.009 -1.2413 -0.4224  0.0570
 7194TIP3   OH221545   1.082   4.391   0.320  0.1828  0.2147  0.4475
 7194TIP3    H121546   0.991   4.402   0.291 -0.2187  0.7633  1.8504
 7194TIP3    H221547   1.120   4.478   0.313  0.5904  0.0023 -0.0500
 7195TIP3   OH221548   4.387   3.671   1.098 -0.2124 -0.4981 -0.0000
 7195TIP3    H121549   4.308   3.717   1.068  0.3375  0.2552 -0.3014
 7195TIP3    H221550   4.444   3.740   1.131  0.7135 -0.9377 -0.6539
 7196TIP3   OH221551   2.640   3.402   5.325 -0.0604 -0.0230  0.1857
 7196TIP3    H121552   2.712   3.464   5.320 -0.1685  0.0450 -0.5240
 7196TIP3    H221553   2.578   3.442   5.387  0.4507 -0.0266  0.7029
 7197TIP3   OH221554   0.089   2.580   0.537 -0.6951 -0.1264  0.2059
 7197TIP3    H121555   0.161   2.637   0.510 -0.4585  0.0540  1.1822
 7197TIP3    H221556   0.132   2.499   0.565 -0.8601 -0.0191  0.7912
 7198TIP3   OH221557   0.198   5.979   4.309  0.2647 -0.3554  0.2542
 7198TIP3    H121558   0.139   5.905   4.324 -0.8089  0.7626  1.8501
 7198TIP3    H221559   0.154   6.054   4.349  1.0942  1.2857 -1.6986
 7199TIP3   OH221560   4.169   6.175   2.894 -0.0466  0.1382 -0.2643
 7199TIP3    H121561   4.226   6.164   2.970  2.3772  0.2645 -1.9523
 7199TIP3    H221562   4.195   6.106   2.833 -0.1127  1.5578 -2.0027
 7200TIP3   OH221563   0.214   2.222   4.986  0.6235  0.4381  0.1520
 7200TIP3    H121564   0.218   2.153   5.051  1.7972  0.3232 -0.0294
 7200TIP3    H221565   0.277   2.197   4.919  2.1963  2.3921  0.7928
 7201TIP3   OH221566   6.484   6.692   4.583 -0.1820 -0.5505 -0.6009
 7201TIP3    H121567   6.493   6.753   4.656 -0.5795  0.7383 -1.5977
 7201TIP3    H221568   6.549   6.720   4.519 -0.9863 -0.5617 -1.4598
 7202TIP3   OH221569   2.639   0.954   3.437 -0.0900  0.1615 -0.1416
 7202TIP3    H121570   2.587   0.902   3.498 -0.5471  1.3929  0.5512
 7202TIP3    H221571   2.581   1.025   3.411  0.0527 -0.3995 -2.1458
 7203TIP3   OH221572   5.759   2.248   4.370  0.4339 -0.1989 -0.1502
 7203TIP3    H121573   5.854   2.246   4.384  0.5980  0.2120 -1.1083
 7203TIP3    H221574   5.732   2.335   4.400  0.7794  0.6662 -2.1252
 7204TIP3   OH221575   4.228   5.807   0.568  0.5962 -0.1630  0.8056
 7204TIP3    H121576   4.299   5.858   0.528 -0.3186  0.3404 -0.2277
 7204TIP3    H221577   4.153   5.867   0.569 -0.2554 -1.1807  0.3966
 7205TIP3   OH221578   0.426   3.629   5.048  0.5642  0.0903 -0.1783
 7205TIP3    H121579   0.337   3.594   5.044  0.9986 -1.0539  0.0344
 7205TIP3    H221580   0.476   3.563   5.096  1.2891  1.2336  0.7053
 7206TIP3   OH221581   1.504   6.577   0.878  0.1062  0.0117 -0.5608
 7206TIP3    H121582   1.550   6.499   0.909 -1.5868 -2.1224 -2.9835
 7206TIP3    H221583   1.546   6.598   0.794 -0.7821  0.4475 -0.9096
 7207TIP3   OH221584   0.388   0.433   0.896 -0.0821 -0.1029 -0.3083
 7207TIP3    H121585   0.308   0.393   0.863  0.7083 -2.1370  0.0881
 7207TIP3    H221586   0.402   0.393   0.982  1.8964 -0.6658 -0.8208
 7208TIP3   OH221587   1.424   4.000   1.750 -0.3867 -0.7714  0.3222
 7208TIP3    H121588   1.416   3.992   1.655 -2.1974 -1.5639  0.4988
 7208TIP3    H221589   1.384   4.084   1.771  0.7180 -0.2353  0.3279
 7209TIP3   OH221590   1.817   0.644   3.165  0.4034  0.1647  0.3142
 7209TIP3    H121591   1.804   0.644   3.260 -1.4582  3.0204  0.1846
 7209TIP3    H221592   1.910   0.661   3.153  0.2221  2.5796  1.7272
 7210TIP3   OH221593   2.273   4.691   2.428  0.2042  0.3787  0.7884
 7210TIP3    H121594   2.193   4.699   2.480 -0.1639  0.4076  0.2189
 7210TIP3    H221595   2.279   4.598   2.407 -0.4059  0.5808 -0.3092
 7211TIP3   OH221596   2.637   2.960   3.771 -0.3906 -0.1819  0.3790
 7211TIP3    H121597   2.653   3.016   3.695 -0.5519  0.1535  0.5863
 7211TIP3    H221598   2.559   2.909   3.748 -0.0175 -0.5927  0.0395
 7212TIP3   OH221599   0.923   1.561   5.584 -0.1656  0.0156  0.0119
 7212TIP3    H121600   0.975   1.624   5.634 -0.4588  1.0864 -1.0050
 7212TIP3    H221601   0.984   1.523   5.521 -0.4359  0.7576 -0.7096
 7213TIP3   OH221602   2.600   5.637   4.743  0.9608 -0.2733 -0.0415
 7213TIP3    H121603   2.668   5.635   4.676  0.4726 -1.3609 -0.5296
 7213TIP3    H221604   2.588   5.545   4.768  0.2711 -0.0101  0.6398
 7214TIP3   OH221605   6.083   5.147   2.991  1.5175  0.3366 -0.0576
 7214TIP3    H121606   6.012   5.106   3.040  0.9787  2.0891  0.7365
 7214TIP3    H221607   6.044   5.226   2.954  3.2080  1.8479  1.1564
 7215TIP3   OH221608   7.010   5.778   0.160 -0.4869  0.2568 -0.3745
 7215TIP3    H121609   7.088   5.824   0.191  0.1085 -0.9528 -0.0114
 7215TIP3    H221610   7.026   5.765   0.066 -1.0972  1.6057 -0.6859
 7216TIP3   OH221611   3.740   3.719   0.232  0.1123 -0.2237 -0.4944
 7216TIP3    H121612   3.787   3.675   0.303 -0.4598 -0.8718 -0.5111
 7216TIP3    H221613   3.801   3.716   0.158  0.6274  0.2648 -0.1027
 7217TIP3   OH221614   0.937   3.770   0.276  0.2925 -0.1615  0.4891
 7217TIP3    H121615   0.973   3.838   0.332 -0.5659  1.0097 -0.3310
 7217TIP3    H221616   0.844   3.793   0.266  0.5664  0.1878 -2.0763
 7218TIP3   OH221617   5.050   3.468   2.270 -0.0788 -0.1359  0.3118
 7218TIP3    H121618   5.050   3.375   2.292  3.2210 -0.0617  1.1759
 7218TIP3    H221619   5.107   3.475   2.194 -1.0626  1.1239 -0.3503
 7219TIP3   OH221620   4.740   2.739   5.541  0.2762  0.2755 -0.7149
 7219TIP3    H121621   4.716   2.700   5.457  0.4926  0.3060 -0.7906
 7219TIP3    H221622   4.827   2.775   5.527  0.1739  0.5819 -0.5785
 7220TIP3   OH221623   6.569   1.353   4.407  0.0130 -0.0756 -0.0857
 7220TIP3    H121624   6.515   1.411   4.352 -0.1353 -0.6377 -0.5459
 7220TIP3    H221625   6.520   1.271   4.409  1.2208 -0.8608 -1.1822
 7221TIP3   OH221626   6.453   6.090   0.841  0.3580  0.6152 -0.3752
 7221TIP3    H121627   6.449   6.032   0.917 -1.6485 -0.4412 -1.2226
 7221TIP3    H221628   6.515   6.158   0.867 -1.1203  0.9993  2.7434
 7222TIP3   OH221629   0.639   6.742   5.764  0.0587  0.0379  0.1353
 7222TIP3    H121630   0.598   6.679   5.705 -0.2550 -0.5645  0.9715
 7222TIP3    H221631   0.581   6.743   5.841 -0.0995  1.5602  0.0288
 7223TIP3   OH221632   2.903   4.610   2.582 -0.2391 -0.0739 -0.0660
 7223TIP3    H121633   2.856   4.527   2.585  0.2085 -0.3178  0.4819
 7223TIP3    H221634   2.976   4.598   2.644  0.7564  0.1552 -1.1538
 7224TIP3   OH221635   6.533   1.696   4.447  0.3732  0.5855  0.5570
 7224TIP3    H121636   6.504   1.633   4.382  0.5052 -0.1313  1.1868
 7224TIP3    H221637   6.453   1.734   4.482  0.2243 -0.3581  1.2760
 7225TIP3   OH221638   2.917   6.197   2.800 -0.1791  0.0047 -0.0139
 7225TIP3    H121639   2.886   6.216   2.888  0.5995  0.0314  0.2675
 7225TIP3    H221640   2.886   6.270   2.747  2.0079  1.7054  0.8628
 7226TIP3   OH221641   1.109   3.050   2.628  0.0280  0.0362  0.0471
 7226TIP3    H121642   1.097   3.053   2.723 -1.3287 -0.4230 -0.0885
 7226TIP3    H221643   1.093   2.959   2.605 -1.6298  0.4993 -0.8240
 7227TIP3   OH221644   4.446   0.595   1.241  0.1648 -0.0278 -0.5411
 7227TIP3    H121645   4.383   0.524   1.247  0.0176 -0.1005 -2.4550
 7227TIP3    H221646   4.396   0.673   1.264 -0.0960 -0.3326 -0.0554
 7228TIP3   OH221647   1.666   4.828   4.014 -0.5397  0.6140  0.0496
 7228TIP3    H121648   1.603   4.784   4.071  0.7650 -1.0749  0.2603
 7228TIP3    H221649   1.671   4.772   3.936  2.0071 -0.3703  0.8086
 7229TIP3   OH221650   3.498   3.122   3.990 -0.1796 -0.4010 -0.0084
 7229TIP3    H121651   3.572   3.094   4.044  0.4571 -1.4639 -1.3681
 7229TIP3    H221652   3.434   3.156   4.053  1.6029  0.9781  1.1977
 7230TIP3   OH221653   5.463   0.798   5.678  0.0773  0.2884 -0.2419
 7230TIP3    H121654   5.542   0.852   5.685  0.2149  0.4785 -2.5435
 7230TIP3    H221655   5.396   0.846   5.727  0.3340  2.3740 -1.7973
 7231TIP3   OH221656   2.081   2.024   0.179 -0.3477 -0.0784  0.4234
 7231TIP3    H121657   2.091   2.114   0.146 -1.7992 -0.3702 -0.9035
 7231TIP3    H221658   2.171   1.995   0.195  0.2201  1.2189 -0.2199
 7232TIP3   OH221659   4.136   6.439   3.710  0.0388  0.3658  0.2378
 7232TIP3    H121660   4.197   6.396   3.770 -0.7913 -0.3204  0.6140
 7232TIP3    H221661   4.117   6.523   3.750  0.2595  0.3187  0.4416
 7233TIP3   OH221662   6.012   4.475   5.133  0.6596 -0.2792 -0.4181
 7233TIP3    H121663   6.067   4.403   5.165  0.0057 -0.1610  1.0378
 7233TIP3    H221664   6.048   4.553   5.174 -0.0728 -0.0958 -0.1001
 7234TIP3   OH221665   1.273   5.487   0.907  0.5227  0.1229  0.0720
 7234TIP3    H121666   1.205   5.454   0.965 -0.9834  0.0490 -1.6590
 7234TIP3    H221667   1.323   5.410   0.882 -0.2029 -0.1888 -0.4469
 7235TIP3   OH221668   4.223   5.172   3.786  0.0752  0.3860  0.6070
 7235TIP3    H121669   4.157   5.233   3.752 -1.1125 -1.6488 -1.0114
 7235TIP3    H221670   4.270   5.143   3.707  1.4935  0.1870  1.4997
 7236TIP3   OH221671   4.895   5.715   2.543 -0.8384 -0.0471 -0.0636
 7236TIP3    H121672   4.907   5.754   2.629  1.0112 -2.6738  0.9940
 7236TIP3    H221673   4.871   5.624   2.560 -2.9071 -0.0533 -2.3818
 7237TIP3   OH221674   4.726   4.439   3.694 -0.3073 -0.1375 -0.2496
 7237TIP3    H121675   4.751   4.369   3.633  0.6014 -0.5775  0.6136
 7237TIP3    H221676   4.642   4.410   3.730 -0.7375  0.0150 -1.1057
 7238TIP3   OH221677   4.856   2.033   5.792 -0.0324  0.5319 -0.0276
 7238TIP3    H121678   4.862   2.021   5.697 -0.5152  1.8292 -0.2417
 7238TIP3    H221679   4.801   1.961   5.822  0.9949 -0.5154 -0.5653
 7239TIP3   OH221680   2.485   5.488   4.358  0.2090  0.8107  0.0940
 7239TIP3    H121681   2.450   5.518   4.274 -1.5293  0.9577  0.8350
 7239TIP3    H221682   2.433   5.410   4.379  1.5512 -0.0317  0.4056
 7240TIP3   OH221683   6.168   6.399   1.967 -0.0021 -0.1804 -0.7523
 7240TIP3    H121684   6.105   6.433   2.031  1.2336  0.2983  0.2712
 7240TIP3    H221685   6.127   6.321   1.932 -0.5883 -0.6665  0.9009
 7241TIP3   OH221686   3.115   3.396   3.225 -0.1003 -0.2219  0.2111
 7241TIP3    H121687   3.028   3.417   3.191  0.4805 -0.4111 -1.5011
 7241TIP3    H221688   3.172   3.462   3.185  0.5046  0.0976  1.5704
 7242TIP3   OH221689   4.309   2.531   1.294 -0.0259 -0.2121  0.0634
 7242TIP3    H121690   4.251   2.507   1.366  0.0932  0.7260  0.4842
 7242TIP3    H221691   4.308   2.626   1.293  1.4551 -0.1751  0.0428
 7243TIP3   OH221692   6.060   3.517   0.095  0.3589  0.1110 -0.2739
 7243TIP3    H121693   5.996   3.583   0.123  0.9156  0.7182 -0.4087
 7243TIP3    H221694   6.143   3.565   0.088  0.4172 -0.2089 -2.1608
 7244TIP3   OH221695   2.607   1.610   2.267 -0.4025 -0.0625 -0.2329
 7244TIP3    H121696   2.562   1.647   2.191 -0.3586  0.0796 -0.1894
 7244TIP3    H221697   2.581   1.518   2.267 -1.6978  0.2837  0.5162
 7245TIP3   OH221698   5.253   3.205   5.661  0.3810  0.8976 -0.3814
 7245TIP3    H121699   5.211   3.128   5.699 -0.4371  0.9550 -1.1615
 7245TIP3    H221700   5.193   3.277   5.679  0.7508  1.2116 -0.3844
 7246TIP3   OH221701   1.016   5.368   1.490  0.2386  0.2427 -0.0818
 7246TIP3    H121702   1.041   5.304   1.556  1.2440  0.8437  0.1406
 7246TIP3    H221703   0.921   5.363   1.486  0.3193 -1.6702 -0.4865
 7247TIP3   OH221704   2.677   2.459   4.196  0.0682 -0.1640  1.0474
 7247TIP3    H121705   2.641   2.377   4.231  2.5103 -2.3425 -1.1320
 7247TIP3    H221706   2.702   2.508   4.274  0.1439 -2.2901  2.4579
 7248TIP3   OH221707   1.302   6.196   2.248 -0.1724  0.3760 -0.0958
 7248TIP3    H121708   1.265   6.120   2.292 -0.4139  0.5677  0.0366
 7248TIP3    H221709   1.348   6.243   2.317 -0.4928  0.6406 -0.0592
 7249TIP3   OH221710   3.202   3.444   4.545 -0.5209  0.2180 -0.1038
 7249TIP3    H121711   3.230   3.423   4.634 -1.2992 -1.5093 -0.2310
 7249TIP3    H221712   3.284   3.446   4.494 -0.1118  0.8387  0.5637
 7250TIP3   OH221713   1.724   1.559   1.216 -0.3737 -0.5466  0.0009
 7250TIP3    H121714   1.786   1.580   1.286 -1.8923 -0.4516  1.3647
 7250TIP3    H221715   1.741   1.467   1.195  1.2255 -0.1213 -0.7266
 7251TIP3   OH221716   4.300   2.806   1.334  0.4388 -0.3872  0.6571
 7251TIP3    H121717   4.287   2.786   1.427  1.0024 -1.2497  0.5594
 7251TIP3    H221718   4.228   2.864   1.312  0.4635  0.0684  1.7098
 7252TIP3   OH221719   5.300   4.879   2.937 -0.1842 -0.1428  0.2525
 7252TIP3    H121720   5.255   4.890   2.853  0.1808 -0.2618  0.0399
 7252TIP3    H221721   5.247   4.815   2.984 -0.2745 -0.2331  0.0303
 7253TIP3   OH221722   0.871   5.357   4.617  0.0462 -0.0539 -0.1210
 7253TIP3    H121723   0.851   5.273   4.576  0.6347  0.0475 -0.6262
 7253TIP3    H221724   0.820   5.421   4.567  3.1975  0.5115 -2.8952
 7254TIP3   OH221725   5.790   0.517   3.009 -0.1337 -0.7877 -0.7891
 7254TIP3    H121726   5.830   0.603   2.992  0.5683 -1.0731 -0.6367
 7254TIP3    H221727   5.820   0.462   2.936  1.7156 -1.6355  0.5346
 7255TIP3   OH221728   2.044   6.714   4.431  0.7733  0.0234  0.5636
 7255TIP3    H121729   2.026   6.666   4.350  1.4300  0.1185  0.3580
 7255TIP3    H221730   2.035   6.648   4.500  0.4076 -0.1011  0.4032
 7256TIP3   OH221731   1.361   3.257   0.777 -0.4372  0.3746 -0.1598
 7256TIP3    H121732   1.366   3.170   0.737 -1.3290 -1.3058  3.0261
 7256TIP3    H221733   1.268   3.277   0.779 -0.4973  0.0781  1.5498
 7257TIP3   OH221734   5.208   6.017   5.068 -0.3288  0.4429  0.0578
 7257TIP3    H121735   5.158   6.098   5.064  0.5868  0.9905 -0.8930
 7257TIP3    H221736   5.295   6.040   5.033  0.4964 -0.5405  1.3587
 7258TIP3   OH221737   7.186   1.951   0.643  0.4600  0.1046 -0.1524
 7258TIP3    H121738   7.214   1.901   0.566  1.1442 -3.5648  2.2554
 7258TIP3    H221739   7.090   1.952   0.637  0.4699 -0.8193 -0.7101
 7259TIP3   OH221740   4.565   4.664   0.253 -0.5274 -0.2009  0.2999
 7259TIP3    H121741   4.597   4.739   0.303  0.1523 -0.5522  0.3970
 7259TIP3    H221742   4.470   4.677   0.249 -0.2397  2.0378 -1.8958
 7260TIP3   OH221743   2.498   0.980   3.902  0.0245  0.5138 -0.0389
 7260TIP3    H121744   2.478   1.016   3.989 -0.9318  0.0299 -0.0463
 7260TIP3    H221745   2.503   0.886   3.915 -2.8489  0.1399 -0.9516
 7261TIP3   OH221746   3.430   1.891   3.171  0.4205 -0.1345  0.1546
 7261TIP3    H121747   3.420   1.804   3.131  1.6290  0.0519 -0.5867
 7261TIP3    H221748   3.512   1.885   3.221  1.6418  1.1735 -1.5747
 7262TIP3   OH221749   1.162   5.181   1.194 -0.9189 -0.6365  0.3465
 7262TIP3    H121750   1.178   5.271   1.165  0.1462 -0.8074  0.3380
 7262TIP3    H221751   1.230   5.165   1.260 -0.5258 -1.7210 -0.2929
 7263TIP3   OH221752   6.484   6.384   5.247  0.6268 -0.1678  0.0564
 7263TIP3    H121753   6.450   6.294   5.241 -0.1443  0.1552 -0.7149
 7263TIP3    H221754   6.573   6.379   5.214  0.5867 -0.6558  0.0213
 7264TIP3   OH221755   5.869   0.589   0.503 -0.3094  0.1245 -0.1829
 7264TIP3    H121756   5.830   0.520   0.557 -0.9534  0.1754 -0.5766
 7264TIP3    H221757   5.802   0.612   0.439 -0.0603  1.0292 -0.1463
 7265TIP3   OH221758   1.705   4.637   1.911  0.5787 -0.2417 -1.0331
 7265TIP3    H121759   1.755   4.718   1.926 -0.7787  0.7103 -1.4948
 7265TIP3    H221760   1.726   4.582   1.987  1.0027  0.8129 -0.3543
 7266TIP3   OH221761   0.967   1.529   4.595 -0.0681  0.2098 -0.2238
 7266TIP3    H121762   0.959   1.566   4.683 -1.5475  0.3114 -0.3738
 7266TIP3    H221763   0.948   1.436   4.606 -1.1997  0.3847 -0.5499
 7267TIP3   OH221764   1.543   3.480   3.472  0.4012 -0.0640 -0.2795
 7267TIP3    H121765   1.470   3.471   3.412  1.3157 -0.7527 -1.3304
 7267TIP3    H221766   1.584   3.393   3.474  1.1791  0.2966  0.2836
 7268TIP3   OH221767   0.708   2.716   0.650  0.0133  0.1828 -0.1094
 7268TIP3    H121768   0.735   2.658   0.720  1.4951 -0.2543 -1.0031
 7268TIP3    H221769   0.681   2.797   0.695  0.5418 -0.2226  0.9700
 7269TIP3   OH221770   0.187   4.111   2.488  0.2234 -0.0469 -0.5138
 7269TIP3    H121771   0.205   4.135   2.579 -0.9675 -0.8887 -0.0437
 7269TIP3    H221772   0.228   4.026   2.477  1.0131  0.3840 -1.0063
 7270TIP3   OH221773   0.912   0.433   3.344  1.0189  0.0310  0.6688
 7270TIP3    H121774   0.835   0.411   3.292  0.9897  1.3823  0.0964
 7270TIP3    H221775   0.878   0.493   3.412  1.8857  2.7831 -1.1436
 7271TIP3   OH221776   3.959   6.103   5.818  0.2158 -0.4383  0.0123
 7271TIP3    H121777   3.876   6.059   5.838  0.7792 -2.0002 -0.9024
 7271TIP3    H221778   3.943   6.195   5.841 -1.5094 -0.8330  0.5731
 7272TIP3   OH221779   5.101   2.202   0.023  0.2659  0.0929  0.4014
 7272TIP3    H121780   5.164   2.147  -0.023 -0.3985  1.0229 -1.7598
 7272TIP3    H221781   5.129   2.200   0.114  1.7216 -1.7715 -0.0226
 7273TIP3   OH221782   0.065   5.689   4.697 -0.0888  0.3079 -0.3596
 7273TIP3    H121783  -0.028   5.668   4.693  0.1192 -0.5993 -0.6742
 7273TIP3    H221784   0.106   5.613   4.738  0.6693  0.1441 -1.3742
 7274TIP3   OH221785   3.705   5.856   4.673  0.0616 -0.2299  0.1965
 7274TIP3    H121786   3.775   5.862   4.608 -0.5449 -2.7681 -0.8216
 7274TIP3    H221787   3.628   5.892   4.628  0.3523  1.1929  0.7900
 7275TIP3   OH221788   5.103   4.691   3.621  0.4828 -0.4135  0.0912
 7275TIP3    H121789   5.176   4.752   3.630  0.6695 -0.9307  2.7000
 7275TIP3    H221790   5.144   4.604   3.628 -0.3484 -0.7068  1.7912
 7276TIP3   OH221791   6.042   1.453   1.031 -0.2646  0.2365 -0.0161
 7276TIP3    H121792   6.080   1.534   1.065  0.8699 -0.5127  0.5294
 7276TIP3    H221793   5.993   1.417   1.105  0.9194 -0.5956  0.3939
 7277TIP3   OH221794   0.389   4.838   0.826 -0.0848  0.5382 -0.0996
 7277TIP3    H121795   0.297   4.836   0.798  0.5633  0.2432 -2.4394
 7277TIP3    H221796   0.430   4.901   0.767  1.2005  0.7949  1.0222
 7278TIP3   OH221797   4.539   2.087   3.168  0.1521 -0.3524  0.1590
 7278TIP3    H121798   4.478   2.017   3.190  0.6032 -0.5689  0.7840
 7278TIP3    H221799   4.581   2.108   3.252  0.2326  0.4602 -0.0802
 7279TIP3   OH221800   1.718   1.257   2.533 -0.1983  0.3646  0.0424
 7279TIP3    H121801   1.795   1.200   2.529  0.5436  1.3107  0.4874
 7279TIP3    H221802   1.645   1.201   2.507  0.7005 -0.4423 -0.8057
 7280TIP3   OH221803   2.421  -0.023   0.885 -0.5774 -0.2464 -0.1187
 7280TIP3    H121804   2.409  -0.013   0.979  1.2917  0.6287  0.0779
 7280TIP3    H221805   2.468   0.056   0.858  0.3083 -1.1840 -1.4888
 7281TIP3   OH221806   5.897   1.181   1.930 -0.5458  0.4052 -0.3290
 7281TIP3    H121807   5.973   1.155   1.982 -0.7788  0.4485  0.0405
 7281TIP3    H221808   5.934   1.220   1.851 -0.1865  0.1515 -0.2885
 7282TIP3   OH221809   7.096   5.190   3.676  0.1653 -0.1891  0.1058
 7282TIP3    H121810   7.028   5.179   3.743 -0.2670  0.8959 -0.1431
 7282TIP3    H221811   7.081   5.117   3.616 -0.0766 -0.5997  0.6540
 7283TIP3   OH221812   5.615   3.003   5.112 -0.1348  0.0563 -0.5080
 7283TIP3    H121813   5.589   2.931   5.170 -0.7137  0.5069 -0.1942
 7283TIP3    H221814   5.600   3.082   5.164 -0.3323  0.4504 -1.1486
 7284TIP3   OH221815   3.945   5.334   1.136 -0.0036  0.0425 -0.0420
 7284TIP3    H121816   3.900   5.372   1.060  1.9834  2.0750 -0.3020
 7284TIP3    H221817   3.974   5.248   1.106  0.2254  0.5690 -1.3981
 7285TIP3   OH221818   2.097   6.738   0.204 -0.1137  0.5508  0.6582
 7285TIP3    H121819   2.062   6.826   0.188 -1.1709  0.1539  0.6479
 7285TIP3    H221820   2.061   6.714   0.289  2.7673  1.3406  2.2185
 7286TIP3   OH221821   4.037   0.062   1.321 -0.0037  0.4179 -0.7439
 7286TIP3    H121822   4.048   0.026   1.408  1.7837 -0.6103 -1.3370
 7286TIP3    H221823   4.118   0.111   1.305 -0.7200  1.4197 -1.4727
 7287TIP3   OH221824   4.606   5.490   4.498 -0.1643 -0.1004 -0.2969
 7287TIP3    H121825   4.643   5.448   4.575 -0.4368 -1.2802 -0.7891
 7287TIP3    H221826   4.682   5.523   4.449  0.0211  0.4026  0.3132
 7288TIP3   OH221827   2.686   6.322   1.037  0.1290  0.4575  0.1406
 7288TIP3    H121828   2.629   6.398   1.051  0.0250  0.3640  0.2295
 7288TIP3    H221829   2.686   6.276   1.121  0.7102  0.7075  0.2785
 7289TIP3   OH221830   6.249   6.112   2.385 -0.0347 -0.0136  0.0579
 7289TIP3    H121831   6.200   6.069   2.315 -1.8960 -0.1938  1.4009
 7289TIP3    H221832   6.250   6.204   2.360 -0.1736 -0.1641 -0.5083
 7290TIP3   OH221833   2.909   4.784   4.992  0.2131  0.2351  0.1059
 7290TIP3    H121834   2.950   4.864   5.025  0.8626 -0.5692  1.2928
 7290TIP3    H221835   2.824   4.780   5.037  0.1071  0.3509 -0.0847
 7291TIP3   OH221836   6.118   6.500   0.774  0.2989 -0.3719 -0.1498
 7291TIP3    H121837   6.141   6.502   0.681  1.3057 -1.2836  0.0636
 7291TIP3    H221838   6.049   6.435   0.780 -2.2771  2.0894 -0.7304
 7292TIP3   OH221839   4.627   2.051   3.953  0.1713 -0.4185 -0.7412
 7292TIP3    H121840   4.697   2.078   4.011 -0.1294 -0.6873 -0.2434
 7292TIP3    H221841   4.550   2.100   3.983 -0.1941 -1.2169 -0.3261
 7293TIP3   OH221842   2.630   5.796   2.732 -0.0733  0.5467  0.5997
 7293TIP3    H121843   2.669   5.868   2.683 -0.6333  0.8964  0.6534
 7293TIP3    H221844   2.667   5.803   2.820  1.8139 -0.7733 -0.0457
 7294TIP3   OH221845   4.927   5.293   3.543  0.2339 -0.1967 -0.2209
 7294TIP3    H121846   5.002   5.255   3.497 -0.4038 -1.8425  0.0327
 7294TIP3    H221847   4.924   5.247   3.627 -1.2225 -0.3972 -0.3535
 7295TIP3   OH221848   6.185   0.607   5.852 -0.1828 -0.2361  0.1920
 7295TIP3    H121849   6.220   0.526   5.816 -1.7584 -0.0451 -1.9743
 7295TIP3    H221850   6.197   0.599   5.947  2.3658 -1.6614 -0.1625
 7296TIP3   OH221851   6.108   5.125   3.769 -0.6953 -0.5268 -0.0538
 7296TIP3    H121852   6.092   5.219   3.758 -1.4125 -0.7956 -1.6177
 7296TIP3    H221853   6.065   5.102   3.851  1.2435  0.8703  1.4415
 7297TIP3   OH221854   3.346   4.374   1.983 -0.2643 -0.4312 -0.2398
 7297TIP3    H121855   3.305   4.323   2.052 -0.9275 -0.6802 -0.8053
 7297TIP3    H221856   3.416   4.319   1.950  0.6625  0.0553  0.8315
 7298TIP3   OH221857   2.355   4.263   4.801 -0.0337  0.3012 -0.0121
 7298TIP3    H121858   2.377   4.319   4.727  0.6375 -0.8071 -0.6709
 7298TIP3    H221859   2.259   4.257   4.798  0.0629 -1.2222 -1.9525
 7299TIP3   OH221860   5.020   2.168   1.900 -0.0902 -0.2969  0.1410
 7299TIP3    H121861   4.960   2.171   1.826 -0.1652 -3.4739 -0.0587
 7299TIP3    H221862   4.970   2.205   1.973 -0.9125  0.5425 -0.8163
 7300TIP3   OH221863   1.593   1.076   5.160 -0.2097 -0.2810 -0.0415
 7300TIP3    H121864   1.515   1.101   5.210  0.4374  0.3033  0.7085
 7300TIP3    H221865   1.662   1.132   5.195  0.4537 -0.4782 -1.0015
 7301TIP3   OH221866   2.667   0.592   4.616  0.9115  0.7637  0.4667
 7301TIP3    H121867   2.594   0.644   4.584 -0.9568 -0.5627  2.3037
 7301TIP3    H221868   2.675   0.519   4.555  0.5226  0.7892  0.3862
 7302TIP3   OH221869   2.473   6.090   2.371  0.7352  0.6810  0.2029
 7302TIP3    H121870   2.561   6.117   2.347  0.5288 -0.8953 -2.9358
 7302TIP3    H221871   2.478   5.995   2.377 -0.9327  0.4456 -1.3048
 7303TIP3   OH221872   5.223   5.143   2.320 -0.2085 -0.3706 -0.4177
 7303TIP3    H121873   5.245   5.113   2.232 -0.3310 -1.1138 -0.2049
 7303TIP3    H221874   5.265   5.079   2.378  0.3904  0.4573  0.0869
 7304TIP3   OH221875   3.940   3.798   0.960 -0.1757 -0.5098 -0.2362
 7304TIP3    H121876   3.870   3.822   1.021  0.7254 -2.5673  1.7316
 7304TIP3    H221877   3.913   3.713   0.924  0.8868 -0.9013 -0.1349
 7305TIP3   OH221878   5.395   3.536   1.127  0.2472 -0.3120  0.2466
 7305TIP3    H121879   5.316   3.590   1.121  0.1508 -0.4563  0.1967
 7305TIP3    H221880   5.362   3.446   1.127  0.4794 -0.4120 -1.0923
 7306TIP3   OH221881   5.481   1.020   0.139 -0.6081  0.6863 -0.5443
 7306TIP3    H121882   5.455   0.962   0.211 -0.1634 -0.4389 -1.2567
 7306TIP3    H221883   5.402   1.026   0.084 -0.0320 -1.1795 -1.6929
 7307TIP3   OH221884   1.953   4.804   3.251  0.1876  0.7888 -0.1440
 7307TIP3    H121885   1.927   4.747   3.179 -2.1475  1.8876 -0.2574
 7307TIP3    H221886   2.017   4.753   3.300 -0.3259 -1.1230 -1.3550
 7308TIP3   OH221887   0.682   6.028   3.885 -0.5806 -0.1583  0.5754
 7308TIP3    H121888   0.609   5.988   3.837  0.3664 -1.8603  0.4787
 7308TIP3    H221889   0.667   6.123   3.877 -1.0313 -0.3825 -2.2213
 7309TIP3   OH221890   3.713   3.556   5.738 -0.2468 -0.0398  0.4073
 7309TIP3    H121891   3.796   3.520   5.768  0.9452 -0.2479 -2.7900
 7309TIP3    H221892   3.701   3.521   5.650 -1.8465  2.9021 -0.7118
 7310TIP3   OH221893   3.881   2.231   2.377  0.1830  0.3120 -0.2688
 7310TIP3    H121894   3.844   2.153   2.336  2.2914 -0.7278 -0.3146
 7310TIP3    H221895   3.901   2.289   2.303 -0.7990  0.6478 -0.2824
 7311TIP3   OH221896   4.259   4.054   4.794 -0.1460  0.2083 -0.0951
 7311TIP3    H121897   4.185   4.079   4.849 -0.4507 -1.6764  0.4328
 7311TIP3    H221898   4.330   4.035   4.857  1.5022  3.8162 -0.6373
 7312TIP3   OH221899   2.504   4.870   3.281 -0.0948 -0.0027 -0.5322
 7312TIP3    H121900   2.441   4.800   3.266 -1.2247  0.7156  0.6479
 7312TIP3    H221901   2.451   4.950   3.284  1.0772  0.8457 -1.1449
 7313TIP3   OH221902   5.579   4.311   1.258 -0.1980 -0.0426 -0.0327
 7313TIP3    H121903   5.663   4.266   1.248 -1.5502 -3.5241  2.2972
 7313TIP3    H221904   5.516   4.252   1.217 -1.8929  0.7574  1.2943
 7314TIP3   OH221905   5.495   2.823   3.296  0.4225  0.1724  0.1745
 7314TIP3    H121906   5.582   2.849   3.325  0.2830 -0.6074  1.3934
 7314TIP3    H221907   5.436   2.860   3.362  0.0481 -1.2970  0.7074
 7315TIP3   OH221908   3.691   0.633   4.941 -0.6914  0.3428  0.3487
 7315TIP3    H121909   3.651   0.589   5.016  0.7019 -0.9468  0.3980
 7315TIP3    H221910   3.696   0.565   4.874  0.3218  0.7704 -0.0301
 7316TIP3   OH221911   5.183   5.686   3.831  0.9437  0.2998 -0.3045
 7316TIP3    H121912   5.259   5.696   3.774  1.6703 -1.0318  0.3727
 7316TIP3    H221913   5.211   5.622   3.897 -0.6361  0.0705  0.1906
 7317TIP3   OH221914   0.675   0.157   3.915 -0.0327 -0.4652 -0.2858
 7317TIP3    H121915   0.676   0.124   4.005  0.1377  1.5749  0.5121
 7317TIP3    H221916   0.766   0.151   3.886  0.8394  2.8238  1.3020
 7318TIP3   OH221917   4.575   5.985   0.142  0.8683 -0.0636  0.7566
 7318TIP3    H121918   4.508   5.945   0.087  0.9739  2.1072 -1.0698
 7318TIP3    H221919   4.658   5.961   0.101  1.0071  0.6717  0.5974
 7319TIP3   OH221920   6.986   2.962   5.697 -0.4380  0.5751 -0.5006
 7319TIP3    H121921   6.980   3.037   5.638 -2.4420  1.2138  0.4097
 7319TIP3    H221922   6.989   3.001   5.784  0.7442 -0.3946 -0.0759
 7320TIP3   OH221923   4.093   3.620   4.428 -0.2999  0.1937  0.4763
 7320TIP3    H121924   4.088   3.689   4.361  2.0503  0.6574  0.6931
 7320TIP3    H221925   4.181   3.584   4.419 -1.2674 -2.4519  0.7711
 7321TIP3   OH221926   1.895   4.147   3.693  0.1445 -0.6109 -0.1938
 7321TIP3    H121927   1.987   4.128   3.715  0.6735  0.7931 -1.0381
 7321TIP3    H221928   1.869   4.075   3.636  0.1746 -1.8892  1.3317
 7322TIP3   OH221929   6.999   1.805   3.118  0.0888  1.0502 -0.1588
 7322TIP3    H121930   7.014   1.783   3.210  1.4886  1.5071 -0.2573
 7322TIP3    H221931   6.974   1.721   3.077 -0.5691  0.8515  0.6225
 7323TIP3   OH221932   0.857   0.402   1.521  0.0733  0.3302  0.3033
 7323TIP3    H121933   0.952   0.398   1.533  0.3632 -0.0246 -1.8381
 7323TIP3    H221934   0.841   0.490   1.489 -0.3736  0.4489  0.8290
 7324TIP3   OH221935   5.924   3.001   0.955  0.3796  0.1527 -0.0442
 7324TIP3    H121936   5.919   3.040   0.868 -0.0798 -2.2013 -1.1570
 7324TIP3    H221937   6.011   3.024   0.987  1.7869 -1.3725 -2.4425
 7325TIP3   OH221938   6.210   6.083   4.666  0.5265  0.3406  0.0687
 7325TIP3    H121939   6.175   6.167   4.635  1.9150  1.3729  1.1088
 7325TIP3    H221940   6.288   6.108   4.716  0.1854 -1.4825  1.5982
 7326TIP3   OH221941   3.399   1.124   2.751 -0.4910  0.3944 -0.2655
 7326TIP3    H121942   3.494   1.125   2.739 -0.5020  1.9042 -0.4099
 7326TIP3    H221943   3.364   1.094   2.667 -0.1373 -0.7951 -0.0039
 7327TIP3   OH221944   6.089   5.239   4.477 -0.3150  0.2298 -0.3488
 7327TIP3    H121945   6.031   5.282   4.414 -2.5835 -0.2356  1.2713
 7327TIP3    H221946   6.113   5.309   4.538 -1.0515 -0.0372  0.2560
 7328TIP3   OH221947   2.173   3.409   3.084  0.0873 -0.3999  0.1955
 7328TIP3    H121948   2.222   3.381   3.007  1.5658  1.5055  0.3596
 7328TIP3    H221949   2.196   3.502   3.095 -1.5568 -0.1174  1.8322
 7329TIP3   OH221950   3.064   4.582   4.175  0.6413 -0.8306 -0.1316
 7329TIP3    H121951   2.969   4.586   4.163  0.6807  2.1515 -0.2266
 7329TIP3    H221952   3.096   4.537   4.097 -0.6036 -0.2806 -0.9921
 7330TIP3   OH221953   4.732   3.358   2.562 -0.4002 -0.4393 -0.1424
 7330TIP3    H121954   4.669   3.429   2.577 -0.7008 -0.6102 -0.5798
 7330TIP3    H221955   4.694   3.282   2.606 -0.7525 -0.6684 -0.8246
 7331TIP3   OH221956   0.924   3.745   3.072 -0.1359  0.1240 -0.8454
 7331TIP3    H121957   1.000   3.787   3.033  0.1756 -1.0129 -1.5080
 7331TIP3    H221958   0.871   3.716   2.998 -1.6826  1.6502 -0.4110
 7332TIP3   OH221959   1.175   3.402   5.275  0.4882 -0.4778 -0.4372
 7332TIP3    H121960   1.249   3.362   5.321 -0.9617 -0.8556  1.7219
 7332TIP3    H221961   1.197   3.495   5.270  0.3943 -0.2612  1.8425
 7333TIP3   OH221962   2.537   6.733   4.734  0.4506 -0.7497 -0.3007
 7333TIP3    H121963   2.600   6.686   4.789  0.4132  0.2976  0.6694
 7333TIP3    H221964   2.537   6.822   4.769 -0.5612 -0.3966 -1.1711
 7334TIP3   OH221965   3.377   2.710   1.975  0.7119 -0.0506 -0.0795
 7334TIP3    H121966   3.459   2.699   1.927  0.7588 -0.0703  0.0047
 7334TIP3    H221967   3.399   2.770   2.046  1.2525 -1.8815  1.3773
 7335TIP3   OH221968   3.012   0.395   4.345  0.0579 -0.2632 -0.4476
 7335TIP3    H121969   3.042   0.414   4.256  1.6744 -0.8154 -0.0512
 7335TIP3    H221970   3.037   0.304   4.360 -3.2469 -1.3442 -0.5864
 7336TIP3   OH221971   5.547   4.385   1.731 -0.3489 -0.3627  0.0189
 7336TIP3    H121972   5.624   4.418   1.779 -0.1726 -0.4380 -0.2134
 7336TIP3    H221973   5.548   4.290   1.746 -0.5443 -0.3329  0.2297
 7337TIP3   OH221974   4.414   5.758   1.784  0.2279 -0.3830  0.1168
 7337TIP3    H121975   4.366   5.742   1.703 -0.0471  1.0153 -0.0280
 7337TIP3    H221976   4.361   5.823   1.830  0.7123 -0.6880  1.1273
 7338TIP3   OH221977   6.660   0.334   5.045  0.1776 -0.0876  0.3746
 7338TIP3    H121978   6.686   0.251   5.084 -0.5974 -0.4130  0.1981
 7338TIP3    H221979   6.713   0.341   4.965 -1.0287 -1.2759 -0.5711
 7339TIP3   OH221980   5.497   0.477   2.934 -0.0268  0.2661  0.1974
 7339TIP3    H121981   5.589   0.502   2.937 -0.0930  0.5006  0.2351
 7339TIP3    H221982   5.449   0.559   2.926 -0.4367  0.4753  3.3985
 7340TIP3   OH221983   1.292   4.821   1.076 -0.4937  0.2625 -0.1686
 7340TIP3    H121984   1.219   4.882   1.064  0.1629  0.9412 -0.8254
 7340TIP3    H221985   1.299   4.775   0.992 -2.2378 -2.2009  0.9068
 7341TIP3   OH221986   0.900   2.329   5.182  0.2472 -0.1091 -0.4241
 7341TIP3    H121987   0.900   2.398   5.116 -0.1042 -0.9800 -1.3400
 7341TIP3    H221988   0.917   2.376   5.264 -0.2123  1.1014 -0.9902
 7342TIP3   OH221989  -0.013   3.081   1.970 -0.2133 -0.1564  0.1786
 7342TIP3    H121990   0.011   3.000   1.925  0.9450  0.6997 -0.8171
 7342TIP3    H221991   0.030   3.075   2.055 -0.1670 -0.5861  0.1299
 7343TIP3   OH221992   2.421   2.119   1.189  0.6441 -0.1579  0.8153
 7343TIP3    H121993   2.387   2.114   1.278  1.6387  4.0345  1.6593
 7343TIP3    H221994   2.515   2.104   1.198  0.5226 -1.3762  0.1805
 7344TIP3   OH221995   4.269   4.589   3.765  0.6850 -0.0361  0.1095
 7344TIP3    H121996   4.265   4.648   3.691 -0.8508 -1.2604 -0.8422
 7344TIP3    H221997   4.222   4.634   3.835 -0.2727 -0.0124 -0.5359
 7345TIP3   OH221998   3.550   5.666   0.941  0.3872  0.0388  0.3992
 7345TIP3    H121999   3.609   5.677   1.016  0.1145  0.0823  0.6092
 7345TIP3    H222000   3.599   5.698   0.866  1.1464 -1.1586  0.3527
 7346TIP3   OH222001   5.104   4.427   1.473 -0.4637 -0.2117 -0.0470
 7346TIP3    H122002   5.065   4.401   1.389 -1.4573  1.0277  0.0148
 7346TIP3    H222003   5.174   4.487   1.449  0.8503 -1.6728 -0.0927
 7347TIP3   OH222004   4.104   4.435   1.217  0.2246 -0.1234  0.0342
 7347TIP3    H122005   4.197   4.455   1.204 -0.0783  2.4542  1.2022
 7347TIP3    H222006   4.065   4.447   1.130  0.8854 -0.7979 -0.3742
 7348TIP3   OH222007   0.113   2.786   2.934 -0.4478  0.1629 -0.3023
 7348TIP3    H122008   0.189   2.780   2.992 -0.6101  2.7637  0.2844
 7348TIP3    H222009   0.151   2.796   2.846 -0.1076  0.9231 -0.0750
 7349TIP3   OH222010   4.303   0.653   4.939 -0.2545 -0.4555 -0.0494
 7349TIP3    H122011   4.275   0.594   4.868 -1.5142  0.3248 -0.2333
 7349TIP3    H222012   4.227   0.657   4.997  0.1992  0.1742  0.5004
 7350TIP3   OH222013   4.542   1.110   4.973  0.0980 -0.2306  0.0175
 7350TIP3    H122014   4.534   1.015   4.979  0.8428 -0.2254  1.9230
 7350TIP3    H222015   4.606   1.125   4.904 -2.2256 -0.9393 -2.4322
 7351TIP3   OH222016   2.583   5.423   1.786  0.4461 -0.0388 -0.4656
 7351TIP3    H122017   2.559   5.514   1.798  1.3666  0.2516 -0.7351
 7351TIP3    H222018   2.669   5.426   1.744  0.2792 -1.0263 -0.9120
 7352TIP3   OH222019   0.143   6.012   0.945  0.3272  0.4311  0.4743
 7352TIP3    H122020   0.076   6.020   0.877 -0.0420  0.9104  0.8865
 7352TIP3    H222021   0.211   5.958   0.905 -1.7338 -2.9328  1.0747
 7353TIP3   OH222022   2.743   0.720   3.001  0.2074 -0.4501 -0.2694
 7353TIP3    H122023   2.793   0.731   2.920  1.2119  0.6990  0.4503
 7353TIP3    H222024   2.739   0.809   3.038 -0.7515 -0.8524  0.6299
 7354TIP3   OH222025   7.208   3.432   1.599 -0.2966  0.0089  0.6181
 7354TIP3    H122026   7.155   3.383   1.535  2.0965 -1.2306 -0.5406
 7354TIP3    H222027   7.196   3.384   1.681  0.0684 -1.0888  0.0531
 7355TIP3   OH222028   3.795   4.095   0.764 -0.1589 -0.3565 -0.2311
 7355TIP3    H122029   3.878   4.048   0.777 -0.5047 -0.7338  0.7030
 7355TIP3    H222030   3.790   4.107   0.669  1.6052  0.8502 -0.2258
 7356TIP3   OH222031   0.967   1.295   0.921  0.1473  0.4254  0.8244
 7356TIP3    H122032   0.995   1.378   0.958 -0.1503  0.9630 -0.1208
 7356TIP3    H222033   1.005   1.294   0.833 -0.0920 -0.3059  0.7237
 7357TIP3   OH222034   0.636   4.178   1.095 -0.2361  0.1660 -0.1628
 7357TIP3    H122035   0.705   4.226   1.141 -0.5286 -0.8498  1.4195
 7357TIP3    H222036   0.560   4.183   1.154 -1.0229 -0.0950 -1.1282
 7358TIP3   OH222037   6.026   0.081   0.140  0.2038 -0.6730 -0.2305
 7358TIP3    H122038   5.949   0.028   0.115 -0.0071 -0.3605 -0.2435
 7358TIP3    H222039   6.073   0.026   0.203  0.2047 -1.0493 -0.5553
 7359TIP3   OH222040   6.135   1.127   2.163  0.5442 -0.3576 -0.6233
 7359TIP3    H122041   6.095   1.159   2.244 -0.9890  1.6248 -2.0647
 7359TIP3    H222042   6.159   1.036   2.183 -2.5702 -0.9554  1.1320
 7360TIP3   OH222043   2.238   5.512   1.497 -0.1160 -0.1751 -0.0277
 7360TIP3    H122044   2.231   5.542   1.406  3.3215 -1.4678 -0.8617
 7360TIP3    H222045   2.281   5.585   1.542 -0.3051 -0.1894  0.1763
 7361TIP3   OH222046   3.854   2.342   4.621 -0.4534  0.1240  0.3117
 7361TIP3    H122047   3.875   2.266   4.568 -0.4359 -0.1736  0.7426
 7361TIP3    H222048   3.799   2.308   4.692 -1.3607  0.6831 -0.1045
 7362TIP3   OH222049   2.592   5.081   5.116  0.7375  0.2861 -0.3683
 7362TIP3    H122050   2.594   4.989   5.088 -0.8670  0.1522 -0.1324
 7362TIP3    H222051   2.591   5.077   5.212  0.2761  0.5283 -0.3610
 7363TIP3   OH222052   2.883   5.167   4.580  0.2403 -0.2154  0.2710
 7363TIP3    H122053   2.923   5.082   4.598 -2.1916 -1.2971  0.9324
 7363TIP3    H222054   2.899   5.218   4.660 -0.6886 -1.0363  0.9951
 7364TIP3   OH222055   0.547   6.688   4.449  0.3639 -0.1197  0.0884
 7364TIP3    H122056   0.597   6.613   4.481  1.6741  1.1838  1.2598
 7364TIP3    H222057   0.456   6.657   4.445  0.7070 -1.4361  1.5658
 7365TIP3   OH222058   2.093   4.515   2.192 -0.1876  0.2158 -0.0863
 7365TIP3    H122059   2.047   4.432   2.189  3.8761 -2.4176  1.9516
 7365TIP3    H222060   2.063   4.556   2.274 -0.1882 -0.6173  0.3407
 7366TIP3   OH222061   2.793   3.304   4.247  0.3880  0.1489 -0.2930
 7366TIP3    H122062   2.780   3.213   4.275  2.2793  0.0901  0.5819
 7366TIP3    H222063   2.770   3.303   4.154  0.2791 -1.2126 -0.2819
 7367TIP3   OH222064   6.281   2.111   4.055 -0.3982 -0.6276 -0.4868
 7367TIP3    H122065   6.330   2.030   4.041 -0.8157 -0.5312 -3.0146
 7367TIP3    H222066   6.224   2.092   4.129 -0.6395 -2.7423 -1.1468
 7368TIP3   OH222067   6.788   1.223   0.954 -0.4849  0.0408 -0.3581
 7368TIP3    H122068   6.772   1.316   0.974 -0.6367 -0.5648  2.8597
 7368TIP3    H222069   6.882   1.212   0.968 -0.2298 -0.0911 -1.9683
 7369TIP3   OH222070   5.433   4.509   1.475 -0.2482  0.0481  0.3451
 7369TIP3    H122071   5.451   4.430   1.526  2.1734 -0.2334 -0.7766
 7369TIP3    H222072   5.514   4.524   1.426 -2.1366  0.7323 -2.8178
 7370TIP3   OH222073   0.493   3.119   3.630  0.2325  0.4935  0.3584
 7370TIP3    H122074   0.556   3.051   3.605 -0.4187 -0.0336  0.1210
 7370TIP3    H222075   0.453   3.147   3.547 -0.4288  0.2342  0.5782
 7371TIP3   OH222076   0.220   3.578   1.160  0.3165 -0.7534  0.2132
 7371TIP3    H122077   0.162   3.583   1.236  1.0319  3.2872  0.7550
 7371TIP3    H222078   0.308   3.571   1.197  0.5737 -0.1350 -0.2621
 7372TIP3   OH222079   6.238   3.168   2.750 -0.8055 -0.3966 -0.1433
 7372TIP3    H122080   6.256   3.087   2.702  0.1555 -0.8484  0.9131
 7372TIP3    H222081   6.263   3.148   2.840  0.9989  1.5388 -0.1263
 7373TIP3   OH222082   1.425   0.314   5.511 -0.3630 -0.1392 -0.1056
 7373TIP3    H122083   1.483   0.345   5.581  1.9374 -0.1062 -1.9134
 7373TIP3    H222084   1.434   0.219   5.511  0.5371 -0.0638 -1.0610
 7374TIP3   OH222085   6.953   4.780   2.040 -0.2502  0.1401  1.2106
 7374TIP3    H122086   6.942   4.693   2.078  4.2314 -0.5929  1.4080
 7374TIP3    H222087   7.000   4.830   2.107  1.5344  1.0793 -0.6118
 7375TIP3   OH222088   7.127   3.160   3.234 -0.6797 -0.7459 -0.6107
 7375TIP3    H122089   7.041   3.184   3.200 -0.6394 -0.8950 -0.8182
 7375TIP3    H222090   7.124   3.183   3.327  0.0893  2.0659 -1.1987
 7376TIP3   OH222091   5.934   1.642   0.381  0.6029 -0.4440 -0.2515
 7376TIP3    H122092   5.937   1.629   0.286 -1.7549  0.2050 -0.4719
 7376TIP3    H222093   5.972   1.562   0.417  0.4594 -1.2094 -1.7201
 7377TIP3   OH222094   7.013   5.625   4.549 -0.5351  0.2030  0.0038
 7377TIP3    H122095   7.064   5.613   4.469 -1.3532 -1.1695 -0.3457
 7377TIP3    H222096   6.958   5.702   4.532 -0.4425  0.1310 -0.6211
 7378TIP3   OH222097   2.463   1.145   3.091 -0.1027 -0.4739  0.0958
 7378TIP3    H122098   2.531   1.095   3.046 -1.0006  0.2583 -2.2230
 7378TIP3    H222099   2.382   1.122   3.046 -0.8626  1.3270  0.4574
 7379TIP3   OH222100   0.998   4.308   3.358  0.1055 -0.1133  0.1783
 7379TIP3    H122101   0.996   4.216   3.333 -1.0724 -0.1841  0.4827
 7379TIP3    H222102   1.056   4.349   3.293 -0.4085 -0.8411 -0.7670
 7380TIP3   OH222103   5.488   2.366   4.121 -0.2519 -0.2457 -0.3593
 7380TIP3    H122104   5.432   2.438   4.151  1.6795  2.2497 -2.2496
 7380TIP3    H222105   5.446   2.334   4.042 -0.9536 -1.0143  0.3141
 7381TIP3   OH222106   2.663   6.453   5.717 -0.5552 -0.1654  0.1191
 7381TIP3    H122107   2.658   6.358   5.722  1.1597 -0.2807  0.1903
 7381TIP3    H222108   2.582   6.484   5.759 -0.3143 -1.5699  1.7028
 7382TIP3   OH222109   6.139   5.621   5.568  0.4224 -0.3226 -0.2475
 7382TIP3    H122110   6.192   5.545   5.545  0.7446  0.5490 -2.6449
 7382TIP3    H222111   6.061   5.584   5.610  2.4681 -1.6733  2.7463
 7383TIP3   OH222112   6.531   4.745   0.682 -0.0882 -0.0667 -0.2422
 7383TIP3    H122113   6.524   4.727   0.588  0.4642 -0.1045 -0.2780
 7383TIP3    H222114   6.583   4.672   0.717 -0.6245 -0.2626  0.1618
 7384TIP3   OH222115   1.419   6.387   5.579  0.5228 -0.1994 -0.1922
 7384TIP3    H122116   1.513   6.397   5.573  0.5173 -0.1970 -0.2699
 7384TIP3    H222117   1.391   6.360   5.491  0.6155 -1.4777  0.1410
 7385TIP3   OH222118   2.688   5.861   2.264 -0.4262  0.0058  0.4250
 7385TIP3    H122119   2.610   5.853   2.319 -1.6316  0.6712 -1.1056
 7385TIP3    H222120   2.681   5.788   2.203 -1.2012  1.3964 -1.2551
 7386TIP3   OH222121   5.131   5.400   4.766 -0.3475 -0.9383  0.2408
 7386TIP3    H122122   5.176   5.442   4.692 -1.4027  1.5624  0.9078
 7386TIP3    H222123   5.056   5.355   4.727  1.3343 -3.1753 -0.6052
 7387TIP3   OH222124   0.793   0.211   5.050  0.4219  0.1088 -0.1414
 7387TIP3    H122125   0.767   0.170   4.967  2.4020 -3.3253  0.7362
 7387TIP3    H222126   0.725   0.184   5.111 -0.2587  1.4334 -0.2629
 7388TIP3   OH222127   5.625   1.102   5.051 -0.2536  0.4788 -0.4936
 7388TIP3    H122128   5.570   1.138   4.981 -1.4633 -0.3128  0.0101
 7388TIP3    H222129   5.565   1.047   5.102  0.8750  0.1100  0.4717
 7389TIP3   OH222130   5.938   4.704   3.177 -0.2940 -0.1993 -0.4638
 7389TIP3    H122131   5.913   4.642   3.109  2.2858 -2.9541  0.8323
 7389TIP3    H222132   5.994   4.653   3.236  0.2905  2.8848  1.9131
 7390TIP3   OH222133   6.089   1.428   2.782  0.4186 -0.3940 -0.2836
 7390TIP3    H122134   6.046   1.350   2.817  0.0739  0.2101  0.6970
 7390TIP3    H222135   6.035   1.501   2.814  2.5280  0.4620  1.6579
 7391TIP3   OH222136   7.071   0.996   0.018  0.1304 -0.4850  0.4291
 7391TIP3    H122137   7.006   1.016   0.087 -0.5350 -1.0770 -0.0082
 7391TIP3    H222138   7.133   1.068   0.023 -1.8728  1.4639 -0.7294
 7392TIP3   OH222139   0.412   2.367   3.354  0.3637 -0.2773 -0.0878
 7392TIP3    H122140   0.337   2.308   3.364  1.0685 -1.3510 -0.9317
 7392TIP3    H222141   0.457   2.336   3.276  2.0691 -0.0718  0.7686
 7393TIP3   OH222142   3.257   0.014   0.539  0.4621  0.0942 -0.3344
 7393TIP3    H122143   3.331   0.074   0.533  0.3749  0.0894 -1.5811
 7393TIP3    H222144   3.197   0.042   0.470 -0.5432 -0.1387  0.4117
 7394TIP3   OH222145   3.490   6.053   2.940  0.4944 -0.1040 -0.7635
 7394TIP3    H122146   3.444   6.009   2.868  0.5118 -1.9849  0.3080
 7394TIP3    H222147   3.582   6.046   2.916  0.3991  1.2262 -1.5886
 7395TIP3   OH222148   2.483   1.898   2.001 -0.4335  0.0514 -0.0544
 7395TIP3    H122149   2.549   1.861   1.943 -0.4102 -1.0374  0.6354
 7395TIP3    H222150   2.498   1.993   1.997  0.9743 -0.1490 -0.1648
 7396TIP3   OH222151   5.917   6.361   1.415  0.0416  0.1244  0.3014
 7396TIP3    H122152   6.010   6.344   1.399 -0.0227  1.1290 -1.4246
 7396TIP3    H222153   5.873   6.329   1.336 -0.7591  2.0445 -0.0844
 7397TIP3   OH222154   0.589   2.694   3.931 -0.3926 -0.6578 -0.1566
 7397TIP3    H122155   0.572   2.679   4.024 -1.7259 -1.3113 -0.4790
 7397TIP3    H222156   0.675   2.735   3.929 -1.0909  1.0502  1.4961
 7398TIP3   OH222157   2.598   5.401   3.677  0.0032  0.9851  0.4150
 7398TIP3    H122158   2.539   5.395   3.752 -1.4001  1.9247 -0.5342
 7398TIP3    H222159   2.661   5.468   3.701  1.1103 -0.4595  1.6899
 7399TIP3   OH222160   2.781   4.032   5.697 -0.8022 -0.0890 -0.4503
 7399TIP3    H122161   2.779   3.962   5.762 -0.6276 -0.0992 -0.4566
 7399TIP3    H222162   2.794   3.987   5.613 -0.1140 -0.0093 -0.3948
 7400TIP3   OH222163   5.437   0.192   2.559 -0.2898  0.3932  0.0614
 7400TIP3    H122164   5.397   0.106   2.553 -0.8153  0.6550 -0.2643
 7400TIP3    H222165   5.492   0.199   2.481 -1.0848  0.7665 -0.4768
 7401TIP3   OH222166   2.377   0.633   2.550 -0.0520  0.1290  0.1393
 7401TIP3    H122167   2.319   0.668   2.482 -0.8218  0.5838  0.9960
 7401TIP3    H222168   2.396   0.709   2.605  2.0339  0.1710 -0.5586
 7402TIP3   OH222169   1.492   1.229   1.866 -0.1577 -0.2923  0.4229
 7402TIP3    H122170   1.563   1.201   1.807 -0.2294  2.4511 -1.1592
 7402TIP3    H222171   1.415   1.183   1.834  0.8531 -3.9751  2.6827
 7403TIP3   OH222172   3.677   0.855   2.655  0.5351  0.1675  0.2503
 7403TIP3    H122173   3.646   0.821   2.571 -2.4971 -0.4419  1.4759
 7403TIP3    H222174   3.690   0.777   2.709  0.0243  0.6387  1.0753
 7404TIP3   OH222175   3.811   0.804   3.858  0.1890  0.1024  0.7257
 7404TIP3    H122176   3.768   0.735   3.806  1.3651  0.5157 -0.8939
 7404TIP3    H222177   3.755   0.815   3.934 -0.7536 -1.7073  0.3676
 7405TIP3   OH222178   0.803   4.618   1.947  0.1310 -0.2346 -0.0395
 7405TIP3    H122179   0.773   4.529   1.962  0.7957 -0.1257  2.4243
 7405TIP3    H222180   0.723   4.669   1.935 -0.5026 -0.6235  2.1414
 7406TIP3   OH222181   1.215   1.839   3.674  0.2649  0.2526 -0.0102
 7406TIP3    H122182   1.301   1.796   3.668  0.7436  1.2089 -0.0604
 7406TIP3    H222183   1.215   1.901   3.601 -1.3984 -1.3441 -1.4759
 7407TIP3   OH222184   4.983   4.263   1.290 -0.0345  0.3387  0.1613
 7407TIP3    H122185   4.955   4.211   1.365 -5.5282  0.8410 -1.0808
 7407TIP3    H222186   5.009   4.199   1.224 -1.5062 -0.5912  0.4346
 7408TIP3   OH222187   2.264   5.611   2.585  0.4113 -0.4308  0.0271
 7408TIP3    H122188   2.238   5.702   2.601  0.3838 -0.0781 -1.7771
 7408TIP3    H222189   2.181   5.565   2.570  0.5368 -0.1806 -1.6106
 7409TIP3   OH222190   0.579   1.953   2.328 -0.0699  0.2843 -0.2696
 7409TIP3    H122191   0.523   1.967   2.252 -0.1674  1.3424 -0.0197
 7409TIP3    H222192   0.662   1.921   2.291  0.1104  1.4022 -0.9043
 7410TIP3   OH222193   3.693   3.657   4.022  0.5406 -0.3783 -0.6885
 7410TIP3    H122194   3.693   3.752   4.019  0.5762 -0.4072 -2.8056
 7410TIP3    H222195   3.681   3.636   4.115  0.3878  1.6664 -0.2039
 7411TIP3   OH222196   2.777   3.368   5.648 -0.4332  0.0904 -0.4488
 7411TIP3    H122197   2.731   3.320   5.717  0.0917 -0.6920 -0.6317
 7411TIP3    H222198   2.855   3.316   5.630  0.6604  1.4983  0.0029
 7412TIP3   OH222199   5.262   5.018   4.487 -0.6100  0.2465 -0.5659
 7412TIP3    H122200   5.180   5.058   4.457 -0.3952  0.0739 -1.3872
 7412TIP3    H222201   5.322   5.027   4.414  0.1235  0.3846  0.0374
 7413TIP3   OH222202   2.622   1.686   2.558 -0.4496  0.2549  0.3255
 7413TIP3    H122203   2.641   1.664   2.466 -0.5374  1.0819  0.1075
 7413TIP3    H222204   2.562   1.617   2.586  0.5429 -0.7146  0.1419
 7414TIP3   OH222205   6.248   2.927   5.303 -0.4634  0.4834  0.1891
 7414TIP3    H122206   6.271   2.953   5.392  1.2684 -0.5055  0.0745
 7414TIP3    H222207   6.274   3.001   5.249  1.2040 -0.0593  0.2179
 7415TIP3   OH222208   3.310   4.097   5.168 -0.2908  0.0143 -0.1994
 7415TIP3    H122209   3.350   4.138   5.091 -0.0925 -2.2793 -1.3962
 7415TIP3    H222210   3.384   4.065   5.220 -0.4554 -0.8570 -0.4788
 7416TIP3   OH222211   5.617   3.178   3.165 -0.2957 -0.4291 -0.1537
 7416TIP3    H122212   5.580   3.266   3.161  0.0355 -0.2572  0.4807
 7416TIP3    H222213   5.699   3.184   3.114 -0.6000 -0.5447 -0.6682
 7417TIP3   OH222214   4.877   3.620   5.607 -0.8912 -0.2165  0.3806
 7417TIP3    H122215   4.851   3.651   5.520 -1.1294  2.8300  1.4082
 7417TIP3    H222216   4.946   3.680   5.634 -0.6406 -1.2583  2.1881
 7418TIP3   OH222217   1.515   5.829   3.731  0.4872 -0.3249 -0.2624
 7418TIP3    H122218   1.563   5.851   3.811  1.9670  0.1455 -1.2264
 7418TIP3    H222219   1.443   5.891   3.728  0.6147 -0.1343  0.5385
 7419TIP3   OH222220   3.953   6.019   4.958  0.3341 -0.1111  0.6024
 7419TIP3    H122221   3.999   6.031   5.041  0.3331 -0.3490  0.6396
 7419TIP3    H222222   4.004   5.951   4.912  0.1481 -0.2163  0.5504
 7420TIP3   OH222223   5.051   6.147   3.232  0.3589  0.6583 -0.4801
 7420TIP3    H122224   5.130   6.133   3.179  0.5101  0.5446 -0.2299
 7420TIP3    H222225   5.032   6.240   3.224  0.4366  0.6584 -0.6579
 7421TIP3   OH222226   1.303   4.593   0.582  0.3567 -0.3353  0.3200
 7421TIP3    H122227   1.351   4.550   0.653  0.6930 -0.2105  0.1647
 7421TIP3    H222228   1.342   4.558   0.502  0.8698  0.5228  0.1870
 7422TIP3   OH222229   4.744   6.083   2.717  0.1398  0.0813  0.3202
 7422TIP3    H122230   4.833   6.088   2.683 -0.0246 -1.9481 -0.5097
 7422TIP3    H222231   4.692   6.136   2.656  0.3505 -1.0487 -0.8987
 7423TIP3   OH222232   6.393   3.146   4.678  0.2257 -0.2127 -0.2370
 7423TIP3    H122233   6.298   3.149   4.671  0.2240 -0.0485 -0.1620
 7423TIP3    H222234   6.417   3.230   4.718  0.4837  0.1760 -1.1890
 7424TIP3   OH222235   0.977   1.967   0.124  0.0336 -0.6352  0.3462
 7424TIP3    H122236   0.899   1.965   0.069  0.3224 -0.9368 -0.0646
 7424TIP3    H222237   0.982   2.056   0.157 -1.2998 -0.9788  1.5712
 7425TIP3   OH222238   0.964   5.605   0.618 -0.3344  0.0003  0.1069
 7425TIP3    H122239   0.952   5.511   0.632 -0.9426  0.2806  1.7969
 7425TIP3    H222240   0.965   5.642   0.706 -1.5689  1.7407 -0.5436
 7426TIP3   OH222241   3.522   3.356   0.175 -0.2929  0.0653  0.1572
 7426TIP3    H122242   3.589   3.289   0.191 -1.4444 -0.5381  3.1802
 7426TIP3    H222243   3.570   3.431   0.141  1.3523 -1.5259 -1.1945
 7427TIP3   OH222244   3.809   5.353   3.987 -0.3230 -0.0012 -0.1368
 7427TIP3    H122245   3.799   5.336   4.080 -0.2740  0.4464 -0.0483
 7427TIP3    H222246   3.725   5.391   3.960 -0.8001 -1.2896 -0.5471
 7428TIP3   OH222247   0.687   5.920   4.977 -0.3159 -0.1733  0.5968
 7428TIP3    H122248   0.679   5.827   4.997  2.0731 -0.6582 -0.3308
 7428TIP3    H222249   0.781   5.935   4.973 -0.6488  1.8340 -1.2549
 7429TIP3   OH222250   5.322   1.970   5.825  0.3251 -0.6705  0.3317
 7429TIP3    H122251   5.327   1.906   5.895  2.5339 -0.5024  0.4091
 7429TIP3    H222252   5.300   2.052   5.869  0.6617 -0.7694  0.6890
 7430TIP3   OH222253   5.103   2.991   5.736  0.0683 -0.1925  0.2699
 7430TIP3    H122254   5.135   2.912   5.781 -0.3321  0.1329  1.1444
 7430TIP3    H222255   5.033   3.024   5.791 -0.8017 -0.0606 -0.8708
 7431TIP3   OH222256   4.822   6.398   1.437  0.1061  0.1373 -0.1506
 7431TIP3    H122257   4.740   6.424   1.479 -0.0634 -0.4565 -0.1049
 7431TIP3    H222258   4.809   6.306   1.411  1.0772 -0.2588  0.6779
 7432TIP3   OH222259   5.320   2.687   0.561 -0.0436 -0.6220  0.2641
 7432TIP3    H122260   5.380   2.643   0.500  0.5673  0.6048 -0.0599
 7432TIP3    H222261   5.373   2.754   0.602 -1.3323  0.9531 -0.5281
 7433TIP3   OH222262   6.304   4.928   5.323  0.1674 -0.1859  0.6011
 7433TIP3    H122263   6.237   4.994   5.309 -0.2157 -0.4436  1.1736
 7433TIP3    H222264   6.313   4.923   5.419  0.7291 -0.4238  0.5421
 7434TIP3   OH222265   2.483   3.908   3.657 -0.4789  0.1234 -0.5973
 7434TIP3    H122266   2.499   3.917   3.563 -0.9349 -1.5674 -0.8588
 7434TIP3    H222267   2.448   3.820   3.668 -3.4471  1.3071  0.7362
 7435TIP3   OH222268   5.378   2.121   5.319 -0.2117 -0.8765 -0.0055
 7435TIP3    H122269   5.313   2.050   5.321  1.8581 -2.8891  0.7905
 7435TIP3    H222270   5.434   2.100   5.245  0.5933 -0.2088  0.4031
 7436TIP3   OH222271   4.777   5.216   1.392 -0.3048  0.3306  0.1966
 7436TIP3    H122272   4.780   5.230   1.486  1.3472  1.1287  0.0581
 7436TIP3    H222273   4.852   5.160   1.373 -2.0146 -1.9456 -0.3793
 7437TIP3   OH222274   1.412   5.410   4.058  0.3596 -0.5636  0.0171
 7437TIP3    H122275   1.335   5.353   4.066  0.3557 -0.3407  2.2432
 7437TIP3    H222276   1.386   5.477   3.995 -0.6976 -1.3942 -0.4537
 7438TIP3   OH222277   2.590   2.475   2.728 -0.2466 -0.6543  0.1480
 7438TIP3    H122278   2.647   2.450   2.655  0.8518 -0.0725  0.7734
 7438TIP3    H222279   2.501   2.465   2.694  0.2350  0.5373 -1.6108
 7439TIP3   OH222280   1.976   3.418   1.206  0.2025  0.4861  0.1890
 7439TIP3    H122281   1.917   3.349   1.176 -0.7075  0.7579  1.2505
 7439TIP3    H222282   1.935   3.499   1.176  0.4107  0.6496  0.3429
 7440TIP3   OH222283   6.841   0.969   4.523  0.4699 -0.2030 -0.0300
 7440TIP3    H122284   6.862   1.036   4.589 -0.4447  1.5065 -1.3853
 7440TIP3    H222285   6.747   0.957   4.531  0.6839 -1.7785  0.5340
 7441TIP3   OH222286   3.566   4.499   2.694  0.0085 -0.4353  0.0192
 7441TIP3    H122287   3.650   4.523   2.654 -0.5943  0.7791 -0.5782
 7441TIP3    H222288   3.504   4.564   2.660 -1.3437 -1.7552 -0.1510
 7442TIP3   OH222289   0.226   0.201   2.353 -0.1871  0.6928  0.1474
 7442TIP3    H122290   0.261   0.273   2.404  1.9275  1.1715 -1.8221
 7442TIP3    H222291   0.222   0.234   2.263  4.2121 -2.4773 -1.5535
 7443TIP3   OH222292   2.853   0.629   5.637 -0.5459 -0.2893 -0.1954
 7443TIP3    H122293   2.896   0.546   5.615 -2.5619 -1.9206  1.5088
 7443TIP3    H222294   2.880   0.646   5.728 -0.2914  0.8732 -0.4704
 7444TIP3   OH222295   6.128   4.879   3.471 -0.5891 -0.6118  0.2226
 7444TIP3    H122296   6.045   4.874   3.423 -0.6190 -0.5514  0.2685
 7444TIP3    H222297   6.107   4.844   3.558 -0.6256 -0.3640  0.3141
 7445TIP3   OH222298   1.650   1.994   2.063 -0.0747 -0.4322  0.4792
 7445TIP3    H122299   1.706   2.024   2.134 -0.4937  3.4753 -0.6181
 7445TIP3    H222300   1.710   1.961   1.996  0.9458  2.0504  0.0452
 7446TIP3   OH222301   4.528   1.203   0.061 -0.1355 -0.2893 -0.6365
 7446TIP3    H122302   4.562   1.270   0.002 -1.3492 -0.4646 -1.5712
 7446TIP3    H222303   4.602   1.143   0.074  0.0598 -0.4551 -2.2966
 7447TIP3   OH222304   4.614   6.357   5.619 -0.5051 -0.4845  0.6248
 7447TIP3    H122305   4.654   6.424   5.675 -0.0620 -0.3554  0.1573
 7447TIP3    H222306   4.520   6.364   5.637 -0.4048 -0.1703  1.0497
 7448TIP3   OH222307   0.202   4.594   2.803 -0.3293  0.0596 -0.1518
 7448TIP3    H122308   0.249   4.677   2.792  1.0613 -0.7154 -0.3114
 7448TIP3    H222309   0.215   4.548   2.720 -0.7928 -0.4521  0.0561
 7449TIP3   OH222310   1.109   0.512   1.108 -0.4331 -0.0263  0.1712
 7449TIP3    H122311   1.028   0.537   1.152  0.2453  1.0733  0.8631
 7449TIP3    H222312   1.087   0.434   1.058 -1.5748 -0.5420  1.4331
 7450TIP3   OH222313   1.243   0.703   3.894  0.3360 -0.0574 -0.3589
 7450TIP3    H122314   1.263   0.682   3.802 -2.2522  0.2248 -1.0662
 7450TIP3    H222315   1.202   0.624   3.928 -1.8832  0.9381 -0.5550
 7451TIP3   OH222316   1.132   2.223   5.595  0.1126  0.4069  0.2047
 7451TIP3    H122317   1.112   2.163   5.667 -1.3505  2.3944  1.5566
 7451TIP3    H222318   1.086   2.186   5.520  0.9116 -1.2038  0.4444
 7452TIP3   OH222319   3.868   3.161   2.449  0.8156 -0.1052 -0.3866
 7452TIP3    H122320   3.872   3.226   2.519  2.2965 -2.0054  1.4152
 7452TIP3    H222321   3.947   3.175   2.398  0.0877  0.8220 -1.2893
 7453TIP3   OH222322   2.954   0.922   1.969  0.0469 -0.2783 -0.2856
 7453TIP3    H122323   3.035   0.888   2.007 -0.2369  0.4917  1.0945
 7453TIP3    H222324   2.893   0.848   1.972 -0.0104 -0.1990  0.9435
 7454TIP3   OH222325   3.743   5.227   2.270  0.2548  0.4702  0.4568
 7454TIP3    H122326   3.839   5.226   2.273  0.2728 -1.4909  0.2435
 7454TIP3    H222327   3.722   5.229   2.177  0.1336 -0.8055  0.4346
 7455TIP3   OH222328   3.209   5.774   5.321  0.5094 -0.2288  0.0436
 7455TIP3    H122329   3.218   5.797   5.228 -0.5598 -0.2264 -0.0710
 7455TIP3    H222330   3.145   5.703   5.322  1.9151 -1.5352  0.6193
 7456TIP3   OH222331   6.418  -0.007   1.739 -0.7725 -0.3330  0.0341
 7456TIP3    H122332   6.434   0.058   1.671 -0.2179  0.2292  0.6791
 7456TIP3    H222333   6.490   0.006   1.802  0.2587 -2.6270 -0.5758
 7457TIP3   OH222334   2.709   6.719   2.703  0.0640  0.0876 -0.1911
 7457TIP3    H122335   2.645   6.676   2.759  1.5092 -1.3562  0.4325
 7457TIP3    H222336   2.657   6.761   2.634 -1.8027  1.8919  2.1168
 7458TIP3   OH222337   3.540   1.444   4.979 -0.2561 -0.2350  0.6286
 7458TIP3    H122338   3.483   1.372   4.952 -1.2255 -0.1457  2.2532
 7458TIP3    H222339   3.623   1.402   5.003 -0.4082 -0.6627  0.4110
 7459TIP3   OH222340   3.338   3.275   4.160 -0.3709 -0.4309  0.5421
 7459TIP3    H122341   3.418   3.313   4.196 -1.2698  1.3377  0.7613
 7459TIP3    H222342   3.286   3.253   4.237 -0.6167 -0.4063  0.3817
 7460TIP3   OH222343   4.081   0.090   4.561  0.5991  0.0968  0.3027
 7460TIP3    H122344   4.066   0.118   4.651  0.1154 -1.6535  0.8113
 7460TIP3    H222345   4.170   0.120   4.541  0.9214  0.0361  1.5592
 7461TIP3   OH222346   3.527   6.357   5.723  0.0641  0.0617 -0.2180
 7461TIP3    H122347   3.456   6.300   5.692 -0.4952  0.4424  0.3555
 7461TIP3    H222348   3.544   6.327   5.812 -0.8463  1.3616  0.4164
 7462TIP3   OH222349   2.956   2.311   2.307  0.1088  0.3322 -0.3309
 7462TIP3    H122350   2.972   2.386   2.249 -1.7315  0.3414 -0.8984
 7462TIP3    H222351   2.881   2.266   2.267  1.9107 -2.5747 -0.7433
 7463TIP3   OH222352   2.980   0.170   5.509  0.6629 -0.1823  0.3466
 7463TIP3    H122353   2.986   0.101   5.443  0.5509 -0.3032  0.4615
 7463TIP3    H222354   3.033   0.137   5.582 -1.4639 -1.3495  1.4483
 7464TIP3   OH222355   5.431   3.061   0.894 -0.2105 -0.3137 -0.4752
 7464TIP3    H122356   5.391   3.011   0.823  0.0969  0.5683 -1.3006
 7464TIP3    H222357   5.372   3.051   0.968 -1.0654 -0.4376 -1.1592
 7465TIP3   OH222358   2.621   2.624   0.544  0.1779  0.0926 -0.6100
 7465TIP3    H122359   2.684   2.653   0.478 -0.4063  3.6514  0.2210
 7465TIP3    H222360   2.552   2.581   0.493 -0.0694  2.3641 -2.3405
 7466TIP3   OH222361   4.141   1.100   2.709  0.0711 -0.1700  0.5027
 7466TIP3    H122362   4.198   1.023   2.715  0.5470  0.1493  0.0618
 7466TIP3    H222363   4.066   1.069   2.657  0.3500 -0.2819  0.1654
 7467TIP3   OH222364   5.045   4.881   0.653 -0.2092  0.0825 -0.5501
 7467TIP3    H122365   5.018   4.808   0.708  1.6041 -1.2794 -1.3540
 7467TIP3    H222366   5.045   4.845   0.564  0.7384  1.0427 -0.9660
 7468TIP3   OH222367   3.387   5.415   4.126 -0.1356  0.2162 -0.0118
 7468TIP3    H122368   3.434   5.430   4.044 -0.1204  0.8949  0.1085
 7468TIP3    H222369   3.297   5.394   4.099 -0.8285  2.9882 -0.2138
 7469TIP3   OH222370   0.310   6.571   4.417 -0.1824  0.2052 -0.1577
 7469TIP3    H122371   0.254   6.522   4.357 -0.2799 -0.0064  0.1025
 7469TIP3    H222372   0.267   6.656   4.426 -0.3128  0.1416 -0.1761
 7470TIP3   OH222373   3.835   6.231   4.426 -0.1088  0.1548  0.9614
 7470TIP3    H122374   3.788   6.280   4.359  0.8543 -0.9038 -0.5570
 7470TIP3    H222375   3.861   6.297   4.490  0.7986  1.5890 -0.7877
 7471TIP3   OH222376   2.727   5.612   2.071  0.2422 -0.5920 -0.1847
 7471TIP3    H122377   2.692   5.562   2.145  1.2816  1.6975  2.0158
 7471TIP3    H222378   2.793   5.555   2.032 -1.6096 -2.5807 -0.6026
 7472TIP3   OH222379   5.052   2.435   3.050 -0.4740 -0.1967  0.4227
 7472TIP3    H122380   4.981   2.472   3.103  0.1253 -0.4136  1.4036
 7472TIP3    H222381   5.069   2.502   2.984 -2.1628 -0.5060 -0.3836
 7473TIP3   OH222382   4.211   5.866   4.964 -0.1624  0.3578 -0.1283
 7473TIP3    H122383   4.243   5.903   5.046 -0.0906 -1.4105  0.6755
 7473TIP3    H222384   4.227   5.772   4.971 -2.4114 -0.1880 -1.0953
 7474TIP3   OH222385   6.947   1.076   3.283 -0.5699 -0.1450 -0.5152
 7474TIP3    H122386   6.971   1.109   3.196 -1.4134 -0.0174 -0.7136
 7474TIP3    H222387   6.852   1.065   3.278 -0.8729  1.5271  0.9566
 7475TIP3   OH222388   2.996   5.554   3.956  0.0317  0.1646 -0.7174
 7475TIP3    H122389   3.016   5.648   3.955  0.1145  0.1474 -0.8943
 7475TIP3    H222390   3.027   5.523   3.870 -2.8610  0.5620 -2.0030
 7476TIP3   OH222391   0.401   5.530   2.954  0.1953  0.3259  0.3166
 7476TIP3    H122392   0.411   5.558   3.045 -0.5295  1.9028 -0.0513
 7476TIP3    H222393   0.478   5.477   2.936  1.0615  1.1553  1.4441
 7477TIP3   OH222394   3.063   2.804   5.331 -0.2362 -0.3699  0.3241
 7477TIP3    H122395   3.112   2.857   5.394  1.4710 -1.0647 -0.3431
 7477TIP3    H222396   3.020   2.737   5.384 -0.8924  0.5422  0.9802
 7478TIP3   OH222397   4.161   2.533   1.787 -0.0291  0.0290 -0.1033
 7478TIP3    H122398   4.193   2.503   1.872  0.4995  1.6339  0.3041
 7478TIP3    H222399   4.069   2.507   1.785 -0.8579  2.3535  2.2226
 7479TIP3   OH222400   1.991   4.432   3.187  0.3352  0.1601 -0.0664
 7479TIP3    H122401   1.996   4.353   3.241 -1.9165  0.7065  1.0655
 7479TIP3    H222402   2.041   4.498   3.235  1.5242 -0.3194 -0.6026
 7480TIP3   OH222403   0.349   2.139   1.741  0.0583  0.4594  0.9803
 7480TIP3    H122404   0.392   2.212   1.696 -1.1832  0.3907 -0.3965
 7480TIP3    H222405   0.391   2.061   1.705  0.0150  0.4387  0.9754
 7481TIP3   OH222406   0.070   4.046   1.941  0.0996 -0.0055  0.2468
 7481TIP3    H122407   0.040   3.996   1.866  2.1292 -0.3151 -0.4260
 7481TIP3    H222408   0.161   4.019   1.953  0.7502  2.2682  0.9304
 7482TIP3   OH222409   6.177   5.120   1.636  0.3244  0.3301 -0.3734
 7482TIP3    H122410   6.162   5.214   1.648  0.7673  0.6492 -2.1279
 7482TIP3    H222411   6.089   5.081   1.639  0.1619  0.7374  0.6597
 7483TIP3   OH222412   4.774   4.172   3.633  0.0082 -0.3036  0.2012
 7483TIP3    H122413   4.809   4.096   3.586 -0.7617 -0.3089 -0.3755
 7483TIP3    H222414   4.794   4.154   3.725  0.4363 -0.8766  0.0067
 7484TIP3   OH222415   1.829   5.107   5.513 -0.3123  0.0741 -0.3832
 7484TIP3    H122416   1.853   5.037   5.574  0.7123 -1.0359 -1.9866
 7484TIP3    H222417   1.737   5.090   5.492 -1.2490  1.5261  2.1434
 7485TIP3   OH222418   2.832   4.287   0.487 -0.2390 -0.0607 -0.2103
 7485TIP3    H122419   2.918   4.276   0.447  0.2309 -0.5740  0.9203
 7485TIP3    H222420   2.819   4.210   0.541 -2.4083 -1.1389 -2.0626
 7486TIP3   OH222421   4.966   6.095   4.100  0.3423  0.0509  0.0335
 7486TIP3    H122422   4.939   6.078   4.010 -0.3346 -0.1867  0.2799
 7486TIP3    H222423   4.903   6.048   4.154  1.0581 -0.2575  0.6283
 7487TIP3   OH222424   0.263   6.542   1.894 -0.2581 -0.6747 -1.2537
 7487TIP3    H122425   0.358   6.530   1.898 -0.2343 -0.2016  0.9534
 7487TIP3    H222426   0.250   6.637   1.905 -1.0195 -1.0961  3.5253
 7488TIP3   OH222427   4.844   6.639   0.496 -0.0880  0.5301  0.3779
 7488TIP3    H122428   4.858   6.699   0.422 -1.7325 -0.3563 -0.7223
 7488TIP3    H222429   4.761   6.595   0.476 -1.0350  0.8510  3.1892
 7489TIP3   OH222430   7.103   4.819   4.271 -1.0571 -0.9095  0.0243
 7489TIP3    H122431   7.176   4.878   4.288  0.7346 -2.8608 -0.4987
 7489TIP3    H222432   7.033   4.875   4.237  0.2014  1.0066  0.5062
 7490TIP3   OH222433   2.530   6.678   3.366 -0.3486  0.4069 -0.2567
 7490TIP3    H122434   2.511   6.598   3.414  0.5418  0.5123  0.2821
 7490TIP3    H222435   2.455   6.688   3.306  0.1285 -1.5184 -1.2548
 7491TIP3   OH222436   2.603   3.517   3.327  0.5345 -0.5385 -0.2436
 7491TIP3    H122437   2.624   3.531   3.419  0.2695 -0.1331 -0.2437
 7491TIP3    H222438   2.531   3.453   3.329 -0.6336  0.7376 -0.0842
 7492TIP3   OH222439   3.867   0.269   3.714  0.2184  0.3917  0.3209
 7492TIP3    H122440   3.919   0.189   3.714 -0.0064  0.2388 -0.4655
 7492TIP3    H222441   3.788   0.247   3.665 -0.2513  0.8393  0.8676
 7493TIP3   OH222442   3.564   3.683   2.419  0.4187 -0.3937  0.4563
 7493TIP3    H122443   3.559   3.646   2.331 -0.7646 -0.3556  0.4920
 7493TIP3    H222444   3.541   3.775   2.409 -1.3029 -0.7367  1.0046
 7494TIP3   OH222445   3.281   4.822   5.889 -0.0971 -0.2966 -0.3867
 7494TIP3    H122446   3.295   4.738   5.846 -0.8071  0.7741 -2.9162
 7494TIP3    H222447   3.186   4.832   5.894 -0.0370 -0.4318  1.6401
 7495TIP3   OH222448   4.592   5.953   3.527  0.1143 -0.5321 -0.5696
 7495TIP3    H122449   4.556   5.915   3.607  0.7900  0.1955  0.1022
 7495TIP3    H222450   4.532   6.024   3.506  0.2048 -0.4070 -0.4147
 7496TIP3   OH222451   6.822   4.550   5.400  0.5349  0.0161  0.0241
 7496TIP3    H122452   6.739   4.568   5.356  0.5143 -0.1800 -0.0179
 7496TIP3    H222453   6.873   4.631   5.390 -0.3433  0.8230  1.6607
 7497TIP3   OH222454   0.656   4.921   3.505 -0.1976 -0.0823 -0.3119
 7497TIP3    H122455   0.739   4.874   3.513  0.4561  1.1351  0.4387
 7497TIP3    H222456   0.632   4.941   3.596 -2.6443 -2.5842 -0.2924
 7498TIP3   OH222457   1.999   2.398   2.080 -0.6425 -0.5175  0.3213
 7498TIP3    H122458   1.988   2.449   2.160 -2.3007 -1.5560  0.7896
 7498TIP3    H222459   2.041   2.459   2.019 -1.1815  0.9245  1.3338
 7499TIP3   OH222460   3.009   2.395   5.096 -0.3347 -0.1528 -0.0565
 7499TIP3    H122461   3.074   2.420   5.031 -0.7764 -0.1070 -0.4806
 7499TIP3    H222462   3.057   2.341   5.159 -0.0958 -0.8843 -0.8636
 7500TIP3   OH222463   3.548   5.414   1.097 -0.3004 -0.4023  0.2284
 7500TIP3    H122464   3.523   5.436   1.187 -1.5415 -0.2155 -0.1362
 7500TIP3    H222465   3.564   5.499   1.055  0.9338 -0.5184  0.4352
 7501TIP3   OH222466   4.671   0.498   5.132 -0.0062 -0.4060  0.1458
 7501TIP3    H122467   4.578   0.493   5.110 -0.5852  0.0681  2.3299
 7501TIP3    H222468   4.673   0.531   5.221  2.2444 -1.1500  0.4189
 7502TIP3   OH222469   6.936   1.486   2.027 -0.2396  0.0129  0.4447
 7502TIP3    H122470   6.911   1.556   1.967  0.0426  0.8935  1.3258
 7502TIP3    H222471   6.979   1.531   2.100 -2.0993 -0.8222  2.1657
 7503TIP3   OH222472   2.125   5.613   0.807  0.2164  0.1392 -0.2168
 7503TIP3    H122473   2.157   5.526   0.787  0.5295  0.0544  0.6197
 7503TIP3    H222474   2.032   5.600   0.829 -0.2518  0.2879 -1.9002
 7504TIP3   OH222475   1.672   3.785   5.390 -0.3518 -0.5658 -0.5200
 7504TIP3    H122476   1.735   3.819   5.454  0.1129 -1.2045 -0.6347
 7504TIP3    H222477   1.720   3.717   5.343 -0.3738  0.5305 -2.2036
 7505TIP3   OH222478   0.919   2.542   2.595  0.0698  0.3056  0.1267
 7505TIP3    H122479   0.878   2.466   2.636 -0.8994  0.6841 -0.0985
 7505TIP3    H222480   1.007   2.513   2.573  1.2827  0.5701  3.9496
 7506TIP3   OH222481   2.840   0.382   2.037  0.4840  0.3944  0.1734
 7506TIP3    H122482   2.816   0.370   2.129 -0.8063  0.6557 -0.1147
 7506TIP3    H222483   2.925   0.427   2.040  1.2886 -1.1018  1.2318
 7507TIP3   OH222484   0.001   4.508   5.239 -0.0530 -0.3651  0.4004
 7507TIP3    H122485   0.072   4.484   5.179  0.2082  0.3934  0.4048
 7507TIP3    H222486   0.017   4.599   5.261 -2.5422  0.7240 -1.7424
 7508TIP3   OH222487   6.811   2.152   4.951 -0.3054 -0.0677 -0.0772
 7508TIP3    H122488   6.739   2.196   4.997 -1.7589 -1.1961 -1.1569
 7508TIP3    H222489   6.889   2.171   5.003 -1.6910 -0.4023  2.2116
 7509TIP3   OH222490   6.236   5.372   0.377 -0.3034 -0.2360  0.0332
 7509TIP3    H122491   6.155   5.336   0.343 -0.0933  1.0373 -1.9538
 7509TIP3    H222492   6.303   5.307   0.355 -0.5679 -0.6539  0.4528
 7510TIP3   OH222493   5.223   0.656   2.726 -0.2168  0.6869 -0.3981
 7510TIP3    H122494   5.214   0.724   2.659  2.0212 -0.1572 -1.6493
 7510TIP3    H222495   5.248   0.578   2.677 -1.6743 -0.8051  1.1291
 7511TIP3   OH222496   5.358   3.430   2.438 -0.3357 -0.0993 -0.0983
 7511TIP3    H122497   5.269   3.449   2.469 -0.1347  1.2175 -0.2761
 7511TIP3    H222498   5.382   3.349   2.483 -1.2520  0.0716  0.7379
 7512TIP3   OH222499   5.507   5.144   5.673 -0.0528  0.4516  0.0384
 7512TIP3    H122500   5.494   5.152   5.578  1.8866  0.8387 -0.2320
 7512TIP3    H222501   5.444   5.205   5.710 -1.2796 -0.1639 -0.9605
 7513TIP3   OH222502   3.120   5.204   1.202  0.3961  0.1366 -0.1794
 7513TIP3    H122503   3.026   5.198   1.182  0.3259  0.4618  0.0526
 7513TIP3    H222504   3.150   5.280   1.151  0.7527 -0.5836 -1.0771
 7514TIP3   OH222505   6.819   1.612   3.967 -0.1982  0.2300 -0.8850
 7514TIP3    H122506   6.869   1.639   3.890 -0.7660  0.6749 -1.0977
 7514TIP3    H222507   6.791   1.523   3.946 -0.0155  0.2019 -1.0192
 7515TIP3   OH222508   0.654   1.677   3.418 -0.0895  0.4624 -0.5287
 7515TIP3    H122509   0.632   1.765   3.448  0.9143  0.6514 -0.3051
 7515TIP3    H222510   0.729   1.690   3.359 -0.5061 -0.1542 -1.2151
 7516TIP3   OH222511   2.805   1.774   5.165  0.2110 -0.4680  0.5216
 7516TIP3    H122512   2.896   1.787   5.139 -0.1833  1.4045 -0.0930
 7516TIP3    H222513   2.756   1.775   5.082 -0.5157  0.0365  0.9430
 7517TIP3   OH222514   3.185   6.072   3.471 -0.2563 -0.0645  0.3918
 7517TIP3    H122515   3.278   6.062   3.452 -0.2534 -0.1983  0.4797
 7517TIP3    H222516   3.140   6.039   3.393 -0.2617 -1.3168  0.9080
 7518TIP3   OH222517   0.357   5.908   4.733  0.5145  0.5950  0.2295
 7518TIP3    H122518   0.355   5.818   4.765  1.4433  0.8866  1.1773
 7518TIP3    H222519   0.348   5.900   4.638  0.7276 -0.5057  0.2902
 7519TIP3   OH222520   5.199   0.513   4.354  0.6229 -0.6002 -0.4193
 7519TIP3    H122521   5.147   0.459   4.414 -1.1817 -1.4582 -2.6597
 7519TIP3    H222522   5.227   0.453   4.285  1.1622  0.7130 -1.3898
 7520TIP3   OH222523   2.164   4.393   3.677  0.0791 -0.1059  0.0897
 7520TIP3    H122524   2.230   4.325   3.662 -1.2186 -1.4968  0.5123
 7520TIP3    H222525   2.181   4.425   3.765  0.8901  0.3715 -0.2267
 7521TIP3   OH222526   6.581   6.723   4.105 -0.1140  0.0225 -0.3821
 7521TIP3    H122527   6.527   6.688   4.176 -0.6768 -2.2356 -1.8203
 7521TIP3    H222528   6.527   6.789   4.063 -1.2149 -1.1475 -0.8598
 7522TIP3   OH222529   2.262   4.237   0.882  0.2097  0.1120 -0.3854
 7522TIP3    H122530   2.315   4.305   0.923 -0.1403 -0.7272  1.6061
 7522TIP3    H222531   2.325   4.182   0.835  0.8626  0.2188  0.3449
 7523TIP3   OH222532   4.407   6.366   3.200 -0.0191 -0.0813  0.5831
 7523TIP3    H122533   4.395   6.425   3.275 -0.4295  0.3010  0.2258
 7523TIP3    H222534   4.338   6.301   3.209 -1.1528  0.9458 -0.3715
 7524TIP3   OH222535   0.530   1.285   1.332 -0.4168 -0.0499 -0.0906
 7524TIP3    H122536   0.584   1.279   1.253  1.7799 -1.7110  1.4029
 7524TIP3    H222537   0.444   1.254   1.305  0.4732 -1.2506 -1.6863
 7525TIP3   OH222538   1.276   6.008   4.655 -0.1980 -0.2214  0.7785
 7525TIP3    H122539   1.274   5.915   4.635 -0.4163 -0.1601  0.5135
 7525TIP3    H222540   1.258   6.051   4.572  1.7936  0.1079  0.4632
 7526TIP3   OH222541   0.138   1.349   5.070  0.4510 -0.6349  0.9253
 7526TIP3    H122542   0.059   1.296   5.078  0.4070 -0.5652  0.9567
 7526TIP3    H222543   0.120   1.410   4.999  0.6503 -0.9169  0.6274
 7527TIP3   OH222544   3.039   4.087   5.003  0.0995 -0.1926  0.0660
 7527TIP3    H122545   3.074   4.021   4.944 -0.1787  0.2127 -0.5547
 7527TIP3    H222546   3.110   4.150   5.014  1.3506 -1.8859  2.7407
 7528TIP3   OH222547   2.330   6.388   1.192  0.2438 -0.0626 -0.4542
 7528TIP3    H122548   2.419   6.422   1.205 -0.5428  1.5771  1.2090
 7528TIP3    H222549   2.292   6.446   1.126 -0.8263  1.9437  1.7746
 7529TIP3   OH222550   1.899   4.789   0.895  0.0441 -0.2000 -0.0727
 7529TIP3    H122551   1.811   4.795   0.933  0.4011 -1.5527  1.0351
 7529TIP3    H222552   1.946   4.864   0.932 -0.3809  0.0192  0.0317
 7530TIP3   OH222553   3.237   2.538   0.423 -0.3470  0.2308 -0.2357
 7530TIP3    H122554   3.297   2.611   0.436 -1.1840  0.9931 -0.5161
 7530TIP3    H222555   3.279   2.483   0.357  1.2797 -0.6908  1.4762
 7531TIP3   OH222556   5.798   5.961   0.443  0.2334 -0.3164  0.1051
 7531TIP3    H122557   5.888   5.948   0.413  0.5688 -0.2723  1.0491
 7531TIP3    H222558   5.744   5.953   0.364  0.8750 -2.3242 -0.1725
 7532TIP3   OH222559   2.235   5.550   1.231 -0.2698  0.4888 -0.3248
 7532TIP3    H122560   2.171   5.494   1.187 -1.7339  1.5730  0.3843
 7532TIP3    H222561   2.291   5.581   1.159 -1.1384  0.3156 -1.1031
 7533TIP3   OH222562   4.020   5.975   3.153  0.3936  0.0222 -0.3907
 7533TIP3    H122563   4.082   6.022   3.209 -0.2354 -2.6711  2.9074
 7533TIP3    H222564   4.072   5.952   3.075  2.6975  0.2972  0.9594
 7534TIP3   OH222565   0.635   1.519   0.591  0.4953 -0.4427 -0.6039
 7534TIP3    H122566   0.601   1.509   0.502  0.8685  0.6153 -0.8849
 7534TIP3    H222567   0.698   1.591   0.584 -0.1902  0.3198  0.7053
 7535TIP3   OH222568   3.150   2.951   2.841  0.1569 -0.3987  0.1724
 7535TIP3    H122569   3.216   3.007   2.799 -0.5685  0.1408 -0.2543
 7535TIP3    H222570   3.120   3.002   2.916 -0.0042 -0.5101  0.1833
 7536TIP3   OH222571   3.855   4.375   2.534  0.1805 -0.4952 -0.1475
 7536TIP3    H122572   3.853   4.418   2.449  3.4365  0.5846  0.1798
 7536TIP3    H222573   3.838   4.283   2.516  0.1297 -0.1689 -1.8624
 7537TIP3   OH222574   3.932   6.655   0.776  0.1226  0.2113  0.2421
 7537TIP3    H122575   3.838   6.656   0.756  0.2090 -0.6301 -0.2307
 7537TIP3    H222576   3.940   6.596   0.850  0.2131  0.7502  0.6674
 7538TIP3   OH222577   2.178   2.889   2.641  0.0541 -0.2301  0.9777
 7538TIP3    H122578   2.239   2.836   2.589  0.0763  1.8243 -1.2915
 7538TIP3    H222579   2.220   2.896   2.727  1.8426 -0.8427  0.2104
 7539TIP3   OH222580   5.954   2.892   3.485  0.1601  0.5461  0.1589
 7539TIP3    H122581   5.955   2.881   3.580 -0.1947  0.2768  0.1311
 7539TIP3    H222582   5.949   2.987   3.472 -1.4342  0.5105  0.4119
 7540TIP3   OH222583   2.730   6.194   4.081  0.5592 -0.1989  0.0782
 7540TIP3    H122584   2.702   6.214   4.170  1.6813  0.2412  0.3573
 7540TIP3    H222585   2.825   6.182   4.088  0.9462  1.4959 -1.3027
 7541TIP3   OH222586   3.310   1.054   0.629 -0.5153 -0.4767 -0.2838
 7541TIP3    H122587   3.380   1.115   0.651 -0.1816 -0.9928  0.1206
 7541TIP3    H222588   3.246   1.106   0.580  0.0359  0.0565 -0.4468
 7542TIP3   OH222589   1.279   1.041   3.167  0.2412  0.0494  0.0898
 7542TIP3    H122590   1.294   1.109   3.101 -1.2038 -0.5524 -0.9241
 7542TIP3    H222591   1.295   0.959   3.120 -0.7488 -0.3885  0.4894
 7543TIP3   OH222592   3.760   1.255   2.471  0.4644 -0.1536  0.3281
 7543TIP3    H122593   3.807   1.338   2.460  1.1153 -0.5290  0.1974
 7543TIP3    H222594   3.743   1.225   2.382 -1.8084  0.9320  0.3275
 7544TIP3   OH222595   7.046   4.900   0.717 -0.0717  0.0130 -0.1419
 7544TIP3    H122596   7.014   4.967   0.656 -0.1210  1.2084  1.1584
 7544TIP3    H222597   6.969   4.850   0.742 -0.6267  1.5131  1.3140
 7545TIP3   OH222598   1.998   2.241   5.043 -0.3717 -0.0547 -0.1873
 7545TIP3    H122599   2.003   2.301   4.969 -0.5649 -0.0804 -0.2214
 7545TIP3    H222600   1.931   2.278   5.100 -0.2799 -0.0768 -0.0628
 7546TIP3   OH222601   3.034   3.682   3.779 -0.1509 -0.1999 -0.8722
 7546TIP3    H122602   2.980   3.695   3.857  0.9230 -0.2415 -0.0870
 7546TIP3    H222603   2.972   3.657   3.711 -1.0208 -1.2438  0.2336
 7547TIP3   OH222604   3.065   6.389   1.087 -0.2147  0.1204  0.7980
 7547TIP3    H122605   3.045   6.396   1.180 -0.4497  0.4056  0.7292
 7547TIP3    H222606   3.114   6.307   1.078  0.5498  0.5114  1.2960
 7548TIP3   OH222607   5.843   4.955   0.738 -0.1128  0.5912  0.4067
 7548TIP3    H122608   5.758   4.967   0.696  0.2370  0.3354 -0.3963
 7548TIP3    H222609   5.825   4.896   0.811 -0.7929  1.3219  0.8466
 7549TIP3   OH222610   0.308   1.208   4.528  1.0162  0.0711  0.0446
 7549TIP3    H122611   0.233   1.165   4.487 -0.2638  0.8436  1.4633
 7549TIP3    H222612   0.321   1.160   4.610  0.4563  1.4443  0.9845
 7550TIP3   OH222613   6.614   1.227   5.007  0.0555 -0.0297  0.5828
 7550TIP3    H122614   6.709   1.226   4.997  0.2297 -1.2206  2.0043
 7550TIP3    H222615   6.592   1.319   5.022  0.5883  0.7209 -2.6156
 7551TIP3   OH222616   1.022   0.087   3.970  0.4619 -0.1687  0.1862
 7551TIP3    H122617   1.000  -0.006   3.969 -0.2382 -0.0213  0.9013
 7551TIP3    H222618   1.039   0.107   4.062 -0.9869  0.7613  0.2942
 7552TIP3   OH222619   0.414   5.909   2.294  0.0898 -0.0920 -0.2447
 7552TIP3    H122620   0.360   5.987   2.303 -1.6619 -1.1386 -1.0802
 7552TIP3    H222621   0.488   5.924   2.353 -2.5022  0.2718  3.2141
 7553TIP3   OH222622   3.639   2.806   0.981 -0.2543  0.2519  0.2164
 7553TIP3    H122623   3.684   2.860   1.046  0.3007  0.2763 -0.1891
 7553TIP3    H222624   3.561   2.774   1.027  0.7230 -0.6962  1.2789
 7554TIP3   OH222625   1.047   2.940   0.763  0.2353 -0.3818 -0.0516
 7554TIP3    H122626   0.979   2.891   0.809 -0.2715 -1.0078 -1.4242
 7554TIP3    H222627   1.108   2.874   0.733  0.0256 -0.0913 -1.1405
 7555TIP3   OH222628   6.920   4.816   3.778 -0.4427  0.0597 -0.3608
 7555TIP3    H122629   6.885   4.736   3.818 -0.6768  0.3425  0.0018
 7555TIP3    H222630   7.013   4.813   3.797 -0.2536 -0.6799 -1.2999
 7556TIP3   OH222631   5.137   2.449   1.851 -0.5678  0.1568 -0.2668
 7556TIP3    H122632   5.154   2.361   1.885 -1.3993  0.3002  0.5740
 7556TIP3    H222633   5.175   2.507   1.915  0.8475  0.4291 -1.3121
 7557TIP3   OH222634   6.352   5.644   3.838  0.4350  0.0128 -0.2726
 7557TIP3    H122635   6.291   5.695   3.893  1.2665 -0.1178  0.8085
 7557TIP3    H222636   6.425   5.704   3.823  1.0089 -0.5433  0.2531
 7558TIP3   OH222637   4.337   3.950   5.055  0.6455 -0.3586  0.6444
 7558TIP3    H122638   4.354   4.026   5.111  0.4642  0.2068 -0.0459
 7558TIP3    H222639   4.424   3.924   5.023  0.6591 -0.1113  0.4726
 7559TIP3   OH222640   4.034   0.955   3.513 -0.1053  0.2389  0.8911
 7559TIP3    H122641   4.002   0.951   3.603 -0.4438 -0.2233  0.7499
 7559TIP3    H222642   4.107   0.893   3.511  0.0710  0.4426  0.9108
 7560TIP3   OH222643   4.170   3.008   5.169  0.2131  0.1643  0.3604
 7560TIP3    H122644   4.257   3.007   5.211  0.1550 -1.9219  0.5629
 7560TIP3    H222645   4.173   3.083   5.110  1.9525  0.4988  0.7943
 7561TIP3   OH222646   4.505   3.228   0.086  0.7500  0.0424  0.4330
 7561TIP3    H122647   4.506   3.267  -0.001 -3.4576 -1.7942 -0.6833
 7561TIP3    H222648   4.507   3.303   0.146 -0.9559  1.7044 -1.4295
 7562TIP3   OH222649   2.403   2.461   1.741 -0.3673  0.3820  0.1309
 7562TIP3    H122650   2.383   2.525   1.672 -1.6050  0.9851  1.0152
 7562TIP3    H222651   2.442   2.514   1.811 -0.9532  0.1007  0.6754
 7563TIP3   OH222652   2.333   0.268   3.370  0.0750 -0.7470  0.4419
 7563TIP3    H122653   2.370   0.304   3.451 -1.1769  0.9454  0.3153
 7563TIP3    H222654   2.324   0.344   3.312 -2.2101 -1.3348 -0.0433
 7564TIP3   OH222655   3.534   1.466   4.575  0.1596 -0.3420  0.4080
 7564TIP3    H122656   3.554   1.378   4.604 -3.7015 -1.1635  1.1522
 7564TIP3    H222657   3.595   1.522   4.623  0.8217 -2.4105  2.1371
 7565TIP3   OH222658   6.238   1.068   1.910  0.2528 -0.5561 -0.0197
 7565TIP3    H122659   6.208   1.067   2.001  1.3933 -0.2898  0.3759
 7565TIP3    H222660   6.332   1.057   1.915  0.2041 -1.8828 -1.2630
 7566TIP3   OH222661   3.743   0.044   4.921 -0.9420 -0.4517  0.0618
 7566TIP3    H122662   3.712   0.129   4.951 -0.0723 -0.5415  1.3145
 7566TIP3    H222663   3.734  -0.012   4.999 -0.2848 -1.1670 -0.3692
 7567TIP3   OH222664   4.458   0.076   4.886 -0.1055 -0.1667 -0.3052
 7567TIP3    H122665   4.442  -0.013   4.917  0.0873 -0.0509  0.1342
 7567TIP3    H222666   4.446   0.071   4.791  1.0754 -0.9265 -0.4354
 7568TIP3   OH222667   1.263   3.018   5.615  0.4486 -0.1483  0.4165
 7568TIP3    H122668   1.353   3.032   5.645  0.4289  0.2766  0.2941
 7568TIP3    H222669   1.212   3.085   5.660 -0.4436 -2.5333  3.1951
 7569TIP3   OH222670   3.338   1.317   3.276  0.7044 -0.4309 -0.3251
 7569TIP3    H122671   3.361   1.225   3.267 -0.1264 -0.5821 -0.9447
 7569TIP3    H222672   3.323   1.347   3.187 -1.5453 -0.3538  0.0336
 7570TIP3   OH222673   4.761   1.439   0.938  0.4545 -0.4916  0.3615
 7570TIP3    H122674   4.847   1.481   0.931  0.5539 -0.6627  0.5539
 7570TIP3    H222675   4.748   1.427   1.032 -0.0581  0.1029  0.3750
 7571TIP3   OH222676   3.494   6.183   1.269  0.0484 -0.2468 -0.2641
 7571TIP3    H122677   3.476   6.277   1.277 -1.2951 -0.3073 -2.0555
 7571TIP3    H222678   3.472   6.147   1.355  0.3455  1.0327  0.3668
 7572TIP3   OH222679   0.655   4.410   3.964 -0.1536 -0.2092  0.0460
 7572TIP3    H122680   0.716   4.455   4.022  1.3211 -1.0969 -0.7547
 7572TIP3    H222681   0.647   4.322   4.000 -0.9815 -0.0982  0.1448
 7573TIP3   OH222682   4.258   5.057   4.933 -0.0567 -0.0290 -0.1408
 7573TIP3    H122683   4.303   5.064   5.018 -0.0420 -0.4045 -0.1178
 7573TIP3    H222684   4.328   5.072   4.869  0.0881 -0.5414 -0.1035
 7574TIP3   OH222685   3.487   0.140   0.485  0.0651 -0.0453 -0.5479
 7574TIP3    H122686   3.476   0.143   0.390 -1.2017  0.5915 -0.3981
 7574TIP3    H222687   3.527   0.225   0.507  0.2465 -0.1424 -0.5041
 7575TIP3   OH222688   1.960   4.292   2.228  0.1065  0.6193 -0.0717
 7575TIP3    H122689   1.938   4.258   2.315  0.0155 -0.6678 -0.5619
 7575TIP3    H222690   1.942   4.218   2.169 -0.4153  1.6562 -1.2587
 7576TIP3   OH222691   3.972   4.516   3.723 -0.2127  0.5682 -0.8130
 7576TIP3    H122692   4.065   4.539   3.730 -0.1684  0.1324  0.2620
 7576TIP3    H222693   3.952   4.524   3.629  1.5668 -1.7964 -1.4838
 7577TIP3   OH222694   4.750   6.720   1.192 -0.2204  0.1491  0.2459
 7577TIP3    H122695   4.809   6.673   1.133 -1.5674 -0.4282 -0.6962
 7577TIP3    H222696   4.688   6.654   1.222 -0.9280  0.9083  0.5036
 7578TIP3   OH222697   0.352   5.267   0.280 -0.4234 -1.1673  0.0295
 7578TIP3    H122698   0.304   5.273   0.363  1.5258 -0.1184  1.1772
 7578TIP3    H222699   0.432   5.317   0.296 -0.9109  0.9129 -3.1975
 7579TIP3   OH222700   2.780   2.087   3.037  0.3009  0.1445  0.3622
 7579TIP3    H122701   2.845   2.102   3.106  0.0993  0.1321  0.5544
 7579TIP3    H222702   2.785   2.165   2.981 -0.2084  0.5837  0.9260
 7580TIP3   OH222703   6.762   1.824   1.601  0.1253 -0.4184 -0.2180
 7580TIP3    H122704   6.739   1.780   1.519  0.6932 -1.2301  0.0441
 7580TIP3    H222705   6.821   1.895   1.575 -1.0086  0.3858 -0.6750
 7581TIP3   OH222706   4.178   2.262   1.520 -0.6478 -0.0967 -0.2265
 7581TIP3    H122707   4.138   2.316   1.451  0.0598  0.1162 -0.4916
 7581TIP3    H222708   4.260   2.309   1.541  0.7477 -1.8073 -1.5138
 7582TIP3   OH222709   4.569   5.615   0.141  0.3466 -0.8972  0.1379
 7582TIP3    H122710   4.637   5.587   0.079  1.4550  1.0303  0.4008
 7582TIP3    H222711   4.522   5.684   0.095  0.5933 -0.0690  1.0985
 7583TIP3   OH222712   1.974   0.581   4.231  0.3744  0.5719  0.1718
 7583TIP3    H122713   1.980   0.513   4.298 -2.5093  1.9243  2.0000
 7583TIP3    H222714   2.064   0.610   4.218  1.3989 -1.9133  1.0716
 7584TIP3   OH222715   0.790   3.695   2.863 -0.2267  0.5654 -0.3245
 7584TIP3    H122716   0.745   3.611   2.869 -0.5777  0.7915  0.2674
 7584TIP3    H222717   0.736   3.746   2.802  0.1405  0.2749 -0.9070
 7585TIP3   OH222718   6.782   6.628   1.664 -0.0540  0.1784 -0.4589
 7585TIP3    H122719   6.761   6.535   1.662 -0.9227  0.3412  0.3763
 7585TIP3    H222720   6.698   6.672   1.669  0.3802  0.9632  0.3277
 7586TIP3   OH222721   3.317   1.264   0.127  0.5741 -0.1629 -1.1191
 7586TIP3    H122722   3.325   1.340   0.070  1.4912  0.2171 -0.5220
 7586TIP3    H222723   3.407   1.237   0.143  0.4518  0.5686  1.1906
 7587TIP3   OH222724   4.986   4.335   4.621 -0.6494  0.0650 -0.0205
 7587TIP3    H122725   4.946   4.408   4.668  0.7850  0.1925  1.0795
 7587TIP3    H222726   5.076   4.363   4.606 -0.0292 -1.5061  0.5432
 7588TIP3   OH222727   3.757   0.927   3.496 -0.3510  0.4058  0.6419
 7588TIP3    H122728   3.705   0.989   3.445 -0.7294 -0.2656  0.1901
 7588TIP3    H222729   3.848   0.944   3.470 -0.6488 -1.2368 -1.8040
 7589TIP3   OH222730   4.855   4.719   1.425  0.0405 -0.5883 -0.2902
 7589TIP3    H122731   4.842   4.740   1.517 -0.4823 -1.5319 -0.1257
 7589TIP3    H222732   4.766   4.711   1.390  0.2319 -0.8008 -0.7399
 7590TIP3   OH222733   4.238   6.168   0.277 -0.1301 -0.3331  0.0535
 7590TIP3    H122734   4.312   6.155   0.217 -0.9994 -3.4727 -0.5641
 7590TIP3    H222735   4.176   6.222   0.228  0.2762 -0.6994 -0.8902
 7591TIP3   OH222736   4.589   6.319   2.603  0.3073 -0.4014 -0.5889
 7591TIP3    H122737   4.614   6.345   2.514  0.1852  0.8480 -0.2755
 7591TIP3    H222738   4.590   6.401   2.653 -1.0829 -0.8524  0.2147
 7592TIP3   OH222739   1.111   2.240   0.469  0.0023  0.1409  0.2446
 7592TIP3    H122740   1.132   2.244   0.562 -2.5092 -2.6150  1.1021
 7592TIP3    H222741   1.153   2.161   0.437 -1.0869 -0.2462 -0.3142
 7593TIP3   OH222742   3.536   4.076   5.347  0.6197  0.4967 -0.6253
 7593TIP3    H122743   3.527   4.044   5.436  1.8052  0.6218 -0.4451
 7593TIP3    H222744   3.630   4.071   5.329  0.4328  0.7437 -1.7640
 7594TIP3   OH222745   0.829   4.924   0.137 -0.1584  0.0310 -0.7605
 7594TIP3    H122746   0.797   5.001   0.091  1.5044  1.4104  0.2561
 7594TIP3    H222747   0.768   4.912   0.209 -0.2822  0.5742 -0.7688
 7595TIP3   OH222748   0.523   0.375   4.055  0.5971 -0.1695  0.3670
 7595TIP3    H122749   0.539   0.381   3.961  2.4625  0.1458  0.6480
 7595TIP3    H222750   0.604   0.337   4.090 -0.5710 -1.5234  1.7054
 7596TIP3   OH222751   1.947   5.396   3.822  0.9440 -0.0452 -0.0661
 7596TIP3    H122752   1.872   5.341   3.803 -0.2204  1.3457  0.3491
 7596TIP3    H222753   1.974   5.430   3.737  1.0146 -0.4130 -0.1941
 7597TIP3   OH222754   5.964   5.447   5.732  0.0121  0.1063 -0.2278
 7597TIP3    H122755   5.976   5.462   5.826  0.0713  1.0929 -0.3879
 7597TIP3    H222756   6.029   5.380   5.711  1.3116  1.2104  0.0851
 7598TIP3   OH222757   3.507   3.893   5.547 -0.1217  0.1193  0.8071
 7598TIP3    H122758   3.518   3.868   5.639  1.2318 -1.2626  0.3097
 7598TIP3    H222759   3.424   3.852   5.521  0.0865 -0.4942  1.0944
 7599TIP3   OH222760   6.276   0.683   0.876 -0.2010 -0.5003  0.3083
 7599TIP3    H122761   6.222   0.728   0.941 -0.9945  1.1014 -1.3738
 7599TIP3    H222762   6.268   0.590   0.898 -1.9577 -0.1409  1.3596
 7600TIP3   OH222763   3.937   3.611   4.843 -0.1599  0.8262 -0.4849
 7600TIP3    H122764   3.995   3.680   4.811  0.9581  1.3012  2.2355
 7600TIP3    H222765   3.897   3.648   4.922 -2.1194 -0.4919 -0.7799
 7601TIP3   OH222766   6.281   5.640   4.687  0.6304 -0.0271 -0.3887
 7601TIP3    H122767   6.260   5.725   4.651  1.1264  0.7207  1.0083
 7601TIP3    H222768   6.373   5.626   4.666  0.5331 -0.2438 -0.6712
 7602TIP3   OH222769   2.539   5.851   3.038 -0.0275 -0.0645  0.9788
 7602TIP3    H122770   2.521   5.865   3.131 -0.5714 -2.7859  1.3447
 7602TIP3    H222771   2.623   5.807   3.036  0.5779  1.0656  0.0467
 7603TIP3   OH222772   4.871   1.756   2.043 -0.1826 -0.4511 -0.5422
 7603TIP3    H122773   4.849   1.669   2.075  1.3056 -1.3269 -1.7801
 7603TIP3    H222774   4.814   1.768   1.966 -2.1956  0.7653  1.0276
 7604TIP3   OH222775   6.092   5.721   1.913  0.0792 -0.3912 -0.4280
 7604TIP3    H122776   6.033   5.796   1.904  0.3674 -0.2271 -0.9987
 7604TIP3    H222777   6.038   5.653   1.955 -0.4760 -0.1959 -0.8124
 7605TIP3   OH222778   3.063   1.891   4.349 -0.0243 -0.4930  0.1713
 7605TIP3    H122779   3.123   1.829   4.308 -0.8394  0.0182 -1.9391
 7605TIP3    H222780   2.975   1.856   4.330 -0.4721  0.8339 -0.3568
 7606TIP3   OH222781   6.053   5.329   5.443 -0.4566 -0.6256  0.2978
 7606TIP3    H122782   6.091   5.265   5.383  0.2261 -0.3049  0.3776
 7606TIP3    H222783   6.114   5.333   5.516  0.0198  0.7867 -0.1327
 7607TIP3   OH222784   4.000   5.333   4.446 -0.4523  0.3930 -0.2070
 7607TIP3    H122785   3.978   5.424   4.464  0.9085  0.6930  0.1094
 7607TIP3    H222786   3.993   5.289   4.531 -0.2905  0.4039 -0.1860
 7608TIP3   OH222787   1.859   3.012   3.991  0.0983 -0.4707  0.0610
 7608TIP3    H122788   1.888   3.011   3.899  1.2374 -1.8046  0.3951
 7608TIP3    H222789   1.766   2.990   3.987 -0.6234  2.3789 -0.9424
 7609TIP3   OH222790   0.939   4.059   3.204 -0.0843 -0.0764  0.1856
 7609TIP3    H122791   0.849   4.037   3.227 -0.2859  0.3243 -0.1871
 7609TIP3    H222792   0.978   3.977   3.173 -0.0406 -0.4472  1.1960
 7610TIP3   OH222793   2.151   2.222   5.317  0.4489  0.0527 -0.8584
 7610TIP3    H122794   2.211   2.168   5.265  1.0399 -0.0445 -0.0816
 7610TIP3    H222795   2.100   2.269   5.251  1.1357 -0.1194 -1.5387
 7611TIP3   OH222796   4.987   1.341   2.444  0.1198 -0.3292 -0.3535
 7611TIP3    H122797   5.072   1.385   2.438  0.5860 -0.9328  1.2230
 7611TIP3    H222798   4.942   1.385   2.516 -0.6598 -0.4289 -0.7651
 7612TIP3   OH222799   7.164   5.179   4.462 -0.2578  0.3392  0.1425
 7612TIP3    H122800   7.158   5.123   4.540 -0.1206 -2.3793 -1.6709
 7612TIP3    H222801   7.214   5.127   4.399  0.3814  2.8003 -1.4987
 7613TIP3   OH222802   5.565   6.662   2.578  0.1850  0.0420 -0.0445
 7613TIP3    H122803   5.477   6.625   2.581  0.0639  0.0899 -1.8765
 7613TIP3    H222804   5.617   6.603   2.633 -0.4865 -1.5105 -0.9999
 7614TIP3   OH222805   0.298   3.333   5.719  0.5510 -0.2360  0.5396
 7614TIP3    H122806   0.322   3.384   5.797  2.9530 -3.6208  2.2981
 7614TIP3    H222807   0.238   3.266   5.752 -1.5474  0.5855 -1.4221
 7615TIP3   OH222808   2.644   0.703   0.615 -0.5624  0.3335  0.2278
 7615TIP3    H122809   2.603   0.626   0.654 -1.5294  0.6177 -0.1828
 7615TIP3    H222810   2.576   0.771   0.619  0.0330  0.9613 -0.0495
 7616TIP3   OH222811   0.500   3.626   2.052 -0.1744 -0.1588  0.3923
 7616TIP3    H122812   0.561   3.565   2.094 -1.2001 -0.4428  1.5277
 7616TIP3    H222813   0.518   3.618   1.959  1.4036 -0.3527  0.6814
 7617TIP3   OH222814   1.324   2.435   1.283  0.1842 -0.2124  0.0570
 7617TIP3    H122815   1.407   2.392   1.265  0.2461  0.5294 -1.5917
 7617TIP3    H222816   1.348   2.521   1.318  0.1960  0.6703 -1.9858
 7618TIP3   OH222817   4.402   1.189   0.800  0.0728 -0.3935  0.6088
 7618TIP3    H122818   4.442   1.161   0.883 -1.7803 -0.1415  1.6618
 7618TIP3    H222819   4.314   1.218   0.825 -0.4896 -0.1604 -1.4498
 7619TIP3   OH222820   6.449   2.415   2.081  0.2001  0.4569  0.3026
 7619TIP3    H122821   6.381   2.360   2.121 -2.2014  1.4433 -2.1137
 7619TIP3    H222822   6.500   2.355   2.027 -0.4852  0.1219  0.0218
 7620TIP3   OH222823   1.168   6.701   1.182  0.5052 -0.4823  0.2285
 7620TIP3    H122824   1.218   6.619   1.185  0.2799 -0.6116  0.4363
 7620TIP3    H222825   1.085   6.677   1.141  1.5814  0.2338 -2.6051
 7621TIP3   OH222826   6.767   3.632   2.143  0.2905  0.6523 -0.1648
 7621TIP3    H122827   6.696   3.686   2.179 -0.5554  0.0611 -0.8911
 7621TIP3    H222828   6.777   3.664   2.053 -0.2788 -0.4241 -0.6321
 7622TIP3   OH222829   1.371   5.331   1.699  0.7699  0.3288 -0.0235
 7622TIP3    H122830   1.408   5.307   1.784  0.0264 -1.0159 -0.0619
 7622TIP3    H222831   1.318   5.408   1.717 -0.6447 -0.8488  1.0666
 7623TIP3   OH222832   0.795   4.587   0.662 -0.9882  0.4838  0.4239
 7623TIP3    H122833   0.805   4.492   0.653  2.1850  0.8011 -0.5097
 7623TIP3    H222834   0.756   4.615   0.580  0.2005  0.2051 -0.2505
 7624TIP3   OH222835   4.066   1.658   4.720  0.3212  0.0899 -0.2980
 7624TIP3    H122836   4.014   1.641   4.641  0.8125  3.0735 -1.4106
 7624TIP3    H222837   4.157   1.662   4.688  0.6583  0.0859  0.6365
 7625TIP3   OH222838   7.161   5.436   2.448  0.0544  0.1473 -0.4498
 7625TIP3    H122839   7.133   5.519   2.486  0.4692 -0.2433  0.7235
 7625TIP3    H222840   7.254   5.429   2.470  0.0775 -0.5339 -0.7308
 7626TIP3   OH222841   2.618   6.226   3.824  0.3767 -0.1924  0.3826
 7626TIP3    H122842   2.605   6.147   3.876 -0.5817  0.5705  1.3563
 7626TIP3    H222843   2.616   6.297   3.888 -1.9515  0.8830 -0.7536
 7627TIP3   OH222844   0.740   6.562   4.672  0.2516  0.2191  0.2644
 7627TIP3    H122845   0.706   6.604   4.750  1.4144  3.2005 -0.6873
 7627TIP3    H222846   0.699   6.475   4.671 -3.1059  1.6236  1.8650
 7628TIP3   OH222847   5.164   5.663   5.823  0.2828 -0.3199 -0.0837
 7628TIP3    H122848   5.251   5.664   5.861 -0.5666  1.6947  2.0309
 7628TIP3    H222849   5.168   5.726   5.750  0.5725 -0.1559  0.0749
 7629TIP3   OH222850   3.695   0.589   3.741  0.0896 -0.4925  0.1119
 7629TIP3    H122851   3.609   0.590   3.785  0.6706  1.9331  1.3518
 7629TIP3    H222852   3.744   0.522   3.788 -0.2587  0.0322  1.2754
 7630TIP3   OH222853   1.570   6.668   3.990 -0.4746 -0.5885  0.2028
 7630TIP3    H122854   1.515   6.659   4.068 -0.5292 -1.1741  0.1063
 7630TIP3    H222855   1.518   6.721   3.930 -0.4991 -0.2697  0.5050
 7631TIP3   OH222856   1.540   2.420   3.672 -0.2558 -0.0285  0.0743
 7631TIP3    H122857   1.624   2.430   3.626  0.0335 -1.4087  0.2595
 7631TIP3    H222858   1.557   2.354   3.738 -1.8422 -1.4045 -0.8214
 7632TIP3   OH222859   1.556   0.580   1.243 -0.4956 -0.2649 -0.4616
 7632TIP3    H122860   1.615   0.505   1.254 -0.4640  0.0322  1.9585
 7632TIP3    H222861   1.468   0.541   1.246 -0.4607 -0.3623 -0.7109
 7633TIP3   OH222862   0.090   0.090   2.556 -0.8895 -0.1585  0.3986
 7633TIP3    H122863   0.143   0.125   2.483 -1.1684 -2.9537 -1.2621
 7633TIP3    H222864   0.151   0.088   2.630 -0.0173  0.8791 -0.2440
 7634TIP3   OH222865   2.010   3.281   3.790  0.1169  0.7426  0.2897
 7634TIP3    H122866   2.068   3.356   3.804  1.4490 -0.1580 -0.2360
 7634TIP3    H222867   2.066   3.214   3.750 -0.7898 -0.9242  1.6859
 7635TIP3   OH222868   1.881   4.944   4.977  0.6071 -0.4814  0.8038
 7635TIP3    H122869   1.844   5.030   4.999 -1.2234 -1.1504  0.5588
 7635TIP3    H222870   1.818   4.907   4.915  0.2665 -2.8280  2.4357
 7636TIP3   OH222871   4.379   5.314   0.523 -0.4166 -0.2414  0.3110
 7636TIP3    H122872   4.406   5.374   0.593 -2.7502  0.2377  0.9075
 7636TIP3    H222873   4.396   5.362   0.442  2.1024 -0.7094  0.4855
 7637TIP3   OH222874   5.041   0.335   4.052  0.2683  0.5227 -0.2120
 7637TIP3    H122875   5.132   0.328   4.079  0.5188 -0.4475 -1.2502
 7637TIP3    H222876   4.996   0.268   4.104  0.2325  0.6432 -0.0857
 7638TIP3   OH222877   1.200   6.253   5.720 -0.0917 -0.0952 -0.3258
 7638TIP3    H122878   1.264   6.299   5.666 -0.0953  0.6897  0.3220
 7638TIP3    H222879   1.245   6.235   5.802  0.0128 -1.5528 -0.6712
 7639TIP3   OH222880   2.482   1.894   2.670 -0.3350  0.5674  0.5444
 7639TIP3    H122881   2.483   1.855   2.758  1.6984 -0.4453  0.1249
 7639TIP3    H222882   2.539   1.838   2.618 -2.1119  0.6578 -1.6803
 7640TIP3   OH222883   5.676   1.131   1.752 -0.1708 -0.4829 -0.5326
 7640TIP3    H122884   5.731   1.208   1.766 -1.2880  0.1633  0.4574
 7640TIP3    H222885   5.596   1.149   1.801 -1.0947 -1.5957 -1.5506
 7641TIP3   OH222886   6.605   4.415   4.420 -0.4177 -0.4808  0.1169
 7641TIP3    H122887   6.617   4.361   4.498 -1.1530  1.6285  1.8010
 7641TIP3    H222888   6.510   4.416   4.406 -0.2753 -1.0636 -1.0066
 7642TIP3   OH222889   3.918   5.618   1.289  0.0386  0.8241 -0.0100
 7642TIP3    H122890   3.937   5.529   1.260 -0.3197  0.5988  0.4405
 7642TIP3    H222891   3.830   5.636   1.254 -0.8053  0.2013  1.6952
 7643TIP3   OH222892   0.804   1.122   4.518  0.3182 -0.6188  0.0235
 7643TIP3    H122893   0.747   1.173   4.461  0.9305 -0.2848 -0.3090
 7643TIP3    H222894   0.745   1.073   4.574 -0.3191  1.0637  0.9113
 7644TIP3   OH222895   3.643   6.578   4.747 -0.3297  0.0807  0.6169
 7644TIP3    H122896   3.703   6.652   4.741 -0.6961  0.4652  1.4238
 7644TIP3    H222897   3.605   6.586   4.835 -1.1241 -0.4847  0.3340
 7645TIP3   OH222898   5.466   2.028   5.045  0.0528  0.0386  0.2340
 7645TIP3    H122899   5.541   1.978   5.013 -0.1984 -0.1367 -0.0936
 7645TIP3    H222900   5.396   2.007   4.983 -0.3412 -0.0198  0.6980
 7646TIP3   OH222901   5.359   4.628   3.313 -0.2794  0.1790 -0.0737
 7646TIP3    H122902   5.267   4.642   3.338 -0.3410  0.8737 -0.6368
 7646TIP3    H222903   5.397   4.716   3.311 -0.1459  0.1273 -1.8221
 7647TIP3   OH222904   1.839   4.087   4.853 -0.1186  0.1314 -0.1469
 7647TIP3    H122905   1.825   3.994   4.873  0.0318 -0.0466 -0.8450
 7647TIP3    H222906   1.879   4.087   4.766  1.1617  0.7927  0.4140
 7648TIP3   OH222907   2.449   0.863   0.741  0.0073  0.0629 -0.4324
 7648TIP3    H122908   2.420   0.825   0.824 -0.8370 -0.3816 -0.9097
 7648TIP3    H222909   2.369   0.898   0.702  0.6499  1.7211 -0.3351
 7649TIP3   OH222910   2.563   1.105   2.045  0.1864  0.0597 -0.5147
 7649TIP3    H122911   2.555   1.036   2.110 -0.7342 -0.3131 -1.0090
 7649TIP3    H222912   2.582   1.059   1.963  1.0473  0.5044 -0.5776
 7650TIP3   OH222913   3.886   5.331   2.034 -0.0099 -0.5738 -0.6055
 7650TIP3    H122914   3.837   5.250   2.021  0.4137 -0.6526 -1.8416
 7650TIP3    H222915   3.978   5.305   2.035  0.2049 -0.0308 -2.1197
 7651TIP3   OH222916   1.464   4.799   1.623 -0.0468 -0.3188  0.2769
 7651TIP3    H122917   1.454   4.720   1.676 -0.6202 -0.6997 -0.3781
 7651TIP3    H222918   1.457   4.768   1.533 -0.3243  0.4821  0.0170
 7652TIP3   OH222919   6.353   5.439   5.580 -0.2639  0.0126  0.1858
 7652TIP3    H122920   6.417   5.508   5.594  1.0011 -1.3335  1.2834
 7652TIP3    H222921   6.384   5.393   5.502 -0.0312 -0.4776  0.5638
 7653TIP3   OH222922   7.146   6.549   4.954 -0.2660  0.2662 -0.3584
 7653TIP3    H122923   7.185   6.470   4.991 -1.6321 -0.1793  0.1681
 7653TIP3    H222924   7.084   6.516   4.889  0.0435  0.9605 -1.0207
 7654TIP3   OH222925   6.769   3.900   4.689 -0.8119  0.3390 -0.1873
 7654TIP3    H122926   6.851   3.850   4.685 -1.1311 -0.2523  0.5090
 7654TIP3    H222927   6.795   3.985   4.725 -0.2901  0.6431 -1.2357
 7655TIP3   OH222928   3.693   1.904   3.267  0.2142 -0.0592  0.0448
 7655TIP3    H122929   3.782   1.930   3.243  0.2455  0.7122  0.9134
 7655TIP3    H222930   3.694   1.903   3.363 -0.4194 -1.1179  0.0521
 7656TIP3   OH222931   1.633   4.227   3.589  0.2140  0.1815 -0.4567
 7656TIP3    H122932   1.716   4.189   3.620 -0.7158 -1.2875  0.3029
 7656TIP3    H222933   1.656   4.266   3.505  1.2714 -1.9659 -1.2441
 7657TIP3   OH222934   3.431   4.890   4.529  0.0194 -0.4498  0.0093
 7657TIP3    H122935   3.421   4.846   4.445 -3.8920  1.6980 -0.8954
 7657TIP3    H222936   3.398   4.827   4.593  0.7476 -1.1978 -0.3295
 7658TIP3   OH222937   1.816   2.649   1.947 -0.0586  0.2857 -0.1772
 7658TIP3    H122938   1.907   2.622   1.955  0.1973  0.7705 -1.2392
 7658TIP3    H222939   1.789   2.619   1.860 -0.3720  1.6284 -0.5801
 7659TIP3   OH222940   0.770   2.369   0.201  0.1275 -0.3356 -0.4073
 7659TIP3    H122941   0.718   2.396   0.276 -2.2064 -3.8142 -0.5297
 7659TIP3    H222942   0.705   2.353   0.132  1.8714 -0.5176 -2.0938
 7660TIP3   OH222943   5.822   3.185   2.954 -0.2124  0.2063 -0.0055
 7660TIP3    H122944   5.884   3.215   2.888 -0.4373  0.5222 -0.0718
 7660TIP3    H222945   5.875   3.176   3.034  0.0958 -0.3508 -0.2647
 7661TIP3   OH222946   2.041   0.072   3.019  0.8586  0.6253 -0.1692
 7661TIP3    H122947   2.041   0.168   3.023 -0.1948  0.6083  1.7948
 7661TIP3    H222948   1.959   0.047   3.061  1.7082 -1.1710  0.5194
 7662TIP3   OH222949   5.610   1.131   2.968  0.4326 -0.4017  0.5409
 7662TIP3    H122950   5.583   1.063   2.906 -3.9137  0.8997  0.6873
 7662TIP3    H222951   5.665   1.190   2.917 -2.1893  0.0973 -2.0047
 7663TIP3   OH222952   0.787   3.322   2.967 -0.2784  0.5000  0.5860
 7663TIP3    H122953   0.810   3.344   3.058  0.1784 -0.4413  0.7125
 7663TIP3    H222954   0.727   3.392   2.940  2.2766  2.8368  0.4317
 7664TIP3   OH222955   6.497   3.267   3.920  0.6309  0.0873  0.2694
 7664TIP3    H122956   6.497   3.250   4.014  0.4782  0.1477  0.2811
 7664TIP3    H222957   6.484   3.361   3.913  2.4833  0.3820  0.2302
 7665TIP3   OH222958   2.914   0.375   1.020  0.0550  0.1193  0.4060
 7665TIP3    H122959   2.969   0.342   0.949 -0.3561  1.0827 -0.3930
 7665TIP3    H222960   2.953   0.459   1.044 -1.8181  1.5290 -1.1689
 7666TIP3   OH222961   1.450   0.562   4.571 -0.2395 -0.2056 -0.3595
 7666TIP3    H122962   1.396   0.622   4.623  1.0811 -0.6608  1.6364
 7666TIP3    H222963   1.539   0.575   4.604 -0.0232 -4.0213  1.0479
 7667TIP3   OH222964   3.394   3.265   3.539  0.3917 -0.0929 -0.0619
 7667TIP3    H122965   3.469   3.305   3.497  0.8200  0.3885  1.1157
 7667TIP3    H222966   3.416   3.262   3.632 -0.2767 -1.6558  0.0926
 7668TIP3   OH222967   4.444   3.036   1.322  0.0695 -0.4978  0.1651
 7668TIP3    H122968   4.440   3.091   1.400  0.5837 -2.2714  1.5179
 7668TIP3    H222969   4.398   2.955   1.347  0.9699 -1.4394 -1.0704
 7669TIP3   OH222970   1.694   1.016   0.231  0.6256 -0.3033  0.0053
 7669TIP3    H122971   1.765   0.952   0.223  0.6878 -0.3134  0.6103
 7669TIP3    H222972   1.717   1.068   0.308  1.7051  1.8653 -1.6628
 7670TIP3   OH222973   1.994   4.527   0.780 -0.0469  0.5248 -0.0957
 7670TIP3    H122974   1.965   4.578   0.855 -0.5230  1.9510 -1.2063
 7670TIP3    H222975   2.088   4.544   0.773 -0.0667  0.6630 -0.0182
 7671TIP3   OH222976   4.207   3.350   3.399 -0.2806 -0.0357  0.1862
 7671TIP3    H122977   4.112   3.351   3.408 -0.1517 -0.1761  2.1463
 7671TIP3    H222978   4.232   3.259   3.413  0.1491  0.0348 -0.1137
 7672TIP3   OH222979   3.481   3.860   3.520  0.1690 -0.0501  0.0216
 7672TIP3    H122980   3.541   3.926   3.487  2.5208 -2.3595 -0.7072
 7672TIP3    H222981   3.513   3.840   3.608 -0.2069 -0.5133  0.0592
 7673TIP3   OH222982   0.445   2.525   0.703 -0.5509  0.0230 -0.0760
 7673TIP3    H122983   0.485   2.446   0.666  4.6322  2.3575 -0.2014
 7673TIP3    H222984   0.444   2.509   0.797  1.8984  0.2439  0.0450
 7674TIP3   OH222985   4.007   4.851   3.585 -0.1891 -0.2479  0.1487
 7674TIP3    H122986   3.974   4.898   3.509 -2.0926 -1.1489  0.3509
 7674TIP3    H222987   4.100   4.839   3.568 -0.2829  0.9122 -1.3011
 7675TIP3   OH222988   5.284   2.565   1.256 -0.1782  0.1706 -0.5716
 7675TIP3    H122989   5.254   2.505   1.187  0.2438  0.1137 -0.7051
 7675TIP3    H222990   5.376   2.580   1.237  0.1625 -0.4931  0.4383
 7676TIP3   OH222991   6.098   6.495   4.840  0.3189  0.5181  0.1903
 7676TIP3    H122992   6.171   6.499   4.902  0.5311  1.0252 -0.0846
 7676TIP3    H222993   6.031   6.551   4.878  1.3828  2.9018 -1.2072
 7677TIP3   OH222994   2.803   1.081   1.318 -0.4882 -0.1241 -0.9141
 7677TIP3    H122995   2.722   1.054   1.362 -0.1525  1.2419  0.6054
 7677TIP3    H222996   2.774   1.103   1.229 -1.7848  0.1567 -0.4579
 7678TIP3   OH222997   4.776   0.557   4.855 -0.6033  0.0274  0.0718
 7678TIP3    H122998   4.726   0.542   4.935  0.9240  0.7142  1.1997
 7678TIP3    H222999   4.864   0.522   4.874 -0.6806 -1.4743 -1.9735
 7679TIP3   OH223000   5.413   4.166   5.820  0.4967 -0.1967  0.0005
 7679TIP3    H123001   5.460   4.192   5.741  0.9636  0.3102  0.4405
 7679TIP3    H223002   5.410   4.246   5.873 -0.9207 -0.1903 -0.0477
 7680TIP3   OH223003   0.432   4.601   3.957 -0.1545  0.2711  0.1884
 7680TIP3    H123004   0.368   4.587   3.888  0.2638  0.2151 -0.1965
 7680TIP3    H223005   0.509   4.551   3.929  0.3350  0.9797  0.2456
 7681TIP3   OH223006   2.011   1.337   5.093 -0.4593 -0.4438 -0.0241
 7681TIP3    H123007   2.021   1.255   5.140 -0.2269  0.4855  1.6207
 7681TIP3    H223008   1.946   1.386   5.143  0.7886  1.1271  0.1503
 7682TIP3   OH223009   0.244   5.144   4.972  0.3335  0.4353  0.5727
 7682TIP3    H123010   0.285   5.151   4.886 -0.0386 -0.8215  0.2811
 7682TIP3    H223011   0.155   5.175   4.959 -0.3206 -1.5255  0.0250
 7683TIP3   OH223012   5.480   5.473   4.693 -0.4748 -0.0880 -0.5205
 7683TIP3    H123013   5.444   5.385   4.685 -1.4247  0.2100  0.3002
 7683TIP3    H223014   5.571   5.464   4.668 -0.4018 -1.4298  0.1622
 7684TIP3   OH223015   6.544   1.615   0.329  0.5603 -0.6867 -0.0294
 7684TIP3    H123016   6.487   1.625   0.405  1.4017 -0.6852  0.6142
 7684TIP3    H223017   6.626   1.582   0.365  0.7120 -1.4534 -1.0405
 7685TIP3   OH223018   2.325   6.351   4.376 -0.2594 -0.0914  0.1537
 7685TIP3    H123019   2.360   6.435   4.406 -0.2284  0.1513 -0.5429
 7685TIP3    H223020   2.388   6.322   4.309  0.6156 -1.4534  1.5208
 7686TIP3   OH223021   6.513   6.534   1.384 -1.2710  0.0228 -0.2980
 7686TIP3    H123022   6.577   6.463   1.384 -2.3333 -0.9667 -0.8746
 7686TIP3    H223023   6.555   6.603   1.331 -0.2920 -0.2127  0.1448
 7687TIP3   OH223024   3.587   3.937   3.138 -0.1083  0.0881 -0.0755
 7687TIP3    H123025   3.617   4.005   3.078  1.1882 -0.2201  0.1936
 7687TIP3    H223026   3.634   3.858   3.111 -0.4307 -0.3396  0.5709
 7688TIP3   OH223027   4.148   2.021   1.329  0.3830 -0.0142  0.2676
 7688TIP3    H123028   4.238   2.011   1.297  0.7652  2.1555  0.5139
 7688TIP3    H223029   4.151   2.098   1.387 -1.1143 -1.4209  2.3617
 7689TIP3   OH223030   6.359   5.248   3.436 -0.4493 -0.1954  0.3253
 7689TIP3    H123031   6.290   5.310   3.459 -0.7444  0.8821 -2.9714
 7689TIP3    H223032   6.386   5.274   3.348  1.0995 -3.2999 -0.2422
 7690TIP3   OH223033   2.429   5.513   2.776 -0.2022 -0.0610  0.8920
 7690TIP3    H123034   2.394   5.425   2.786 -0.3797  0.0467  1.2356
 7690TIP3    H223035   2.386   5.546   2.697  1.8060 -1.1977 -0.7690
 7691TIP3   OH223036   6.012   1.773   1.210 -0.4807 -0.1036 -0.0933
 7691TIP3    H123037   6.066   1.768   1.131 -0.9266 -0.6818 -0.3722
 7691TIP3    H223038   5.958   1.851   1.197 -1.6860 -1.0580 -1.1242
 7692TIP3   OH223039   0.520   3.796   4.845  0.4299  0.1692  0.5970
 7692TIP3    H123040   0.474   3.743   4.909  0.3201  0.6979  0.9589
 7692TIP3    H223041   0.606   3.813   4.884  0.9309 -0.7738 -0.0550
 7693TIP3   OH223042   1.012   3.887   1.651 -0.1266  0.0209 -0.1914
 7693TIP3    H123043   0.956   3.964   1.637 -0.1603 -0.4312 -2.9707
 7693TIP3    H223044   0.968   3.838   1.721 -2.1064  0.6898 -0.9116
 7694TIP3   OH223045   4.524   1.543   0.875  0.3604  0.3220  0.1742
 7694TIP3    H123046   4.605   1.493   0.888  0.7572  1.1795  1.1391
 7694TIP3    H223047   4.484   1.548   0.962 -0.5952  0.1536 -0.2414
 7695TIP3   OH223048   5.846   5.824   3.352  0.1939 -0.3341  0.1194
 7695TIP3    H123049   5.781   5.834   3.422  0.7496 -1.1294  0.7650
 7695TIP3    H223050   5.802   5.859   3.274 -0.0714  1.5093  1.0384
 7696TIP3   OH223051   5.595   1.250   0.845 -0.6102 -0.3303 -1.0466
 7696TIP3    H123052   5.546   1.197   0.782 -1.8730  0.3870 -0.7165
 7696TIP3    H223053   5.539   1.327   0.860 -0.0742 -0.2025  0.4943
 7697TIP3   OH223054   6.852   4.935   4.137 -0.2764 -0.0164 -0.0125
 7697TIP3    H123055   6.768   4.945   4.091 -0.0995  0.3954 -0.2547
 7697TIP3    H223056   6.875   5.024   4.164  0.3741 -0.0395 -0.4641
 7698TIP3   OH223057   1.692   4.818   5.772 -0.0635 -0.2854  0.3575
 7698TIP3    H123058   1.712   4.781   5.858 -1.5080  0.8536  1.2468
 7698TIP3    H223059   1.662   4.744   5.720  3.4041 -1.5265 -0.1404
 7699TIP3   OH223060   6.477   6.724   0.287  0.1630  0.6123 -0.0922
 7699TIP3    H123061   6.491   6.767   0.371  1.4877  1.6290 -0.7830
 7699TIP3    H223062   6.490   6.794   0.222  0.0150 -0.3238 -1.1713
 7700TIP3   OH223063   5.323   4.864   5.848  0.1294 -0.0483  0.0484
 7700TIP3    H123064   5.334   4.893   5.938  0.0178  0.9082 -0.2355
 7700TIP3    H223065   5.229   4.847   5.840  0.1475 -0.1875  0.1226
 7701TIP3   OH223066   1.023   0.106   4.282 -0.2804 -0.4072  0.2186
 7701TIP3    H123067   1.015   0.155   4.364 -1.3953 -0.7248  0.3113
 7701TIP3    H223068   1.000   0.016   4.306  0.8513 -0.8071 -0.1431
 7702TIP3   OH223069   0.889   5.308   1.225 -0.6506  0.0471 -0.0055
 7702TIP3    H123070   0.939   5.388   1.237  0.2975 -0.6651  0.9614
 7702TIP3    H223071   0.955   5.241   1.205 -1.2846 -0.7524  0.5135
 7703TIP3   OH223072   6.016   1.191   1.520 -0.5498  0.1701  0.3502
 7703TIP3    H123073   6.091   1.209   1.577 -0.1728  1.6724 -0.5702
 7703TIP3    H223074   5.968   1.121   1.565 -0.2420  1.2440  2.4736
 7704TIP3   OH223075   2.888   1.364   1.562  0.1075  0.3986 -0.4748
 7704TIP3    H123076   2.886   1.268   1.562  1.1874  0.3532 -1.4886
 7704TIP3    H223077   2.969   1.386   1.607 -1.1875  0.9441  1.7835
 7705TIP3   OH223078   6.074   0.328   2.349  0.3522  0.8669  0.0478
 7705TIP3    H123079   6.149   0.271   2.333  0.8734  1.3619  0.6393
 7705TIP3    H223080   6.000   0.283   2.311  0.8839  0.1560 -0.1560
 7706TIP3   OH223081   3.728   2.384   4.225 -0.7043 -0.2692 -0.4723
 7706TIP3    H123082   3.711   2.443   4.298 -0.2197 -0.3157 -0.3187
 7706TIP3    H223083   3.704   2.297   4.258 -0.4078 -0.3011 -0.3420
 7707TIP3   OH223084   4.221   4.138   5.708  0.1973  0.9963  0.1681
 7707TIP3    H123085   4.263   4.056   5.733 -2.5369 -0.5127  0.1596
 7707TIP3    H223086   4.247   4.200   5.776  1.4221 -0.1772  0.7998
 7708TIP3   OH223087   6.006   2.191   1.335 -0.4934 -0.8548 -0.4947
 7708TIP3    H123088   6.041   2.279   1.321 -0.8712 -0.7550 -0.8338
 7708TIP3    H223089   5.940   2.202   1.404  0.2815 -1.0793  0.2921
 7709TIP3   OH223090   5.766   0.808   5.815  0.5738  0.0244 -0.2751
 7709TIP3    H123091   5.733   0.720   5.795 -2.9253  0.7129  1.5911
 7709TIP3    H223092   5.828   0.794   5.887  3.0510 -1.1496 -2.4853
 7710TIP3   OH223093   7.103   0.263   0.379 -0.3320  0.2869 -0.3298
 7710TIP3    H123094   7.038   0.274   0.310 -2.0967 -0.1880  1.1673
 7710TIP3    H223095   7.076   0.325   0.447  1.4236  0.8251 -0.0701
 7711TIP3   OH223096   7.087   0.392   3.114 -0.0169  0.1976  0.1743
 7711TIP3    H123097   7.164   0.356   3.159  0.1190 -0.3286 -0.4792
 7711TIP3    H223098   7.040   0.316   3.082 -1.5054  0.4318  1.6520
 7712TIP3   OH223099   6.941   1.490   5.661  0.4392  0.2480 -0.0642
 7712TIP3    H123100   6.895   1.562   5.706  1.4571  0.1869  1.1121
 7712TIP3    H223101   6.871   1.429   5.637 -0.1967  0.5939  0.8619
 7713TIP3   OH223102   5.545   6.077   3.019 -0.2553  0.2222  0.3656
 7713TIP3    H123103   5.614   6.011   3.018 -0.2880  0.1378  1.5783
 7713TIP3    H223104   5.587   6.156   2.985  1.4526  1.0442  3.8156
 7714TIP3   OH223105   6.747   0.590   0.683 -0.6269 -0.2969 -0.0403
 7714TIP3    H123106   6.772   0.515   0.738 -0.4411 -0.5812 -0.5030
 7714TIP3    H223107   6.652   0.596   0.694 -0.4940  0.1952  0.9830
 7715TIP3   OH223108   0.395   2.835   3.782  0.0963  0.9752 -0.3048
 7715TIP3    H123109   0.305   2.814   3.807 -0.1477  1.8882 -0.3891
 7715TIP3    H223110   0.449   2.780   3.839 -0.5055  0.7329  0.0418
 7716TIP3   OH223111   1.014   5.688   2.172  0.5297  0.3967  0.2029
 7716TIP3    H123112   0.990   5.661   2.260 -0.8441 -1.1167 -0.5800
 7716TIP3    H223113   0.954   5.759   2.150 -1.2084 -1.2288 -0.5617
 7717TIP3   OH223114   4.126   5.150   2.977  0.2294  0.2950  0.4301
 7717TIP3    H123115   4.071   5.074   2.960  0.9527 -0.3905  1.0572
 7717TIP3    H223116   4.133   5.194   2.893  0.3566 -0.7114 -0.1013
 7718TIP3   OH223117   0.904   1.745   4.246 -0.0896  0.2435  0.5694
 7718TIP3    H123118   0.855   1.752   4.164  1.6603 -0.8807 -0.6220
 7718TIP3    H223119   0.841   1.708   4.309 -0.4307 -2.5308 -1.2703
 7719TIP3   OH223120   4.973   0.011   0.281  0.6478 -0.8749  0.2729
 7719TIP3    H123121   5.051   0.002   0.337  0.1442 -1.4886  0.9036
 7719TIP3    H223122   4.903   0.032   0.343  0.1884 -0.9895 -0.2101
 7720TIP3   OH223123   1.287   2.845   5.193 -0.1318 -0.1298 -0.0223
 7720TIP3    H123124   1.323   2.782   5.256 -1.0019 -0.5472  0.0759
 7720TIP3    H223125   1.316   2.812   5.107  0.6564  0.1732  0.1219
 7721TIP3   OH223126   2.198   5.178   2.128 -0.2296 -0.1304 -0.9528
 7721TIP3    H123127   2.290   5.192   2.152 -0.2857 -0.6314 -0.4152
 7721TIP3    H223128   2.171   5.260   2.087  0.2102  0.3211 -0.3549
 7722TIP3   OH223129   5.199   2.654   2.044  0.6195  0.3850 -0.6322
 7722TIP3    H123130   5.219   2.657   2.138  0.0410 -1.6020 -0.4048
 7722TIP3    H223131   5.271   2.702   2.003  1.3035  0.6207  0.7702
 7723TIP3   OH223132   2.008   1.193   2.251 -0.3020 -0.2216 -0.1040
 7723TIP3    H123133   2.099   1.175   2.229 -0.1016  0.8546 -0.2551
 7723TIP3    H223134   1.959   1.175   2.171 -0.2662 -1.0810  0.0644
 7724TIP3   OH223135   4.569   1.195   0.551  0.2328  0.4664  0.3096
 7724TIP3    H123136   4.510   1.188   0.626 -0.3380  1.4241 -0.0335
 7724TIP3    H223137   4.640   1.252   0.582 -0.1786  1.1428  0.0234
 7725TIP3   OH223138   6.051   5.812   5.287  0.6518 -0.1103 -0.0102
 7725TIP3    H123139   6.070   5.720   5.273  0.1785 -0.1107 -0.7486
 7725TIP3    H223140   6.036   5.821   5.381 -1.2064 -1.1729 -0.1465
 7726TIP3   OH223141   0.170   2.936   5.427 -0.6916  0.2991  0.1402
 7726TIP3    H123142   0.132   2.850   5.408 -0.0966  0.1196 -0.2426
 7726TIP3    H223143   0.262   2.928   5.404 -0.6511  1.0708  0.0025
 7727TIP3   OH223144   5.117   1.969   3.907  0.9349  0.3714 -0.6117
 7727TIP3    H123145   5.035   2.002   3.872  0.5969  0.3527  0.1361
 7727TIP3    H223146   5.140   1.896   3.850  0.2674  0.1745 -0.6342
 7728TIP3   OH223147   2.683   5.583   2.587 -0.4428 -0.8319 -0.3488
 7728TIP3    H123148   2.768   5.565   2.628 -1.4387 -2.3198  1.2259
 7728TIP3    H223149   2.640   5.642   2.649 -0.3148  0.5698 -1.5293
 7729TIP3   OH223150   3.926   6.011   3.877  0.6138  0.3438  0.4918
 7729TIP3    H123151   3.936   5.922   3.908  2.5531  0.9874  1.8680
 7729TIP3    H223152   3.874   6.002   3.796 -1.8360 -1.6795  2.1199
 7730TIP3   OH223153   6.345   0.251   4.820  0.2557  0.2295  0.2207
 7730TIP3    H123154   6.397   0.206   4.886  0.2106  0.0363  0.1261
 7730TIP3    H223155   6.409   0.276   4.752 -0.0162 -1.5725 -0.7511
 7731TIP3   OH223156   1.611   3.140   5.069  0.2900 -0.1698 -0.2658
 7731TIP3    H123157   1.523   3.125   5.036 -0.1934  0.5417  0.6437
 7731TIP3    H223158   1.655   3.055   5.063 -0.1188 -0.3047 -1.6697
 7732TIP3   OH223159   5.574   5.883   5.085 -0.1324  0.2320  0.5622
 7732TIP3    H123160   5.572   5.813   5.150  1.0960 -0.8287 -0.4714
 7732TIP3    H223161   5.665   5.884   5.054 -0.4216  1.4719 -0.3040
 7733TIP3   OH223162   1.538   5.287   5.840 -0.3315 -0.0831  0.1361
 7733TIP3    H123163   1.605   5.225   5.809 -0.5023 -0.3727  0.3413
 7733TIP3    H223164   1.490   5.238   5.907  1.6533  1.3279  2.7985
 7734TIP3   OH223165   6.107   0.250   3.961  0.6168 -0.0002  0.0114
 7734TIP3    H123166   6.126   0.330   4.011  0.8217  0.1165 -0.2457
 7734TIP3    H223167   6.033   0.210   4.006  0.9229 -0.0007  0.5275
 7735TIP3   OH223168   2.228   0.966   1.440  0.0158  0.2460  0.2322
 7735TIP3    H123169   2.236   0.872   1.423 -0.2247  0.1561  0.6097
 7735TIP3    H223170   2.290   0.983   1.510  0.7785  0.5597 -0.4998
 7736TIP3   OH223171   4.898   0.475   1.978 -0.0004  0.1116  0.4319
 7736TIP3    H123172   4.976   0.517   2.016  0.4879  0.5875 -1.0217
 7736TIP3    H223173   4.866   0.538   1.914 -0.0069 -1.2024 -0.8956
 7737TIP3   OH223174   5.749   3.579   2.241  0.2341  0.3753  0.1697
 7737TIP3    H123175   5.809   3.610   2.174 -0.2363  0.6098 -0.1517
 7737TIP3    H223176   5.804   3.562   2.317  0.6233  1.1364  0.0616
 7738TIP3   OH223177   0.065   5.926   3.739  0.3855  0.7666 -0.3660
 7738TIP3    H123178   0.097   6.015   3.725  0.4641  0.9223  0.6766
 7738TIP3    H223179  -0.015   5.921   3.686 -0.7748  2.1741  1.1324
 7739TIP3   OH223180   1.099   1.963   0.550 -0.1910  0.0786  0.4146
 7739TIP3    H123181   1.006   1.966   0.573  0.0154  0.4202  1.2278
 7739TIP3    H223182   1.104   1.898   0.479 -1.0583  0.1281  0.3040
 7740TIP3   OH223183   3.621   0.304   5.403 -0.1991 -0.5265 -0.0700
 7740TIP3    H123184   3.527   0.293   5.394 -0.3353  0.5132 -0.0443
 7740TIP3    H223185   3.649   0.230   5.458 -0.6872 -1.9246 -1.6239
 7741TIP3   OH223186   5.447   4.502   3.034  0.0080  0.4367 -0.8974
 7741TIP3    H123187   5.537   4.471   3.019  0.4965  1.3037  0.0771
 7741TIP3    H223188   5.457   4.573   3.098 -1.3005  1.0589 -1.3565
 7742TIP3   OH223189   1.803   4.363   3.849 -0.5797 -0.2871 -0.0174
 7742TIP3    H123190   1.853   4.302   3.795 -0.8700 -0.6437  0.1136
 7742TIP3    H223191   1.841   4.355   3.937 -1.3014 -1.0594  0.2347
 7743TIP3   OH223192   6.124   0.080   0.620 -0.1642 -0.3825  0.4312
 7743TIP3    H123193   6.122   0.005   0.680  1.1325 -1.8778 -1.2580
 7743TIP3    H223194   6.209   0.121   0.635 -0.8151  0.6939  1.2501
 7744TIP3   OH223195   4.216   1.592   2.662 -0.0203 -0.3587 -0.0395
 7744TIP3    H123196   4.209   1.508   2.617 -0.0195  0.0983 -0.9195
 7744TIP3    H223197   4.178   1.577   2.749 -2.4634 -0.5955 -1.0763
 7745TIP3   OH223198   2.872   5.061   1.728 -0.5328  0.0605  0.0399
 7745TIP3    H123199   2.808   5.104   1.671 -0.3128 -1.1812 -1.1700
 7745TIP3    H223200   2.841   4.971   1.736  2.3456 -1.3112 -2.6820
 7746TIP3   OH223201   5.303   6.367   3.180  0.4764 -0.1739 -0.7009
 7746TIP3    H123202   5.235   6.403   3.236  1.4394 -0.0707  0.4542
 7746TIP3    H223203   5.342   6.443   3.137  0.3002 -0.1671 -0.8471
 7747TIP3   OH223204   6.130   1.514   5.373 -0.1473  0.2477 -0.5353
 7747TIP3    H123205   6.110   1.605   5.395 -1.1174 -0.1932  0.4786
 7747TIP3    H223206   6.046   1.469   5.376  0.0302 -0.3446 -2.8941
 7748TIP3   OH223207   1.233   3.149   3.393 -0.2219 -0.3414 -0.3497
 7748TIP3    H123208   1.265   3.071   3.439  1.0377  1.7897  2.7859
 7748TIP3    H223209   1.138   3.138   3.391 -0.2762 -1.0372  2.0760
 7749TIP3   OH223210   4.827   6.271   0.474  0.1250  0.2183  0.4001
 7749TIP3    H123211   4.776   6.196   0.444  1.8218 -1.2843  1.0880
 7749TIP3    H223212   4.806   6.341   0.412 -1.1763 -0.9261 -0.5122
 7750TIP3   OH223213   3.129   3.041   4.235  0.3963  0.5497  0.0417
 7750TIP3    H123214   3.141   3.072   4.145 -1.1169 -0.8006 -0.6883
 7750TIP3    H223215   3.096   3.117   4.283 -1.4537  0.6081 -1.2410
 7751TIP3   OH223216   1.481   3.489   1.972 -0.3795 -0.3058 -0.0567
 7751TIP3    H123217   1.457   3.499   2.065 -2.0273  0.9040 -0.5763
 7751TIP3    H223218   1.479   3.578   1.937 -0.3408 -0.8193 -1.3922
 7752TIP3   OH223219   3.731   0.483   0.853  0.1299 -0.4586 -0.0322
 7752TIP3    H123220   3.825   0.491   0.842  0.0702  0.4027  0.0631
 7752TIP3    H223221   3.714   0.509   0.943 -0.3235  0.5394 -0.3939
 7753TIP3   OH223222   5.212   2.225   2.934  0.1990 -0.1613  0.3321
 7753TIP3    H123223   5.151   2.266   2.996 -0.3260 -0.7258  0.1950
 7753TIP3    H223224   5.273   2.296   2.911  0.0930  0.1939  1.0894
 7754TIP3   OH223225   1.663   4.009   4.431 -0.2120  0.2632  0.4008
 7754TIP3    H123226   1.686   4.048   4.347 -0.1626  0.3852  0.4710
 7754TIP3    H223227   1.609   4.075   4.475 -3.6715 -1.2568 -1.1514
 7755TIP3   OH223228   3.513   2.334   5.027  0.3054 -0.7730  0.3165
 7755TIP3    H123229   3.602   2.368   5.034  0.5686 -1.3442 -0.1093
 7755TIP3    H223230   3.456   2.410   5.039  0.8707 -0.2315 -0.3905
 7756TIP3   OH223231   2.454   6.622   3.989 -0.5938 -0.0602  0.3414
 7756TIP3    H123232   2.413   6.609   3.904 -0.3037  0.2404  0.1551
 7756TIP3    H223233   2.540   6.659   3.969 -0.7626  0.5988  0.7889
 7757TIP3   OH223234   1.361   4.168   3.672  0.5040  0.1639 -0.3631
 7757TIP3    H123235   1.370   4.231   3.743 -0.0309 -0.2443  0.0734
 7757TIP3    H223236   1.420   4.201   3.604 -0.6218  1.7738 -0.6179
 7758TIP3   OH223237   4.251   5.472   3.560 -0.1590  0.4494 -0.0744
 7758TIP3    H123238   4.251   5.553   3.611  1.0787  1.5189 -1.6689
 7758TIP3    H223239   4.187   5.487   3.490 -1.2171 -0.6663  0.6183
 7759TIP3   OH223240   5.333   5.012   1.247  0.0841 -0.5844  0.4243
 7759TIP3    H123241   5.239   5.027   1.251  0.1937  0.0333  0.8038
 7759TIP3    H223242   5.370   5.096   1.221  0.4858 -1.0013 -0.3837
 7760TIP3   OH223243   6.259   4.685   5.818  0.0021  0.1275 -0.1046
 7760TIP3    H123244   6.355   4.688   5.816  0.0866 -1.6197 -1.7893
 7760TIP3    H223245   6.232   4.761   5.765  0.4076  0.8720  0.7237
 7761TIP3   OH223246   3.048   0.057   1.397  0.2831  1.0674  0.0341
 7761TIP3    H123247   3.014   0.001   1.468  0.7483  0.7543  0.0132
 7761TIP3    H223248   3.142   0.044   1.399  0.2642  0.7106 -0.9381
 7762TIP3   OH223249   6.257   3.392   5.335 -1.1027 -0.2498 -0.5915
 7762TIP3    H123250   6.234   3.333   5.407  0.1817  0.9105  0.8267
 7762TIP3    H223251   6.280   3.334   5.263 -2.6743 -1.4437 -0.1908
 7763TIP3   OH223252   5.151   5.315   5.429  0.5198 -0.0252 -0.3633
 7763TIP3    H123253   5.204   5.394   5.420 -1.5685  1.3748 -1.1508
 7763TIP3    H223254   5.208   5.253   5.475  2.0452  2.0926  0.7840
 7764TIP3   OH223255   2.384   0.888   5.849  0.0505 -0.2345 -0.0353
 7764TIP3    H123256   2.460   0.846   5.809 -0.5083 -0.9656 -0.3584
 7764TIP3    H223257   2.315   0.880   5.783 -0.5330 -0.3316  0.5783
 7765TIP3   OH223258   1.627   0.054   4.842  1.0687 -0.4248 -0.5022
 7765TIP3    H123259   1.577   0.013   4.912 -1.6095  3.0004 -0.0965
 7765TIP3    H223260   1.683   0.118   4.886 -1.4582  2.5883 -1.2200
 7766TIP3   OH223261   5.364   6.515   4.925 -0.1057 -0.4934 -0.3621
 7766TIP3    H123262   5.311   6.527   4.847 -0.7583 -0.6780  0.0455
 7766TIP3    H223263   5.302   6.514   4.997  0.6446  1.6541  0.3908
 7767TIP3   OH223264   0.853   3.658   0.547  0.3261  0.5241  0.3330
 7767TIP3    H123265   0.891   3.716   0.613  1.1438 -0.8489  1.0953
 7767TIP3    H223266   0.791   3.714   0.499 -2.5524  0.9272  4.0711
 7768TIP3   OH223267   5.239   1.347   1.072  0.1429  0.2682 -0.6967
 7768TIP3    H123268   5.199   1.418   1.122  0.7147  1.3596 -1.7358
 7768TIP3    H223269   5.304   1.390   1.016  0.0233 -0.9842 -1.8591
 7769TIP3   OH223270   5.798   3.794   4.510 -0.0344 -0.1847  0.1899
 7769TIP3    H123271   5.802   3.759   4.599  0.9089 -0.8543 -0.1017
 7769TIP3    H223272   5.815   3.719   4.453  0.1894  0.3926 -0.5279
 7770TIP3   OH223273   0.543   3.039   3.943  0.3791 -0.2457  0.0584
 7770TIP3    H123274   0.483   2.972   3.910  0.7445 -0.4632 -0.1743
 7770TIP3    H223275   0.518   3.050   4.035 -0.2461 -0.0777 -0.1210
 7771TIP3   OH223276   3.174   6.671   3.499 -0.2042  0.1109  0.0775
 7771TIP3    H123277   3.181   6.719   3.581  1.5745  0.6436 -0.3466
 7771TIP3    H223278   3.238   6.713   3.441 -0.5634 -1.0236 -1.1893
 7772TIP3   OH223279   3.507   1.894   1.112 -0.4678 -0.2916  0.1486
 7772TIP3    H123280   3.570   1.959   1.082  0.8603 -1.4190  0.3707
 7772TIP3    H223281   3.506   1.902   1.208  0.4403 -1.2060  0.2560
 7773TIP3   OH223282   2.858   1.228   2.199 -0.3537  0.3723  0.1856
 7773TIP3    H123283   2.774   1.221   2.154  0.4315  0.3235 -1.3465
 7773TIP3    H223284   2.875   1.322   2.203 -1.0289  0.4560  1.6090
 7774TIP3   OH223285   0.441   1.661   0.737 -0.2616 -0.1644 -0.9104
 7774TIP3    H123286   0.424   1.621   0.822  0.7167 -0.8524 -1.0183
 7774TIP3    H223287   0.493   1.596   0.690 -1.7238 -0.2789 -2.4646
 7775TIP3   OH223288   4.245   1.904   5.249 -0.2095  0.3342  0.3089
 7775TIP3    H123289   4.208   1.981   5.291 -0.2664  0.8667 -0.6780
 7775TIP3    H223290   4.217   1.911   5.157  0.3585 -0.5027  0.0551
 7776TIP3   OH223291   5.583   3.351   4.302  0.0915  0.2575 -0.5276
 7776TIP3    H123292   5.618   3.283   4.244 -1.3599  0.9497 -2.3456
 7776TIP3    H223293   5.489   3.332   4.307 -0.1048  1.3125  0.0930
 7777TIP3   OH223294   1.045   5.403   4.305 -0.5196 -0.2494  0.2331
 7777TIP3    H123295   0.985   5.369   4.371 -0.2428 -1.4302 -0.0986
 7777TIP3    H223296   0.989   5.434   4.234 -0.7608 -0.6677  0.2420
 7778TIP3   OH223297   1.427   6.336   4.264 -0.6960 -0.4893 -0.1675
 7778TIP3    H123298   1.350   6.311   4.212 -1.1490 -1.8806  1.0981
 7778TIP3    H223299   1.431   6.271   4.334  0.6220  0.5916  0.8244
 7779TIP3   OH223300   1.552   5.208   5.517 -0.0169 -0.1405  0.2629
 7779TIP3    H123301   1.617   5.272   5.546 -0.5562 -0.3132  1.9543
 7779TIP3    H223302   1.558   5.137   5.581 -0.9715 -0.7610 -0.3093
 7780TIP3   OH223303   5.843   5.969   1.241 -0.9686 -0.4057 -0.8299
 7780TIP3    H123304   5.772   5.910   1.220 -0.0830 -1.2274 -1.5624
 7780TIP3    H223305   5.857   5.958   1.336 -1.8433 -0.1790 -0.6691
 7781TIP3   OH223306   3.439   3.826   0.027  0.1689  0.2906  0.2232
 7781TIP3    H123307   3.503   3.767  -0.014 -0.3895  1.8292 -3.2769
 7781TIP3    H223308   3.355   3.799  -0.012 -0.7069  0.8894  1.6275
 7782TIP3   OH223309   2.384   5.880   0.776 -0.0460 -0.0703 -0.0423
 7782TIP3    H123310   2.459   5.877   0.716 -0.4701  2.7553 -0.8523
 7782TIP3    H223311   2.416   5.926   0.853 -0.6434  0.1468  0.0850
 7783TIP3   OH223312  -0.026   6.445   2.705  0.1255  0.3398  0.0185
 7783TIP3    H123313   0.047   6.411   2.757  1.0974 -0.1131 -1.5542
 7783TIP3    H223314   0.011   6.456   2.617 -1.5657  0.6592 -0.6889
 7784TIP3   OH223315   5.000   3.290   2.497 -0.0145  0.6327  0.2062
 7784TIP3    H123316   5.020   3.202   2.531  1.5751  1.4588  1.5476
 7784TIP3    H223317   4.906   3.300   2.512 -0.2540 -0.8927 -0.1190
 7785TIP3   OH223318   0.437   1.632   2.010  0.7359 -0.7825  0.1000
 7785TIP3    H123319   0.407   1.665   2.095  3.0961 -0.2951  0.8288
 7785TIP3    H223320   0.376   1.561   1.989 -0.6402 -0.1088  1.5920
 7786TIP3   OH223321   6.004   2.526   4.251 -0.0388  0.0185  0.1097
 7786TIP3    H123322   6.004   2.514   4.156 -0.2934 -0.4462  0.1689
 7786TIP3    H223323   5.977   2.617   4.263 -0.3543 -0.0237 -0.2482
 7787TIP3   OH223324   5.407   1.653   1.090  0.0129  0.7397 -0.0300
 7787TIP3    H123325   5.442   1.661   1.179  0.2479  0.5353 -0.1034
 7787TIP3    H223326   5.343   1.723   1.084  0.8312  1.5023 -0.0946
 7788TIP3   OH223327   0.233   3.959   2.883 -0.0579  0.6020 -0.2381
 7788TIP3    H123328   0.178   3.952   2.805 -2.7530  0.1249  1.5611
 7788TIP3    H223329   0.195   4.032   2.932 -0.4667 -1.0078  2.0201
 7789TIP3   OH223330   2.961   0.154   5.135 -0.0063  0.5669  0.2081
 7789TIP3    H123331   2.921   0.241   5.134  0.5474  0.8275  0.3967
 7789TIP3    H223332   2.908   0.103   5.073  0.2667  1.3120 -0.6686
 7790TIP3   OH223333   4.102   0.093   0.696  0.3560 -0.0813  0.3061
 7790TIP3    H123334   4.115  -0.001   0.706  0.7382 -0.0195  0.3762
 7790TIP3    H223335   4.039   0.100   0.623  1.8523 -0.3315 -1.0633
 7791TIP3   OH223336   0.432   0.982   2.566  0.2678  0.6939 -0.4256
 7791TIP3    H123337   0.509   0.971   2.511 -0.7464  2.0404 -2.2097
 7791TIP3    H223338   0.416   1.076   2.568 -2.2089  0.3721 -1.4206
 7792TIP3   OH223339   2.367   5.628   3.016 -0.4027  0.2505 -0.1842
 7792TIP3    H123340   2.385   5.585   2.933 -0.3884 -1.5673  0.7133
 7792TIP3    H223341   2.421   5.708   3.014  0.0529 -0.0629 -1.6481
 7793TIP3   OH223342   4.253   2.321   4.563 -0.2505  0.5852 -0.1411
 7793TIP3    H123343   4.284   2.370   4.640  1.6154  1.3092 -1.2867
 7793TIP3    H223344   4.248   2.387   4.494  1.7252 -0.6657 -1.5636
 7794TIP3   OH223345   6.676   6.145   3.814  0.4729  0.1045  0.2417
 7794TIP3    H123346   6.719   6.225   3.844  2.6637 -0.4172 -1.2655
 7794TIP3    H223347   6.633   6.171   3.732  0.9761 -0.1737 -0.1184
 7795TIP3   OH223348   4.375   4.399   0.768  0.1316  0.4227  0.0454
 7795TIP3    H123349   4.332   4.446   0.696 -0.6907 -0.2463  0.0879
 7795TIP3    H223350   4.424   4.467   0.814 -0.1656  1.0474 -0.5319
 7796TIP3   OH223351   2.876   4.512   3.431  0.1493  0.0162 -0.2122
 7796TIP3    H123352   2.857   4.520   3.525 -0.7838 -2.1096 -0.1659
 7796TIP3    H223353   2.939   4.440   3.425 -1.1091 -1.0364 -1.3255
 7797TIP3   OH223354   2.721   5.471   5.278 -0.2103 -0.1040 -0.4792
 7797TIP3    H123355   2.645   5.508   5.324 -0.0856  0.2580 -0.5611
 7797TIP3    H223356   2.712   5.377   5.290 -0.7785 -0.0795 -0.6510
 7798TIP3   OH223357   3.894   0.346   1.907 -0.8053  0.3080  0.7995
 7798TIP3    H123358   3.850   0.261   1.902  0.3326 -0.4623  2.8628
 7798TIP3    H223359   3.844   0.395   1.971  0.2372  0.0823  1.8124
 7799TIP3   OH223360   4.282   6.160   1.127 -0.0505  0.4110  0.0353
 7799TIP3    H123361   4.257   6.105   1.053  0.7863 -0.0642  0.0949
 7799TIP3    H223362   4.236   6.243   1.112  1.1891  0.8223 -1.7719
 7800TIP3   OH223363   0.910   3.357   5.270  0.3335 -0.1188 -0.5437
 7800TIP3    H123364   1.004   3.369   5.286  0.0285  0.4430  0.8767
 7800TIP3    H223365   0.896   3.397   5.184  1.5071 -0.7966 -1.0778
 7801TIP3   OH223366   4.631   5.588   2.138 -0.1485  0.3107 -0.2823
 7801TIP3    H123367   4.585   5.513   2.176  0.0004  0.6521  0.5761
 7801TIP3    H223368   4.573   5.619   2.068  0.2098 -1.1723 -1.2916
 7802TIP3   OH223369   2.761   1.333   3.374  0.2418 -0.3148  0.2326
 7802TIP3    H123370   2.789   1.386   3.449 -1.1685  0.6128  0.1480
 7802TIP3    H223371   2.821   1.356   3.304  0.5214  0.0988  0.6085
 7803TIP3   OH223372   5.596   3.467   3.182 -0.5951 -0.0814 -0.2253
 7803TIP3    H123373   5.574   3.545   3.131 -1.2756 -0.2209 -0.1546
 7803TIP3    H223374   5.535   3.470   3.256 -2.0588 -1.7696 -1.2906
 7804TIP3   OH223375   6.396   3.015   2.191 -0.1847  1.1446  0.7186
 7804TIP3    H123376   6.355   2.939   2.233  1.0749  0.5849  0.9624
 7804TIP3    H223377   6.324   3.056   2.142 -0.9197 -0.1194  0.6822
 7805TIP3   OH223378   2.559   2.379   5.360  0.6850  0.5698  0.1296
 7805TIP3    H123379   2.593   2.435   5.430 -0.8735 -0.6566  1.9511
 7805TIP3    H223380   2.615   2.302   5.361 -0.8520 -0.5897  1.8286
 7806TIP3   OH223381   4.060   3.098   1.580  0.7866 -0.8619 -0.2181
 7806TIP3    H123382   3.995   3.068   1.643  0.3363 -0.1059 -0.3181
 7806TIP3    H223383   4.046   3.043   1.503 -1.7672  1.2245 -1.3726
 7807TIP3   OH223384   4.194   2.552   2.085  0.5077 -0.3205  0.4136
 7807TIP3    H123385   4.164   2.643   2.094  0.6228 -0.3306  0.8834
 7807TIP3    H223386   4.267   2.544   2.145  0.7093 -0.6369  0.1318
 7808TIP3   OH223387   2.698   4.706   1.602 -0.0915 -0.1372  0.0194
 7808TIP3    H123388   2.665   4.706   1.512  1.2548  0.8484 -0.5196
 7808TIP3    H223389   2.651   4.777   1.646  1.4256  1.5066 -0.8447
 7809TIP3   OH223390   1.875   3.202   4.957 -0.2695  0.2181 -0.5715
 7809TIP3    H123391   1.879   3.126   4.899 -1.2826  0.5326 -1.0804
 7809TIP3    H223392   1.782   3.211   4.978  0.2408 -1.5586  3.3925
 7810TIP3   OH223393   5.095   5.228   0.073 -0.0644 -0.1042  0.3081
 7810TIP3    H123394   5.011   5.207   0.032 -0.4848  1.2442  0.4451
 7810TIP3    H223395   5.072   5.285   0.146  1.1395  2.5992 -1.2834
 7811TIP3   OH223396   3.108   6.291   3.860 -0.2278  0.7260 -0.2527
 7811TIP3    H123397   3.062   6.259   3.938 -0.3792  1.7991  0.1066
 7811TIP3    H223398   3.201   6.282   3.881 -0.2686  1.1391  0.0996
 7812TIP3   OH223399   1.292   4.141   0.700 -0.4303  0.0648 -0.3563
 7812TIP3    H123400   1.352   4.166   0.770 -3.2371  4.4084  0.8916
 7812TIP3    H223401   1.332   4.177   0.621  0.9023 -1.5055 -0.4507
 7813TIP3   OH223402   5.588   4.257   2.207 -0.9642 -0.1694  0.0534
 7813TIP3    H123403   5.514   4.238   2.266 -2.0422  0.4071 -1.0663
 7813TIP3    H223404   5.619   4.170   2.180 -0.7489 -0.4297  1.1152
 7814TIP3   OH223405   2.933   1.070   4.143  0.1779  0.0379  0.2542
 7814TIP3    H123406   2.950   0.998   4.083 -1.1974  0.8884 -1.2529
 7814TIP3    H223407   2.910   1.144   4.086 -1.0850  0.9133  1.8131
 7815TIP3   OH223408   2.399   5.758   2.142  0.3773  0.2757  0.3488
 7815TIP3    H123409   2.349   5.807   2.208 -1.2799  1.7407 -1.8172
 7815TIP3    H223410   2.345   5.681   2.125  1.3234 -0.6480  1.3768
 7816TIP3   OH223411   6.685   1.472   0.516 -0.6820 -0.1726 -0.0475
 7816TIP3    H123412   6.633   1.459   0.596  0.0476  1.6849  0.7797
 7816TIP3    H223413   6.774   1.446   0.541 -0.4451  0.4319 -0.2415
 7817TIP3   OH223414   5.745   2.319   5.138 -0.0629 -0.2986 -0.1832
 7817TIP3    H123415   5.771   2.367   5.217  0.9829 -1.5165  0.2479
 7817TIP3    H223416   5.818   2.259   5.122 -1.3231 -1.7499 -0.6860
 7818TIP3   OH223417   6.394   2.916   0.620  0.2784  0.5342  0.4753
 7818TIP3    H123418   6.436   2.846   0.569 -1.3402 -0.5300  0.5191
 7818TIP3    H223419   6.303   2.888   0.627 -0.3692  2.5667  0.6948
 7819TIP3   OH223420   6.681   4.560   2.668  0.1627  0.7872  0.3610
 7819TIP3    H123421   6.617   4.631   2.666  0.5288  1.1140  0.1711
 7819TIP3    H223422   6.742   4.584   2.738 -0.3011  0.1368  1.0062
 7820TIP3   OH223423   6.920   2.210   1.284  0.2962  0.2806 -0.2763
 7820TIP3    H123424   7.015   2.211   1.273  0.3159 -1.6329 -0.6405
 7820TIP3    H223425   6.885   2.210   1.195  0.0542 -1.3460 -0.2127
 7821TIP3   OH223426   1.161   1.139   1.269  0.1374  0.4373  0.0250
 7821TIP3    H123427   1.139   1.201   1.338  0.9951 -0.4828  1.1598
 7821TIP3    H223428   1.214   1.072   1.312  0.0706 -0.5662 -1.3699
 7822TIP3   OH223429   6.956   5.955   2.338 -0.1613  0.2493 -0.9510
 7822TIP3    H123430   6.894   5.927   2.406  1.0993 -0.6032 -0.1038
 7822TIP3    H223431   6.963   5.879   2.280  0.6161  0.0682 -0.6335
 7823TIP3   OH223432   3.723   4.380   5.883 -0.4455 -0.3408  0.0239
 7823TIP3    H123433   3.776   4.445   5.928  0.1149 -1.1461  0.5601
 7823TIP3    H223434   3.682   4.428   5.811  2.4369 -0.0445 -1.5703
 7824TIP3   OH223435   1.053   1.797   1.071 -0.0013  0.1233 -0.1418
 7824TIP3    H123436   1.023   1.828   0.985 -0.0923 -2.5107 -1.1577
 7824TIP3    H223437   1.131   1.850   1.090 -1.1143  2.1424 -0.8447
 7825TIP3   OH223438   0.304   6.100   0.544  0.1824 -0.3253  0.3257
 7825TIP3    H123439   0.297   6.190   0.575  0.4288 -0.9136  2.1994
 7825TIP3    H223440   0.385   6.067   0.583  0.8496 -0.9665 -1.4658
 7826TIP3   OH223441   6.602   5.954   2.752 -0.3238  0.3944 -0.3751
 7826TIP3    H123442   6.587   5.871   2.798  1.9323 -0.0834 -0.3468
 7826TIP3    H223443   6.515   5.984   2.726 -1.3874 -0.9272  1.4284
 7827TIP3   OH223444   0.711   5.906   4.130  0.0687 -0.0899  0.4563
 7827TIP3    H123445   0.711   5.948   4.044 -0.9886  0.3372  0.6561
 7827TIP3    H223446   0.803   5.881   4.144  0.4768  0.9719 -0.2292
 7828TIP3   OH223447   0.825   2.714   2.386  0.6679  0.5734 -0.1051
 7828TIP3    H123448   0.840   2.619   2.386 -1.4723  0.1865  0.3998
 7828TIP3    H223449   0.778   2.731   2.468 -0.7074  1.7368 -1.0901
 7829TIP3   OH223450   0.722   4.963   3.202  0.0876 -0.5678 -0.0392
 7829TIP3    H123451   0.666   4.927   3.270  0.2326 -1.0366 -0.1643
 7829TIP3    H223452   0.805   4.916   3.211  1.6116  2.1893  2.1522
 7830TIP3   OH223453   1.983   2.991   4.243  0.1491 -0.0036 -0.0168
 7830TIP3    H123454   1.934   3.004   4.161 -1.2017 -1.3388  0.5190
 7830TIP3    H223455   1.973   3.073   4.291  0.9560  0.7959 -1.1730
 7831TIP3   OH223456   5.278   4.107   5.082 -0.0862  0.5996  0.2409
 7831TIP3    H123457   5.193   4.092   5.123 -0.4473 -0.5766 -0.8567
 7831TIP3    H223458   5.257   4.147   4.997  0.3991 -0.1740 -0.2549
 7832TIP3   OH223459   7.002   0.874   3.466 -0.3698  0.0174  0.2368
 7832TIP3    H123460   6.972   0.799   3.414 -2.1621 -0.2755  1.6157
 7832TIP3    H223461   6.970   0.950   3.418 -0.1338 -0.1552 -0.2060
 7833TIP3   OH223462   3.933   1.818   2.829 -0.4982 -0.0008  0.1065
 7833TIP3    H123463   3.935   1.725   2.804  0.1623  0.2968 -1.0358
 7833TIP3    H223464   3.853   1.827   2.880 -0.8415 -1.0997 -0.1952
 7834TIP3   OH223465   6.061   4.480   1.916  0.2055 -0.2522 -0.4326
 7834TIP3    H123466   6.073   4.575   1.914 -0.1705 -0.2063 -0.5223
 7834TIP3    H223467   6.094   4.454   2.003  1.8700 -0.2630 -1.0265
 7835TIP3   OH223468   7.046   2.493   0.477  0.4545 -0.1377 -0.9097
 7835TIP3    H123469   7.134   2.520   0.501  0.0696 -0.6503  1.3074
 7835TIP3    H223470   7.000   2.575   0.457  0.0693  0.7492  2.9553
 7836TIP3   OH223471   1.337   0.840   5.795 -0.0324 -0.3370  0.0584
 7836TIP3    H123472   1.396   0.888   5.736 -1.4899 -0.7771 -1.8639
 7836TIP3    H223473   1.299   0.772   5.739 -0.5607 -1.5891  1.8621
 7837TIP3   OH223474   4.673   2.783   3.374 -0.0049 -0.5902  0.5203
 7837TIP3    H123475   4.627   2.704   3.400  1.0441 -0.9692  1.2722
 7837TIP3    H223476   4.746   2.791   3.436 -0.2030  1.0757  0.6068
 7838TIP3   OH223477   6.954   5.531   0.288 -0.6427  0.1779  0.2507
 7838TIP3    H123478   6.971   5.624   0.268  2.4376 -0.4979 -1.0091
 7838TIP3    H223479   6.894   5.503   0.219  0.8450  0.5894 -1.2900
 7839TIP3   OH223480   5.129   3.501   5.003  0.3722 -0.0938 -0.7774
 7839TIP3    H123481   5.179   3.512   5.083  0.5338 -1.1109 -0.7218
 7839TIP3    H223482   5.043   3.537   5.023  1.3226  2.6428 -1.2091
 7840TIP3   OH223483   6.233   6.516   3.329 -0.3749 -0.2853 -0.3702
 7840TIP3    H123484   6.295   6.565   3.276 -0.6460 -0.0826 -0.5005
 7840TIP3    H223485   6.263   6.425   3.324  0.1063 -0.1408 -0.1570
 7841TIP3   OH223486   7.022   0.425   0.585  0.2437  0.2183 -0.1086
 7841TIP3    H123487   7.088   0.450   0.649 -0.3099  1.4409  0.0199
 7841TIP3    H223488   6.943   0.473   0.612 -0.3401 -0.2092 -0.9937
 7842TIP3   OH223489   3.484   5.264   0.815  0.0192 -0.1850 -0.4510
 7842TIP3    H123490   3.421   5.206   0.772  0.1979 -2.8250  2.5241
 7842TIP3    H223491   3.442   5.290   0.896  1.2631  1.2452 -0.2215
 7843TIP3   OH223492   5.399   3.351   5.445 -0.2820 -0.0014 -0.1391
 7843TIP3    H123493   5.334   3.358   5.374  1.3660  1.0183 -1.6316
 7843TIP3    H223494   5.347   3.333   5.523 -2.3959  1.0330 -1.2143
 7844TIP3   OH223495   3.103   0.617   1.820 -0.3887 -0.2345 -0.4444
 7844TIP3    H123496   3.098   0.610   1.915  0.0530 -2.2325 -0.5306
 7844TIP3    H223497   3.054   0.542   1.787  0.3980 -0.2059 -1.7819
 7845TIP3   OH223498   4.212   3.267   4.994  0.2936  0.0364 -0.2267
 7845TIP3    H123499   4.237   3.345   5.044  0.3216  1.1930 -1.9361
 7845TIP3    H223500   4.292   3.215   4.990  0.3151 -0.0301  0.8178
 7846TIP3   OH223501   3.090   2.571   2.272  0.3055  0.2963 -0.1137
 7846TIP3    H123502   3.174   2.565   2.225  0.1307  0.7956 -0.4994
 7846TIP3    H223503   3.115   2.577   2.364  0.6171 -2.5405  0.0914
 7847TIP3   OH223504   0.028   6.417   5.495 -0.4915 -0.0298 -0.1525
 7847TIP3    H123505   0.084   6.354   5.539 -0.5207  0.7309  1.0090
 7847TIP3    H223506  -0.016   6.366   5.427  1.6255 -0.6333 -1.1538
 7848TIP3   OH223507   4.340   3.419   1.210 -0.0631 -0.0337  0.5706
 7848TIP3    H123508   4.405   3.434   1.278  0.6749 -1.1042  0.1208
 7848TIP3    H223509   4.327   3.505   1.169  0.3416  0.3803  1.2969
 7849TIP3   OH223510   2.244   5.660   0.292 -0.5825  0.1123 -0.0241
 7849TIP3    H123511   2.161   5.706   0.281  0.2073  1.1469 -2.2636
 7849TIP3    H223512   2.311   5.724   0.265  1.1462 -0.1266  3.2135
 7850TIP3   OH223513   4.289   0.205   2.456  0.3427 -0.0492  0.1058
 7850TIP3    H123514   4.279   0.165   2.542 -0.6166  0.0723  0.0613
 7850TIP3    H223515   4.372   0.253   2.461 -0.1938  0.7863  1.3013
 7851TIP3   OH223516   3.633   4.801   1.467 -0.6012  0.0063 -0.2521
 7851TIP3    H123517   3.655   4.807   1.374 -0.4888  0.8598 -0.1779
 7851TIP3    H223518   3.545   4.837   1.473 -0.1055  1.2093  0.1465
 7852TIP3   OH223519   4.772   2.216   3.662  0.1509  0.5834  0.1051
 7852TIP3    H123520   4.849   2.269   3.683  0.0077  0.6875  0.3824
 7852TIP3    H223521   4.699   2.277   3.668  0.0810  0.5546 -0.4771
 7853TIP3   OH223522   4.338   6.700   3.290  0.2938 -0.0419  0.2641
 7853TIP3    H123523   4.317   6.787   3.323 -0.4608  0.0089 -0.3170
 7853TIP3    H223524   4.389   6.659   3.360 -0.3858  0.4283  1.0457
 7854TIP3   OH223525   0.806   2.415   1.538  0.6429 -0.6033  0.3747
 7854TIP3    H123526   0.833   2.494   1.584  3.7087  0.3925 -2.6830
 7854TIP3    H223527   0.878   2.398   1.477 -1.0428 -4.3644 -0.8425
 7855TIP3   OH223528   5.968   6.508   2.564 -0.5964  0.2470 -0.4023
 7855TIP3    H123529   6.022   6.441   2.606 -0.6794  0.7046  0.4437
 7855TIP3    H223530   6.027   6.553   2.504 -0.6119 -0.7693 -1.2098
 7856TIP3   OH223531   7.144   5.966   0.446  0.0440  0.4190  0.5086
 7856TIP3    H123532   7.215   5.910   0.477  0.5547 -0.0044 -1.3423
 7856TIP3    H223533   7.064   5.920   0.474  0.4276 -1.6551 -1.4983
 7857TIP3   OH223534   3.350   0.648   0.821  0.1039  0.4348  0.0249
 7857TIP3    H123535   3.260   0.666   0.849  0.3265  0.8106  0.5183
 7857TIP3    H223536   3.389   0.603   0.896  0.0533 -0.6058 -0.5534
 7858TIP3   OH223537   4.998   3.738   1.321 -0.3398  0.2768  0.3899
 7858TIP3    H123538   4.947   3.658   1.308  1.0404 -1.0214  2.4072
 7858TIP3    H223539   5.089   3.710   1.315  0.1853  1.9602 -0.0822
 7859TIP3   OH223540   2.016   3.645   3.222  0.7001  0.5877 -0.4899
 7859TIP3    H123541   1.956   3.577   3.253  1.4026  0.4799  0.6815
 7859TIP3    H223542   1.999   3.651   3.128  1.3459 -1.9577 -0.8477
 7860TIP3   OH223543   4.555   3.514   4.918  0.5260 -0.0245 -0.5353
 7860TIP3    H123544   4.565   3.578   4.848 -0.1824  0.3969 -0.2558
 7860TIP3    H223545   4.461   3.515   4.939  0.8561  0.5503  1.0641
 7861TIP3   OH223546   0.273   4.933   5.159 -0.5258 -0.0766  0.3406
 7861TIP3    H123547   0.261   5.019   5.119  0.4766  0.5463  1.3359
 7861TIP3    H223548   0.332   4.887   5.099  0.5667  0.6762  0.8014
 7862TIP3   OH223549   3.259   1.188   2.980 -0.2064  0.1210  0.1071
 7862TIP3    H123550   3.278   1.127   3.051  0.3019 -0.2935 -0.3831
 7862TIP3    H223551   3.313   1.159   2.907 -0.1170  1.0290 -0.2045
 7863TIP3   OH223552   6.959   0.087   3.404 -0.1081  0.1730  0.3757
 7863TIP3    H123553   6.947  -0.005   3.379 -1.2774  0.5066 -0.4188
 7863TIP3    H223554   7.024   0.085   3.474  1.3765 -1.0758 -0.9693
 7864TIP3   OH223555   6.313   0.388   4.425 -0.2955  0.2794 -0.0787
 7864TIP3    H123556   6.290   0.431   4.508  0.3427 -0.6516  0.6002
 7864TIP3    H223557   6.334   0.298   4.449  0.2469  0.0817 -1.2100
 7865TIP3   OH223558   5.755   3.181   4.177  0.2276  0.3990 -0.1555
 7865TIP3    H123559   5.791   3.094   4.161 -1.5356  0.0498 -2.8975
 7865TIP3    H223560   5.831   3.239   4.176  1.3270 -0.9606  0.6963
 7866TIP3   OH223561   5.676   0.231   2.402 -0.8496 -0.3344 -0.3064
 7866TIP3    H123562   5.718   0.169   2.343  2.6753 -1.8622  3.3079
 7866TIP3    H223563   5.748   0.265   2.456 -3.3909  2.9463  1.4063
 7867TIP3   OH223564   4.738   6.053   5.779  0.3885 -0.2320  0.1142
 7867TIP3    H123565   4.813   6.003   5.810 -0.2457 -0.6819  0.9700
 7867TIP3    H223566   4.677   5.988   5.747  0.5036  0.1573 -0.9183
 7868TIP3   OH223567   5.199   1.069   3.570  0.1751  0.3941  0.2859
 7868TIP3    H123568   5.132   1.073   3.502  0.1062  2.2878  0.4267
 7868TIP3    H223569   5.163   1.010   3.636 -0.2876 -0.4856 -0.7195
 7869TIP3   OH223570   3.746   4.648   0.189 -0.4087 -0.2021 -0.2776
 7869TIP3    H123571   3.715   4.734   0.219 -1.8329 -1.1553  1.1471
 7869TIP3    H223572   3.668   4.605   0.155  0.3123 -0.8970 -1.0896
 7870TIP3   OH223573   0.005   1.690   0.169 -0.2195 -0.2672  0.6307
 7870TIP3    H123574   0.067   1.726   0.232 -2.9568 -0.2314  3.5818
 7870TIP3    H223575  -0.035   1.767   0.128 -0.1021 -0.2152  0.6141
 7871TIP3   OH223576   3.391   3.322   2.319  0.2244 -0.3524 -0.3413
 7871TIP3    H123577   3.411   3.277   2.237 -0.5233 -0.4874 -0.4532
 7871TIP3    H223578   3.320   3.383   2.297  3.5553  3.7327 -1.1389
 7872TIP3   OH223579   4.998   3.015   1.198 -0.1150  0.8442  0.0228
 7872TIP3    H123580   4.949   3.030   1.280  0.2657  1.9553  0.0631
 7872TIP3    H223581   4.930   3.001   1.132 -0.5273  2.3594  0.0836
 7873TIP3   OH223582   2.911   5.780   0.722  0.1727 -0.1016 -0.0855
 7873TIP3    H123583   2.895   5.852   0.661 -2.1125 -0.2331  0.2605
 7873TIP3    H223584   2.985   5.733   0.684  0.4246  1.2537 -1.3945
 7874TIP3   OH223585   5.179   3.158   2.139 -0.2985 -0.1198 -0.2618
 7874TIP3    H123586   5.130   3.133   2.217 -0.1718  2.1018  0.5870
 7874TIP3    H223587   5.267   3.123   2.153 -0.2232  0.4142  0.7195
 7875TIP3   OH223588   6.323   3.929   4.504 -0.3374  0.3408  0.2054
 7875TIP3    H123589   6.228   3.921   4.494 -0.1252  0.3383 -2.3274
 7875TIP3    H223590   6.336   4.018   4.537 -1.1860  0.5538 -0.0129
 7876TIP3   OH223591   0.262   5.393   1.823 -0.4983 -0.0147  0.4662
 7876TIP3    H123592   0.215   5.473   1.800 -2.0797 -1.0350  0.0045
 7876TIP3    H223593   0.344   5.399   1.774 -1.5799  0.2860 -1.4111
 7877TIP3   OH223594   3.661   6.088   4.105 -0.0565 -0.0426 -0.0020
 7877TIP3    H123595   3.652   6.066   4.012  0.9438  1.1582 -0.4060
 7877TIP3    H223596   3.642   6.182   4.110  4.7060  1.1476  0.1123
 7878TIP3   OH223597   2.537   0.828   2.156  0.3601  0.1916 -0.0372
 7878TIP3    H123598   2.445   0.804   2.158  0.3439  0.2775  0.2420
 7878TIP3    H223599   2.583   0.747   2.178  0.4065 -0.1369 -1.2578
 7879TIP3   OH223600   5.266   6.491   4.450 -0.0981  0.3546  0.1679
 7879TIP3    H123601   5.298   6.550   4.381 -2.9853  2.1836  0.2196
 7879TIP3    H223602   5.226   6.419   4.402 -2.0249  1.5799 -0.1576
 7880TIP3   OH223603   0.314   2.621   4.432  0.1959 -0.0216  0.2847
 7880TIP3    H123604   0.328   2.669   4.350  1.0957 -0.8027 -0.0442
 7880TIP3    H223605   0.225   2.645   4.460 -0.2549  0.0087 -1.0982
 7881TIP3   OH223606   3.699   3.159   5.410 -0.5445  0.4630 -0.0711
 7881TIP3    H123607   3.791   3.151   5.387 -0.2133  1.4934  0.7949
 7881TIP3    H223608   3.671   3.070   5.429  0.2002  0.1064 -0.6069
 7882TIP3   OH223609   1.430   1.649   3.180  0.6399  0.4450  0.1910
 7882TIP3    H123610   1.401   1.590   3.110 -0.1498  0.6092  0.3656
 7882TIP3    H223611   1.478   1.718   3.135 -1.9400  1.8987 -0.5207
 7883TIP3   OH223612   5.069   0.133   2.490  0.3346 -0.4566  0.5518
 7883TIP3    H123613   5.015   0.211   2.500  0.5820 -0.3689  1.2943
 7883TIP3    H223614   5.072   0.117   2.396 -0.6455 -0.2248  0.4718
 7884TIP3   OH223615   4.140   2.864   2.341  0.3124 -0.2095  0.0822
 7884TIP3    H123616   4.167   2.950   2.373  0.4067 -0.1312 -0.2112
 7884TIP3    H223617   4.095   2.881   2.259  2.5643 -0.6433 -1.3224
 7885TIP3   OH223618   4.192   2.325   3.371  0.4975  0.1794  0.3989
 7885TIP3    H123619   4.248   2.373   3.433 -0.6127  1.3955  0.4994
 7885TIP3    H223620   4.176   2.387   3.301  0.2467 -0.5754 -0.2206
 7886TIP3   OH223621   2.903   1.926   2.568  0.4561  0.0469 -0.3645
 7886TIP3    H123622   2.970   1.991   2.544 -1.7400  2.2003 -1.0851
 7886TIP3    H223623   2.831   1.978   2.604 -0.6954 -2.2073  0.7925
 7887TIP3   OH223624   5.766   5.393   5.289 -0.1131 -0.5665 -0.5068
 7887TIP3    H123625   5.857   5.396   5.260 -0.1587 -0.3600 -0.6373
 7887TIP3    H223626   5.761   5.317   5.346 -0.1461 -1.3130 -1.4754
 7888TIP3   OH223627   6.761   1.448   1.537 -0.2628  0.5178  0.1336
 7888TIP3    H123628   6.856   1.451   1.529 -0.1568  1.4543  1.4481
 7888TIP3    H223629   6.729   1.461   1.448  0.8215  1.1709 -0.1773
 7889TIP3   OH223630   0.241   2.338   0.555  0.0704  0.1099 -0.2851
 7889TIP3    H123631   0.335   2.325   0.569  0.0700 -1.0680 -1.1717
 7889TIP3    H223632   0.200   2.276   0.615 -0.1763  0.9840  0.4734
 7890TIP3   OH223633   4.733   1.897   4.976  0.3296 -0.0625  0.2655
 7890TIP3    H123634   4.670   1.911   5.046  0.6048  0.5820  0.3992
 7890TIP3    H223635   4.730   1.978   4.924  1.0217 -0.0262  0.2670
 7891TIP3   OH223636   1.425   0.663   1.613  0.1710 -0.2768 -0.2762
 7891TIP3    H123637   1.474   0.660   1.532  0.3729 -0.3929 -0.1492
 7891TIP3    H223638   1.490   0.685   1.680  0.4500 -2.4247  0.2089
 7892TIP3   OH223639   1.885   0.022   4.436  0.2712  0.3582 -0.2861
 7892TIP3    H123640   1.965  -0.022   4.406  1.3760  0.7505  1.9178
 7892TIP3    H223641   1.910   0.114   4.444 -0.4099  0.4917  0.3667
 7893TIP3   OH223642   5.783   2.904   3.042  0.3094  0.6719 -0.1775
 7893TIP3    H123643   5.697   2.870   3.017  0.2445  0.2207  0.6309
 7893TIP3    H223644   5.788   2.989   2.999  0.0876  0.0588 -1.4738
 7894TIP3   OH223645   1.729   3.025   2.748 -0.1388  0.1383 -0.1921
 7894TIP3    H123646   1.751   3.117   2.736 -0.6872  0.1883 -0.9058
 7894TIP3    H223647   1.809   2.978   2.723  0.4873  0.4418  1.1700
 7895TIP3   OH223648   4.156   2.757   4.250 -0.6428 -0.1597  0.0810
 7895TIP3    H123649   4.166   2.664   4.268  2.4892  0.2985  1.3936
 7895TIP3    H223650   4.192   2.800   4.328 -0.5027  2.1295 -1.1654
 7896TIP3   OH223651   4.694   1.896   0.099 -0.8813 -0.0693  0.0468
 7896TIP3    H123652   4.736   1.961   0.041  0.1125 -2.2312 -1.8144
 7896TIP3    H223653   4.601   1.921   0.099 -0.1768  3.3357  2.2360
 7897TIP3   OH223654   1.532   5.058   2.492 -0.0569  0.1329 -0.0351
 7897TIP3    H123655   1.475   4.983   2.504 -1.7749  1.6783  2.1978
 7897TIP3    H223656   1.611   5.022   2.451 -1.1491 -2.6829  0.1347
 7898TIP3   OH223657   5.754   1.258   5.548 -0.5454  0.3779  0.3875
 7898TIP3    H123658   5.760   1.195   5.620 -1.0162  0.5573  0.5894
 7898TIP3    H223659   5.710   1.211   5.478  1.5913 -0.4222 -0.5099
 7899TIP3   OH223660   0.401   4.404   2.971  0.2892  0.2999 -0.6099
 7899TIP3    H123661   0.406   4.475   2.907 -0.1346  0.1176 -0.8507
 7899TIP3    H223662   0.454   4.334   2.933  2.4782  1.2033  0.6037
 7900TIP3   OH223663   1.220   2.031   3.474 -0.0478  0.0970 -0.1028
 7900TIP3    H123664   1.250   2.007   3.387 -1.2900 -0.8054 -0.3102
 7900TIP3    H223665   1.267   2.112   3.494  0.5488  0.1093 -1.4349
 7901TIP3   OH223666   0.753   4.129   4.075 -0.2680  0.3935 -0.3772
 7901TIP3    H123667   0.841   4.164   4.065 -0.3291  1.1408  1.4130
 7901TIP3    H223668   0.764   4.051   4.129 -0.6825  0.4314 -0.2330
 7902TIP3   OH223669   1.406   4.531   4.530 -0.3647 -0.4161 -0.0784
 7902TIP3    H123670   1.457   4.487   4.599 -0.6227 -0.4018  0.1232
 7902TIP3    H223671   1.393   4.463   4.464 -0.6088 -0.6005  0.1520
 7903TIP3   OH223672   1.160   3.334   4.996  0.1788  0.0839 -0.2185
 7903TIP3    H123673   1.093   3.266   5.006 -0.8095  0.8032 -1.8030
 7903TIP3    H223674   1.190   3.350   5.086  0.2120 -2.1855  0.2506
 7904TIP3   OH223675   1.637   2.234   2.464 -0.3622 -0.3848 -0.0404
 7904TIP3    H123676   1.574   2.205   2.398  0.5007 -0.0840 -1.0243
 7904TIP3    H223677   1.723   2.211   2.427  0.1388 -0.3283  1.0418
 7905TIP3   OH223678   6.527   5.933   5.798  0.0299  0.1678  0.0527
 7905TIP3    H123679   6.442   5.908   5.761 -0.0575 -2.1472  1.5993
 7905TIP3    H223680   6.588   5.865   5.768  0.2053 -1.1084  2.9136
 7906TIP3   OH223681   6.637   0.795   3.901  0.5661  0.2482 -0.2883
 7906TIP3    H123682   6.617   0.706   3.871  1.5136 -0.1840  0.3024
 7906TIP3    H223683   6.641   0.847   3.821 -3.0516  0.4782 -0.4841
 7907TIP3   OH223684   5.387   5.981   3.549  0.0015  0.1525  0.2391
 7907TIP3    H123685   5.427   6.032   3.478  0.2328 -0.3140  0.0284
 7907TIP3    H223686   5.293   5.996   3.539  0.0942  0.9628  0.5072
 7908TIP3   OH223687   1.953   3.067   3.358  0.6433 -0.7405 -0.4482
 7908TIP3    H123688   1.925   3.142   3.411 -1.2994 -1.6673 -0.0714
 7908TIP3    H223689   1.982   3.106   3.275  1.6301  0.5491  0.4606
 7909TIP3   OH223690   0.657   3.470   1.181 -0.2315 -0.3281  0.0997
 7909TIP3    H123691   0.713   3.546   1.161  0.3223 -1.6331 -4.1567
 7909TIP3    H223692   0.569   3.507   1.190  0.4096  1.0764  1.2059
 7910TIP3   OH223693   4.708   0.745   0.408 -1.0298  0.4853  0.4670
 7910TIP3    H123694   4.692   0.839   0.398  4.0328  1.9942  3.0902
 7910TIP3    H223695   4.767   0.723   0.336 -1.9173 -0.6903  0.0640
 7911TIP3   OH223696   1.499   0.888   2.692 -0.1053 -0.3384  0.4588
 7911TIP3    H123697   1.481   0.796   2.710 -1.2984 -0.2982 -0.4297
 7911TIP3    H223698   1.595   0.894   2.697 -0.0675 -1.3411  1.7353
 7912TIP3   OH223699   5.747   3.720   0.887 -0.0538 -0.1207 -0.1389
 7912TIP3    H123700   5.784   3.772   0.815 -1.2042 -1.3060 -1.6390
 7912TIP3    H223701   5.700   3.649   0.844  0.2433 -1.5890  1.8242
 7913TIP3   OH223702   0.866   2.430   4.758 -0.2736 -0.8981  0.0893
 7913TIP3    H123703   0.939   2.368   4.751 -0.7783 -1.3623 -2.2616
 7913TIP3    H223704   0.789   2.377   4.735 -0.6246  0.6627 -2.8187
 7914TIP3   OH223705   7.158   0.324   4.116 -0.2938 -0.4359  0.7770
 7914TIP3    H123706   7.244   0.367   4.121 -1.0611  1.2346  0.5125
 7914TIP3    H223707   7.124   0.330   4.205 -0.3535 -0.6242  0.7662
 7915TIP3   OH223708   3.897   6.164   2.192  0.1223 -0.4215 -0.7567
 7915TIP3    H123709   3.814   6.201   2.223  2.4620  2.1989  3.4427
 7915TIP3    H223710   3.884   6.070   2.196 -2.9277 -0.1255 -1.3308
 7916TIP3   OH223711   0.689   1.291   2.564  0.0386  0.0513  0.2713
 7916TIP3    H123712   0.657   1.242   2.488 -0.3586  0.9816 -0.1755
 7916TIP3    H223713   0.672   1.383   2.542  0.0847  0.3432  1.4047
 7917TIP3   OH223714   3.633   1.895   4.484  0.1348 -0.9716  0.0520
 7917TIP3    H123715   3.592   1.903   4.570 -1.4580 -2.5661 -0.4996
 7917TIP3    H223716   3.563   1.919   4.422  1.5157  1.0673 -0.8298
 7918TIP3   OH223717   4.795   5.734   1.582  0.0457 -0.3578  0.1323
 7918TIP3    H123718   4.889   5.729   1.595 -0.1574 -2.2473  1.2318
 7918TIP3    H223719   4.764   5.794   1.650  0.1989 -1.8061  1.5312
 7919TIP3   OH223720   1.624   1.557   2.782 -0.3078 -0.1960 -0.2395
 7919TIP3    H123721   1.579   1.642   2.779  0.0154 -0.0327 -0.5553
 7919TIP3    H223722   1.554   1.494   2.799 -0.4088  0.2424  1.0752
 7920TIP3   OH223723   2.484   5.993   2.034  0.1966 -0.1445 -0.0136
 7920TIP3    H123724   2.557   6.005   2.096  0.4898  1.7396 -0.6737
 7920TIP3    H223725   2.454   5.903   2.050  1.5490 -0.3782  1.4677
 7921TIP3   OH223726   1.585   3.026   3.624 -0.0121  0.2242 -0.3970
 7921TIP3    H123727   1.502   2.994   3.589  1.1585  0.0616 -3.2839
 7921TIP3    H223728   1.629   2.949   3.659 -0.2891 -0.0444 -0.6369
 7922TIP3   OH223729   4.600   6.112   1.083  0.0312 -0.3239 -0.5113
 7922TIP3    H123730   4.506   6.127   1.079  0.1195  0.9677  0.9334
 7922TIP3    H223731   4.610   6.017   1.087 -1.2779 -0.4517  0.1619
 7923TIP3   OH223732   3.438   4.561   4.538 -0.0072 -0.3786  0.1128
 7923TIP3    H123733   3.357   4.555   4.488  0.4921 -1.2196 -0.6275
 7923TIP3    H223734   3.437   4.483   4.594 -0.4323  0.4144  1.2368
 7924TIP3   OH223735   1.428   0.253   1.439  0.0743  0.3966  0.5682
 7924TIP3    H123736   1.453   0.319   1.503 -0.4319  0.1312  1.0414
 7924TIP3    H223737   1.445   0.295   1.354  2.7027  0.0152  0.8217
 7925TIP3   OH223738   2.224   0.570   5.111 -0.3064 -0.0970  0.1424
 7925TIP3    H123739   2.181   0.585   5.027  0.5829  0.6218 -0.2065
 7925TIP3    H223740   2.164   0.606   5.176 -0.2724  0.8374 -0.3307
 7926TIP3   OH223741   1.875   4.736   5.489  0.0342 -0.4118 -0.3261
 7926TIP3    H123742   1.906   4.726   5.399  1.6976  0.5568  0.0936
 7926TIP3    H223743   1.803   4.799   5.482  0.8355  0.4723 -0.8812
 7927TIP3   OH223744   5.793   1.333   5.025  0.5429  0.4731  0.1250
 7927TIP3    H123745   5.722   1.277   5.057  0.1153  0.2347 -1.1507
 7927TIP3    H223746   5.848   1.275   4.973 -0.1920  1.2561 -1.6575
 7928TIP3   OH223747   1.296   5.006   1.709 -0.1578 -0.0333  0.0613
 7928TIP3    H123748   1.350   4.958   1.646  0.0287 -1.1723  1.0733
 7928TIP3    H223749   1.246   4.939   1.755  1.4675  0.5025  2.8278
 7929TIP3   OH223750   4.414   0.141   3.752 -0.2444  0.0780  0.1543
 7929TIP3    H123751   4.452   0.181   3.831 -1.2450  0.8912  0.2483
 7929TIP3    H223752   4.355   0.074   3.786  0.0792 -0.2569  0.0573
 7930TIP3   OH223753   4.288   1.275   3.833  0.7867  0.2370 -0.0626
 7930TIP3    H123754   4.358   1.209   3.833 -1.0172 -1.8341 -1.1635
 7930TIP3    H223755   4.239   1.257   3.753 -0.9682  1.6483  0.6284
 7931TIP3   OH223756   1.676   6.046   2.249  0.2985 -0.1127 -0.2872
 7931TIP3    H123757   1.747   6.036   2.186 -0.1468  1.7322 -1.1615
 7931TIP3    H223758   1.696   6.127   2.295 -0.2124 -0.6270  0.8853
 7932TIP3   OH223759   1.914   4.856   2.521 -0.3542  0.3014 -0.1553
 7932TIP3    H123760   1.966   4.912   2.464 -2.0044  1.0099 -1.0258
 7932TIP3    H223761   1.915   4.900   2.606 -0.7585  1.1052 -0.5591
 7933TIP3   OH223762   3.696   4.781   5.769  0.3452 -0.2553  0.6097
 7933TIP3    H123763   3.768   4.779   5.831  2.0578  0.5606 -1.2334
 7933TIP3    H223764   3.655   4.866   5.781  0.7253 -0.0661  0.5695
 7934TIP3   OH223765   1.849   6.122   5.735  0.2995 -0.1376  0.4769
 7934TIP3    H123766   1.790   6.071   5.791  0.0582  0.6043  0.9181
 7934TIP3    H223767   1.832   6.213   5.760  1.1171  0.1271  0.0977
 7935TIP3   OH223768   0.781   5.412   4.345 -0.2319  0.2968 -0.3075
 7935TIP3    H123769   0.753   5.322   4.327  1.1936 -0.4611  1.0058
 7935TIP3    H223770   0.740   5.464   4.276 -1.4108 -1.2942 -0.8804
 7936TIP3   OH223771   2.245   4.812   3.053 -0.1646 -0.3528 -0.2310
 7936TIP3    H123772   2.187   4.884   3.077  1.2168 -0.0011  2.3566
 7936TIP3    H223773   2.231   4.746   3.121  0.4791 -1.4409 -1.1107
 7937TIP3   OH223774   5.723   5.112   3.940  0.5803  0.0710  0.1789
 7937TIP3    H123775   5.687   5.075   3.860  1.0492  1.4129 -0.6948
 7937TIP3    H223776   5.805   5.064   3.954 -0.2928 -1.2921  0.7978
 7938TIP3   OH223777   5.330   0.247   1.839 -0.4501  0.1967 -0.2426
 7938TIP3    H123778   5.279   0.191   1.898 -0.0511  0.9711  0.8544
 7938TIP3    H223779   5.421   0.226   1.858 -0.3222  0.3427 -0.6878
 7939TIP3   OH223780   0.601   0.409   2.589 -0.2723 -0.2261 -0.2402
 7939TIP3    H123781   0.570   0.381   2.503 -0.9183  0.5939 -0.2882
 7939TIP3    H223782   0.659   0.338   2.618 -2.0642 -1.7887 -0.2264
 7940TIP3   OH223783   2.664   1.345   1.983  0.2367 -0.0114 -0.6149
 7940TIP3    H123784   2.614   1.427   1.987  0.2731 -0.0131 -0.1380
 7940TIP3    H223785   2.600   1.278   2.008  0.5016 -0.0010  0.1103
 7941TIP3   OH223786   7.155   6.117   3.949  0.1005 -0.2478 -0.2678
 7941TIP3    H123787   7.079   6.060   3.935  0.3289 -0.4168 -0.8519
 7941TIP3    H223788   7.230   6.064   3.923  0.4197 -0.0676  0.2781
 7942TIP3   OH223789   1.802   5.236   0.123  0.1022 -0.2094  0.1394
 7942TIP3    H123790   1.764   5.250   0.209 -1.1144  1.0276 -0.5547
 7942TIP3    H223791   1.876   5.177   0.138 -0.5524 -0.6332  1.9010
 7943TIP3   OH223792   5.864   3.449   3.210 -0.2436  0.0598  0.7688
 7943TIP3    H123793   5.910   3.492   3.282  2.0783  1.1929 -1.2210
 7943TIP3    H223794   5.772   3.467   3.225  0.2044  0.5777  3.2078
 7944TIP3   OH223795   2.662   2.832   1.400 -0.2029 -0.3043  0.1181
 7944TIP3    H123796   2.615   2.876   1.329  0.9772 -1.7359 -1.6488
 7944TIP3    H223797   2.593   2.789   1.451 -1.1507  1.4837  0.4035
 7945TIP3   OH223798   1.588   5.960   3.960 -0.3983  0.0691  0.3873
 7945TIP3    H123799   1.504   5.992   3.995 -0.8618  1.4749 -1.8077
 7945TIP3    H223800   1.647   5.961   4.035 -2.3914 -1.2370  2.0662
 7946TIP3   OH223801   0.299   3.571   0.227  0.0776 -0.5054 -0.7971
 7946TIP3    H123802   0.270   3.594   0.139 -1.0009 -0.1517 -0.3585
 7946TIP3    H223803   0.273   3.480   0.239 -0.2115 -0.4064 -0.6678
 7947TIP3   OH223804   4.136   6.254   1.742 -0.3882  0.1103 -0.4313
 7947TIP3    H123805   4.092   6.244   1.827 -1.6060 -1.1555 -1.1520
 7947TIP3    H223806   4.192   6.177   1.735 -2.0675 -1.0874 -1.7125
 7948TIP3   OH223807   4.271  -0.026   2.064  0.6826 -0.1009  0.5343
 7948TIP3    H123808   4.314   0.028   2.130 -0.9938  1.7068  0.2670
 7948TIP3    H223809   4.190   0.021   2.044 -0.3466 -2.1877 -0.5646
 7949TIP3   OH223810   3.668   4.465   0.815 -0.2017  0.3155  0.3141
 7949TIP3    H123811   3.613   4.404   0.766  0.2633 -1.4304  1.8336
 7949TIP3    H223812   3.757   4.447   0.784  0.0203 -0.3377  1.3066
 7950TIP3   OH223813   0.768   4.174   3.596  0.5027 -0.1091  0.5230
 7950TIP3    H123814   0.847   4.126   3.617  1.5771  1.7146  0.8948
 7950TIP3    H223815   0.729   4.127   3.522  1.7111 -1.2518  0.5882
 7951TIP3   OH223816   7.208   4.137   4.858  0.6089 -0.4662 -0.5882
 7951TIP3    H123817   7.233   4.207   4.918 -0.0962 -1.3147  0.7619
 7951TIP3    H223818   7.142   4.087   4.906  0.7267 -1.7572 -1.6979
 7952TIP3   OH223819   3.074   1.828   5.120  0.4701 -0.0111 -0.0421
 7952TIP3    H123820   3.167   1.835   5.140  0.2631  1.3989  0.5760
 7952TIP3    H223821   3.039   1.916   5.137 -1.2456 -0.8719  1.1913
 7953TIP3   OH223822   4.045   5.761   2.443  0.1562 -0.2675 -0.6386
 7953TIP3    H123823   4.043   5.671   2.409  1.2334 -1.0114  1.1549
 7953TIP3    H223824   4.112   5.760   2.511 -1.0358  1.4584  0.6479
 7954TIP3   OH223825   5.299   1.508   5.811 -0.0847 -0.2906 -0.6719
 7954TIP3    H123826   5.348   1.512   5.728  0.4330 -1.3774 -0.4414
 7954TIP3    H223827   5.311   1.595   5.849 -0.7366  0.3967 -1.9439
 7955TIP3   OH223828   0.587   0.777   4.834  0.4847 -0.4785  0.6290
 7955TIP3    H123829   0.562   0.731   4.914 -2.5482  0.5228  0.3817
 7955TIP3    H223830   0.682   0.784   4.839  0.6006 -2.4153  3.0143
 7956TIP3   OH223831   5.248   2.945   2.859 -0.2792  0.2608 -0.4161
 7956TIP3    H123832   5.280   2.919   2.945  0.3398 -0.0747 -0.7384
 7956TIP3    H223833   5.217   2.863   2.820 -0.6161  0.4227 -0.4879
 7957TIP3   OH223834   4.646   4.897   4.385 -0.0093 -0.0843 -0.0950
 7957TIP3    H123835   4.723   4.942   4.420  0.4475  0.6735 -1.9569
 7957TIP3    H223836   4.675   4.864   4.300 -1.1782 -1.5134  0.0404
 7958TIP3   OH223837   4.284   2.575   4.485 -0.0779 -0.4908 -0.6012
 7958TIP3    H123838   4.189   2.585   4.488 -0.1208 -1.0821  0.6885
 7958TIP3    H223839   4.317   2.645   4.541  0.1829 -0.9210 -0.2101
 7959TIP3   OH223840   7.012   3.295   2.576  0.5464  0.1061  0.3968
 7959TIP3    H123841   7.095   3.341   2.572  0.4096  0.4681  1.4787
 7959TIP3    H223842   7.026   3.225   2.640  0.3488 -0.5305 -0.2405
 7960TIP3   OH223843   2.030   5.941   4.982 -0.4499  0.0355 -0.2266
 7960TIP3    H123844   2.065   5.938   5.071 -2.9315 -2.1827  0.8033
 7960TIP3    H223845   1.976   6.021   4.980  1.5648  1.4588 -0.6471
 7961TIP3   OH223846   3.695   4.037   1.529 -0.0338  0.0766 -0.2898
 7961TIP3    H123847   3.771   4.006   1.480 -0.2350  0.8722 -1.1276
 7961TIP3    H223848   3.732   4.089   1.600  0.2310 -0.4329 -0.0444
 7962TIP3   OH223849   0.142   6.301   5.731  0.1732  0.2661 -0.7268
 7962TIP3    H123850   0.206   6.373   5.724  0.8592 -0.2403  0.1646
 7962TIP3    H223851   0.195   6.222   5.719 -0.0644 -0.2201  1.1972
 7963TIP3   OH223852   5.053   1.137   1.303 -0.1247 -0.1838  0.0100
 7963TIP3    H123853   5.089   1.084   1.232  0.3687  1.7390 -1.2605
 7963TIP3    H223854   5.129   1.177   1.345 -0.4524 -0.8336  1.2730
 7964TIP3   OH223855   1.770   0.718   4.636  0.0756 -0.1015 -0.2196
 7964TIP3    H123856   1.715   0.679   4.703 -1.1434 -0.2407 -1.2566
 7964TIP3    H223857   1.794   0.803   4.671 -0.5919 -0.1494  0.3790
 7965TIP3   OH223858   2.482   4.117   0.665 -0.2598  0.5451 -0.6007
 7965TIP3    H123859   2.483   4.184   0.597  0.5347 -0.4107 -1.5602
 7965TIP3    H223860   2.544   4.148   0.731  0.0954  0.7559 -1.0326
 7966TIP3   OH223861   6.144   0.889   2.474  0.4615  0.4689  0.1877
 7966TIP3    H123862   6.226   0.871   2.519  1.7012 -0.7434 -2.3463
 7966TIP3    H223863   6.167   0.890   2.381 -2.3400  0.3987 -0.6058
 7967TIP3   OH223864   6.999   2.492   2.844  0.3613 -0.5439  0.0269
 7967TIP3    H123865   7.064   2.505   2.775 -0.0292  0.2841 -0.2109
 7967TIP3    H223866   7.049   2.489   2.925  0.6249  1.3756 -0.0226
 7968TIP3   OH223867   2.677   2.075   1.780  0.2331 -0.1446  0.1715
 7968TIP3    H123868   2.592   2.096   1.742 -0.2424 -0.2971  1.1222
 7968TIP3    H223869   2.719   2.019   1.715 -0.1937  0.3217 -0.5182
 7969TIP3   OH223870   1.903   3.985   0.144 -0.5261 -0.7496 -0.0372
 7969TIP3    H123871   1.838   3.927   0.183 -1.5053  1.2349  1.4806
 7969TIP3    H223872   1.884   4.071   0.182  0.9507  0.5488 -2.0310
 7970TIP3   OH223873   4.471   0.456   2.617  0.5402 -0.2624  0.2888
 7970TIP3    H123874   4.428   0.398   2.680  0.7517 -1.0694 -0.2895
 7970TIP3    H223875   4.493   0.534   2.667  0.0265 -0.5820  1.0273
 7971TIP3   OH223876   2.581   1.767   5.343 -0.1406 -0.4589  0.0577
 7971TIP3    H123877   2.666   1.809   5.359 -1.1142  1.3954  0.7277
 7971TIP3    H223878   2.596   1.710   5.267  1.8968 -0.8885  0.7125
 7972TIP3   OH223879   5.548   6.415   4.385 -0.1775  0.0504  0.0070
 7972TIP3    H123880   5.610   6.355   4.345 -0.1192 -0.5420  0.9640
 7972TIP3    H223881   5.462   6.383   4.358 -0.1124  0.9231 -1.3923
 7973TIP3   OH223882   6.372   6.661   4.293 -0.4807  0.2131 -0.3598
 7973TIP3    H123883   6.286   6.635   4.260 -1.0231  0.5745  0.7037
 7973TIP3    H223884   6.374   6.627   4.383 -0.0839  1.4135  0.1053
 7974TIP3   OH223885   5.277   4.371   1.209  0.0170 -0.3720  0.2442
 7974TIP3    H123886   5.305   4.280   1.201  0.3730 -0.2489  0.0479
 7974TIP3    H223887   5.348   4.413   1.258  1.0775  0.3361 -1.7672
 7975TIP3   OH223888   0.229   3.940   3.841  0.4654 -0.0139  0.1589
 7975TIP3    H123889   0.247   3.988   3.922 -0.5928 -0.2748  0.5581
 7975TIP3    H223890   0.136   3.918   3.846  0.3118  0.2312 -1.2767
 7976TIP3   OH223891   4.220   5.419   4.694 -0.2161 -1.0499  0.2061
 7976TIP3    H123892   4.271   5.338   4.685 -0.8531 -1.3423 -0.9271
 7976TIP3    H223893   4.245   5.472   4.618  0.5196  0.0304  1.1553
 7977TIP3   OH223894   6.250   4.088   0.984  0.3440  0.1034  0.4591
 7977TIP3    H123895   6.233   4.177   0.953 -1.3174 -0.7594 -1.3286
 7977TIP3    H223896   6.163   4.055   1.008  1.0029 -0.8848  1.5793
 7978TIP3   OH223897   2.126   4.795   2.803  0.4716 -0.1746 -0.1315
 7978TIP3    H123898   2.139   4.883   2.767 -2.4283 -0.0268 -1.1289
 7978TIP3    H223899   2.173   4.796   2.886  2.2108  1.5961 -1.0284
 7979TIP3   OH223900   6.559   3.452   0.520 -0.2636  0.1349  0.1971
 7979TIP3    H123901   6.622   3.380   0.514  0.9380  1.0199  1.5269
 7979TIP3    H223902   6.613   3.531   0.525 -1.5508  1.2770 -2.1431
 7980TIP3   OH223903   6.211   2.593   0.573  0.0409  0.2800  0.1225
 7980TIP3    H123904   6.302   2.589   0.602  0.3986 -0.1318 -0.9974
 7980TIP3    H223905   6.175   2.507   0.596  0.6507 -0.4861 -1.5891
 7981TIP3   OH223906   4.378   2.084   3.551  0.1474 -0.3559 -0.4997
 7981TIP3    H123907   4.354   1.995   3.576  1.1664 -0.4233  0.2920
 7981TIP3    H223908   4.356   2.137   3.628  0.0716 -0.0163 -0.7533
 7982TIP3   OH223909   4.685   4.052   5.642 -0.7364  0.2045 -0.8308
 7982TIP3    H123910   4.715   4.011   5.561 -1.0150 -1.4310 -0.1593
 7982TIP3    H223911   4.610   4.105   5.616 -0.6892 -0.1322 -1.6813
 7983TIP3   OH223912   4.744   6.794   2.905 -0.1552 -0.0237 -0.2462
 7983TIP3    H123913   4.673   6.751   2.953  0.2086  0.9514  1.2526
 7983TIP3    H223914   4.817   6.796   2.968 -0.1748  2.7770 -0.1868
 7984TIP3   OH223915   1.631   6.142   2.825  0.1930  0.0429 -0.0212
 7984TIP3    H123916   1.545   6.115   2.856  1.1529 -0.9150  2.0268
 7984TIP3    H223917   1.649   6.084   2.751 -0.4678 -0.4990  0.2356
 7985TIP3   OH223918   2.065   3.400   5.629  0.0694 -0.1934  0.4050
 7985TIP3    H123919   2.082   3.355   5.712  0.4982 -0.4231  0.1945
 7985TIP3    H223920   2.061   3.493   5.652  2.9980  0.0520  0.2807
 7986TIP3   OH223921   3.296   6.264   0.828  0.3920 -0.1540  0.1842
 7986TIP3    H123922   3.210   6.234   0.858  0.3215  0.7655  0.9574
 7986TIP3    H223923   3.308   6.349   0.871  3.3098 -1.8499  3.1794
 7987TIP3   OH223924   3.176   1.728   3.759  0.1275 -0.0351 -0.5169
 7987TIP3    H123925   3.194   1.818   3.731 -1.0202 -0.1491 -1.7312
 7987TIP3    H223926   3.221   1.674   3.695  1.6055 -0.3765  0.7463
 7988TIP3   OH223927   6.983   4.705   5.692 -0.0174 -0.2387 -0.2624
 7988TIP3    H123928   6.901   4.672   5.655 -0.4541  0.3598  0.1487
 7988TIP3    H223929   7.038   4.627   5.704 -1.3828 -0.9719  1.6083
 7989TIP3   OH223930   5.345   5.313   3.534  0.3286  0.8947  0.1806
 7989TIP3    H123931   5.281   5.261   3.583 -0.1266 -0.5434 -1.7846
 7989TIP3    H223932   5.417   5.252   3.518  1.1504  1.8002  0.3704
 7990TIP3   OH223933   1.081   1.244   0.225  0.1060  0.4242  0.5184
 7990TIP3    H123934   1.002   1.274   0.269  0.7773  2.7513  0.2650
 7990TIP3    H223935   1.112   1.320   0.175  0.9153 -1.2591 -1.7535
 7991TIP3   OH223936   0.175   3.103   2.195  0.0420 -0.2538 -0.7020
 7991TIP3    H123937   0.249   3.094   2.134 -0.0888 -0.8832 -0.7719
 7991TIP3    H223938   0.200   3.176   2.252  1.1595 -1.0669 -0.0991
 7992TIP3   OH223939   2.155   5.959   1.472  0.1850 -0.3137  0.0849
 7992TIP3    H123940   2.204   5.982   1.393 -1.0348 -0.9122 -0.8840
 7992TIP3    H223941   2.098   5.887   1.445  0.0913 -0.8773  1.6508
 7993TIP3   OH223942   1.762   5.416   5.748  0.7518 -0.3841  0.5598
 7993TIP3    H123943   1.675   5.385   5.770  0.9496 -0.8569  0.6825
 7993TIP3    H223944   1.777   5.490   5.807  0.8909 -1.0270  1.3426
 7994TIP3   OH223945   6.204   2.290   3.761  0.0341  0.2952  0.2889
 7994TIP3    H123946   6.133   2.345   3.728 -1.3968 -0.8672  1.2985
 7994TIP3    H223947   6.236   2.335   3.839  0.4035  0.8117 -0.1571
 7995TIP3   OH223948   6.975   0.551   3.454  0.0644 -0.5551 -0.6145
 7995TIP3    H123949   7.041   0.500   3.501  0.3316 -0.2910 -0.6951
 7995TIP3    H223950   6.926   0.486   3.403 -0.8223 -0.9555  0.7021
 7996TIP3   OH223951   3.404   6.623   2.962  0.2160 -0.5649  0.5517
 7996TIP3    H123952   3.355   6.669   2.894  0.1722 -0.9004  0.3522
 7996TIP3    H223953   3.342   6.557   2.995  1.5433 -3.3760 -2.0889
 7997TIP3   OH223954   4.287   2.927   0.818  0.4363  0.1140  0.4436
 7997TIP3    H123955   4.338   2.965   0.747  0.3434 -1.3597 -0.4542
 7997TIP3    H223956   4.224   2.870   0.774 -1.4158  1.1675  1.5592
 7998TIP3   OH223957   5.320   4.840   3.626 -0.3189 -0.3261 -0.1941
 7998TIP3    H123958   5.366   4.856   3.544  1.4433  0.6358  0.9239
 7998TIP3    H223959   5.288   4.926   3.653 -1.2828 -0.7080 -0.0774
 7999TIP3   OH223960   2.374   1.930   5.376 -0.0842  0.0310 -0.5323
 7999TIP3    H123961   2.436   1.858   5.365 -1.1763 -0.8070 -1.5225
 7999TIP3    H223962   2.391   1.988   5.302  0.4514  0.5235 -0.0227
 8000TIP3   OH223963   1.613   0.125   3.962  0.1429 -0.0348  0.5361
 8000TIP3    H123964   1.580   0.148   3.875  0.1033  0.4211  0.6697
 8000TIP3    H223965   1.542   0.148   4.022  0.6843  0.9435  0.8238
 8001TIP3   OH223966   4.878   3.865   1.538  0.3694 -0.6807 -0.0508
 8001TIP3    H123967   4.915   3.829   1.457  2.6149 -0.6648  0.9055
 8001TIP3    H223968   4.932   3.941   1.557  0.0378 -0.8304  1.5983
 8002TIP3   OH223969   4.519   3.269   2.988  0.5383  0.0051 -0.2914
 8002TIP3    H123970   4.607   3.242   3.015  1.2208 -0.3843 -2.6615
 8002TIP3    H223971   4.524   3.273   2.893 -1.7948  0.8398 -0.4321
 8003TIP3   OH223972   0.232   0.725   5.000 -0.4659 -0.3171  0.0026
 8003TIP3    H123973   0.263   0.801   4.950  2.2839 -0.3137  1.5302
 8003TIP3    H223974   0.265   0.740   5.088 -1.6746 -2.3156  0.8584
 8004TIP3   OH223975   3.370   0.797   3.293 -0.0062 -0.1558  0.4063
 8004TIP3    H123976   3.315   0.721   3.274 -0.5660 -0.0166  1.4119
 8004TIP3    H223977   3.403   0.781   3.382 -0.0460  0.7269  0.5862
 8005TIP3   OH223978   3.141   4.980   0.549 -0.2553  0.7392  0.1961
 8005TIP3    H123979   3.226   4.948   0.579  0.2280 -0.2854 -2.0252
 8005TIP3    H223980   3.078   4.948   0.614  1.0375  1.9484  2.1631
 8006TIP3   OH223981   1.877   1.998   4.523 -0.1722 -0.6606  0.0050
 8006TIP3    H123982   1.828   1.997   4.605 -1.2704 -0.0572 -0.6048
 8006TIP3    H223983   1.910   2.087   4.516 -2.1106  0.0298 -1.2978
 8007TIP3   OH223984   2.207   3.802   5.539  0.0729 -0.4741  0.4753
 8007TIP3    H123985   2.166   3.859   5.475  0.1527 -0.5416  0.3627
 8007TIP3    H223986   2.230   3.723   5.489 -1.1612 -1.1269  0.8908
 8008TIP3   OH223987   2.299   4.781   4.275 -0.6593 -0.2540 -0.2253
 8008TIP3    H123988   2.268   4.857   4.227  1.0618 -0.3485 -1.6146
 8008TIP3    H223989   2.256   4.706   4.232  1.0841 -0.3626 -1.9463
 8009TIP3   OH223990   7.027   5.760   3.701  0.1657  0.0066 -0.4154
 8009TIP3    H123991   7.056   5.688   3.758 -0.8811 -0.5322 -0.5255
 8009TIP3    H223992   7.043   5.728   3.612 -1.6847 -0.7618 -0.5195
 8010TIP3   OH223993   4.542   0.270   5.830  0.2043  0.2144 -0.1772
 8010TIP3    H123994   4.581   0.206   5.770  0.7421  0.7044 -0.3563
 8010TIP3    H223995   4.487   0.217   5.888  1.2465 -0.5289  0.1813
 8011TIP3   OH223996   2.581   0.602   0.340 -0.1972  0.0555 -0.0125
 8011TIP3    H123997   2.605   0.657   0.414 -0.8178  1.8522 -1.0844
 8011TIP3    H223998   2.486   0.612   0.331 -0.2479 -0.7663 -0.5676
 8012TIP3   OH223999   1.205   5.378   5.049 -0.1736 -0.5466  0.4913
 8012TIP3    H124000   1.216   5.466   5.084  0.9639  0.2325 -1.6545
 8012TIP3    H224001   1.121   5.380   5.003  0.1382 -0.3487 -0.0905
 8013TIP3   OH224002   2.973   5.954   4.497  0.8605  0.3360  0.0354
 8013TIP3    H124003   3.046   6.015   4.507 -0.6615  2.3225 -0.1129
 8013TIP3    H224004   2.898   6.000   4.536 -0.6013 -0.9947 -1.0363
 8014TIP3   OH224005   5.890   0.815   2.978 -0.1291 -0.8252 -0.2330
 8014TIP3    H124006   5.977   0.843   3.008 -1.6775  2.9999  1.2609
 8014TIP3    H224007   5.833   0.828   3.053 -2.2497 -1.9437 -1.5650
 8015TIP3   OH224008   1.186   4.130   2.432  0.3822 -0.0757  0.4099
 8015TIP3    H124009   1.175   4.037   2.452 -0.8671  0.2603  1.4046
 8015TIP3    H224010   1.254   4.160   2.493 -0.3457 -0.0058  1.2046
 8016TIP3   OH224011   2.201   5.547   2.248 -0.2968 -0.1278 -0.3461
 8016TIP3    H124012   2.282   5.503   2.274 -0.2797 -0.5342 -1.0726
 8016TIP3    H224013   2.167   5.495   2.175 -1.2574 -0.0109  0.0038
 8017TIP3   OH224014   6.777   0.116   5.176  0.1526 -0.1804  0.3540
 8017TIP3    H124015   6.835   0.063   5.121  0.1256 -1.0044  1.0965
 8017TIP3    H224016   6.718   0.052   5.217  0.0649  0.4338  1.2097
 8018TIP3   OH224017   2.327   6.600   4.235  0.5740 -0.1411  0.1672
 8018TIP3    H124018   2.275   6.526   4.205  0.5122 -0.7086  1.5809
 8018TIP3    H224019   2.396   6.610   4.170  0.0459 -0.8447 -0.5154
 8019TIP3   OH224020   2.312   0.190   5.622 -0.5578  0.0353  0.2344
 8019TIP3    H124021   2.306   0.139   5.541  1.9888 -1.5003  0.8922
 8019TIP3    H224022   2.343   0.276   5.594 -1.0147 -0.0445 -0.5441
 8020TIP3   OH224023   2.138   2.699   0.113 -0.6255 -0.0215 -0.2050
 8020TIP3    H124024   2.082   2.636   0.066  1.0952 -0.7691 -1.3763
 8020TIP3    H224025   2.192   2.738   0.044 -0.3158  1.3436  0.7805
 8021TIP3   OH224026   5.608   0.807   1.522  0.0303  0.2805  0.2121
 8021TIP3    H124027   5.594   0.714   1.501 -0.0360  0.9127 -3.1901
 8021TIP3    H224028   5.662   0.806   1.601 -1.4967 -2.5805  1.3760
 8022TIP3   OH224029   0.398   3.027   2.041  0.6168 -0.2018  0.0548
 8022TIP3    H124030   0.449   2.973   1.980  2.8193  2.5723 -0.7670
 8022TIP3    H224031   0.455   3.034   2.119 -0.7702 -1.0693  1.2015
 8023TIP3   OH224032   5.681   0.411   1.968  0.2445  0.7572 -0.1965
 8023TIP3    H124033   5.760   0.442   2.012  1.2925 -1.0483 -0.6907
 8023TIP3    H224034   5.713   0.348   1.903 -1.6220 -0.2503 -0.2058
 8024TIP3   OH224035   5.201   4.847   2.670  0.0760 -0.1343 -0.5456
 8024TIP3    H124036   5.237   4.866   2.584  0.8463 -1.5442 -0.5691
 8024TIP3    H224037   5.250   4.770   2.700  1.5860  1.7498  2.2258
 8025TIP3   OH224038   1.465   6.732   4.649  0.0851 -0.6978  0.0353
 8025TIP3    H124039   1.538   6.781   4.614 -1.5644  0.5536 -1.8749
 8025TIP3    H224040   1.435   6.784   4.724 -0.4528  0.2187 -0.7978
 8026TIP3   OH224041   3.717   3.141   1.077  0.5125  0.0762  0.1274
 8026TIP3    H124042   3.722   3.067   1.137  2.2997 -0.0014 -0.0635
 8026TIP3    H224043   3.783   3.203   1.109 -1.2809  1.8612  0.5875
 8027TIP3   OH224044   6.114   4.991   0.612 -0.4360 -0.3584  0.7317
 8027TIP3    H124045   6.099   4.965   0.520 -0.1089 -0.7077  0.7735
 8027TIP3    H224046   6.034   4.964   0.657  0.1522 -1.9771  0.9030
 8028TIP3   OH224047   5.298   1.101   4.155  1.2503 -0.4745 -0.0271
 8028TIP3    H124048   5.307   1.196   4.164 -0.0104 -0.3211 -0.2200
 8028TIP3    H224049   5.206   1.084   4.175  1.7173 -1.8050  1.1021
 8029TIP3   OH224050   5.765   1.807   3.038 -0.0121 -0.2437 -0.5811
 8029TIP3    H124051   5.763   1.875   2.970 -0.6336  0.5956  0.2434
 8029TIP3    H224052   5.827   1.840   3.102 -0.9767 -0.0004  0.2582
 8030TIP3   OH224053   6.337   6.574   3.722 -0.3112 -0.4230  0.0799
 8030TIP3    H124054   6.252   6.596   3.760 -0.8704  0.5862 -1.6317
 8030TIP3    H224055   6.397   6.570   3.796 -1.9898 -2.0449  1.4618
 8031TIP3   OH224056   3.879   1.068   5.152 -0.0824 -0.0308 -0.5011
 8031TIP3    H124057   3.871   1.006   5.079  1.6564  0.8353 -1.4702
 8031TIP3    H224058   3.944   1.131   5.123 -0.4841  1.2238  1.2123
 8032TIP3   OH224059   1.148   4.324   2.866 -0.3219 -0.6189  0.6041
 8032TIP3    H124060   1.109   4.340   2.780  0.5466 -0.0207  0.3052
 8032TIP3    H224061   1.202   4.246   2.854 -0.3166 -0.6205  0.6375
 8033TIP3   OH224062   5.036   6.241   4.989 -1.0305 -0.2627  0.3833
 8033TIP3    H124063   5.087   6.228   4.909  0.1499 -1.2519  1.2681
 8033TIP3    H224064   4.960   6.184   4.978 -0.6616 -0.7156  0.1361
 8034TIP3   OH224065   0.293   1.689   2.243  0.2435  0.5359 -0.3734
 8034TIP3    H124066   0.330   1.644   2.318 -1.2593  1.8389  1.2341
 8034TIP3    H224067   0.216   1.734   2.277 -0.3695  1.3866 -2.6532
 8035TIP3   OH224068   0.608   4.885   0.340 -0.3103  0.2456  0.7638
 8035TIP3    H124069   0.650   4.801   0.358  0.0940  0.3638  0.3955
 8035TIP3    H224070   0.517   4.862   0.319 -0.8605  0.1197  3.0633
 8036TIP3   OH224071   6.411   3.973   1.582 -0.3473 -0.2676  0.4950
 8036TIP3    H124072   6.422   4.001   1.673  2.0972 -0.2172  0.2343
 8036TIP3    H224073   6.426   4.052   1.531 -2.6021 -0.0837  0.0131
 8037TIP3   OH224074   3.200   5.457   0.049 -0.5309 -0.1410  0.4648
 8037TIP3    H124075   3.105   5.447   0.058 -0.6002  0.8975  1.0065
 8037TIP3    H224076   3.224   5.392  -0.017 -1.3302 -1.7838  1.7010
 8038TIP3   OH224077   2.261   5.256   5.904 -0.7486 -0.2892 -0.0455
 8038TIP3    H124078   2.168   5.244   5.926 -1.3741  2.0164 -1.1067
 8038TIP3    H224079   2.260   5.275   5.810  0.9065 -0.9740 -0.2281
 8039TIP3   OH224080   6.118   3.396   3.015 -0.4157  0.3838  0.0031
 8039TIP3    H124081   6.164   3.411   2.933  0.9261 -1.9614  0.2249
 8039TIP3    H224082   6.179   3.421   3.083 -0.1779 -0.8501  0.2788
 8040TIP3   OH224083   6.022   2.030   4.671 -0.4195 -0.5488 -1.0146
 8040TIP3    H124084   6.092   2.082   4.631  0.2439  0.0254  0.7673
 8040TIP3    H224085   5.954   2.094   4.691  0.1099 -0.4375  0.5617
 8041TIP3   OH224086   4.543   4.397   1.364 -0.0267 -0.0553  0.2026
 8041TIP3    H124087   4.532   4.335   1.437 -0.0380  0.5934  0.7591
 8041TIP3    H224088   4.540   4.342   1.286  3.8545 -1.3599  0.7328
 8042TIP3   OH224089   6.383   3.233   1.813 -0.2228  0.4183 -0.0597
 8042TIP3    H124090   6.352   3.323   1.818  0.9780  0.7932  2.4013
 8042TIP3    H224091   6.464   3.233   1.865  0.3601 -1.8620 -0.8584
 8043TIP3   OH224092   5.104   5.887   2.470  0.1737 -0.5325 -0.2367
 8043TIP3    H124093   5.072   5.892   2.380  0.3684  1.0295 -0.2500
 8043TIP3    H224094   5.045   5.825   2.513 -1.8857  1.0048 -0.6821
 8044TIP3   OH224095   2.463   2.475   1.063  0.5110  0.5871  0.4134
 8044TIP3    H124096   2.537   2.496   1.119  0.7114  3.1157 -0.6645
 8044TIP3    H224097   2.446   2.555   1.014 -2.5900 -0.0607  0.1953
 8045TIP3   OH224098   1.287   4.566   4.971 -0.2145  0.6189 -0.3808
 8045TIP3    H124099   1.355   4.522   5.023 -0.3797 -0.8901 -1.3569
 8045TIP3    H224100   1.207   4.520   4.994 -0.3203  0.0259 -1.7738
 8046TIP3   OH224101   2.270   0.120   4.958 -0.2478  0.4609  0.5192
 8046TIP3    H124102   2.299   0.206   4.928  0.5007 -0.7212 -2.4906
 8046TIP3    H224103   2.221   0.138   5.039 -1.6152  3.8897 -0.8771
 8047TIP3   OH224104   5.606   0.487   0.325  0.1077  0.5877  0.5195
 8047TIP3    H124105   5.538   0.547   0.354  0.5990  0.5159  1.8600
 8047TIP3    H224106   5.565   0.437   0.254 -0.6794  1.6841  0.1766
 8048TIP3   OH224107   3.356   6.386   4.231 -0.1575  0.5319  0.3343
 8048TIP3    H124108   3.349   6.481   4.222 -1.7065  0.2457 -2.8888
 8048TIP3    H224109   3.269   6.358   4.262  0.1112  0.1170  0.7271
 8049TIP3   OH224110   4.744   4.743   0.063 -0.2912  0.5636  0.2527
 8049TIP3    H124111   4.759   4.820   0.118  0.1845 -0.3365  1.4420
 8049TIP3    H224112   4.661   4.706   0.096 -1.2063  1.2562 -1.1728
 8050TIP3   OH224113   6.166   6.653   1.179 -0.2240  0.2932 -0.0024
 8050TIP3    H124114   6.098   6.608   1.130  0.2545  1.4344 -1.8309
 8050TIP3    H224115   6.248   6.621   1.142  0.1368  1.7342 -0.5266
 8051TIP3   OH224116   3.823   3.350   3.138  0.0274  0.5740 -0.4696
 8051TIP3    H124117   3.778   3.325   3.057 -0.5871 -1.0100  0.3300
 8051TIP3    H224118   3.905   3.299   3.136  0.1725  0.7985 -0.2564
 8052TIP3   OH224119   0.259   0.821   3.759  0.7540 -0.0411 -0.2005
 8052TIP3    H124120   0.197   0.796   3.691  0.7532 -1.0056  0.1416
 8052TIP3    H224121   0.231   0.909   3.785  0.3915  0.0961 -1.0236
 8053TIP3   OH224122   4.716   0.469   0.926  0.1285 -0.1908  0.6508
 8053TIP3    H124123   4.713   0.517   0.843  0.2360 -0.4140  0.5154
 8053TIP3    H224124   4.696   0.534   0.992 -1.6394 -0.3516  0.3155
 8054TIP3   OH224125   4.003   6.314   1.054  0.1703  0.1497  0.4626
 8054TIP3    H124126   3.946   6.277   0.986 -0.8147  2.5776 -0.1875
 8054TIP3    H224127   3.957   6.296   1.136 -0.7208  0.6212  0.0861
 8055TIP3   OH224128   2.787   0.227   3.945  0.3956  0.1789  0.4766
 8055TIP3    H124129   2.721   0.161   3.925  1.5318 -0.7755 -0.2056
 8055TIP3    H224130   2.818   0.204   4.033  2.2319 -1.4962 -0.5331
 8056TIP3   OH224131   5.033   3.068   2.652 -0.6652  0.2617 -0.4497
 8056TIP3    H124132   4.972   2.994   2.645  0.7120 -1.3796  2.9401
 8056TIP3    H224133   5.115   3.035   2.616  0.2237 -0.3325  1.9524
 8057TIP3   OH224134   7.006   2.377   4.416  0.5483 -0.4079 -0.3167
 8057TIP3    H124135   6.955   2.307   4.376 -0.9797  1.0261 -0.9876
 8057TIP3    H224136   7.097   2.350   4.405  0.0212 -1.9002 -1.2472
 8058TIP3   OH224137   2.619   3.113   2.342 -0.3261  0.2276 -0.2902
 8058TIP3    H124138   2.664   3.035   2.311 -1.6101 -0.6560 -0.0400
 8058TIP3    H224139   2.537   3.080   2.378 -1.3040  1.7752 -0.9775
 8059TIP3   OH224140   2.372   3.376   3.974  0.5594 -0.1181  0.2985
 8059TIP3    H124141   2.399   3.327   3.896 -1.1717 -2.5604  1.0841
 8059TIP3    H224142   2.293   3.422   3.947  0.5197 -0.1599  0.3433
 8060TIP3   OH224143   3.594   1.722   1.883 -0.2400  0.2997  0.7843
 8060TIP3    H124144   3.646   1.689   1.810  0.6453  1.0857  1.0328
 8060TIP3    H224145   3.519   1.765   1.841 -0.7699 -0.9505  0.4266
 8061TIP3   OH224146   2.539   3.712   3.141  0.1576 -0.2932  0.4450
 8061TIP3    H124147   2.563   3.635   3.193 -1.6100 -0.4530  1.1300
 8061TIP3    H224148   2.476   3.679   3.077  1.8561  0.0241 -1.4580
 8062TIP3   OH224149   6.965   4.490   3.661 -0.0298 -0.7084 -0.1625
 8062TIP3    H124150   6.999   4.512   3.748 -0.6205 -1.0684  0.1683
 8062TIP3    H224151   6.916   4.409   3.675 -1.8189  0.2678 -0.4114
 8063TIP3   OH224152   5.981   5.109   1.411  0.0820  0.4898 -0.2336
 8063TIP3    H124153   5.973   5.205   1.419  0.0163  0.7609 -2.8317
 8063TIP3    H224154   6.004   5.094   1.320 -0.3868 -2.0392 -0.0103
 8064TIP3   OH224155   6.949   2.937   0.780 -0.4196  0.3631 -0.2562
 8064TIP3    H124156   6.941   2.883   0.859  0.7555  0.1010 -0.2988
 8064TIP3    H224157   6.867   2.985   0.775  0.0431  1.5008  1.9552
 8065TIP3   OH224158   6.125   1.785   5.392 -0.2945  0.3488  0.2267
 8065TIP3    H124159   6.184   1.845   5.347 -0.1431  1.1393  1.4283
 8065TIP3    H224160   6.130   1.811   5.484 -0.6858 -1.1284  0.6955
 8066TIP3   OH224161   5.507   4.865   5.636  0.0536 -0.0622  0.2509
 8066TIP3    H124162   5.506   4.957   5.661  2.9118 -0.3283  1.7618
 8066TIP3    H224163   5.458   4.821   5.705  1.0684  0.0799  1.0941
 8067TIP3   OH224164   6.390   0.545   3.068 -0.2152  0.2952  0.1422
 8067TIP3    H124165   6.428   0.602   3.002 -0.7615  0.2485 -0.2159
 8067TIP3    H224166   6.310   0.512   3.029  0.4826 -1.3642  0.0271
 8068TIP3   OH224167   5.653   6.537   1.427  0.3071 -0.5180  0.5929
 8068TIP3    H124168   5.577   6.561   1.480  1.5020 -0.3809  2.3076
 8068TIP3    H224169   5.691   6.621   1.401 -0.2254 -0.5838 -0.4658
 8069TIP3   OH224170   2.917   5.481   4.484 -0.0269  0.0901 -0.4634
 8069TIP3    H124171   2.997   5.526   4.511 -0.4997 -0.6007  2.5028
 8069TIP3    H224172   2.849   5.548   4.488 -0.2637 -0.1857  1.3213
 8070TIP3   OH224173   0.568   4.205   2.842 -0.0377  0.2174  0.4137
 8070TIP3    H124174   0.657   4.183   2.871  0.1007 -1.3438 -1.0343
 8070TIP3    H224175   0.558   4.157   2.759 -2.2665  0.3011  0.5950
 8071TIP3   OH224176   5.599   1.724   3.435 -0.2619  0.3579 -0.3030
 8071TIP3    H124177   5.660   1.734   3.507 -0.9842 -0.9191  0.5357
 8071TIP3    H224178   5.518   1.694   3.476 -0.9934  0.5648 -1.5377
 8072TIP3   OH224179   1.787   2.609   2.689 -0.1441 -0.8255 -0.0572
 8072TIP3    H124180   1.709   2.559   2.665 -1.6340 -0.0663  2.6462
 8072TIP3    H224181   1.779   2.691   2.640  0.5752 -1.8678 -2.0098
 8073TIP3   OH224182   5.239   3.125   1.646 -0.2627  0.2299 -0.4346
 8073TIP3    H124183   5.279   3.073   1.716  0.1964  2.5044  1.0977
 8073TIP3    H224184   5.156   3.154   1.682 -0.5250  0.5599 -1.2725
 8074TIP3   OH224185   5.268   4.205   2.013 -0.4033 -0.0029  0.1378
 8074TIP3    H124186   5.275   4.251   2.097 -0.6163  0.4379 -0.0825
 8074TIP3    H224187   5.261   4.275   1.948  2.1968 -0.2224 -0.5155
 8075TIP3   OH224188   0.263   1.102   5.119 -0.0348 -0.2000 -0.1473
 8075TIP3    H124189   0.200   1.173   5.135  0.3109 -0.0214  0.4602
 8075TIP3    H224190   0.245   1.039   5.189  0.6707 -0.0029  0.2117
 8076TIP3   OH224191   6.717   3.669   0.492 -0.2105  0.4019  0.9402
 8076TIP3    H124192   6.722   3.744   0.433  0.1032 -0.2016  0.1947
 8076TIP3    H224193   6.791   3.682   0.553  2.8643 -1.6351 -1.9958
 8077TIP3   OH224194   6.900   0.299   2.105 -0.4232 -0.3069 -0.0919
 8077TIP3    H124195   6.920   0.343   2.023 -0.6858  1.0843  0.5506
 8077TIP3    H224196   6.985   0.279   2.143 -0.0413  3.5637  1.5764
 8078TIP3   OH224197   6.735   3.111   5.660 -0.1792  0.3213 -0.4777
 8078TIP3    H124198   6.789   3.169   5.607  2.3280 -0.5152  1.0028
 8078TIP3    H224199   6.668   3.079   5.600  0.7465  1.6750 -2.3301
 8079TIP3   OH224200   3.452   1.449   0.814 -0.2927  0.1557  0.1916
 8079TIP3    H124201   3.463   1.367   0.766  0.0640  0.0628  0.4297
 8079TIP3    H224202   3.421   1.423   0.901  1.0520  0.1718  0.6998
 8080TIP3   OH224203   6.842   4.071   1.263 -0.1618 -0.2011 -0.6739
 8080TIP3    H124204   6.891   4.033   1.337 -0.7228 -1.5038 -0.9443
 8080TIP3    H224205   6.820   4.159   1.292 -0.1380 -0.5983  0.6187
 8081TIP3   OH224206   5.145   3.626   1.049 -0.1412 -1.0512 -0.4832
 8081TIP3    H124207   5.103   3.545   1.021  0.5074 -1.9839  1.1374
 8081TIP3    H224208   5.140   3.683   0.972 -2.0334 -2.0358 -1.1440
 8082TIP3   OH224209   3.959   5.240   3.212 -0.1726  0.6362  0.1927
 8082TIP3    H124210   3.956   5.224   3.118  1.3608  1.7381 -0.0943
 8082TIP3    H224211   4.052   5.232   3.234  0.0149  3.6740  0.9293
 8083TIP3   OH224212   4.258   4.451   3.505 -0.3174 -0.8168 -0.9253
 8083TIP3    H124213   4.266   4.372   3.559  4.4824 -0.6270 -0.9137
 8083TIP3    H224214   4.273   4.523   3.567  0.2529 -0.2717 -1.6764
 8084TIP3   OH224215   1.105   3.930   2.132  0.3381  0.3950 -0.5610
 8084TIP3    H124216   1.186   3.881   2.149  0.4223  0.9019  0.5955
 8084TIP3    H224217   1.036   3.864   2.134  0.6581  0.0359 -1.0295
 8085TIP3   OH224218   3.669   4.716   3.708  0.1945 -0.2182  0.0141
 8085TIP3    H124219   3.758   4.752   3.704  0.1836 -0.0279  1.1474
 8085TIP3    H224220   3.615   4.781   3.663  0.4632  0.2393  0.3391
 8086TIP3   OH224221   0.744   2.162   1.596  0.0215  0.1424 -0.0434
 8086TIP3    H124222   0.823   2.110   1.615 -0.2130  0.9146  3.9330
 8086TIP3    H224223   0.777   2.248   1.572  0.3682  0.0506  0.1023
 8087TIP3   OH224224   5.471   4.564   0.502  0.2466  0.0193 -0.4608
 8087TIP3    H124225   5.539   4.504   0.533  1.2192  0.6479 -1.3000
 8087TIP3    H224226   5.409   4.569   0.575 -0.8284 -3.3242 -0.9996
 8088TIP3   OH224227   5.534   5.983   1.401 -0.0003 -0.0082  0.6817
 8088TIP3    H124228   5.549   5.975   1.495 -1.5873  1.3705  1.0968
 8088TIP3    H224229   5.503   5.896   1.375  1.7038 -0.7921  1.1337
 8089TIP3   OH224230   0.898   0.289   1.865 -0.0150 -1.2846 -0.0736
 8089TIP3    H124231   0.865   0.330   1.945 -0.7138 -2.2060  0.1280
 8089TIP3    H224232   0.964   0.228   1.896  0.8137 -0.5468 -0.3481
 8090TIP3   OH224233   6.883   3.228   3.138  0.4017 -0.4117 -0.2705
 8090TIP3    H124234   6.851   3.141   3.112 -2.3237 -0.2339  1.9865
 8090TIP3    H224235   6.900   3.273   3.056  1.4782 -2.9019 -1.5197
 8091TIP3   OH224236   0.374   2.100   4.808  0.2323 -0.5228 -0.1182
 8091TIP3    H124237   0.444   2.043   4.839 -0.8408 -1.1407  1.2803
 8091TIP3    H224238   0.385   2.103   4.713  2.1015 -0.6325  0.0732
 8092TIP3   OH224239   1.885   4.726   4.364 -0.1394 -0.1323 -0.0554
 8092TIP3    H124240   1.827   4.659   4.327 -1.2839  1.2285 -0.8297
 8092TIP3    H224241   1.897   4.700   4.455 -1.1297 -1.0041 -0.1554
 8093TIP3   OH224242   2.118   6.139   2.883 -0.2679 -0.3726  0.4913
 8093TIP3    H124243   2.054   6.075   2.853 -0.0801  0.7865 -2.7781
 8093TIP3    H224244   2.200   6.089   2.887 -0.6025 -0.9274  0.6223
 8094TIP3   OH224245   1.664   3.026   0.471  0.6290 -0.3673  0.0135
 8094TIP3    H124246   1.611   2.999   0.395  0.4949  2.2631 -0.9312
 8094TIP3    H224247   1.741   2.969   0.468  1.2684  0.4606 -2.9478
 8095TIP3   OH224248   2.057   3.027   0.600 -0.2810  0.0682 -0.7283
 8095TIP3    H124249   1.981   3.074   0.634  1.0590  1.5997  0.3494
 8095TIP3    H224250   2.080   3.073   0.520  0.5737  0.8241 -0.0769
 8096TIP3   OH224251   2.767   5.481   5.562  0.4388 -0.2581 -0.1601
 8096TIP3    H124252   2.778   5.510   5.471  0.7553  0.0621 -0.0198
 8096TIP3    H224253   2.689   5.527   5.593  0.1888 -0.5529 -0.3434
 8097TIP3   OH224254   1.934   6.075   1.580  0.4798  0.3403  0.2588
 8097TIP3    H124255   1.891   6.128   1.513  0.2409  1.0642  0.9575
 8097TIP3    H224256   2.010   6.036   1.537  0.8598  1.5433 -0.1920
 8098TIP3   OH224257   3.496   2.332   0.310  0.1324  0.5396  0.5108
 8098TIP3    H124258   3.564   2.399   0.322  2.8405 -1.4533 -2.1567
 8098TIP3    H224259   3.439   2.368   0.243 -0.3990  1.4655  1.4325
 8099TIP3   OH224260   6.578   3.426   5.215  0.9393  0.0615  0.5864
 8099TIP3    H124261   6.668   3.414   5.246  1.1030  2.8037  1.4429
 8099TIP3    H224262   6.540   3.491   5.275 -1.3056 -0.3031 -0.3340
 8100TIP3   OH224263   4.374   0.844   1.170  0.1942  0.2419  0.0161
 8100TIP3    H124264   4.435   0.917   1.176  0.0973  0.2827  0.6583
 8100TIP3    H224265   4.289   0.882   1.192  0.0644  0.0299 -0.1121
 8101TIP3   OH224266   1.061   4.470   1.058  0.6106  0.3276 -0.2146
 8101TIP3    H124267   1.030   4.526   0.987  0.7994 -0.6675 -1.0991
 8101TIP3    H224268   0.985   4.417   1.082  0.2860  1.2620  0.9649
 8102TIP3   OH224269   6.328   5.885   1.820  0.3147 -0.2981  0.2110
 8102TIP3    H124270   6.396   5.822   1.799  0.1475 -0.6998  0.8494
 8102TIP3    H224271   6.272   5.840   1.884 -0.2199  0.2306  0.1297
 8103TIP3   OH224272   0.111   3.537   5.670  0.3577  0.0812  0.5425
 8103TIP3    H124273   0.052   3.463   5.654 -1.1959  1.8695 -2.9829
 8103TIP3    H224274   0.199   3.500   5.662 -0.3523 -1.5853 -0.0192
 8104TIP3   OH224275   4.614   1.095   2.333 -0.5681  0.2181  0.5111
 8104TIP3    H124276   4.572   1.181   2.328 -0.1406  0.3902 -0.3430
 8104TIP3    H224277   4.634   1.072   2.242  4.6269  1.8813  0.8719
 8105TIP3   OH224278   4.508   2.771   2.250  0.0954 -0.9464  0.0215
 8105TIP3    H124279   4.598   2.779   2.219 -0.5938 -0.4303 -1.9838
 8105TIP3    H224280   4.491   2.677   2.252 -0.1638 -1.0268 -2.4096
 8106TIP3   OH224281   4.211   4.616   5.611  0.3613  0.0742  0.0290
 8106TIP3    H124282   4.198   4.703   5.649 -0.2172 -0.0297  0.0739
 8106TIP3    H224283   4.152   4.559   5.660 -1.8249  0.2576 -2.1658
 8107TIP3   OH224284   2.337   6.092   1.303 -0.2691 -0.2054 -0.1000
 8107TIP3    H124285   2.403   6.056   1.362 -0.2945  0.5143  0.3692
 8107TIP3    H224286   2.355   6.186   1.300 -1.5123  0.0715  0.3466
 8108TIP3   OH224287   5.105   5.959   3.829 -0.1524  0.2050 -0.2218
 8108TIP3    H124288   5.166   5.992   3.895  0.3736 -0.9759 -0.1044
 8108TIP3    H224289   5.125   5.866   3.821 -2.3237 -0.3654  0.2288
 8109TIP3   OH224290   0.436   4.194   1.314 -0.0964  0.2543  0.2700
 8109TIP3    H124291   0.345   4.221   1.320 -0.3272 -0.4633  0.0856
 8109TIP3    H224292   0.441   4.113   1.364  0.0677 -0.5821 -1.0394
 8110TIP3   OH224293   1.534   1.880   3.048  0.8922 -0.1399 -0.2837
 8110TIP3    H124294   1.624   1.910   3.060  0.5854  0.4221  0.7614
 8110TIP3    H224295   1.481   1.942   3.099  0.0901 -1.5243  0.6371
 8111TIP3   OH224296   3.482   1.970   5.446 -0.0883 -0.5008 -0.5361
 8111TIP3    H124297   3.572   1.984   5.414 -0.4653 -0.7398 -1.7463
 8111TIP3    H224298   3.494   1.929   5.532  0.9729  1.5220  0.3713
 8112TIP3   OH224299   5.590   2.814   2.343 -0.3191 -0.2900 -0.0008
 8112TIP3    H124300   5.659   2.880   2.338 -1.3619  0.7536 -1.3495
 8112TIP3    H224301   5.632   2.739   2.384  1.2803  0.7330  0.3237
 8113TIP3   OH224302   5.126   1.566   1.212 -0.1753 -0.0233 -0.6785
 8113TIP3    H124303   5.161   1.597   1.295  1.3218 -2.7214 -0.2070
 8113TIP3    H224304   5.153   1.632   1.149 -1.5028  2.1821  0.9254
 8114TIP3   OH224305   3.185   3.412   2.180 -0.4941  0.2492  0.0077
 8114TIP3    H124306   3.122   3.375   2.118  1.3937 -0.3148 -1.7230
 8114TIP3    H224307   3.178   3.506   2.168 -0.5138  0.1636 -0.7349
 8115TIP3   OH224308   3.592   5.292   5.285 -0.0871  0.2001 -0.1203
 8115TIP3    H124309   3.503   5.326   5.294  0.3025  1.5838 -1.1592
 8115TIP3    H224310   3.599   5.268   5.193  0.2889 -0.9193  0.1864
 8116TIP3   OH224311   6.301   2.449   4.274 -0.5834 -0.1600 -0.2012
 8116TIP3    H124312   6.221   2.479   4.318 -0.3218  1.3916 -0.6942
 8116TIP3    H224313   6.371   2.468   4.336 -0.3279  1.0814 -0.8265
 8117TIP3   OH224314   4.741   2.128   4.837  0.4161 -0.5310 -0.5531
 8117TIP3    H124315   4.667   2.109   4.779  1.2000 -1.5205 -1.2596
 8117TIP3    H224316   4.784   2.203   4.796 -0.4110  0.3334  0.0955
 8118TIP3   OH224317   3.149   3.712   5.226 -0.0654 -0.2053 -0.0372
 8118TIP3    H124318   3.092   3.789   5.224  0.4904  0.2378  0.7114
 8118TIP3    H224319   3.112   3.657   5.296  0.5055  0.1616  0.5677
 8119TIP3   OH224320   4.387   3.427   1.631 -0.0831 -0.5202 -0.4518
 8119TIP3    H124321   4.329   3.361   1.593  1.3510 -1.3626 -1.2860
 8119TIP3    H224322   4.451   3.445   1.562  0.0284  1.1774  0.0497
 8120TIP3   OH224323   2.771   0.952   0.918 -0.4615  0.4691 -0.5827
 8120TIP3    H124324   2.732   0.914   0.997  1.3465 -0.5949 -0.1281
 8120TIP3    H224325   2.808   0.877   0.872  2.0081  1.4678 -0.3839
 8121TIP3   OH224326   0.546   3.539   5.739  0.4324 -0.0610  0.1430
 8121TIP3    H124327   0.575   3.606   5.678 -0.3775 -0.3984 -0.6279
 8121TIP3    H224328   0.467   3.502   5.699 -0.0926 -0.3172  1.3688
 8122TIP3   OH224329   2.962   2.553   4.219 -0.4638 -0.1343 -0.2017
 8122TIP3    H124330   2.958   2.637   4.266 -0.9994 -0.0243 -0.4370
 8122TIP3    H224331   2.874   2.542   4.183 -1.1108 -1.9204  1.7336
 8123TIP3   OH224332   5.340   5.333   0.431 -0.5035  0.0458 -0.4288
 8123TIP3    H124333   5.250   5.348   0.404 -0.6271  0.1259  0.0107
 8123TIP3    H224334   5.344   5.240   0.454 -1.3441  0.6578  2.6255
 8124TIP3   OH224335   6.394   4.494   5.255 -0.2700  0.1856  0.2582
 8124TIP3    H124336   6.310   4.496   5.301 -0.2023 -0.6757  0.4429
 8124TIP3    H224337   6.384   4.422   5.192  0.0503  0.5999 -0.2722
 8125TIP3   OH224338   0.134   5.738   4.409  0.0823  0.4751  0.2750
 8125TIP3    H124339   0.044   5.732   4.378  0.4233 -1.6475 -0.4336
 8125TIP3    H224340   0.136   5.682   4.487  1.2689 -1.3439 -1.0005
 8126TIP3   OH224341   2.765   6.631   4.846 -0.1082  0.0316  0.0224
 8126TIP3    H124342   2.813   6.655   4.767  0.2422  1.0373  0.5198
 8126TIP3    H224343   2.828   6.645   4.917 -0.6846 -0.0368  0.5502
 8127TIP3   OH224344   1.953   0.206   1.863  0.9058  0.4347  0.0541
 8127TIP3    H124345   1.945   0.144   1.935 -1.8331 -1.8971 -1.9988
 8127TIP3    H224346   1.985   0.287   1.904  0.0366 -0.8856  3.7402
 8128TIP3   OH224347   4.848   2.820   3.092 -0.0273  0.4009 -0.0003
 8128TIP3    H124348   4.863   2.732   3.127 -0.3928  0.9767  1.6928
 8128TIP3    H224349   4.929   2.867   3.110  1.0931 -0.1493 -2.9882
 8129TIP3   OH224350   4.015   2.259   2.606  0.3909 -0.2476 -0.2327
 8129TIP3    H124351   4.018   2.163   2.606 -1.4977 -0.3402  0.4490
 8129TIP3    H224352   3.977   2.282   2.521 -0.0801 -0.1469  0.0062
 8130TIP3   OH224353   3.034   0.958   0.129 -0.3272  0.0502 -0.3101
 8130TIP3    H124354   3.056   1.050   0.140 -1.5492  0.1311  2.1773
 8130TIP3    H224355   3.078   0.914   0.202 -0.2570 -1.2564 -1.1120
 8131TIP3   OH224356   1.996   5.487   4.782 -0.4477 -0.5397 -0.0046
 8131TIP3    H124357   1.915   5.525   4.749 -0.6284 -0.3385  0.6575
 8131TIP3    H224358   2.016   5.537   4.861  0.3348 -0.5778 -0.1690
 8132TIP3   OH224359   3.735   1.673   1.482  0.6116 -0.1590 -0.2853
 8132TIP3    H124360   3.807   1.659   1.543  0.6717  2.9291  0.5424
 8132TIP3    H224361   3.778   1.696   1.399  0.6325  1.1138  0.0553
 8133TIP3   OH224362  -0.002   3.628   0.116 -0.1232  0.0257 -0.3442
 8133TIP3    H124363   0.081   3.630   0.069 -0.5313  2.5667 -1.0909
 8133TIP3    H224364  -0.058   3.690   0.070 -3.2126 -2.9959 -1.1360
 8134TIP3   OH224365   0.288   2.848   0.222  0.1350 -0.2828 -0.2528
 8134TIP3    H124366   0.205   2.801   0.217 -0.3561 -0.0897  3.3617
 8134TIP3    H224367   0.348   2.787   0.265  0.6928  0.8952  0.7133
 8135TIP3   OH224368   0.772   6.070   4.381 -0.4304  0.6825  0.6933
 8135TIP3    H124369   0.710   5.997   4.389 -1.5396  1.2986 -1.3359
 8135TIP3    H224370   0.850   6.030   4.341 -0.1142  0.2039  1.7529
 8136TIP3   OH224371   1.809   5.863   0.850  0.4243  0.2787 -0.2293
 8136TIP3    H124372   1.901   5.888   0.840  0.2636  0.7535 -0.5348
 8136TIP3    H224373   1.798   5.848   0.944  0.8522  0.0753 -0.2117
 8137TIP3   OH224374   1.050   1.979   0.864 -0.4107 -0.3799 -0.4056
 8137TIP3    H124375   1.101   1.986   0.783 -1.3400  0.2396 -0.9683
 8137TIP3    H224376   1.018   2.068   0.880 -0.2616 -0.5009  0.6456
 8138TIP3   OH224377   4.307   4.656   1.423  0.4708  0.0380  0.0769
 8138TIP3    H124378   4.288   4.572   1.463 -0.9781 -0.7628 -2.0897
 8138TIP3    H224379   4.339   4.633   1.335 -1.9428  1.6999 -1.3509
 8139TIP3   OH224380   2.398   2.659   5.641  0.0823  0.0017 -0.6199
 8139TIP3    H124381   2.401   2.650   5.546 -0.0652 -0.3926 -0.5920
 8139TIP3    H224382   2.343   2.736   5.656  4.0705  3.2541 -0.9484
 8140TIP3   OH224383   5.758   6.045   2.750  0.2784 -0.6285  0.6254
 8140TIP3    H124384   5.782   6.035   2.658  2.4730  1.5796  0.8663
 8140TIP3    H224385   5.698   5.973   2.767 -0.1532 -1.1450 -2.5057
 8141TIP3   OH224386   4.753   3.064   1.048  0.1865  0.2508 -0.7358
 8141TIP3    H124387   4.669   3.109   1.044  1.2624  2.3893 -0.6941
 8141TIP3    H224388   4.730   2.972   1.056 -2.1576  0.9109  1.5318
 8142TIP3   OH224389   4.195   6.063   0.863  0.1552  0.1698 -0.7325
 8142TIP3    H124390   4.113   6.061   0.813  0.3155 -0.1800 -0.9872
 8142TIP3    H224391   4.227   5.973   0.859  0.3018  0.1994 -0.2161
 8143TIP3   OH224392   2.277   0.920   0.356 -0.1009  0.3961  0.5689
 8143TIP3    H124393   2.303   0.906   0.265 -1.0729 -0.3296  0.3846
 8143TIP3    H224394   2.294   1.013   0.372  0.2341  0.4890 -0.2982
 8144TIP3   OH224395   0.528   3.498   3.452 -0.1535  0.3609 -0.4458
 8144TIP3    H124396   0.475   3.491   3.532  0.8285 -0.0653  0.1920
 8144TIP3    H224397   0.543   3.592   3.442  0.6207  0.3605  0.5092
 8145TIP3   OH224398   7.146   3.351   4.058 -0.2001  0.2997 -0.2540
 8145TIP3    H124399   7.087   3.381   3.989  0.4211  0.3129 -0.7865
 8145TIP3    H224400   7.189   3.274   4.022 -0.3931 -0.1280  0.3959
 8146TIP3   OH224401   1.280   4.829   5.223  0.0460  0.2976  0.4112
 8146TIP3    H124402   1.315   4.902   5.173  0.0366  1.0686  1.5061
 8146TIP3    H224403   1.192   4.816   5.189 -0.8546  2.3738  1.7974
 8147TIP3   OH224404   6.555   4.457   3.401  0.0508  0.0887 -0.4389
 8147TIP3    H124405   6.608   4.490   3.473  0.0018  0.8045 -0.7198
 8147TIP3    H224406   6.487   4.523   3.390  0.2841  0.1796 -1.3920
 8148TIP3   OH224407   5.764   1.085   2.335 -0.3891  0.0058  0.2351
 8148TIP3    H124408   5.850   1.059   2.369  0.6050  0.4980 -1.7221
 8148TIP3    H224409   5.702   1.027   2.379  1.0472 -1.0305  0.9828
 8149TIP3   OH224410   5.490   3.520   2.220 -0.1890 -0.1317 -0.0880
 8149TIP3    H124411   5.582   3.543   2.226  0.0739 -1.0542 -0.4271
 8149TIP3    H224412   5.464   3.500   2.310 -0.1609  0.4995  0.0610
 8150TIP3   OH224413   4.452   2.579   3.019  0.4739  0.0440  0.1273
 8150TIP3    H124414   4.434   2.597   3.111  1.5785 -0.8145  0.5244
 8150TIP3    H224415   4.366   2.583   2.977 -0.1263 -0.2122  1.3037
 8151TIP3   OH224416   4.765   1.745   0.369 -0.1951  0.4117  0.6975
 8151TIP3    H124417   4.766   1.828   0.322 -1.0160  0.9902  1.6573
 8151TIP3    H224418   4.749   1.769   0.460  2.8547 -0.5372  1.6098
 8152TIP3   OH224419   0.525   4.099   1.705 -0.1353 -0.3011 -0.2789
 8152TIP3    H124420   0.437   4.101   1.666 -1.2595 -0.9466  2.0127
 8152TIP3    H224421   0.562   4.185   1.685 -2.0675  0.7296  0.3020
 8153TIP3   OH224422   1.702   3.194   4.500  0.9758 -0.1998 -0.1114
 8153TIP3    H124423   1.787   3.231   4.477 -0.2345  0.9507 -3.1921
 8153TIP3    H224424   1.712   3.099   4.487  1.5493  0.0148 -1.2715
 8154TIP3   OH224425   3.334   2.436   1.559  0.5655 -0.0854 -0.4092
 8154TIP3    H124426   3.299   2.456   1.645 -0.3733  2.6686 -1.3221
 8154TIP3    H224427   3.303   2.348   1.540  1.3126 -1.0119  2.2431
 8155TIP3   OH224428   6.110   2.746   5.456 -0.2900  0.1489 -0.1025
 8155TIP3    H124429   6.178   2.727   5.522 -0.3218 -2.0523 -0.6378
 8155TIP3    H224430   6.158   2.786   5.384  0.5403 -1.6734 -0.6032
 8156TIP3   OH224431   1.831   5.340   0.647  0.3223 -0.4428 -0.3332
 8156TIP3    H124432   1.847   5.413   0.706 -0.5688 -1.9954  1.9765
 8156TIP3    H224433   1.737   5.342   0.632  0.3290 -0.9602 -0.4612
 8157TIP3   OH224434   7.170   1.960   2.950 -0.1825  0.4409 -0.2545
 8157TIP3    H124435   7.113   2.037   2.951 -0.4578  0.2747 -1.4269
 8157TIP3    H224436   7.124   1.896   3.005 -0.9301  0.4483 -0.8608
 8158TIP3   OH224437   6.602   4.388   4.940 -0.5041 -0.0952  0.2348
 8158TIP3    H124438   6.527   4.357   4.990 -0.2644 -0.7272  0.2173
 8158TIP3    H224439   6.575   4.472   4.904 -0.9818 -0.0377  0.7246
 8159TIP3   OH224440   6.837   3.370   5.312  0.0085  0.1224  0.2186
 8159TIP3    H124441   6.824   3.388   5.405  1.2308 -0.8939  0.6186
 8159TIP3    H224442   6.843   3.274   5.307  1.8805  0.2479 -0.6024
 8160TIP3   OH224443   6.003   4.917   5.019  0.3695 -0.1554  0.1765
 8160TIP3    H124444   5.961   4.831   5.017 -1.8783  0.8565 -2.4758
 8160TIP3    H224445   5.961   4.962   5.092 -2.1539  0.2479 -1.3934
 8161TIP3   OH224446   3.095   2.475   5.872  0.3185 -0.5472 -0.1005
 8161TIP3    H124447   3.161   2.443   5.812  0.7950  1.8342 -0.9795
 8161TIP3    H224448   3.042   2.536   5.820 -0.5011  0.0823  1.3899
 8162TIP3   OH224449   4.892   0.390   0.298  0.3399 -0.7622 -0.2993
 8162TIP3    H124450   4.851   0.350   0.221 -5.2906 -0.8301  2.2131
 8162TIP3    H224451   4.878   0.484   0.285  2.0346 -0.5062 -0.5195
 8163TIP3   OH224452   7.006   3.961   5.612  0.5317 -0.3861  0.5491
 8163TIP3    H124453   7.035   3.990   5.525 -0.7791 -1.4903 -0.2953
 8163TIP3    H224454   7.014   3.866   5.609 -0.5767 -0.5088  1.2358
 8164TIP3   OH224455   3.893   3.338   1.138  0.0119  0.6753  0.0812
 8164TIP3    H124456   3.930   3.338   1.049 -0.1798 -2.4677 -0.1369
 8164TIP3    H224457   3.966   3.313   1.194 -0.2703  0.9217  0.5603
 8165TIP3   OH224458   2.907   3.886   5.477 -0.2555 -0.0996 -0.4380
 8165TIP3    H124459   2.954   3.879   5.394 -0.0497  0.7889 -0.4065
 8165TIP3    H224460   2.861   3.803   5.485  1.1670 -0.9397 -0.5535
 8166TIP3   OH224461   4.035   6.775   5.813  0.1362  0.3669  0.1103
 8166TIP3    H124462   4.023   6.757   5.906  0.4572  2.7779  0.6744
 8166TIP3    H224463   3.946   6.785   5.779  0.0635  1.2191  0.5434
 8167TIP3   OH224464   6.976   0.352   5.644 -0.6045 -0.6903 -0.0286
 8167TIP3    H124465   6.982   0.322   5.553  1.2983 -1.7458  0.4020
 8167TIP3    H224466   6.935   0.438   5.638 -1.0670 -0.9949 -1.8245
 8168TIP3   OH224467   3.369   1.298   0.470 -0.3427  0.1121  0.2576
 8168TIP3    H124468   3.400   1.240   0.400  0.8015  1.3330 -0.2955
 8168TIP3    H224469   3.303   1.353   0.427 -0.5181  0.0531  0.4521
 8169TIP3   OH224470   1.316   0.333   3.052 -0.0658  0.3627 -0.2093
 8169TIP3    H124471   1.348   0.303   2.967 -0.4800  0.1144 -0.2825
 8169TIP3    H224472   1.386   0.387   3.087  0.2990  0.0795 -0.5014
 8170TIP3   OH224473   7.154   1.601   1.305 -0.0308 -0.0050 -0.0260
 8170TIP3    H124474   7.224   1.664   1.289  0.6258 -0.7873 -0.3318
 8170TIP3    H224475   7.092   1.616   1.233 -0.0776  0.5360  0.1184
 8171TIP3   OH224476   4.197   6.366   4.959 -0.0198 -0.0616  0.2628
 8171TIP3    H124477   4.145   6.290   4.983  1.5049 -1.3868 -0.3997
 8171TIP3    H224478   4.184   6.375   4.865  0.7606 -0.2820  0.1259
 8172TIP3   OH224479   2.388   5.092   4.040 -0.4785 -0.4058 -0.3480
 8172TIP3    H124480   2.374   5.039   4.118  2.0536 -0.5154  0.1233
 8172TIP3    H224481   2.337   5.172   4.056 -2.5420 -1.7039 -0.0745
 8173TIP3   OH224482   1.596   6.556   3.165  0.4209 -0.2152 -0.6766
 8173TIP3    H124483   1.646   6.486   3.208 -2.4184 -2.3238 -0.5113
 8173TIP3    H224484   1.610   6.633   3.220 -0.1011 -1.8828  1.9567
 8174TIP3   OH224485   7.115   4.548   4.329 -0.7179  0.1224  0.0774
 8174TIP3    H124486   7.141   4.639   4.339  1.1336 -0.4656  1.1993
 8174TIP3    H224487   7.019   4.550   4.322 -0.8209  2.0435  1.4294
 8175TIP3   OH224488   1.418   3.986   0.245  0.2907  0.8183 -0.0338
 8175TIP3    H124489   1.391   3.942   0.326 -0.1092  1.5352  0.2249
 8175TIP3    H224490   1.469   4.061   0.274  1.0939  0.4588 -0.4817
 8176TIP3   OH224491   2.981   1.592   5.295 -0.3963 -0.2166 -0.2566
 8176TIP3    H124492   2.913   1.600   5.229  0.5601  1.1075 -1.1194
 8176TIP3    H224493   3.056   1.639   5.259 -0.0595  1.1434  2.0463
 8177TIP3   OH224494   3.210   3.740   1.569 -0.7810  0.2358  0.4409
 8177TIP3    H124495   3.129   3.693   1.550 -0.1407 -0.4086 -0.8052
 8177TIP3    H224496   3.263   3.679   1.621 -1.0252  0.6137  1.1557
 8178TIP3   OH224497   4.499   6.704   0.715  0.2025  0.3549  0.1158
 8178TIP3    H124498   4.542   6.744   0.791  1.9067 -0.0510 -0.5899
 8178TIP3    H224499   4.522   6.761   0.642  2.6293 -1.7331 -0.9046
 8179TIP3   OH224500   1.372   4.989   4.302 -0.3051  0.4594 -0.1964
 8179TIP3    H124501   1.399   5.024   4.217 -0.5328 -0.6651 -0.7491
 8179TIP3    H224502   1.454   4.974   4.349 -0.0709 -0.5537 -0.8991
 8180TIP3   OH224503   2.322   6.675   1.586 -0.6887 -0.1871 -0.0935
 8180TIP3    H124504   2.408   6.710   1.608 -0.9288 -0.0491  0.6637
 8180TIP3    H224505   2.300   6.716   1.503  0.7871 -1.6762 -1.2634
 8181TIP3   OH224506   3.874   3.463   2.378  0.0856 -0.4587 -0.1548
 8181TIP3    H124507   3.943   3.429   2.321 -0.4972 -0.9496 -0.5874
 8181TIP3    H224508   3.793   3.451   2.327 -0.3228  0.0464  0.3650
 8182TIP3   OH224509   5.688   6.645   4.049 -0.9360 -0.2239  0.0041
 8182TIP3    H124510   5.748   6.573   4.065  0.9651  1.6846  2.1668
 8182TIP3    H224511   5.617   6.606   3.997  0.6542 -3.2582 -0.1185
 8183TIP3   OH224512   5.598   2.047   1.684 -0.0424 -0.2985 -0.2089
 8183TIP3    H124513   5.515   2.094   1.697  0.0119 -0.0228 -0.8248
 8183TIP3    H224514   5.583   1.960   1.723 -0.2508  0.1125  0.6461
 8184TIP3   OH224515   7.091   2.512   5.377  0.1280  0.3354  0.0897
 8184TIP3    H124516   7.022   2.528   5.313 -0.8897 -1.6402  0.5795
 8184TIP3    H224517   7.055   2.544   5.460  0.7206  1.2870 -0.0076
 8185TIP3   OH224518   3.607   3.374   3.401 -0.1877  0.1334 -0.2919
 8185TIP3    H124519   3.585   3.460   3.364  1.7642  0.4560 -0.8066
 8185TIP3    H224520   3.695   3.386   3.438  0.3593 -1.7951 -0.8905
 8186TIP3   OH224521   3.101   3.969   1.412  0.2981  0.3618 -0.1060
 8186TIP3    H124522   3.072   4.042   1.359  0.0530  1.1389  1.0596
 8186TIP3    H224523   3.168   3.925   1.359 -0.8201  0.3542 -1.5501
 8187TIP3   OH224524   7.137   1.576   4.102 -0.1963 -0.1499 -0.2809
 8187TIP3    H124525   7.060   1.631   4.117 -0.3302 -0.1917 -0.8242
 8187TIP3    H224526   7.102   1.488   4.092  0.0685 -0.4835  1.3251
 8188TIP3   OH224527   2.342   0.003   4.707  0.0717 -0.1968 -0.8003
 8188TIP3    H124528   2.303   0.059   4.639 -1.8469 -0.7191 -0.1880
 8188TIP3    H224529   2.297   0.028   4.787  0.0126 -1.7791 -0.3042
 8189TIP3   OH224530   4.093   5.130   1.803 -0.1835 -0.4500  0.2911
 8189TIP3    H124531   4.130   5.154   1.718 -0.3400 -2.0066 -0.2562
 8189TIP3    H224532   4.086   5.212   1.850  0.1630  0.4197 -1.1056
 8190TIP3   OH224533   1.280   3.336   3.593 -0.9481 -0.1909 -0.1390
 8190TIP3    H124534   1.260   3.264   3.533  0.8466 -1.8275  1.1065
 8190TIP3    H224535   1.267   3.300   3.680  0.1161  0.9530  0.5305
 8191TIP3   OH224536   3.347   2.227   2.573 -0.0727  0.2223 -0.2391
 8191TIP3    H124537   3.437   2.240   2.603  0.0102 -0.7402 -0.0432
 8191TIP3    H224538   3.308   2.314   2.577  0.9527  0.7227 -0.6673
 8192TIP3   OH224539   1.916   5.843   3.662  0.2106  0.3080  0.3395
 8192TIP3    H124540   1.849   5.888   3.712 -0.3547 -1.3723  1.1887
 8192TIP3    H224541   1.898   5.750   3.676  2.2590 -0.2077 -0.0198
 8193TIP3   OH224542   7.195   4.094   0.100  0.1695 -0.2606  0.3945
 8193TIP3    H124543   7.255   4.029   0.136 -1.2771 -0.6178  2.3024
 8193TIP3    H224544   7.113   4.046   0.086 -0.1262  0.5426 -0.8100
 8194TIP3   OH224545   3.446   1.536   4.321  0.1058  0.6368 -0.7099
 8194TIP3    H124546   3.487   1.527   4.407  1.1835  0.6144 -1.2101
 8194TIP3    H224547   3.450   1.631   4.303 -1.1302  0.7798 -0.2550
 8195TIP3   OH224548   3.415   0.624   1.933 -0.5244 -0.0613 -0.0138
 8195TIP3    H124549   3.372   0.590   1.855  0.4977 -0.6650 -0.3332
 8195TIP3    H224550   3.509   0.620   1.913 -0.3035  2.2745  0.2111
 8196TIP3   OH224551   1.209   2.413   4.531 -0.2710 -0.7973  0.0705
 8196TIP3    H124552   1.269   2.401   4.605  1.6897  0.1453 -1.2796
 8196TIP3    H224553   1.182   2.505   4.538 -1.3861 -1.1518  0.5268
 8197TIP3   OH224554   0.395   1.898   4.287  0.4480  0.8379  0.1250
 8197TIP3    H124555   0.464   1.874   4.225  0.3488 -1.2114  0.7400
 8197TIP3    H224556   0.319   1.847   4.260  0.9932 -1.7873  3.0826
 8198TIP3   OH224557   6.609   2.013   4.641 -0.3503 -0.2831  0.0042
 8198TIP3    H124558   6.624   1.924   4.609  2.7890 -0.3138  1.1800
 8198TIP3    H224559   6.620   2.068   4.563  1.0557 -0.7617 -0.1717
 8199TIP3   OH224560   5.780   4.365   5.561  0.3223  0.1723  0.3021
 8199TIP3    H124561   5.748   4.454   5.578  1.4847  0.8508 -0.8730
 8199TIP3    H224562   5.718   4.308   5.606  0.0423  1.6119  1.8054
 8200TIP3   OH224563   4.963   2.769   0.505 -0.2326  0.5669  0.0235
 8200TIP3    H124564   5.004   2.688   0.475 -1.4467  0.3813 -1.2539
 8200TIP3    H224565   4.873   2.744   0.525 -1.2713  1.9441 -2.4916
 8201TIP3   OH224566   6.173   6.655   3.926  0.6139 -0.0689  0.3387
 8201TIP3    H124567   6.156   6.747   3.905 -0.7499 -0.3669  0.0383
 8201TIP3    H224568   6.164   6.650   4.021 -2.7783 -0.4816  0.1154
 8202TIP3   OH224569   5.865   6.767   5.743  0.4831 -0.3260  0.0009
 8202TIP3    H124570   5.845   6.749   5.834  0.0655 -0.7788 -0.1745
 8202TIP3    H224571   5.804   6.712   5.693 -0.4723  1.1740 -0.5731
 8203TIP3   OH224572   0.978   4.885   3.189 -0.0676  0.0822 -0.8615
 8203TIP3    H124573   0.989   4.926   3.103  1.4054 -0.3546 -0.9026
 8203TIP3    H224574   1.002   4.793   3.175 -0.8671 -0.2451 -0.2030
 8204TIP3   OH224575   2.610   3.349   0.537 -0.0692  0.2425 -0.2589
 8204TIP3    H124576   2.553   3.392   0.473 -0.9684  1.2083  1.1509
 8204TIP3    H224577   2.694   3.338   0.491 -0.3341  1.9824 -1.2130
 8205TIP3   OH224578   2.072   2.557   2.590 -0.1551 -0.3434 -0.7374
 8205TIP3    H124579   2.070   2.541   2.496 -0.3866 -0.1730 -0.7613
 8205TIP3    H224580   1.980   2.556   2.616 -0.2644  1.9842 -0.8983
 8206TIP3   OH224581   4.048   2.503   1.413 -0.2318  0.4703 -0.1744
 8206TIP3    H124582   4.038   2.548   1.329  0.7821  3.1061  0.9974
 8206TIP3    H224583   4.048   2.574   1.478  1.2673 -1.2706  1.8608
 8207TIP3   OH224584   4.685   4.765   3.314 -0.3170  0.1263  0.2257
 8207TIP3    H124585   4.745   4.695   3.341  1.1963  1.5002  0.5406
 8207TIP3    H224586   4.635   4.726   3.242  0.5089 -1.2751  0.3627
 8208TIP3   OH224587   4.856   4.068   4.803  0.2161  0.9315 -0.2813
 8208TIP3    H124588   4.779   4.110   4.839  0.4770 -0.4309  2.0699
 8208TIP3    H224589   4.822   3.991   4.757  0.1293  0.3603  0.7085
 8209TIP3   OH224590   0.987   0.177   5.563 -0.2880  0.0236  0.1665
 8209TIP3    H124591   1.011   0.130   5.643 -0.2612  2.0831  1.4480
 8209TIP3    H224592   0.897   0.206   5.578  0.3677  2.1099  0.3531
 8210TIP3   OH224593   5.099   2.863   4.670  0.2530 -0.1751 -0.3502
 8210TIP3    H124594   5.107   2.895   4.759 -0.3511 -1.9295  0.3767
 8210TIP3    H224595   5.189   2.859   4.638  0.5684 -0.4648  0.5432
 8211TIP3   OH224596   1.298   3.204   0.126  0.6680  0.4642 -0.1687
 8211TIP3    H124597   1.275   3.197   0.218  0.5801  0.9918 -0.1483
 8211TIP3    H224598   1.392   3.189   0.122  0.7424  0.8718  0.0583
 8212TIP3   OH224599   2.698   5.117   4.852 -0.3296 -0.2520 -0.3249
 8212TIP3    H124600   2.792   5.098   4.847  0.4709  2.8457  0.5965
 8212TIP3    H224601   2.674   5.096   4.942  0.3613  1.9956  0.4518
 8213TIP3   OH224602   0.746   5.957   1.494  0.1959  0.7059  0.5435
 8213TIP3    H124603   0.718   6.044   1.522  0.6155  0.7625  0.7922
 8213TIP3    H224604   0.790   5.971   1.411 -2.6020  0.3343 -1.1423
 8214TIP3   OH224605   1.394   0.471   0.294  0.0554 -0.2733 -0.1872
 8214TIP3    H124606   1.299   0.479   0.300 -0.0826 -2.3993  1.3454
 8214TIP3    H224607   1.411   0.377   0.298  2.2637  0.0877  0.0721
 8215TIP3   OH224608   1.837   1.002   4.692  0.0995  0.2806 -0.3197
 8215TIP3    H124609   1.837   1.036   4.781  0.2855 -0.1307 -0.1573
 8215TIP3    H224610   1.781   1.062   4.643 -0.2473  0.3407  0.1427
 8216TIP3   OH224611   1.045   2.701   5.248  0.1447  0.6626  0.3174
 8216TIP3    H124612   1.104   2.776   5.244  0.7550  0.2317  0.8805
 8216TIP3    H224613   0.959   2.738   5.269 -0.2343  1.4972 -2.3720
 8217TIP3   OH224614   3.564   4.464   4.970 -0.2088  0.0959 -0.0531
 8217TIP3    H124615   3.505   4.478   4.896  0.9903 -2.2572 -1.5480
 8217TIP3    H224616   3.570   4.369   4.979 -0.2770  0.2691  3.1132
 8218TIP3   OH224617   6.582   4.997   2.444  0.2738 -0.4362  0.3066
 8218TIP3    H124618   6.640   4.929   2.409  1.3142  0.4181  0.3222
 8218TIP3    H224619   6.528   5.024   2.370  1.3355  0.2119 -0.2517
 8219TIP3   OH224620   6.220   2.800   2.036 -0.0836 -0.5389  0.3878
 8219TIP3    H124621   6.198   2.737   1.968 -1.6663 -0.9005  1.1866
 8219TIP3    H224622   6.236   2.882   1.989  0.9378 -1.2625 -0.5699
 8220TIP3   OH224623   0.207   5.549   2.776 -0.0797 -0.1073  0.8274
 8220TIP3    H124624   0.235   5.597   2.698 -0.6129  1.5385  1.5974
 8220TIP3    H224625   0.286   5.543   2.830 -0.6649  2.9507  2.2046
 8221TIP3   OH224626   6.280   4.646   2.277 -1.0324 -0.2146 -0.1347
 8221TIP3    H124627   6.247   4.563   2.244 -0.6158 -0.6253  0.4680
 8221TIP3    H224628   6.373   4.631   2.290 -1.0686  0.1431  0.5861
 8222TIP3   OH224629   2.248   6.292   0.201  0.2391 -0.2287  0.1249
 8222TIP3    H124630   2.199   6.235   0.142  0.7127 -1.1341  0.5781
 8222TIP3    H224631   2.210   6.378   0.189 -1.5601 -0.9113  0.5488
 8223TIP3   OH224632   3.694   2.706   5.861 -0.1092 -0.4442 -0.1853
 8223TIP3    H124633   3.750   2.644   5.815 -0.1763  0.7285 -1.9602
 8223TIP3    H224634   3.611   2.660   5.873  0.0037 -0.8778 -1.0160
 8224TIP3   OH224635   4.709   4.227   0.602  0.1100  0.2068 -0.5765
 8224TIP3    H124636   4.801   4.233   0.575  0.1220  0.9371 -0.3952
 8224TIP3    H224637   4.712   4.230   0.698 -0.0687 -0.3487 -0.5497
 8225TIP3   OH224638   5.561   1.361   2.589 -0.3463  0.2194  0.1684
 8225TIP3    H124639   5.473   1.335   2.617 -1.0567  0.8763 -1.3782
 8225TIP3    H224640   5.607   1.278   2.574 -0.1226 -0.1597  2.5570
 8226TIP3   OH224641   0.293   0.186   3.781  0.3379 -0.8083 -0.0941
 8226TIP3    H124642   0.259   0.268   3.815  1.6300 -0.1503 -0.3155
 8226TIP3    H224643   0.294   0.127   3.857  2.7427  0.4949  1.0275
 8227TIP3   OH224644   5.888   4.554   3.848  0.3185 -0.4573 -0.4106
 8227TIP3    H124645   5.906   4.601   3.930  3.2281  0.1452 -1.2724
 8227TIP3    H224646   5.838   4.477   3.875  1.4822 -0.4550  1.9969
 8228TIP3   OH224647   3.291   1.335   1.754 -0.3124 -1.0094  0.0206
 8228TIP3    H124648   3.321   1.401   1.816  0.4785 -2.5855  1.4081
 8228TIP3    H224649   3.229   1.282   1.804 -1.6222 -0.8232 -1.3284
 8229TIP3   OH224650   1.637   5.030   0.373  0.1593  0.2087 -0.4144
 8229TIP3    H124651   1.700   5.012   0.442  0.5941  0.4870 -0.7383
 8229TIP3    H224652   1.650   4.959   0.310 -0.4087 -0.1878 -0.1006
 8230TIP3   OH224653   6.759   1.575   0.094 -0.0681 -0.2302  0.6748
 8230TIP3    H124654   6.784   1.613   0.178 -1.5887 -1.3196  1.6745
 8230TIP3    H224655   6.683   1.627   0.066  0.2322 -0.0796  0.1255
 8231TIP3   OH224656   1.593   1.637   1.828  0.0673  0.0062 -0.1267
 8231TIP3    H124657   1.628   1.592   1.905 -0.0052  1.3598  0.7209
 8231TIP3    H224658   1.581   1.728   1.856  1.1685  0.8218 -2.0780
 8232TIP3   OH224659   5.189   4.172   4.816 -0.2285 -0.0893 -0.0777
 8232TIP3    H124660   5.096   4.182   4.834 -0.1960 -0.8440  0.6051
 8232TIP3    H224661   5.225   4.260   4.825 -0.5219 -0.1273  1.9183
 8233TIP3   OH224662   5.505   5.307   2.695 -0.1694  0.1190  0.0530
 8233TIP3    H124663   5.437   5.346   2.640  2.3690  0.2166 -3.3448
 8233TIP3    H224664   5.485   5.214   2.696  1.0799 -0.3528 -3.5642
 8234TIP3   OH224665   0.228   6.012   2.640 -0.5087  0.0387  0.0482
 8234TIP3    H124666   0.238   6.036   2.732  2.2333 -0.8578  0.0637
 8234TIP3    H224667   0.175   6.083   2.603  1.3949  2.4345  1.5611
 8235TIP3   OH224668   2.430   3.435   0.333  0.1073 -0.8977 -0.6285
 8235TIP3    H124669   2.346   3.427   0.379  1.8304  0.9695  3.3527
 8235TIP3    H224670   2.419   3.515   0.280 -0.2779  0.1695  0.9662
 8236TIP3   OH224671   2.236   5.875   2.337  0.9417 -0.0187  0.6005
 8236TIP3    H124672   2.243   5.945   2.403  2.1330  2.2243 -1.7050
 8236TIP3    H224673   2.144   5.848   2.340  0.6454  1.0033  2.1790
 8237TIP3   OH224674   2.973   2.595   0.458 -0.1215  0.4814 -0.4723
 8237TIP3    H124675   2.964   2.570   0.550  2.0714  0.1243 -0.3077
 8237TIP3    H224676   3.063   2.573   0.436 -0.3010  1.5263 -2.4345
 8238TIP3   OH224677   5.100   0.150   0.064  0.0427 -0.2224  0.0211
 8238TIP3    H124678   5.045   0.209   0.013  0.4568  1.6258  1.6008
 8238TIP3    H224679   5.044   0.120   0.135  0.0721 -1.1327 -0.3288
 8239TIP3   OH224680   0.227   5.791   0.318  0.2232 -0.2926 -0.4465
 8239TIP3    H124681   0.199   5.829   0.401 -0.1672 -0.7719 -0.3502
 8239TIP3    H224682   0.181   5.842   0.251  0.3883 -0.0282 -0.3560
 8240TIP3   OH224683   0.084   5.697   1.187 -0.0440  0.4034  0.3075
 8240TIP3    H124684   0.010   5.719   1.131 -0.1007  1.0059  0.6068
 8240TIP3    H224685   0.124   5.620   1.146 -0.9079 -0.0100  0.2117
 8241TIP3   OH224686   3.383   5.731   1.979 -0.2067 -0.2822 -0.0903
 8241TIP3    H124687   3.447   5.660   1.973  0.3163  0.2841 -1.4342
 8241TIP3    H224688   3.428   5.802   2.024 -0.8768 -0.9169  1.6792
 8242TIP3   OH224689   0.377   5.375   5.055  0.1191 -0.3609  0.4496
 8242TIP3    H124690   0.328   5.303   5.015 -0.7136 -0.5849  1.8121
 8242TIP3    H224691   0.416   5.337   5.134 -1.3152  0.9343  1.8490
 8243TIP3   OH224692   1.254   5.230   4.612 -0.0190 -0.0796  0.4194
 8243TIP3    H124693   1.216   5.165   4.552 -0.1555 -0.2444  0.6803
 8243TIP3    H224694   1.285   5.178   4.686 -0.9833  0.2455  1.0653
 8244TIP3   OH224695   5.611   5.458   5.075  0.0822 -0.3972 -0.2530
 8244TIP3    H124696   5.668   5.434   5.148  0.5464  0.7821 -0.2086
 8244TIP3    H224697   5.663   5.521   5.025 -1.5887  1.5668  0.3805
 8245TIP3   OH224698   5.564   6.541   4.653 -0.5485 -0.2431 -0.1500
 8245TIP3    H124699   5.564   6.476   4.723  1.3779 -1.5446 -1.2715
 8245TIP3    H224700   5.541   6.491   4.575 -1.9294  1.0450 -0.6038
 8246TIP3   OH224701   3.850   0.929   1.596  0.2837  0.2940  0.2731
 8246TIP3    H124702   3.884   0.885   1.674 -0.9250 -1.2965 -0.0523
 8246TIP3    H224703   3.774   0.876   1.570 -2.1863  3.3347  0.6723
 8247TIP3   OH224704   5.195   2.948   1.021  0.6581 -0.2858  0.6796
 8247TIP3    H124705   5.262   2.937   1.089  0.9454 -0.4751  0.3698
 8247TIP3    H224706   5.115   2.968   1.070  0.4596 -2.1427  1.2253
 8248TIP3   OH224707   5.530   5.467   0.973  0.0965 -0.4235 -0.3830
 8248TIP3    H124708   5.503   5.378   0.949 -0.9750  0.0918 -1.1279
 8248TIP3    H224709   5.583   5.497   0.899 -1.2633  0.2983 -1.1049
 8249TIP3   OH224710   3.337   6.552   5.324 -0.0310  0.0208 -0.2213
 8249TIP3    H124711   3.431   6.536   5.329 -0.1654 -0.5537  0.6113
 8249TIP3    H224712   3.298   6.465   5.320 -0.7614 -0.0975  4.2380
 8250TIP3   OH224713   2.994   2.147   4.490 -0.7407 -0.2604 -0.3576
 8250TIP3    H124714   3.002   2.067   4.438 -1.5611 -0.6187  0.0505
 8250TIP3    H224715   3.074   2.149   4.543 -0.5809 -0.6553 -0.5746
 8251TIP3   OH224716   3.045   3.010   3.104 -0.5657  0.4991  0.3021
 8251TIP3    H124717   3.023   2.926   3.143 -0.3730  0.5989  0.6330
 8251TIP3    H224718   3.087   3.059   3.175 -1.5716  1.2501  0.4049
 8252TIP3   OH224719   4.603   5.297   3.539 -0.0961  0.0677 -0.5206
 8252TIP3    H124720   4.681   5.242   3.529 -1.4689 -1.9240 -0.9016
 8252TIP3    H224721   4.576   5.283   3.630  0.6503  1.7308 -0.0140
 8253TIP3   OH224722   3.231   3.160   5.003 -0.3261 -0.3180 -0.1082
 8253TIP3    H124723   3.158   3.134   4.948 -1.0440  0.9121  0.2118
 8253TIP3    H224724   3.190   3.196   5.082  0.6440 -0.3268  0.4223
 8254TIP3   OH224725   3.161   3.611   1.192  0.1128 -0.2588  0.3196
 8254TIP3    H124726   3.080   3.661   1.204  0.0239 -0.1616 -0.5857
 8254TIP3    H224727   3.219   3.642   1.261 -0.0529  0.8809 -0.0377
 8255TIP3   OH224728   4.680   2.853   4.805  0.3505  0.1328  0.2784
 8255TIP3    H124729   4.727   2.916   4.749  0.0134 -0.1849 -0.3752
 8255TIP3    H224730   4.589   2.883   4.803 -0.0003 -0.8981 -0.8259
 8256TIP3   OH224731   0.661   3.712   1.526  0.9509  0.1342  0.0417
 8256TIP3    H124732   0.707   3.774   1.470  1.4555  0.8342  1.1829
 8256TIP3    H224733   0.720   3.636   1.531  0.4953 -0.3152 -1.0662
 8257TIP3   OH224734   0.591   3.027   2.227  1.0671 -0.2359 -0.3570
 8257TIP3    H124735   0.575   3.082   2.303  0.2789  1.2720 -1.5709
 8257TIP3    H224736   0.542   2.947   2.245  0.3848  0.3433  0.4414
 8258TIP3   OH224737   5.367   2.561   3.636  0.4613 -0.0669 -0.4439
 8258TIP3    H124738   5.404   2.476   3.612  1.5230  0.4890 -0.8659
 8258TIP3    H224739   5.325   2.546   3.721 -0.0206 -1.1754 -0.8614
 8259TIP3   OH224740   5.264   3.159   4.597 -0.4518 -0.0118  0.3359
 8259TIP3    H124741   5.310   3.076   4.582  0.8942  0.7862 -0.0668
 8259TIP3    H224742   5.291   3.185   4.685  2.2333  1.8640 -0.9219
 8260TIP3   OH224743   7.177   1.358   1.841 -0.1626  0.1706 -0.0313
 8260TIP3    H124744   7.169   1.275   1.889 -2.4225  0.1537 -0.3384
 8260TIP3    H224745   7.174   1.426   1.908  1.1662  0.0622  0.1734
 8261TIP3   OH224746   1.405   2.826   0.558 -0.0925 -0.5916 -0.0993
 8261TIP3    H124747   1.320   2.788   0.537 -0.2687 -0.4634  0.3552
 8261TIP3    H224748   1.469   2.771   0.512 -0.4582 -0.2395 -1.0524
 8262TIP3   OH224749   6.946   5.928   4.777  0.2432 -0.5230 -0.4388
 8262TIP3    H124750   7.031   5.962   4.804 -0.3901  3.0409 -2.3465
 8262TIP3    H224751   6.954   5.915   4.683 -1.2628 -0.2982 -0.6242
 8263TIP3   OH224752   4.973   2.182   5.504  0.2330  0.0138 -0.7344
 8263TIP3    H124753   5.055   2.220   5.475  1.0075 -1.9146 -1.2361
 8263TIP3    H224754   4.999   2.101   5.550 -1.3467 -0.3524 -0.4191
 8264TIP3   OH224755   2.863   5.506   0.414  0.1957  0.3472  0.2149
 8264TIP3    H124756   2.899   5.459   0.490  0.4289 -0.5476 -0.4386
 8264TIP3    H224757   2.903   5.593   0.419 -1.0170  0.8587  2.0158
 8265TIP3   OH224758   6.479   4.753   2.708 -0.9072  0.2990  0.4946
 8265TIP3    H124759   6.410   4.753   2.642 -1.8142  0.9308  1.3948
 8265TIP3    H224760   6.497   4.845   2.723  1.8495  0.1802 -1.3795
 8266TIP3   OH224761   2.336   2.489   3.890  0.2469 -0.0734 -0.2311
 8266TIP3    H124762   2.331   2.528   3.977 -1.5605 -0.4307 -0.1169
 8266TIP3    H224763   2.379   2.554   3.836 -0.0168  0.8103  0.5999
 8267TIP3   OH224764   0.522   6.660   3.429 -0.1532  0.2406 -0.1096
 8267TIP3    H124765   0.577   6.694   3.500  0.2207 -0.1135 -0.2248
 8267TIP3    H224766   0.554   6.571   3.414  1.1411  0.9553 -2.0712
 8268TIP3   OH224767   0.152   5.534   0.347  0.6361  0.5069 -0.0827
 8268TIP3    H124768   0.078   5.562   0.400 -2.1296  0.0464 -3.3887
 8268TIP3    H224769   0.181   5.614   0.301 -1.5449 -0.1559 -2.8899
 8269TIP3   OH224770   4.447   6.373   2.926 -0.0061 -0.4872  0.0984
 8269TIP3    H124771   4.382   6.435   2.896  0.8859 -0.0819 -1.0816
 8269TIP3    H224772   4.421   6.351   3.016 -1.0482  0.5978  0.0746
 8270TIP3   OH224773   6.143   6.047   3.152 -0.1895 -0.0654  0.3304
 8270TIP3    H124774   6.111   6.134   3.176  0.7235  0.3791 -0.0062
 8270TIP3    H224775   6.151   6.001   3.235  0.2801  0.5187  0.6208
 8271TIP3   OH224776   5.608   3.404   0.284  0.2042  0.4751 -0.0048
 8271TIP3    H124777   5.693   3.367   0.260 -0.7456 -0.9121 -1.4760
 8271TIP3    H224778   5.612   3.416   0.379  2.1591  0.7977 -0.1033
 8272TIP3   OH224779   3.627   3.156   2.865 -0.2749  0.4892 -0.5382
 8272TIP3    H124780   3.677   3.182   2.788  0.4136  1.7891  0.3172
 8272TIP3    H224781   3.660   3.069   2.887  2.1420  1.5528  0.3737
 8273TIP3   OH224782   4.132   6.177   5.168  0.3113  0.1873 -0.5010
 8273TIP3    H124783   4.211   6.124   5.179  0.9234  0.9849 -0.9529
 8273TIP3    H224784   4.080   6.158   5.246  0.3838 -1.2684 -0.7676
 8274TIP3   OH224785   4.446   5.347   5.528  0.5037  0.2481  0.2153
 8274TIP3    H124786   4.457   5.277   5.593  1.9134  1.2697  1.1448
 8274TIP3    H224787   4.438   5.301   5.445 -0.2939 -1.0627  0.9798
 8275TIP3   OH224788   6.527   4.277   3.601 -0.7571  0.3386  0.3002
 8275TIP3    H124789   6.511   4.355   3.548  0.6505  0.3606 -0.1318
 8275TIP3    H224790   6.605   4.298   3.652  0.1814 -1.1020 -0.4742
 8276TIP3   OH224791   0.481   5.779   2.703 -0.7640 -0.0262 -0.2135
 8276TIP3    H124792   0.466   5.786   2.797 -2.1734 -3.0246 -0.0728
 8276TIP3    H224793   0.394   5.791   2.663 -0.2154  1.0441 -1.1324
 8277TIP3   OH224794   2.991   5.650   4.897 -0.0577 -0.1434  0.2107
 8277TIP3    H124795   3.012   5.650   4.803 -0.0001 -1.0818  0.2189
 8277TIP3    H224796   2.929   5.578   4.908  1.0735 -0.9986  1.1437
 8278TIP3   OH224797   1.020   0.258   4.498  0.6646  0.2747 -0.1875
 8278TIP3    H124798   0.933   0.283   4.529 -0.3237 -1.0522 -1.7337
 8278TIP3    H224799   1.063   0.219   4.574 -0.8917 -0.9606  0.1064
 8279TIP3   OH224800   3.596   0.323   2.040  0.1732  0.2744 -0.1720
 8279TIP3    H124801   3.650   0.310   2.118  0.4892  2.1822 -0.0492
 8279TIP3    H224802   3.613   0.413   2.012 -3.3739  1.2418  0.2496
 8280TIP3   OH224803   6.076   5.510   4.513  0.3672  0.3712  0.1762
 8280TIP3    H124804   5.989   5.472   4.501  1.6701 -2.6044 -0.6901
 8280TIP3    H224805   6.059   5.593   4.559 -2.9073  0.1254 -0.2995
 8281TIP3   OH224806   4.709   4.721   1.047  0.0241 -0.2818  0.8421
 8281TIP3    H124807   4.772   4.676   1.103 -1.5489 -0.6278  2.4306
 8281TIP3    H224808   4.693   4.804   1.092 -0.3064  0.0049  0.2020
 8282TIP3   OH224809   1.971   5.077   1.787  0.1330  0.5461  0.2252
 8282TIP3    H124810   2.064   5.071   1.809  0.2018 -0.1941 -0.2431
 8282TIP3    H224811   1.931   5.118   1.864  0.8695  1.0382  0.3561
 8283TIP3   OH224812   5.292   5.819   4.856 -0.2961 -0.3741  0.5418
 8283TIP3    H124813   5.261   5.873   4.929 -1.1611  0.8766 -0.7031
 8283TIP3    H224814   5.272   5.729   4.882 -1.7854  0.1418  1.2924
 8284TIP3   OH224815   2.900   5.873   1.592  0.2880 -0.0002 -0.0998
 8284TIP3    H124816   2.936   5.787   1.613 -1.2808 -0.1829  2.3331
 8284TIP3    H224817   2.832   5.855   1.527 -0.9393 -0.8848  1.3442
 8285TIP3   OH224818   5.162   4.820   0.978  0.1562 -0.2958  0.7248
 8285TIP3    H124819   5.153   4.908   1.014  1.0648  0.1292 -0.0515
 8285TIP3    H224820   5.072   4.794   0.957  0.0825  1.6170 -1.7250
 8286TIP3   OH224821   2.782   3.054   1.510 -0.5541 -0.5032  0.7876
 8286TIP3    H124822   2.731   2.988   1.462 -1.1800  1.3771 -1.3204
 8286TIP3    H224823   2.865   3.058   1.463 -0.7291  0.5408  0.5427
 8287TIP3   OH224824   1.275   5.582   3.144  0.1759  0.1777 -0.3798
 8287TIP3    H124825   1.218   5.646   3.103  1.4143  1.1834 -0.6086
 8287TIP3    H224826   1.299   5.522   3.072  0.2225  0.3589 -0.5157
 8288TIP3   OH224827   6.090   2.340   3.473 -0.0659 -0.1560 -0.0335
 8288TIP3    H124828   5.995   2.337   3.462 -0.2249 -2.5009  1.3246
 8288TIP3    H224829   6.123   2.272   3.414  0.8620  1.0058 -0.9073
 8289TIP3   OH224830   5.673   1.594   1.110 -0.3861 -0.5279  0.2599
 8289TIP3    H124831   5.690   1.527   1.044 -2.5363 -0.6591 -0.2599
 8289TIP3    H224832   5.583   1.623   1.092 -0.1713  1.1931  1.6164
 8290TIP3   OH224833   2.911   5.225   2.757 -0.2399 -0.7855  0.1269
 8290TIP3    H124834   2.848   5.167   2.715 -1.6086  0.2582  0.6820
 8290TIP3    H224835   2.971   5.249   2.686 -2.6611  1.1774 -1.4388
 8291TIP3   OH224836   3.447   5.423   2.835 -0.1162  0.2392 -0.1178
 8291TIP3    H124837   3.511   5.470   2.782 -0.8623  1.8794  0.3660
 8291TIP3    H224838   3.435   5.340   2.791  3.0331 -0.5461  0.2860
 8292TIP3   OH224839   6.419   1.337   3.032 -0.2981 -0.0014 -0.0206
 8292TIP3    H124840   6.364   1.265   3.062  0.1543 -1.1692 -1.8127
 8292TIP3    H224841   6.395   1.350   2.940  0.6553  1.1559 -0.1455
 8293TIP3   OH224842   2.293   6.141   3.182 -0.1838  0.4529  0.1693
 8293TIP3    H124843   2.198   6.141   3.172  0.0377  1.4047 -3.8514
 8293TIP3    H224844   2.323   6.069   3.126  1.5011 -0.2597  1.8685
 8294TIP3   OH224845   2.211   3.728   3.392 -0.0074 -0.2769 -0.1322
 8294TIP3    H124846   2.153   3.706   3.465  1.1975 -1.1536  0.5681
 8294TIP3    H224847   2.167   3.691   3.315  0.0064 -1.6081  0.4916
 8295TIP3   OH224848   2.336   0.785   4.818 -0.2547  0.3313 -0.0959
 8295TIP3    H124849   2.306   0.860   4.869  2.0681 -0.7221  3.0716
 8295TIP3    H224850   2.274   0.716   4.838  0.9036 -0.2161  1.8767
 8296TIP3   OH224851   0.532   3.756   4.046 -0.6704 -0.4770  0.4631
 8296TIP3    H124852   0.516   3.815   4.119 -1.5851 -1.2351  0.8941
 8296TIP3    H224853   0.476   3.788   3.976  0.1235  0.1828  0.1151
 8297TIP3   OH224854   5.782   6.223   1.202 -0.3628  0.1406  0.3791
 8297TIP3    H124855   5.811   6.132   1.207  0.3307  0.2307 -1.1138
 8297TIP3    H224856   5.691   6.222   1.230 -0.4802 -1.0898  0.0037
 8298TIP3   OH224857   7.061   6.476   5.734  0.0778 -0.2617  0.8337
 8298TIP3    H124858   7.114   6.430   5.668  0.0335  0.1246  0.5233
 8298TIP3    H224859   7.066   6.420   5.811 -0.9431 -1.3976  0.1180
 8299TIP3   OH224860   0.245   6.671   3.813 -0.4137 -0.6652 -0.7526
 8299TIP3    H124861   0.339   6.690   3.811 -0.7418  1.1156 -1.3071
 8299TIP3    H224862   0.234   6.613   3.888  0.6693  2.0183  1.6711
 8300TIP3   OH224863   2.251   0.232   0.886  0.0306  0.1455  0.4265
 8300TIP3    H124864   2.163   0.197   0.897  0.0335 -0.0005  0.0028
 8300TIP3    H224865   2.269   0.278   0.968 -0.8841  1.1469  0.0990
 8301TIP3   OH224866   5.625   2.366   2.740 -0.0500  0.5963  0.1797
 8301TIP3    H124867   5.592   2.407   2.660  2.0609 -0.4204 -1.2964
 8301TIP3    H224868   5.711   2.404   2.753  1.1898 -1.8517 -0.1901
 8302TIP3   OH224869   3.099   2.497   3.972 -0.3908  0.3227 -0.8911
 8302TIP3    H124870   3.047   2.496   4.053 -0.7325  0.0184 -1.1082
 8302TIP3    H224871   3.040   2.461   3.906 -0.0718  0.4587 -1.2508
 8303TIP3   OH224872   4.120   1.401   1.223  0.7735  0.2540 -0.0305
 8303TIP3    H124873   4.179   1.327   1.209 -0.3224 -0.4943 -0.9176
 8303TIP3    H224874   4.046   1.384   1.163 -1.0249  0.3834  2.0325
 8304TIP3   OH224875   0.539   0.364   2.330  0.1643  0.4480  0.2592
 8304TIP3    H124876   0.478   0.412   2.274 -0.7923 -0.9460  0.0620
 8304TIP3    H224877   0.528   0.273   2.305  0.9036 -0.0365  1.5956
 8305TIP3   OH224878   2.037   3.528   3.526 -0.5738 -0.0660  0.2161
 8305TIP3    H124879   2.023   3.619   3.553  0.5584  0.4552 -0.8315
 8305TIP3    H224880   2.000   3.523   3.438  2.4620  0.4131 -1.2037
 8306TIP3   OH224881   1.827   4.945   4.226  0.2783 -0.0169  0.2921
 8306TIP3    H124882   1.783   4.918   4.145  1.3493  0.8571 -0.6020
 8306TIP3    H224883   1.867   4.865   4.259  2.2538  0.1109 -1.5923
 8307TIP3   OH224884   2.059   2.801   5.084  0.0477 -0.2887 -0.6222
 8307TIP3    H124885   2.124   2.731   5.079  0.7902  0.3095  0.3133
 8307TIP3    H224886   2.064   2.832   5.174 -0.1437  1.0811 -1.0663
 8308TIP3   OH224887   1.400   3.675   4.721 -0.1334  0.1228 -0.2191
 8308TIP3    H124888   1.412   3.677   4.816  0.5630 -3.6572 -0.0779
 8308TIP3    H224889   1.485   3.646   4.687 -0.7027  0.3291 -1.9121
 8309TIP3   OH224890   5.888   3.027   0.583  0.3436  0.2712 -0.5713
 8309TIP3    H124891   5.850   2.950   0.626  0.5947  1.6096  2.3022
 8309TIP3    H224892   5.813   3.072   0.544 -0.2656  0.0773  0.3252
 8310TIP3   OH224893   1.915   4.017   1.843  0.3113 -0.0949 -0.1950
 8310TIP3    H124894   1.910   4.052   1.754 -0.1439 -0.0812 -0.1693
 8310TIP3    H224895   1.851   4.069   1.892  1.3689  0.6683  0.4054
 8311TIP3   OH224896   3.784   6.102   0.453  0.4306 -0.5462  0.1141
 8311TIP3    H124897   3.749   6.024   0.410 -2.2689  1.4269 -1.5668
 8311TIP3    H224898   3.832   6.148   0.384 -2.0448  1.5440 -0.3551
 8312TIP3   OH224899   5.949   5.898   2.451 -0.1764 -0.2650  0.2958
 8312TIP3    H124900   6.013   5.929   2.515  0.6380 -0.7734 -0.2589
 8312TIP3    H224901   5.888   5.971   2.441  1.7809  1.3092 -1.1236
 8313TIP3   OH224902   6.791   6.545   4.157 -0.4173 -0.2506  0.6817
 8313TIP3    H124903   6.717   6.601   4.135 -1.7153 -2.1909 -0.2447
 8313TIP3    H224904   6.860   6.570   4.097 -0.5232  1.1572  1.1184
 8314TIP3   OH224905   6.795   1.364   2.478  0.2128 -0.1836 -0.4067
 8314TIP3    H124906   6.880   1.328   2.453 -1.2198 -3.5244 -1.0139
 8314TIP3    H224907   6.750   1.291   2.521 -1.9037  1.8540  1.0876
 8315TIP3   OH224908   3.694   2.082   2.885 -0.4983 -0.0131  0.0733
 8315TIP3    H124909   3.712   1.997   2.925  2.5754 -0.2052 -1.3871
 8315TIP3    H224910   3.755   2.142   2.929  1.7555  0.0932 -2.9093
 8316TIP3   OH224911   3.689   2.859   5.585 -0.0961  0.3865  0.1923
 8316TIP3    H124912   3.694   2.804   5.506 -0.1449  0.9422 -0.2052
 8316TIP3    H224913   3.612   2.828   5.631  0.5300 -0.6525  0.5633
 8317TIP3   OH224914   3.845   6.656   0.093 -0.3387 -0.0704 -0.0661
 8317TIP3    H124915   3.766   6.613   0.128 -1.8721  2.6672  0.1728
 8317TIP3    H224916   3.900   6.670   0.170 -0.5286 -0.2427  0.1034
 8318TIP3   OH224917   0.082   2.088   2.179 -0.0756  0.3065  0.2597
 8318TIP3    H124918   0.046   2.160   2.127 -1.8258 -0.1899  0.7470
 8318TIP3    H224919   0.173   2.081   2.149 -0.4443  1.3850 -1.2303
 8319TIP3   OH224920   5.851   4.214   4.785  0.3256  0.3035  0.2176
 8319TIP3    H124921   5.831   4.167   4.704  0.7771  1.0682 -0.3510
 8319TIP3    H224922   5.770   4.259   4.807  0.2781  0.2956  0.0585
 8320TIP3   OH224923   0.559   5.094   1.928 -0.7702 -0.3401 -0.1642
 8320TIP3    H124924   0.609   5.162   1.973  0.9091 -3.5726  3.3704
 8320TIP3    H224925   0.473   5.095   1.971 -1.8408  1.2630 -2.1336
 8321TIP3   OH224926   3.813   3.974   4.724 -0.0437  0.4566 -0.2305
 8321TIP3    H124927   3.783   4.035   4.791 -0.0657  0.0831  0.1054
 8321TIP3    H224928   3.904   4.000   4.706  0.0386  0.4098  0.1179
 8322TIP3   OH224929   1.156   3.734   0.061 -0.1933  0.7414  0.4235
 8322TIP3    H124930   1.105   3.808   0.029  0.2286  0.4087 -1.0587
 8322TIP3    H224931   1.247   3.758   0.045 -0.0917 -0.6395 -1.4007
 8323TIP3   OH224932   6.447   5.179   5.743  0.3865  0.5144 -0.2591
 8323TIP3    H124933   6.534   5.151   5.771 -0.2922 -0.2453  1.2097
 8323TIP3    H224934   6.449   5.274   5.754  1.2420  0.5888 -0.9158
 8324TIP3   OH224935   6.827   4.874   4.461  0.3390  0.3440  0.5207
 8324TIP3    H124936   6.863   4.874   4.373  1.6427 -1.1969  0.9959
 8324TIP3    H224937   6.732   4.872   4.449  0.4684 -2.7834 -0.9624
 8325TIP3   OH224938   5.646   5.820   5.350 -0.5732 -0.8216  0.7521
 8325TIP3    H124939   5.691   5.805   5.433 -1.7912 -0.0333  1.5840
 8325TIP3    H224940   5.557   5.788   5.364 -1.6213  1.8071  0.7484
 8326TIP3   OH224941   7.060   3.771   3.155 -0.2184 -0.3553 -0.2123
 8326TIP3    H124942   7.146   3.812   3.152 -0.9613  1.1941 -1.5140
 8326TIP3    H224943   7.076   3.684   3.193  1.7478  0.2464  0.4414
 8327TIP3   OH224944   2.915   0.759   3.446 -0.3265 -0.4125 -0.3732
 8327TIP3    H124945   2.938   0.811   3.369 -0.6399 -1.0538 -0.9032
 8327TIP3    H224946   2.921   0.668   3.417 -1.8830 -0.6441 -0.0638
 8328TIP3   OH224947   2.421   5.674   4.985  0.6508 -0.2827  0.7496
 8328TIP3    H124948   2.360   5.602   4.997 -0.7787  0.8346  0.4697
 8328TIP3    H224949   2.391   5.718   4.905  0.7850  1.2586  1.5126
 8329TIP3   OH224950   2.167   2.128   4.154 -0.4951  0.3881 -0.1167
 8329TIP3    H124951   2.080   2.103   4.185 -0.5555  0.1611 -0.4756
 8329TIP3    H224952   2.160   2.132   4.059 -0.1217  0.4062 -0.1470
 8330TIP3   OH224953   2.571   1.176   4.319 -0.4372  0.2302  0.0929
 8330TIP3    H124954   2.587   1.147   4.409 -3.2698  0.3694  0.7231
 8330TIP3    H224955   2.520   1.257   4.329  0.3611  1.0002 -1.6636
 8331TIP3   OH224956   4.574   4.507   4.359  0.3986  0.1261  0.0804
 8331TIP3    H124957   4.647   4.455   4.392  0.1520 -1.4645 -1.7024
 8331TIP3    H224958   4.548   4.562   4.433  1.4679 -1.4353  1.6899
 8332TIP3   OH224959   2.346   5.790   4.749 -0.6664 -0.4390  0.4907
 8332TIP3    H124960   2.357   5.878   4.714  1.2494  0.1727  2.4513
 8332TIP3    H224961   2.421   5.741   4.717 -0.8968 -0.9225  0.6686
 8333TIP3   OH224962   6.369   2.689   0.376 -0.0781 -0.6281  0.1236
 8333TIP3    H124963   6.315   2.653   0.447 -0.1447 -1.0679 -0.1471
 8333TIP3    H224964   6.309   2.746   0.328 -0.6259 -1.9430 -0.8195
 8334TIP3   OH224965   3.609   6.351   4.137 -0.1933 -0.7831  0.6354
 8334TIP3    H124966   3.606   6.443   4.110 -0.1194 -0.5491  1.4171
 8334TIP3    H224967   3.533   6.340   4.193  0.1302 -1.0459  1.0256
 8335TIP3   OH224968   4.090   2.789   0.293 -0.0128  0.1281  0.9454
 8335TIP3    H124969   4.086   2.881   0.318 -0.2028  0.7391 -1.1368
 8335TIP3    H224970   4.181   2.763   0.311 -0.5204  0.0018  3.6876
 8336TIP3   OH224971   1.376   6.046   5.312  0.3573 -0.2663 -0.0208
 8336TIP3    H124972   1.403   6.010   5.396  1.4594 -0.5595 -0.4865
 8336TIP3    H224973   1.292   6.004   5.294  0.6638 -1.0802  0.3972
 8337TIP3   OH224974   2.665   5.071   4.015  0.1248 -0.0046  0.1142
 8337TIP3    H124975   2.570   5.066   4.003  0.0803 -0.0028  0.4446
 8337TIP3    H224976   2.679   5.154   4.061  0.2800 -0.0332  0.1175
 8338TIP3   OH224977   5.474   5.882   1.690 -0.0452 -0.1579 -0.4976
 8338TIP3    H124978   5.463   5.789   1.671 -1.0952  0.2226 -2.0025
 8338TIP3    H224979   5.457   5.890   1.784 -0.0245 -1.4665 -0.3683
 8339TIP3   OH224980   2.974   2.102   3.215  0.1296 -0.1051  0.3931
 8339TIP3    H124981   2.977   2.148   3.299  1.1774  0.4529  0.0599
 8339TIP3    H224982   3.054   2.128   3.170  1.5455 -3.3468  0.7620
 8340TIP3   OH224983   6.730   1.524   4.991 -0.7885 -0.0235 -0.1243
 8340TIP3    H124984   6.807   1.533   5.047 -1.1263  0.8989  0.2111
 8340TIP3    H224985   6.765   1.512   4.903 -0.2560  0.7408 -0.0266
 8341TIP3   OH224986   1.002   4.719   0.004 -0.3776  0.1858 -0.5619
 8341TIP3    H124987   0.937   4.650  -0.009  0.9150 -1.1518 -0.1479
 8341TIP3    H224988   0.950   4.800   0.010 -1.8770 -0.6314 -1.7338
 8342TIP3   OH224989   1.437   2.560   3.298 -0.0314  0.4041  0.9221
 8342TIP3    H124990   1.421   2.503   3.374  1.9186 -1.0510  0.3149
 8342TIP3    H224991   1.529   2.585   3.306 -0.1518  1.3245 -0.2797
 8343TIP3   OH224992   1.619   6.729   4.334 -0.2131 -0.2055  0.4299
 8343TIP3    H124993   1.644   6.772   4.416 -1.3432  1.0273  0.1626
 8343TIP3    H224994   1.536   6.686   4.354 -0.5613  0.2148 -0.0886
 8344TIP3   OH224995   6.674   1.274   1.724 -0.1217  0.3502 -0.0863
 8344TIP3    H124996   6.678   1.347   1.662  1.7001 -1.0880 -1.7898
 8344TIP3    H224997   6.750   1.220   1.702 -0.7683 -1.4674  1.8732
 8345TIP3   OH224998   4.753   3.448   0.213  0.1389 -0.4016  0.8758
 8345TIP3    H124999   4.783   3.357   0.208  1.8221  0.1893 -1.2139
 8345TIP3    H225000   4.790   3.490   0.135 -3.8034  1.1877 -0.3657
 8346TIP3   OH225001   1.537   5.823   3.169 -0.0346 -0.0334  0.1230
 8346TIP3    H125002   1.621   5.853   3.134 -0.0804 -2.5528 -2.5200
 8346TIP3    H225003   1.561   5.753   3.230 -0.1728  1.4352  1.9622
 8347TIP3   OH225004   3.863   2.258   1.364 -0.3698  0.6218 -0.0155
 8347TIP3    H125005   3.924   2.323   1.329  1.1762 -0.4729  0.5523
 8347TIP3    H225006   3.795   2.309   1.407 -1.5007  1.9881 -3.1510
 8348TIP3   OH225007   2.897   5.000   5.847  0.0874 -0.2684  0.1050
 8348TIP3    H125008   2.851   5.022   5.765  0.5160 -0.9214 -0.3229
 8348TIP3    H225009   2.828   4.998   5.913 -0.5295 -1.3225 -0.5450
 8349TIP3   OH225010   5.739   3.093   3.824  0.3685 -0.0644  0.1124
 8349TIP3    H125011   5.658   3.069   3.780 -0.4433 -0.8961  1.9717
 8349TIP3    H225012   5.790   3.013   3.827 -0.3971 -0.5221  2.2896
 8350TIP3   OH225013   1.744   0.525   0.564 -0.2057  0.4074 -0.0089
 8350TIP3    H125014   1.684   0.557   0.497  0.3814  0.7785 -0.3648
 8350TIP3    H225015   1.697   0.537   0.647 -0.3765  1.2722 -0.2248
 8351TIP3   OH225016   1.685   2.768   0.670 -0.1092 -0.4516 -0.4223
 8351TIP3    H125017   1.663   2.812   0.588 -0.2092  0.2899 -0.0066
 8351TIP3    H225018   1.780   2.769   0.674 -0.0697 -1.1744 -0.8845
 8352TIP3   OH225019   3.740   1.373   1.288 -0.8618  0.2595  0.0271
 8352TIP3    H125020   3.684   1.450   1.286 -2.0260 -0.5755 -0.8489
 8352TIP3    H225021   3.753   1.351   1.196  0.7071  0.2699  0.2203
 8353TIP3   OH225022   3.763   4.622   3.022  0.5778  0.4191 -0.0742
 8353TIP3    H125023   3.745   4.536   3.060 -0.1921  0.3220 -0.6243
 8353TIP3    H225024   3.803   4.672   3.092 -0.0334 -0.0290  0.6087
 8354TIP3   OH225025   4.474   6.121   2.206  0.2848 -0.2703 -0.4934
 8354TIP3    H125026   4.448   6.029   2.196  0.5414 -0.2611 -1.2961
 8354TIP3    H225027   4.437   6.165   2.130  1.6348 -0.0388 -1.0491
 8355TIP3   OH225028   0.442   0.179   3.371 -0.1254 -0.4074  0.1348
 8355TIP3    H125029   0.448   0.087   3.394  1.3275 -0.8649 -1.8044
 8355TIP3    H225030   0.405   0.180   3.283  0.0254  0.8374  0.0625
 8356TIP3   OH225031   3.705   4.076   3.593  0.0715 -0.0843 -0.5336
 8356TIP3    H125032   3.721   4.076   3.498 -0.0366 -3.0933 -0.6475
 8356TIP3    H225033   3.775   4.130   3.629  1.9519 -1.3123 -2.1524
 8357TIP3   OH225034   5.425   3.775   3.273 -0.5631  0.4118  0.5986
 8357TIP3    H125035   5.374   3.809   3.200 -1.4888  0.0948  1.0659
 8357TIP3    H225036   5.466   3.852   3.312  0.7566  0.4589 -0.8406
 8358TIP3   OH225037   6.819   5.179   1.798  0.2880  0.0017  0.3362
 8358TIP3    H125038   6.740   5.231   1.812 -0.2996 -1.3037  2.2196
 8358TIP3    H225039   6.861   5.175   1.885  1.1264 -1.3463 -0.1001
 8359TIP3   OH225040   1.043   6.324   2.705 -0.0044 -0.4807 -0.4391
 8359TIP3    H125041   1.061   6.414   2.732 -0.0426 -0.3115 -0.9565
 8359TIP3    H225042   1.122   6.276   2.729  0.0623 -0.2866 -0.2643
 8360TIP3   OH225043   1.092   2.677   4.323 -0.6018  0.1647  0.1632
 8360TIP3    H125044   1.086   2.669   4.418 -0.0077  0.2595  0.2075
 8360TIP3    H225045   1.013   2.726   4.298 -0.1415  1.2125  0.7287
 8361TIP3   OH225046   5.320   2.035  -0.023 -0.4463  0.0848  0.2319
 8361TIP3    H125047   5.278   2.019   0.061 -2.6392  1.0934 -0.5538
 8361TIP3    H225048   5.413   2.018  -0.009 -0.8513 -0.4302  2.6446
 8362TIP3   OH225049   5.960   1.732   2.554  0.6174 -0.4506  0.0176
 8362TIP3    H125050   5.871   1.699   2.562  0.4439  0.3970  2.6617
 8362TIP3    H225051   5.972   1.748   2.461 -2.2905  0.1625 -0.3415
 8363TIP3   OH225052   2.255   2.572   2.130  0.2556 -0.5397  0.3558
 8363TIP3    H125053   2.238   2.565   2.036  0.1290  0.0887  0.3250
 8363TIP3    H225054   2.341   2.532   2.141  0.2011 -0.7643 -0.0014
 8364TIP3   OH225055   0.776   6.374   5.565 -0.2319 -0.1201  0.3752
 8364TIP3    H125056   0.831   6.402   5.638  0.6304  1.7549 -0.8981
 8364TIP3    H225057   0.820   6.297   5.529 -0.5625 -0.9438  1.6797
 8365TIP3   OH225058   2.991   6.176   4.127 -0.4266  0.2760 -0.3952
 8365TIP3    H125059   3.045   6.189   4.205 -1.2019  0.8852  0.0622
 8365TIP3    H225060   2.988   6.081   4.114  0.0644  0.1982  0.0561
 8366TIP3   OH225061   6.132   0.787   1.107 -0.8318  0.2158 -0.4126
 8366TIP3    H125062   6.165   0.864   1.152 -1.0708  0.7114 -1.0671
 8366TIP3    H225063   6.097   0.731   1.176 -1.0888  0.9070  0.0227
 8367TIP3   OH225064   6.939   5.887   3.141 -0.1731  0.2121  0.3700
 8367TIP3    H125065   6.948   5.982   3.150  0.8831  0.0724  0.8602
 8367TIP3    H225066   6.959   5.870   3.049  0.0091  0.4285  0.3676
 8368TIP3   OH225067   3.734   4.272   4.761  0.5438  0.1783 -0.2389
 8368TIP3    H125068   3.807   4.321   4.797 -0.2445  2.7675 -1.8797
 8368TIP3    H225069   3.674   4.259   4.835  1.2789  0.7570  0.4700
 8369TIP3   OH225070   5.220   5.705   1.881  0.3139  0.6506 -0.0251
 8369TIP3    H125071   5.272   5.732   1.957 -0.3517 -0.8282  0.9799
 8369TIP3    H225072   5.130   5.730   1.902  0.2402  1.0492 -0.7437
 8370TIP3   OH225073   3.650   1.111   2.263  0.0641 -0.1209 -0.3550
 8370TIP3    H125074   3.613   1.182   2.210  1.2757  1.4370  0.7769
 8370TIP3    H225075   3.581   1.045   2.266 -1.7074  1.6330 -0.2927
 8371TIP3   OH225076   6.467   3.548   3.901  0.2936 -0.2318 -0.4010
 8371TIP3    H125077   6.538   3.593   3.856  0.3714 -0.6593 -0.7238
 8371TIP3    H225078   6.396   3.546   3.837  0.2810 -0.5330 -0.3804
 8372TIP3   OH225079   6.539   2.492   5.063 -0.5370  0.2157  0.0722
 8372TIP3    H125080   6.584   2.576   5.064  0.1873 -0.1479 -0.5703
 8372TIP3    H225081   6.492   2.488   5.146 -1.8080  1.8950 -0.5214
 8373TIP3   OH225082   5.170   6.553   4.683 -0.3514  0.2535 -0.0306
 8373TIP3    H125083   5.132   6.635   4.652  1.1250  1.4611  1.1901
 8373TIP3    H225084   5.225   6.524   4.610  1.1435  1.7543  0.4345
 8374TIP3   OH225085   1.040   5.202   3.234 -0.0707 -0.0982 -0.3955
 8374TIP3    H125086   0.997   5.263   3.294  0.1264 -0.4862  0.1366
 8374TIP3    H225087   1.101   5.153   3.288  0.6218  0.0325 -1.0391
 8375TIP3   OH225088   5.344   5.633   0.133  0.2646 -0.3898 -0.1987
 8375TIP3    H125089   5.425   5.587   0.153  1.4860  0.9723 -1.7308
 8375TIP3    H225090   5.370   5.702   0.071 -1.6794  1.5098  0.9600
 8376TIP3   OH225091   4.537   3.632   0.274 -0.1018 -0.1371 -0.2330
 8376TIP3    H125092   4.614   3.590   0.237 -0.4873 -1.8393  0.7986
 8376TIP3    H225093   4.570   3.683   0.348  0.3191  1.1434 -1.2664
 8377TIP3   OH225094   1.835   1.974   1.307  0.4764 -0.6493  0.4332
 8377TIP3    H125095   1.773   1.996   1.238  1.0050  2.7855  0.8960
 8377TIP3    H225096   1.920   1.972   1.262  0.4420 -2.4111  0.3515
 8378TIP3   OH225097   2.308   1.434   5.695  0.2628  0.3429  0.0823
 8378TIP3    H125098   2.392   1.479   5.699  1.3011 -1.2944 -1.6129
 8378TIP3    H225099   2.306   1.380   5.775 -0.0142  1.6874  1.0118
 8379TIP3   OH225100   1.881   1.841   2.066 -0.6439  0.4633  0.3321
 8379TIP3    H125101   1.807   1.782   2.081 -2.1434  2.1006 -0.2516
 8379TIP3    H225102   1.933   1.799   1.998 -1.2364 -0.5480  0.4954
 8380TIP3   OH225103   3.408   1.781   1.483  1.0478 -0.2143  0.0139
 8380TIP3    H125104   3.411   1.873   1.459 -0.2124 -0.0996  0.2161
 8380TIP3    H225105   3.390   1.781   1.577  0.4992 -0.6625 -0.0877
 8381TIP3   OH225106   7.011   3.748   4.659 -0.3351 -0.2389  0.3564
 8381TIP3    H125107   7.102   3.772   4.678 -0.4824 -0.2461  1.0999
 8381TIP3    H225108   7.012   3.720   4.567  0.7043 -1.6199  0.7476
 8382TIP3   OH225109   6.461   4.600   1.127  0.5763  0.0269  0.5240
 8382TIP3    H125110   6.520   4.596   1.053  1.7941  0.7149  1.4296
 8382TIP3    H225111   6.434   4.692   1.132  1.6446  0.3040  1.7669
 8383TIP3   OH225112   6.773   4.619   1.519  0.0150  0.0224  0.6118
 8383TIP3    H125113   6.781   4.712   1.540  1.3571 -0.5031  2.7148
 8383TIP3    H225114   6.679   4.606   1.502 -0.3999  1.5399  1.5526
 8384TIP3   OH225115   4.000   0.499   0.917 -0.2196 -0.3682 -0.2926
 8384TIP3    H125116   4.039   0.544   0.992  0.0499 -1.2107  0.0891
 8384TIP3    H225117   4.001   0.406   0.942 -2.5574 -0.4195 -0.2318
 8385TIP3   OH225118   4.187   5.295   0.832 -0.4119 -0.2098 -0.3052
 8385TIP3    H125119   4.215   5.331   0.917 -1.3771  0.8825 -0.4196
 8385TIP3    H225120   4.215   5.361   0.769 -0.0512 -0.8339 -0.8027
 8386TIP3   OH225121   5.350   4.630   5.034  0.0206  0.2191  0.4226
 8386TIP3    H125122   5.405   4.575   5.090 -1.1837 -1.7511 -0.2418
 8386TIP3    H225123   5.297   4.681   5.096  1.1034  0.6061  1.0559
 8387TIP3   OH225124   1.332   4.448   2.412  0.6583 -0.4509 -0.4915
 8387TIP3    H125125   1.312   4.513   2.344  3.4178  0.4670 -0.5525
 8387TIP3    H225126   1.262   4.459   2.477 -0.3064  0.8423 -1.6659
 8388TIP3   OH225127   6.882   3.630   0.763  0.1930  0.2549  0.3072
 8388TIP3    H125128   6.914   3.558   0.709  0.0445 -0.4129  1.0863
 8388TIP3    H225129   6.788   3.615   0.770  0.0810  0.8214  0.0419
 8389TIP3   OH225130   2.821   2.400   2.585 -0.2314  0.7616  0.1934
 8389TIP3    H125131   2.859   2.434   2.505  1.7322  0.4435  0.9223
 8389TIP3    H225132   2.866   2.317   2.600 -1.3301  0.2874  1.0623
 8390TIP3   OH225133   0.698   4.457   2.832 -0.4705  0.3459  0.3978
 8390TIP3    H125134   0.646   4.377   2.829 -0.3901  0.2589  1.1001
 8390TIP3    H225135   0.634   4.527   2.840 -0.6221  0.4896 -1.4973
 8391TIP3   OH225136   4.172   1.375   0.785  0.3506 -0.1650  0.4320
 8391TIP3    H125137   4.156   1.468   0.772 -0.3271 -0.3962 -0.5089
 8391TIP3    H225138   4.186   1.340   0.697  2.4703 -0.6428  0.9140
 8392TIP3   OH225139   7.080   5.045   5.057 -0.2543 -0.3058  0.5516
 8392TIP3    H125140   7.093   5.134   5.024 -2.3247  0.1383  0.8081
 8392TIP3    H225141   7.101   5.050   5.150  1.4854 -0.5759  0.2112
 8393TIP3   OH225142   1.764   6.703   4.795  0.1621  0.0971  0.0148
 8393TIP3    H125143   1.756   6.796   4.818  0.7590  0.0262  0.5423
 8393TIP3    H225144   1.674   6.670   4.797 -0.2431  0.9813 -1.6072
 8394TIP3   OH225145   3.250   0.703   2.882  0.4962 -0.0846  0.2521
 8394TIP3    H125146   3.309   0.776   2.901  1.5001 -0.5725 -0.8344
 8394TIP3    H225147   3.226   0.715   2.790  0.5220 -0.9941  0.1114
 8395TIP3   OH225148   1.011   3.023   5.386 -0.0674  0.0174 -0.6570
 8395TIP3    H125149   0.961   3.091   5.432 -1.0294 -2.2539  1.9173
 8395TIP3    H225150   1.101   3.038   5.412 -0.1436  0.7877 -0.7981
 8396TIP3   OH225151   0.119   4.951   4.412  0.6611 -0.1858 -0.2667
 8396TIP3    H125152   0.151   4.954   4.502  1.6248 -0.2275 -0.5938
 8396TIP3    H225153   0.196   4.972   4.359 -0.1520  1.0114 -1.0277
 8397TIP3   OH225154   4.449   4.481  -0.024  0.3949 -0.2380  0.5248
 8397TIP3    H125155   4.423   4.532   0.053 -1.0293  0.1676 -0.1931
 8397TIP3    H225156   4.543   4.471  -0.015  0.6148  1.8619  1.0849
 8398TIP3   OH225157   0.427   2.763   3.303  0.1716  0.0396 -0.0994
 8398TIP3    H125158   0.498   2.728   3.358  0.0907  1.5431  1.0116
 8398TIP3    H225159   0.376   2.818   3.362 -1.4826 -0.3662 -1.0827
 8399TIP3   OH225160   5.499   5.189   4.615 -0.4221  0.2493 -0.6086
 8399TIP3    H125161   5.443   5.145   4.550  0.6961 -2.1754 -0.0727
 8399TIP3    H225162   5.525   5.119   4.675  2.3549  1.4438 -0.2652
 8400TIP3   OH225163   0.798   3.791   3.957 -0.0016 -0.0757  1.0815
 8400TIP3    H125164   0.818   3.698   3.958 -1.1363 -0.3584 -0.4412
 8400TIP3    H225165   0.710   3.797   3.994 -1.0133  0.0658 -1.2246
 8401TIP3   OH225166   5.741   6.210   4.634 -0.0133  0.0045 -0.5106
 8401TIP3    H125167   5.746   6.290   4.581  1.5626 -1.5913 -2.9748
 8401TIP3    H225168   5.800   6.227   4.708  1.6503  0.5918 -1.8859
 8402TIP3   OH225169   5.385   1.961   3.598  0.3495  0.1751  0.2517
 8402TIP3    H125170   5.332   1.915   3.663 -0.3264  0.7897  0.1603
 8402TIP3    H225171   5.452   2.007   3.649  0.9914 -0.8335  0.3451
 8403TIP3   OH225172   4.843   6.757   1.676  0.4054 -0.1698 -0.1437
 8403TIP3    H125173   4.927   6.796   1.696 -0.0788  0.3458  0.9487
 8403TIP3    H225174   4.810   6.724   1.760 -1.4060  1.4894 -0.1287
 8404TIP3   OH225175   3.258   5.525   2.514  0.1341  0.4126  0.3147
 8404TIP3    H125176   3.301   5.595   2.564 -2.2191  1.8564  0.4707
 8404TIP3    H225177   3.244   5.564   2.427 -1.1437  0.1344  0.3849
 8405TIP3   OH225178   2.184   0.465   5.408 -0.4383 -0.0072 -0.1714
 8405TIP3    H125179   2.278   0.451   5.419 -0.1187  1.9655 -0.1172
 8405TIP3    H225180   2.149   0.377   5.389  1.2648 -0.9110  0.6378
 8406TIP3   OH225181   1.500   4.024   4.694  0.3652  0.6014  0.3498
 8406TIP3    H125182   1.540   4.023   4.781  0.1259  0.9779  0.4663
 8406TIP3    H225183   1.518   3.937   4.658 -0.8104 -0.0928  1.3615
 8407TIP3   OH225184   3.365   2.074   0.599  0.1294 -0.3817 -0.0030
 8407TIP3    H125185   3.420   2.065   0.677 -0.8865 -0.2147  0.7469
 8407TIP3    H225186   3.427   2.076   0.526  1.1111 -0.2394  0.8206
 8408TIP3   OH225187   5.701   6.062   0.832 -0.7279 -0.0721 -0.3395
 8408TIP3    H125188   5.608   6.053   0.815 -1.3197  1.8539  1.4342
 8408TIP3    H225189   5.709   6.146   0.878  1.9399  0.0340 -0.8379
 8409TIP3   OH225190   6.708   1.065   3.974 -0.0319  0.2163  0.0279
 8409TIP3    H125191   6.642   1.133   3.966 -0.0349  0.0454 -1.7453
 8409TIP3    H225192   6.659   0.985   3.991 -0.1078  0.4484  0.9411
 8410TIP3   OH225193   3.801   5.549   1.741  0.2346  0.1618  0.2084
 8410TIP3    H125194   3.786   5.457   1.717  0.3045  0.0656  0.5326
 8410TIP3    H225195   3.842   5.545   1.827  1.8800  0.4211 -0.5163
 8411TIP3   OH225196   1.821   0.700   2.219 -0.1332 -0.0934 -0.4871
 8411TIP3    H125197   1.748   0.759   2.242 -0.2178 -0.3799 -0.0034
 8411TIP3    H225198   1.866   0.745   2.147 -0.9604 -0.0471 -0.9895
 8412TIP3   OH225199   1.257   4.284   1.192  0.0567 -0.0591  0.0802
 8412TIP3    H125200   1.215   4.198   1.194 -1.9738  0.8661 -0.2307
 8412TIP3    H225201   1.185   4.346   1.175  1.0304  1.9740  2.7005
 8413TIP3   OH225202   3.652   5.347   4.583 -0.1450 -0.5411  0.0066
 8413TIP3    H125203   3.610   5.411   4.640 -1.4106  0.6274 -2.0914
 8413TIP3    H225204   3.717   5.398   4.534 -1.6818 -0.6127 -2.2226
 8414TIP3   OH225205   3.426   1.619   3.130  0.1808 -0.1122  0.5087
 8414TIP3    H125206   3.444   1.587   3.041 -0.6520  1.4368 -0.2530
 8414TIP3    H225207   3.349   1.571   3.158  0.3730 -0.5173  0.3488
 8415TIP3   OH225208   7.078   0.678   2.671 -0.5825 -0.1635  0.5000
 8415TIP3    H125209   7.005   0.715   2.720  0.3193  0.2585  1.5783
 8415TIP3    H225210   7.081   0.586   2.696 -0.9425 -0.2594  0.1945
 8416TIP3   OH225211   4.466   4.533   1.841  0.5971  0.0119  0.0930
 8416TIP3    H125212   4.488   4.449   1.803  0.6649  0.6189 -1.2493
 8416TIP3    H225213   4.515   4.536   1.923 -0.6020 -1.8782  0.9619
 8417TIP3   OH225214   3.250   6.456   3.098  0.0641  0.3767  0.1285
 8417TIP3    H125215   3.336   6.421   3.121 -0.3468 -1.2662 -0.6494
 8417TIP3    H225216   3.190   6.410   3.157 -0.4327  0.2966 -0.4397
 8418TIP3   OH225217   5.589   4.752   4.095  0.2268  0.1303 -0.0917
 8418TIP3    H125218   5.574   4.659   4.079  0.5320  0.0224  0.2585
 8418TIP3    H225219   5.564   4.795   4.013 -0.0223 -0.2489 -0.2114
 8419TIP3   OH225220   6.314   6.636   1.922 -0.2881  0.3593  0.4334
 8419TIP3    H125221   6.376   6.650   1.994 -0.4771  0.3231  0.6057
 8419TIP3    H225222   6.286   6.545   1.934 -0.3000  0.3459  0.2976
 8420TIP3   OH225223   7.158   1.592   2.347  1.0108 -0.4213  0.1110
 8420TIP3    H125224   7.139   1.681   2.376  1.8237  0.6856 -2.4905
 8420TIP3    H225225   7.232   1.565   2.402  0.9376  0.6016  0.7473
 8421TIP3   OH225226   6.617   5.772   5.546  0.5107 -0.2897 -0.5516
 8421TIP3    H125227   6.527   5.742   5.539 -0.3612  1.8961  0.3198
 8421TIP3    H225228   6.668   5.709   5.495 -1.3918 -1.9793 -0.4568
 8422TIP3   OH225229   1.282   4.470   5.613 -0.0942 -0.1427  0.5242
 8422TIP3    H125230   1.280   4.418   5.533  2.3499 -0.2118  0.4201
 8422TIP3    H225231   1.191   4.474   5.643 -0.6982 -2.2400 -0.8815
 8423TIP3   OH225232   2.836   3.282   4.691  0.5977  0.5339  0.2279
 8423TIP3    H125233   2.800   3.328   4.616  0.1935  2.2402  1.4103
 8423TIP3    H225234   2.900   3.342   4.729  3.5076 -1.6939 -0.7342
 8424TIP3   OH225235   4.536   0.241   0.393 -0.6396  0.0187 -0.0409
 8424TIP3    H125236   4.614   0.186   0.382  0.4134  1.5569 -0.6246
 8424TIP3    H225237   4.512   0.230   0.485  1.1155  0.5671  0.5270
 8425TIP3   OH225238   1.987   1.699   2.428 -0.0545  0.0648  0.1650
 8425TIP3    H125239   2.012   1.691   2.336  0.5056 -1.5840  0.4374
 8425TIP3    H225240   1.972   1.609   2.457  1.3399  0.4077  2.1089
 8426TIP3   OH225241   4.582   6.144   0.764 -0.1831 -0.2437 -0.0664
 8426TIP3    H125242   4.635   6.220   0.787  0.0074 -0.5849  0.6628
 8426TIP3    H225243   4.526   6.174   0.692  0.9682  0.1293 -0.8286
 8427TIP3   OH225244   1.710   3.778   4.669 -0.2755  0.2039 -0.0623
 8427TIP3    H125245   1.740   3.845   4.607 -0.0384 -0.1724 -0.3617
 8427TIP3    H225246   1.754   3.800   4.751 -0.4409  0.5943 -0.0729
 8428TIP3   OH225247   2.350   1.863   2.395 -0.3131  0.0630  0.3525
 8428TIP3    H125248   2.316   1.854   2.484  0.2781  0.4287  0.6162
 8428TIP3    H225249   2.445   1.868   2.405 -0.2729  0.6349 -0.2541
 8429TIP3   OH225250   2.159   1.435   2.812 -0.0953  0.4055  0.0015
 8429TIP3    H125251   2.139   1.415   2.903 -1.1185 -1.0521 -0.5025
 8429TIP3    H225252   2.074   1.446   2.770  0.3835  2.7191 -0.4759
 8430TIP3   OH225253   5.145   6.285   4.054  0.3204  0.1787  0.4155
 8430TIP3    H125254   5.080   6.351   4.076 -0.8663  0.3737 -3.0531
 8430TIP3    H225255   5.103   6.201   4.073 -0.9580  0.3131 -1.5286
 8431TIP3   OH225256   0.566   6.590   0.419  0.6530  0.0625 -0.2831
 8431TIP3    H125257   0.560   6.585   0.514 -0.4353  2.1233 -0.1962
 8431TIP3    H225258   0.491   6.538   0.388 -0.8175  1.8223  0.1215
 8432TIP3   OH225259   4.495   1.182   1.470 -0.0756 -0.0444 -0.7513
 8432TIP3    H125260   4.564   1.195   1.536 -0.4247 -2.4314  0.1760
 8432TIP3    H225261   4.418   1.223   1.508  0.1098  0.0172 -0.4335
 8433TIP3   OH225262   1.835   1.062   2.105 -0.0790  0.4534 -0.0628
 8433TIP3    H125263   1.846   0.983   2.051  0.0232 -0.3122  1.0346
 8433TIP3    H225264   1.744   1.058   2.136  0.0329  0.5702  0.2874
 8434TIP3   OH225265   4.333   5.058   3.556 -0.5014  0.2116 -0.0412
 8434TIP3    H125266   4.405   5.025   3.502 -1.1676 -2.5661  0.5843
 8434TIP3    H225267   4.259   5.065   3.495 -0.4833 -0.0162 -0.0926
 8435TIP3   OH225268   5.345   3.775   1.568  0.1947 -0.1377  0.0151
 8435TIP3    H125269   5.285   3.808   1.635 -2.1255  1.6785 -2.7311
 8435TIP3    H225270   5.303   3.696   1.535  0.2580  0.0946 -0.6402
 8436TIP3   OH225271   7.099   4.189   1.684  0.3289 -0.0379  0.1798
 8436TIP3    H125272   7.064   4.275   1.663 -0.4800 -0.1978  0.8388
 8436TIP3    H225273   7.093   4.183   1.780 -0.1661 -1.0512  0.0979
 8437TIP3   OH225274   7.193   1.444   3.219 -0.3775  0.0008 -0.3660
 8437TIP3    H125275   7.154   1.506   3.281 -0.1970  1.6662 -1.8104
 8437TIP3    H225276   7.261   1.399   3.268 -1.6021 -0.2303  1.1772
 8438TIP3   OH225277   3.642   6.331   0.040  0.3393 -0.1509  0.4147
 8438TIP3    H125278   3.706   6.378  -0.013  0.0771 -0.4726 -0.2005
 8438TIP3    H225279   3.614   6.395   0.106  0.0462  0.5474 -0.3637
 8439TIP3   OH225280   0.143   5.177   3.387  0.4302  0.4505  0.2200
 8439TIP3    H125281   0.145   5.083   3.406  1.3770  0.5061  0.4075
 8439TIP3    H225282   0.234   5.204   3.386  0.1876  1.2973 -0.2426
 8440TIP3   OH225283   4.412   4.154   0.337  0.6620  0.1355  0.3732
 8440TIP3    H125284   4.457   4.238   0.329  0.6060  0.2012  0.7591
 8440TIP3    H225285   4.425   4.112   0.252 -0.0151  0.8835 -0.1169
 8441TIP3   OH225286   6.851   0.338   3.307 -0.0150 -0.5599 -0.0412
 8441TIP3    H125287   6.871   0.304   3.220  0.3814 -0.4451  0.0021
 8441TIP3    H225288   6.887   0.273   3.367 -1.4200 -1.2915  0.0479
 8442TIP3   OH225289   0.227   2.050   1.283  0.3441 -0.3731 -0.4808
 8442TIP3    H125290   0.235   1.980   1.348 -0.7126 -0.6386 -0.6127
 8442TIP3    H225291   0.134   2.070   1.281  0.5636  0.6739 -0.8426
 8443TIP3   OH225292   2.937   4.358   1.072  0.4327  0.4247  0.6249
 8443TIP3    H125293   2.980   4.300   1.009 -1.0323  0.7228 -0.7280
 8443TIP3    H225294   2.991   4.437   1.072 -0.3663  1.0607 -1.5586
 8444TIP3   OH225295   0.467   2.398   1.900  0.5793  0.0440  0.5357
 8444TIP3    H125296   0.488   2.383   1.808 -0.4222  0.5981  0.2079
 8444TIP3    H225297   0.464   2.493   1.908 -1.8452  0.0134  0.5341
 8445TIP3   OH225298   5.092   6.333   1.452  0.1180  0.0591 -0.1335
 8445TIP3    H125299   5.001   6.361   1.439  0.3568  0.5769 -0.7281
 8445TIP3    H225300   5.136   6.410   1.489  0.6292  0.2613 -1.1418
 8446TIP3   OH225301   2.613   4.460   3.582  0.2833  0.0520  0.5953
 8446TIP3    H125302   2.663   4.534   3.550 -0.0718 -0.4438 -1.2120
 8446TIP3    H225303   2.535   4.499   3.621  0.3502  0.6608  0.1304
 8447TIP3   OH225304   5.308   3.351   0.127  0.1207 -1.0305 -0.4008
 8447TIP3    H125305   5.245   3.375   0.195 -1.3775 -1.8558 -1.4337
 8447TIP3    H225306   5.389   3.332   0.175 -0.0565  1.1098  0.8787
 8448TIP3   OH225307   1.027   0.894   2.287  0.0917 -0.1594 -0.0208
 8448TIP3    H125308   1.057   0.823   2.229  0.8889 -0.4839  0.7605
 8448TIP3    H225309   1.084   0.968   2.264 -0.8778  0.3165 -0.9814
 8449TIP3   OH225310   4.163   1.562   2.931 -0.6426  0.1506  0.5391
 8449TIP3    H125311   4.162   1.466   2.936 -0.8036 -0.0632 -2.2395
 8449TIP3    H225312   4.133   1.591   3.017 -1.9556 -2.3215  0.9915
 8450TIP3   OH225313   5.154   4.145   3.094 -1.0629 -0.6636  0.1874
 8450TIP3    H125314   5.131   4.233   3.123 -0.6556 -0.9258  1.3588
 8450TIP3    H225315   5.071   4.106   3.066 -1.2000  0.1764 -0.6316
 8451TIP3   OH225316   3.437   3.598   4.839 -0.6005 -0.3152  0.6053
 8451TIP3    H125317   3.508   3.661   4.837 -0.1481 -0.7968  1.1417
 8451TIP3    H225318   3.454   3.546   4.917  1.7745 -4.2785 -2.1963
 8452TIP3   OH225319   2.315   0.610   3.749  0.5384  0.3848 -0.3674
 8452TIP3    H125320   2.250   0.618   3.820  2.3553  2.4955  1.1933
 8452TIP3    H225321   2.281   0.666   3.679 -0.7404 -0.8625 -0.7820
 8453TIP3   OH225322   0.131   4.676   4.959 -0.1514  0.2015 -0.0203
 8453TIP3    H125323   0.218   4.711   4.940  1.0491 -1.8029  1.3595
 8453TIP3    H225324   0.134   4.586   4.926 -1.5173 -0.0846  0.5675
 8454TIP3   OH225325   5.876   3.987   2.421  0.3419 -0.2680  0.2512
 8454TIP3    H125326   5.838   4.060   2.469 -1.0259 -0.5453 -0.3671
 8454TIP3    H225327   5.801   3.941   2.383  1.1643 -1.9700  0.5847
 8455TIP3   OH225328   4.099   3.079   5.888 -0.0029 -0.0888  0.1943
 8455TIP3    H125329   4.086   3.129   5.807  3.2438 -0.4365 -0.7032
 8455TIP3    H225330   4.091   2.988   5.862  2.2295 -0.2613 -0.1369
 8456TIP3   OH225331   2.795   1.710   3.555 -0.3844 -0.8243 -0.1516
 8456TIP3    H125332   2.796   1.619   3.583  0.7237 -1.0620 -0.9273
 8456TIP3    H225333   2.718   1.716   3.497 -0.1478 -1.3976 -0.5281
 8457TIP3   OH225334   0.918   2.212   0.924  0.0027  0.2546 -0.4934
 8457TIP3    H125335   0.962   2.272   0.983  0.1615 -0.7607  0.4488
 8457TIP3    H225336   0.862   2.158   0.981  0.9741 -1.4716 -1.0891
 8458TIP3   OH225337   4.455   4.058   0.089  0.3264  0.3888 -0.2560
 8458TIP3    H125338   4.414   3.972   0.079  0.6969  0.2963 -1.0622
 8458TIP3    H225339   4.497   4.075   0.004  0.9929  0.9821  0.1762
 8459TIP3   OH225340   0.389   0.175   4.196  0.3089  0.4598 -0.1436
 8459TIP3    H125341   0.404   0.263   4.163 -0.8080  0.5011 -0.5537
 8459TIP3    H225342   0.361   0.188   4.287  2.1731  0.4025  0.4865
 8460TIP3   OH225343   6.122   5.084   2.036 -0.0758  0.5457 -0.1891
 8460TIP3    H125344   6.143   4.991   2.050 -1.8813 -0.1926 -1.8380
 8460TIP3    H225345   6.064   5.107   2.108  0.2455  0.3423  0.1350
 8461TIP3   OH225346   3.633   4.908   3.316 -0.5663 -0.0400 -0.1837
 8461TIP3    H125347   3.690   4.943   3.385  0.3703  0.9126 -1.3936
 8461TIP3    H225348   3.546   4.937   3.340 -0.4014 -0.5245  1.0882
 8462TIP3   OH225349   2.648   3.326   1.723  0.4103  0.2480 -0.4088
 8462TIP3    H125350   2.603   3.351   1.642  0.8570 -1.2140 -1.1495
 8462TIP3    H225351   2.653   3.230   1.719  0.8561  0.1768  1.1417
 8463TIP3   OH225352   0.323   6.738   5.801 -0.0618 -0.1992  0.6782
 8463TIP3    H125353   0.300   6.662   5.747 -1.2904 -0.3443  1.3517
 8463TIP3    H225354   0.369   6.700   5.876  0.6329 -0.1162  0.2984
 8464TIP3   OH225355   1.791   1.367   4.818  0.0844 -0.2577  0.3292
 8464TIP3    H125356   1.702   1.389   4.792  0.4641  0.0643 -0.7350
 8464TIP3    H225357   1.781   1.291   4.876 -1.0643  1.2615  2.2361
 8465TIP3   OH225358   3.714   4.392   1.974 -0.0714  0.3708 -0.3610
 8465TIP3    H125359   3.799   4.416   1.938 -0.0969  0.0766 -0.6238
 8465TIP3    H225360   3.656   4.390   1.898 -1.0873  3.6792  0.1578
 8466TIP3   OH225361   1.708   0.916   3.694  0.3662  0.0798  0.2151
 8466TIP3    H125362   1.670   0.840   3.739 -0.6929 -0.2903 -1.2217
 8466TIP3    H225363   1.754   0.878   3.619  0.6657  0.8050  0.0242
 8467TIP3   OH225364   6.363   3.209   4.166  0.1434  0.3399 -0.1043
 8467TIP3    H125365   6.396   3.217   4.255  0.3489 -0.0002 -0.1488
 8467TIP3    H225366   6.303   3.283   4.156 -0.4219 -0.0091  0.5557
 8468TIP3   OH225367   5.354   1.416   3.716 -0.3431  0.0235 -0.4850
 8468TIP3    H125368   5.269   1.427   3.673 -1.3406 -0.7728  1.1834
 8468TIP3    H225369   5.370   1.322   3.714 -0.8140 -0.1608  1.4720
 8469TIP3   OH225370   5.096   4.521   2.477  0.6341 -0.2731  0.7840
 8469TIP3    H125371   5.065   4.436   2.510 -2.5096  0.1658 -0.6792
 8469TIP3    H225372   5.042   4.585   2.523  1.4361  0.8010  0.2668
 8470TIP3   OH225373   0.663   2.499   0.422  0.5140  0.1230 -0.1160
 8470TIP3    H125374   0.620   2.430   0.472 -1.2556  1.2996  0.0718
 8470TIP3    H225375   0.693   2.562   0.489  0.0019  0.6782 -0.3989
 8471TIP3   OH225376   2.632   3.133   5.401 -0.0350 -0.1022  0.7500
 8471TIP3    H125377   2.589   3.092   5.477  0.0795  0.5336  1.1665
 8471TIP3    H225378   2.623   3.227   5.416  0.8399  0.0406  0.4665
 8472TIP3   OH225379   2.862   0.441   5.288  0.4261 -0.2658  0.2190
 8472TIP3    H125380   2.814   0.370   5.328 -0.2852  0.4919  0.7391
 8472TIP3    H225381   2.928   0.466   5.353 -0.5655  0.7957  0.8635
 8473TIP3   OH225382   3.770   1.446   2.176 -0.4321 -0.3692  0.2044
 8473TIP3    H125383   3.836   1.512   2.197 -2.6488  2.5790 -1.3940
 8473TIP3    H225384   3.798   1.410   2.091 -1.1225  1.3736 -0.8149
 8474TIP3   OH225385   0.339   6.289   1.172 -0.4079 -0.5490  0.1868
 8474TIP3    H125386   0.285   6.357   1.134  0.8455  0.0305 -0.6321
 8474TIP3    H225387   0.404   6.269   1.104  0.3029 -1.3305  1.0591
 8475TIP3   OH225388   1.249   1.477   4.838  0.1585  0.6093  0.1907
 8475TIP3    H125389   1.154   1.484   4.834  0.2845  2.0498 -2.0552
 8475TIP3    H225390   1.270   1.406   4.777  0.5046 -0.4586  1.5104
 8476TIP3   OH225391   0.203   3.452   5.056 -0.6910  0.7118 -0.1385
 8476TIP3    H125392   0.204   3.361   5.026  3.2248  0.1005  1.3534
 8476TIP3    H225393   0.160   3.448   5.141 -0.4528  0.2632 -0.0366
 8477TIP3   OH225394   3.677   4.934   0.830  0.1240 -0.0704 -0.4252
 8477TIP3    H125395   3.695   4.947   0.923 -1.6452 -1.6278  0.1995
 8477TIP3    H225396   3.614   4.862   0.827 -1.1235  0.9780 -2.7206
 8478TIP3   OH225397   1.013   2.219   3.786  0.0412  0.0653  0.6682
 8478TIP3    H125398   1.006   2.171   3.703  0.2224  0.3685  0.4727
 8478TIP3    H225399   1.083   2.173   3.834 -0.4266 -0.4338  0.8803
 8479TIP3   OH225400   1.101   6.411   5.462 -0.1914 -0.6476 -0.2774
 8479TIP3    H125401   1.052   6.331   5.481 -1.4167  0.6312  2.3496
 8479TIP3    H225402   1.038   6.468   5.417 -1.1032  0.7883  2.6157
 8480TIP3   OH225403   6.636   2.560   1.926 -0.1524 -0.6228  0.6388
 8480TIP3    H125404   6.582   2.507   1.986 -1.8308 -1.4850 -1.4798
 8480TIP3    H225405   6.577   2.580   1.853  1.1227  2.3324  0.2849
 8481TIP3   OH225406   2.717   5.522   2.320  0.4759 -0.5327 -0.1631
 8481TIP3    H125407   2.807   5.555   2.315  0.7848 -1.1977  0.7067
 8481TIP3    H225408   2.686   5.551   2.406 -0.6951  0.9988 -1.0607
 8482TIP3   OH225409   2.673   6.155   0.804 -0.0322 -0.0757  0.4128
 8482TIP3    H125410   2.676   6.189   0.714  0.9199 -0.2578  0.3686
 8482TIP3    H225411   2.677   6.233   0.859 -1.3467  0.0890  0.3142
 8483TIP3   OH225412   1.113   5.463   3.457  0.0966  0.1287  0.0451
 8483TIP3    H125413   1.157   5.548   3.455  0.7564 -0.2104 -0.0089
 8483TIP3    H225414   1.083   5.450   3.367  1.7031 -0.5652 -0.4233
 8484TIP3   OH225415   0.528   6.222   2.713  0.1366  0.2865  0.4240
 8484TIP3    H125416   0.505   6.287   2.779 -0.4233  0.6950 -0.1668
 8484TIP3    H225417   0.619   6.244   2.689  0.5189 -0.1751  1.4073
 8485TIP3   OH225418   3.659   3.480   2.200 -0.1486  0.1770 -0.6964
 8485TIP3    H125419   3.621   3.393   2.188  1.1099 -0.7293  1.2873
 8485TIP3    H225420   3.587   3.541   2.183 -1.4468 -1.3094 -0.6885
 8486TIP3   OH225421   4.631   4.679   3.873  0.5451  0.3032  0.2581
 8486TIP3    H125422   4.674   4.594   3.861  0.7924  0.5105 -0.3854
 8486TIP3    H225423   4.556   4.660   3.929  0.2808 -0.4492 -0.3208
 8487TIP3   OH225424   6.452   5.990   5.332 -0.3887  0.1148  0.2452
 8487TIP3    H125425   6.413   5.927   5.272 -2.2961  1.7447 -0.3405
 8487TIP3    H225426   6.544   5.964   5.337 -0.5271 -1.1322 -2.0265
 8488TIP3   OH225427   5.852   1.750   3.572  0.1720 -0.3095 -0.2609
 8488TIP3    H125428   5.934   1.797   3.586  0.0018  0.1289 -0.7063
 8488TIP3    H225429   5.836   1.705   3.655  1.0904 -0.7699 -0.3119
 8489TIP3   OH225430   0.670   1.516   1.901  0.1199 -0.2562 -0.1855
 8489TIP3    H125431   0.590   1.554   1.936 -0.0353 -1.7935  1.2419
 8489TIP3    H225432   0.694   1.573   1.827 -2.8953 -0.4212 -1.4113
 8490TIP3   OH225433   5.407   5.048   2.728 -0.2886 -0.5068  0.4131
 8490TIP3    H125434   5.379   4.985   2.662 -1.1051  0.4468 -0.1762
 8490TIP3    H225435   5.328   5.068   2.778 -0.3491  1.0527 -0.2724
 8491TIP3   OH225436   3.066   6.506   4.462  0.7887 -0.2458  0.3478
 8491TIP3    H125437   3.054   6.460   4.379 -2.2792 -1.6358  1.3940
 8491TIP3    H225438   3.128   6.452   4.511  1.3023 -0.3403 -0.3936
 8492TIP3   OH225439   4.877   4.142   4.489  0.5337 -0.2825 -0.1889
 8492TIP3    H125440   4.913   4.060   4.523  0.3501 -0.3167 -0.0747
 8492TIP3    H225441   4.929   4.211   4.529  2.8229 -0.3891 -2.6878
 8493TIP3   OH225442   6.825   0.830   1.422  0.5412  0.1001 -0.4564
 8493TIP3    H125443   6.907   0.850   1.377  0.6595  0.2201 -0.1892
 8493TIP3    H225444   6.757   0.869   1.366  0.6700  0.0532 -0.6457
 8494TIP3   OH225445   3.435   5.109   4.846 -0.1781 -0.2370 -0.1150
 8494TIP3    H125446   3.382   5.029   4.853  0.7314 -0.8192  0.2180
 8494TIP3    H225447   3.419   5.140   4.757 -2.2348  0.4193  0.4281
 8495TIP3   OH225448   3.671   2.494   0.471  0.0155 -0.0871  0.1825
 8495TIP3    H125449   3.634   2.429   0.531  0.5162 -0.1594  0.4176
 8495TIP3    H225450   3.761   2.464   0.456 -0.5119 -0.8445 -1.7127
 8496TIP3   OH225451   3.273   0.364   3.546 -0.3654  0.0934 -0.1864
 8496TIP3    H125452   3.261   0.275   3.581 -0.1133  0.4271  0.7894
 8496TIP3    H225453   3.360   0.361   3.505  0.3080  0.2619  1.1473
 8497TIP3   OH225454   3.099   4.242   0.880 -0.1787 -0.3743  0.4121
 8497TIP3    H125455   3.114   4.219   0.789 -0.7253 -1.8273  0.6658
 8497TIP3    H225456   3.187   4.252   0.917  0.0432  1.5718 -0.5661
 8498TIP3   OH225457   6.501   2.247   4.201 -0.2462  0.1386 -0.1055
 8498TIP3    H125458   6.443   2.218   4.131 -1.2901 -0.1348  0.8443
 8498TIP3    H225459   6.514   2.340   4.184  0.5447 -0.1698 -1.3566
 8499TIP3   OH225460   2.387   3.100   4.282  0.4653  0.3182 -0.1126
 8499TIP3    H125461   2.318   3.153   4.322  1.8247  1.8939  0.2298
 8499TIP3    H225462   2.352   3.077   4.196 -1.0859 -0.2097  0.6195
 8500TIP3   OH225463   2.537   5.218   3.096 -0.3476 -0.0102  0.6681
 8500TIP3    H125464   2.602   5.148   3.086 -0.6809 -0.4862  1.7377
 8500TIP3    H225465   2.576   5.293   3.050  1.1311 -0.1788  1.5788
 8501TIP3   OH225466   3.475   1.314   2.462 -0.3834  0.2974  0.8061
 8501TIP3    H125467   3.564   1.289   2.487 -0.6010 -2.4967 -0.8434
 8501TIP3    H225468   3.425   1.233   2.465 -2.0612  1.1254 -1.6094
 8502TIP3   OH225469   6.091   0.082   2.814 -0.4344  0.0050 -0.0598
 8502TIP3    H125470   6.179   0.110   2.787  0.2721 -1.8772  0.1206
 8502TIP3    H225471   6.090  -0.012   2.798 -2.1164 -0.1656  0.8122
 8503TIP3   OH225472   3.311   6.226   5.615 -0.3814 -0.7371 -0.1714
 8503TIP3    H125473   3.295   6.287   5.543  0.1951  0.2825  0.5452
 8503TIP3    H225474   3.233   6.233   5.671 -1.4363 -2.5059 -1.3303
 8504TIP3   OH225475   2.223   2.317   0.929 -1.1822  0.0567 -0.4268
 8504TIP3    H125476   2.184   2.402   0.909 -0.3728  0.5898  0.1783
 8504TIP3    H225477   2.301   2.338   0.980 -1.1760 -1.0737  0.0613
 8505TIP3   OH225478   7.106   0.881   0.939 -0.1872 -0.2587  0.5715
 8505TIP3    H125479   7.037   0.917   0.883  0.7448 -0.4048 -0.7329
 8505TIP3    H225480   7.153   0.819   0.883  1.4484  0.3707  1.1606
 8506TIP3   OH225481   3.690   1.068   0.426 -0.1685  0.1759 -0.2841
 8506TIP3    H125482   3.703   1.142   0.367 -1.3417  1.2647  0.7539
 8506TIP3    H225483   3.749   1.087   0.500 -0.3189 -0.0343 -0.1096
 8507TIP3   OH225484   1.298   4.326   4.319 -0.4220 -0.3615  0.0611
 8507TIP3    H125485   1.222   4.384   4.313 -0.5267 -0.4549  0.4232
 8507TIP3    H225486   1.274   4.248   4.269 -0.0236  0.1744 -0.9828
 8508TIP3   OH225487   5.887   4.385   3.625 -0.2296  0.0541 -0.0010
 8508TIP3    H125488   5.897   4.452   3.693  0.2886  0.1916 -0.2017
 8508TIP3    H225489   5.976   4.354   3.609 -0.3909 -0.2250 -0.3696
 8509TIP3   OH225490   5.532   5.673   2.444 -0.2138 -0.5445  0.2729
 8509TIP3    H125491   5.466   5.606   2.460 -1.1705  0.5646  1.1553
 8509TIP3    H225492   5.488   5.755   2.464  1.6497  0.1913  1.6694
 8510TIP3   OH225493   5.856   2.659   1.244 -0.7390  0.1164 -0.3622
 8510TIP3    H125494   5.932   2.718   1.242  0.0162 -0.8306 -0.4492
 8510TIP3    H225495   5.894   2.571   1.242 -1.8342 -0.3832 -0.0114
 8511TIP3   OH225496   7.005   0.430   2.478 -0.1411 -0.1022 -0.2522
 8511TIP3    H125497   6.931   0.412   2.420 -1.2601  0.1949  1.0477
 8511TIP3    H225498   7.046   0.509   2.441  0.3255 -0.9914 -1.7040
 8512TIP3   OH225499   1.338   3.955   2.796  0.0716 -0.3587  0.9435
 8512TIP3    H125500   1.359   3.995   2.880 -0.0956  1.2762  0.2503
 8512TIP3    H225501   1.256   3.909   2.811 -0.0878  0.1311  1.6120
 8513TIP3   OH225502   5.086   1.156   4.544  0.2605  0.5150  0.1524
 8513TIP3    H125503   5.163   1.189   4.498 -0.3864  1.7373 -0.0724
 8513TIP3    H225504   5.101   1.180   4.636 -0.3718  1.7768 -0.0632
 8514TIP3   OH225505   6.775   3.725   1.898 -0.2711 -0.1953  0.7288
 8514TIP3    H125506   6.786   3.813   1.863  0.0754 -0.5646 -0.0986
 8514TIP3    H225507   6.692   3.694   1.861 -0.3274 -0.2724  0.9139
 8515TIP3   OH225508   0.985   2.228   0.172 -0.2718 -0.3823  0.0061
 8515TIP3    H125509   0.898   2.266   0.165  0.2737  0.7537 -0.8496
 8515TIP3    H225510   1.023   2.269   0.249  0.3807  1.0254 -1.0144
 8516TIP3   OH225511   0.477   2.042   5.618 -0.3679 -0.4985  0.5044
 8516TIP3    H125512   0.498   1.951   5.639  0.9828  0.2446  2.7049
 8516TIP3    H225513   0.381   2.045   5.622 -0.4838 -1.9414 -0.2973
 8517TIP3   OH225514   3.205   4.729   3.644 -0.1799 -0.1026 -0.4158
 8517TIP3    H125515   3.230   4.640   3.667  0.3534 -0.2518 -1.5066
 8517TIP3    H225516   3.189   4.726   3.549 -2.0481  0.5258 -0.1686
 8518TIP3   OH225517   6.864   2.907   3.595  0.0506  0.3837 -0.1316
 8518TIP3    H125518   6.858   2.989   3.546 -0.2919  1.7368  2.0451
 8518TIP3    H225519   6.774   2.876   3.602  0.1415 -0.0007 -0.6701
 8519TIP3   OH225520   0.210   2.085   5.222 -0.1502 -0.1348  0.1545
 8519TIP3    H125521   0.134   2.134   5.255  0.0519  0.0590  0.3361
 8519TIP3    H225522   0.211   2.004   5.273 -1.0989 -0.8136 -0.8641
 8520TIP3   OH225523   7.134   0.805   0.539 -0.2248 -0.0884  0.1643
 8520TIP3    H125524   7.228   0.821   0.532 -0.3557  0.7770  0.2737
 8520TIP3    H225525   7.119   0.792   0.633 -0.2913  0.3037  0.2096
 8521TIP3   OH225526   0.654   1.915   0.219  0.0026 -0.3117  0.2427
 8521TIP3    H125527   0.700   1.845   0.173  0.7023 -1.1827  2.1614
 8521TIP3    H225528   0.599   1.870   0.283 -2.2392  0.7867 -0.8036
 8522TIP3   OH225529   5.517   3.143   4.008  0.7140  0.2100 -0.1723
 8522TIP3    H125530   5.499   3.234   4.029  1.2177  1.0197 -2.8655
 8522TIP3    H225531   5.612   3.141   3.991  0.4750 -0.4875 -1.5120
 8523TIP3   OH225532   4.969   1.979   4.130 -0.0823 -0.5933  0.4952
 8523TIP3    H125533   5.049   1.967   4.080 -0.8559 -1.5473 -0.5563
 8523TIP3    H225534   4.937   1.890   4.147 -1.0472 -0.2245  0.6916
 8524TIP3   OH225535   6.072   5.366   0.011  0.2944  0.2994  0.1965
 8524TIP3    H125536   6.036   5.336   0.095 -0.0783  0.9609  0.2828
 8524TIP3    H225537   5.999   5.411  -0.031  0.5682  0.2401 -0.3552
 8525TIP3   OH225538   5.663   0.835   1.786  0.3293 -0.4028  0.2585
 8525TIP3    H125539   5.627   0.754   1.821  0.7457  0.0072  1.6976
 8525TIP3    H225540   5.691   0.884   1.863 -0.2335  1.2684 -0.5591
 8526TIP3   OH225541   3.929   2.720   5.018  0.3577 -0.1223 -0.3479
 8526TIP3    H125542   3.943   2.673   5.101 -1.5321  0.6461  0.4604
 8526TIP3    H225543   3.927   2.651   4.952  1.0480 -0.8410  0.3534
 8527TIP3   OH225544   3.008   3.949   5.234 -0.2000  0.8919 -0.4324
 8527TIP3    H125545   2.916   3.975   5.239 -0.2186  0.6822  0.4393
 8527TIP3    H225546   3.041   3.992   5.155 -1.5621 -0.7421 -1.9697
 8528TIP3   OH225547   7.102   0.698   4.109 -0.0422  0.7794  0.1652
 8528TIP3    H125548   7.192   0.730   4.104  0.0076  0.6763  0.3742
 8528TIP3    H225549   7.103   0.636   4.182 -0.7741  2.3492  1.5807
 8529TIP3   OH225550   6.283   4.214   1.773  0.2173 -0.8260 -0.8640
 8529TIP3    H125551   6.207   4.200   1.716 -0.5855  0.6243 -0.2088
 8529TIP3    H225552   6.336   4.279   1.728  0.5830 -1.1271 -0.8699
 8530TIP3   OH225553   1.581   4.040   4.950  0.7331 -0.4333 -0.2924
 8530TIP3    H125554   1.589   4.047   5.045  0.0979  0.7653 -0.3147
 8530TIP3    H225555   1.656   4.089   4.916  1.6401 -1.8556 -0.4284
 8531TIP3   OH225556   0.129   2.981   4.711 -0.0398  0.3807 -0.4532
 8531TIP3    H125557   0.168   3.009   4.628 -1.5856  2.1607 -0.6423
 8531TIP3    H225558   0.114   3.063   4.759  0.8321 -0.5942  1.6290
 8532TIP3   OH225559   1.306   0.658   5.590 -0.2610  0.1266 -0.3075
 8532TIP3    H125560   1.247   0.584   5.600 -0.4028  0.1951 -0.6430
 8532TIP3    H225561   1.312   0.672   5.496  0.8604 -0.3384 -0.3296
 8533TIP3   OH225562   0.074   1.019   4.897  0.5808 -0.4584  0.2564
 8533TIP3    H125563   0.009   1.074   4.942  1.0687  1.9363 -1.7777
 8533TIP3    H225564   0.154   1.029   4.949  0.3578 -0.1685  0.5478
 8534TIP3   OH225565   3.795   4.286   0.426  0.2807 -0.2965  0.5262
 8534TIP3    H125566   3.790   4.275   0.331 -0.0070  1.6866  0.2744
 8534TIP3    H225567   3.888   4.284   0.446  0.4074  0.3622  0.0334
 8535TIP3   OH225568   3.657   6.335   3.200  0.1038 -0.2868  0.7854
 8535TIP3    H125569   3.669   6.353   3.293  0.9029 -0.3000  0.6908
 8535TIP3    H225570   3.573   6.291   3.195  0.3842 -0.9355  1.5902
 8536TIP3   OH225571   4.338   0.710   2.356 -0.2980  0.1947  0.5489
 8536TIP3    H125572   4.298   0.625   2.335 -0.7384  0.0160  1.9719
 8536TIP3    H225573   4.432   0.694   2.352 -0.2903  0.4998 -2.3973
 8537TIP3   OH225574   2.561   6.604   2.946 -0.5225 -0.5134 -0.0928
 8537TIP3    H125575   2.540   6.528   3.000 -0.3183  0.5623  1.5835
 8537TIP3    H225576   2.484   6.660   2.953 -0.1266  0.0503 -0.1667
 8538TIP3   OH225577   4.276   3.743   2.261 -0.6702  0.1300 -0.1075
 8538TIP3    H125578   4.333   3.755   2.185  0.5106 -2.2673  0.2885
 8538TIP3    H225579   4.288   3.822   2.313 -0.6273  1.3184 -1.8545
 8539TIP3   OH225580   1.278   5.492   2.121  0.2385 -0.1245  0.5674
 8539TIP3    H125581   1.230   5.492   2.039  1.0886  0.2732  0.0508
 8539TIP3    H225582   1.266   5.404   2.157 -2.1870  0.4284  1.2728
 8540TIP3   OH225583   5.936   0.868   1.411  0.2984  0.3183  0.1031
 8540TIP3    H125584   5.899   0.892   1.496 -2.2227  0.4823 -0.9332
 8540TIP3    H225585   5.904   0.935   1.351  1.1161 -0.3886 -1.1681
 8541TIP3   OH225586   0.897   4.072   5.005 -0.2300 -0.0259  0.3714
 8541TIP3    H125587   0.947   4.144   4.966 -1.1921  0.3503 -0.2045
 8541TIP3    H225588   0.821   4.115   5.045 -1.2713 -0.7805 -0.7245
 8542TIP3   OH225589   0.428   5.674   1.510 -0.0864  0.3219  0.2009
 8542TIP3    H125590   0.376   5.750   1.485 -0.6386  0.2331  1.0553
 8542TIP3    H225591   0.365   5.605   1.528  0.4319 -0.5342 -1.1062
 8543TIP3   OH225592   6.882   3.514   4.785  0.0432 -0.0806 -0.2825
 8543TIP3    H125593   6.902   3.601   4.749  0.4925 -0.6239 -1.3960
 8543TIP3    H225594   6.949   3.457   4.747  0.8600 -0.6314  1.8189
 8544TIP3   OH225595   2.354   1.858   0.160  0.6250  0.5128  0.3792
 8544TIP3    H125596   2.285   1.795   0.180  1.0383  0.7287  2.8691
 8544TIP3    H225597   2.434   1.805   0.154  0.9085  0.6743  2.0805
 8545TIP3   OH225598   3.294   3.004   0.119 -0.1751  0.1075  0.1254
 8545TIP3    H125599   3.303   3.090   0.161  0.2735 -0.0089  0.2783
 8545TIP3    H225600   3.267   2.946   0.189 -1.0669  0.2396 -0.1066
 8546TIP3   OH225601   3.287   3.262   0.844  0.0976  0.3499 -0.1799
 8546TIP3    H125602   3.194   3.241   0.852  0.1921  0.2506  0.8619
 8546TIP3    H225603   3.292   3.356   0.864  0.0589  0.6946 -1.6801
 8547TIP3   OH225604   1.182   5.287   4.030 -0.5831 -0.1115  0.2835
 8547TIP3    H125605   1.170   5.193   4.016 -1.0062 -0.3373  1.9913
 8547TIP3    H225606   1.135   5.306   4.111  2.1738  0.9193  1.7954
 8548TIP3   OH225607   5.544   4.942   4.729 -0.6669 -0.1414 -0.1947
 8548TIP3    H125608   5.635   4.947   4.701 -1.1125 -1.2019 -2.0366
 8548TIP3    H225609   5.547   4.899   4.814  0.5112 -0.5518 -0.4281
 8549TIP3   OH225610   5.200   3.885   2.680  0.1462 -0.1940 -0.1230
 8549TIP3    H125611   5.110   3.876   2.712 -0.6534  1.4067 -1.7835
 8549TIP3    H225612   5.206   3.822   2.609  0.4421 -0.4870  0.1583
 8550TIP3   OH225613   6.627   4.195   0.831 -0.7171  0.5014  0.3079
 8550TIP3    H125614   6.710   4.244   0.827  0.0215 -0.7559 -0.1731
 8550TIP3    H225615   6.617   4.174   0.924  0.6622 -1.1985  0.1287
 8551TIP3   OH225616   1.202   0.694   4.673 -0.3867 -0.2108  0.5384
 8551TIP3    H125617   1.111   0.721   4.659 -0.0429  0.4970 -0.5007
 8551TIP3    H225618   1.249   0.776   4.689  0.6338 -0.1057 -2.3443
 8552TIP3   OH225619   1.997   4.564   2.440 -0.4188 -0.5299  0.2579
 8552TIP3    H125620   1.937   4.635   2.462  0.7799  0.5181  0.2507
 8552TIP3    H225621   1.988   4.502   2.513 -1.9938 -0.7585 -0.0852
 8553TIP3   OH225622   3.560   6.650   3.726 -0.2180  0.1018 -0.6652
 8553TIP3    H125623   3.576   6.693   3.642 -0.8659  0.4443 -0.6209
 8553TIP3    H225624   3.476   6.686   3.756  0.1205  0.1578  0.2380
 8554TIP3   OH225625   6.684   0.572   4.579 -0.1633  0.3127 -0.1783
 8554TIP3    H125626   6.652   0.657   4.549  0.2494  0.4930 -0.1123
 8554TIP3    H225627   6.764   0.593   4.627 -1.7907  0.2980  2.7968
 8555TIP3   OH225628   4.574   5.271   1.883  0.2530  0.1209  0.1215
 8555TIP3    H125629   4.576   5.364   1.904 -0.8979  0.3960 -0.8958
 8555TIP3    H225630   4.667   5.247   1.873  0.5886  1.0213  0.8675
 8556TIP3   OH225631   3.141   5.695   0.623  0.6303 -0.0506 -0.1968
 8556TIP3    H125632   3.215   5.660   0.673 -0.1375 -0.7859  0.4443
 8556TIP3    H225633   3.166   5.682   0.531  0.5938 -1.8406  0.0235
 8557TIP3   OH225634   6.194   6.334   1.389  0.4773  0.1858 -0.0861
 8557TIP3    H125635   6.262   6.354   1.325  0.8485  0.0040  0.2465
 8557TIP3    H225636   6.239   6.335   1.473  0.4046 -1.4050  0.0182
 8558TIP3   OH225637   3.523   4.687   0.855  0.0243 -0.3126  0.0697
 8558TIP3    H125638   3.571   4.606   0.839  0.2269 -0.1671 -0.0662
 8558TIP3    H225639   3.432   4.659   0.867 -0.0894 -0.4762 -1.0121
 8559TIP3   OH225640   5.062   2.912   4.247 -0.2665 -0.6058 -0.0420
 8559TIP3    H125641   5.026   2.916   4.158 -0.1046  1.8078 -0.0585
 8559TIP3    H225642   5.101   2.998   4.261 -1.1919 -0.5486  2.7572
 8560TIP3   OH225643   4.172   0.645   2.926 -0.6010 -0.7927 -0.1835
 8560TIP3    H125644   4.083   0.638   2.962 -0.4939  0.2660  0.3250
 8560TIP3    H225645   4.184   0.739   2.911  0.9047 -0.7542  1.0081
 8561TIP3   OH225646   0.347   3.491   3.049 -0.3828  0.1236 -0.4625
 8561TIP3    H125647   0.388   3.411   3.082  0.7025 -0.1523 -2.3204
 8561TIP3    H225648   0.412   3.560   3.065 -0.9356  0.4797  0.3041
 8562TIP3   OH225649   6.259   4.758   0.720  0.5136 -0.0167 -0.2925
 8562TIP3    H125650   6.249   4.805   0.637  1.0414  1.9793  0.7294
 8562TIP3    H225651   6.353   4.749   0.732  0.4297 -0.9052 -0.2039
 8563TIP3   OH225652   6.624   5.661   3.002 -0.0713  0.3233 -0.6111
 8563TIP3    H125653   6.638   5.584   3.056 -0.9901  0.0866 -0.6891
 8563TIP3    H225654   6.711   5.683   2.968  0.1323 -0.9804 -1.0059
 8564TIP3   OH225655   5.906   0.186   1.372  0.3355  0.2731  0.4491
 8564TIP3    H125656   5.984   0.131   1.363  0.5417  0.6872 -0.4037
 8564TIP3    H225657   5.834   0.130   1.345  0.3696 -0.0110  0.9321
 8565TIP3   OH225658   2.597   0.399   3.488 -0.3142  0.2465 -0.3092
 8565TIP3    H125659   2.636   0.482   3.515 -1.4182  1.3354 -1.8573
 8565TIP3    H225660   2.579   0.411   3.394  1.1087 -2.3903 -1.0340
 8566TIP3   OH225661   3.013   2.183   0.953 -0.3793  0.0579  0.2525
 8566TIP3    H125662   3.055   2.188   0.867  0.3107  2.4339  0.6353
 8566TIP3    H225663   2.934   2.237   0.943  0.7239  2.0376  1.5597
 8567TIP3   OH225664   5.496   2.807   5.278  1.1407 -0.3177  0.1545
 8567TIP3    H125665   5.410   2.784   5.243  0.6763  0.6281  0.6440
 8567TIP3    H225666   5.533   2.724   5.307 -0.4001 -0.5164  1.6940
 8568TIP3   OH225667   4.566   2.182   5.142 -0.1852 -0.1923  0.7991
 8568TIP3    H125668   4.638   2.161   5.201 -0.4080 -1.1931  0.7391
 8568TIP3    H225669   4.496   2.213   5.199  0.3346  0.9451  0.8421
 8569TIP3   OH225670   5.949   1.285   3.267  0.5513  0.0784  0.2656
 8569TIP3    H125671   5.910   1.329   3.192  0.6014 -0.8731 -0.3343
 8569TIP3    H225672   5.901   1.202   3.274 -0.7758  0.9503  2.4763
 8570TIP3   OH225673   1.077   3.130   4.741 -0.2724  0.1010  0.9281
 8570TIP3    H125674   1.052   3.221   4.755 -1.4167 -0.1120  0.3939
 8570TIP3    H225675   1.084   3.121   4.646  3.5928  0.5455  0.9886
 8571TIP3   OH225676   6.205   6.127   1.848 -0.0153 -0.2341  0.3097
 8571TIP3    H125677   6.126   6.074   1.845 -0.6551  0.7370 -0.5887
 8571TIP3    H225678   6.276   6.063   1.847 -0.7646 -1.0993 -0.6325
 8572TIP3   OH225679   5.963   0.362   0.202  0.2951 -0.7297  0.0213
 8572TIP3    H125680   5.995   0.272   0.206 -1.3670 -1.3426  0.3014
 8572TIP3    H225681   5.887   0.358   0.145 -0.9723  0.0953  1.5543
 8573TIP3   OH225682   0.942   3.074   5.090 -0.4363 -0.1870 -0.0747
 8573TIP3    H125683   0.977   3.066   5.178 -0.2215  0.8200 -0.0581
 8573TIP3    H225684   0.850   3.049   5.098  0.2069 -2.9218 -0.1296
 8574TIP3   OH225685   6.896   5.388   0.565  0.2478  0.3229  0.1515
 8574TIP3    H125686   6.964   5.321   0.560 -0.6034 -0.4912 -1.2142
 8574TIP3    H225687   6.817   5.344   0.536 -0.5438  1.6745  0.1693
 8575TIP3   OH225688   6.575   3.123   0.231 -0.1396  0.0306 -0.3065
 8575TIP3    H125689   6.611   3.044   0.269  2.4864  0.9803 -0.6139
 8575TIP3    H225690   6.513   3.156   0.297  3.6786  1.2478  3.0699
 8576TIP3   OH225691   4.108   4.061   1.414 -0.1230 -0.7081  0.7358
 8576TIP3    H125692   4.063   4.144   1.427 -0.0759 -0.3840 -1.0368
 8576TIP3    H225693   4.047   4.007   1.364  0.6703 -0.9781  0.0378
 8577TIP3   OH225694   6.645   6.461   3.328  0.3347  0.3591  0.0123
 8577TIP3    H125695   6.580   6.412   3.278  0.5156 -0.0509  0.1732
 8577TIP3    H225696   6.710   6.489   3.263 -0.6677  1.9046 -0.3678
 8578TIP3   OH225697   1.688   1.382   2.184 -0.4962  0.4649 -0.1731
 8578TIP3    H125698   1.639   1.403   2.264 -4.6259 -1.6426 -1.8326
 8578TIP3    H225699   1.688   1.287   2.180  1.1669  0.4803 -1.8317
 8579TIP3   OH225700   5.984   5.677   3.772 -0.8816 -0.8789 -0.2928
 8579TIP3    H125701   6.048   5.718   3.713 -2.1759 -0.1115 -1.2000
 8579TIP3    H225702   6.019   5.694   3.859 -0.2719  0.2835 -0.7350
 8580TIP3   OH225703   2.444   1.775   5.873 -0.0407 -0.1135  0.6937
 8580TIP3    H125704   2.375   1.789   5.808  1.1497 -0.5688 -0.7291
 8580TIP3    H225705   2.406   1.713   5.935 -0.6894 -0.8940 -0.4400
 8581TIP3   OH225706   0.420   2.806   4.168  0.0433 -0.6770 -0.4054
 8581TIP3    H125707   0.458   2.719   4.180 -0.5085 -0.7227  1.2629
 8581TIP3    H225708   0.333   2.789   4.131 -0.0657 -0.8572 -0.0774
 8582TIP3   OH225709   2.561   6.372   1.475  0.3984 -0.2958  0.6515
 8582TIP3    H125710   2.484   6.326   1.508 -0.7095  1.2149  0.2963
 8582TIP3    H225711   2.542   6.464   1.489  1.7199  0.1728 -0.3740
 8583TIP3   OH225712   4.678   6.299   2.295  0.1405 -0.1710  0.1182
 8583TIP3    H125713   4.613   6.258   2.237  1.2749  1.5171 -2.5583
 8583TIP3    H225714   4.757   6.246   2.282 -0.2136 -1.3147  2.2080
 8584TIP3   OH225715   3.788   2.884   2.451  0.1551  0.4945 -0.4825
 8584TIP3    H125716   3.763   2.921   2.366  1.3644  0.4897 -0.8693
 8584TIP3    H225717   3.839   2.953   2.493 -1.3456  0.9102  0.7420
 8585TIP3   OH225718   2.217   1.681   2.229  0.1121  0.4824  0.1119
 8585TIP3    H125719   2.231   1.734   2.151  0.4668 -1.4088 -1.1708
 8585TIP3    H225720   2.263   1.728   2.299  0.2858  1.9091 -0.9286
 8586TIP3   OH225721   4.756   0.939   1.648  0.1298 -0.2940 -0.8997
 8586TIP3    H125722   4.664   0.913   1.658  0.4309 -0.9478  0.3791
 8586TIP3    H225723   4.775   0.990   1.727  0.9317 -0.3481 -1.0520
 8587TIP3   OH225724   2.547   0.940   5.295 -0.5118  0.4425  0.3255
 8587TIP3    H125725   2.598   0.977   5.367  0.1934  2.1127 -0.9465
 8587TIP3    H225726   2.612   0.923   5.226 -1.2807 -0.2601 -0.2512
 8588TIP3   OH225727   2.440   4.466   0.278 -0.7230 -0.1051 -0.0959
 8588TIP3    H125728   2.482   4.396   0.329  3.4178  2.2800  0.2155
 8588TIP3    H225729   2.458   4.443   0.187 -1.6149 -0.6771 -0.1358
 8589TIP3   OH225730   5.231   2.993   1.919 -0.2715 -0.5531  0.3406
 8589TIP3    H125731   5.307   2.949   1.957  0.7762  0.7608 -0.1360
 8589TIP3    H225732   5.191   3.040   1.992 -0.3627 -0.8898  0.5067
 8590TIP3   OH225733   0.175   1.611   1.625  0.5199  0.1922  0.6959
 8590TIP3    H125734   0.168   1.521   1.657  0.7216 -0.3042 -0.6027
 8590TIP3    H225735   0.111   1.660   1.677  0.4237 -0.6912  1.4343
 8591TIP3   OH225736   4.866   3.262   3.882  0.3839 -0.0373 -0.3224
 8591TIP3    H125737   4.915   3.344   3.877  0.4899 -0.0575  0.2897
 8591TIP3    H225738   4.925   3.197   3.844  0.7444 -0.0189  0.1936
 8592TIP3   OH225739   1.994   4.530   3.484  0.3198  0.2292  0.5553
 8592TIP3    H125740   2.071   4.558   3.435 -0.0244  1.8042  0.8687
 8592TIP3    H225741   2.030   4.481   3.558  1.0970  1.4942  1.0609
 8593TIP3   OH225742   0.729   1.134   5.593 -0.0409 -0.1759 -0.2767
 8593TIP3    H125743   0.678   1.199   5.641  0.9940 -0.4042  1.1993
 8593TIP3    H225744   0.699   1.142   5.502 -1.6286  0.6899  0.2919
 8594TIP3   OH225745   1.738   4.869   3.414  0.0707  0.6159 -0.1876
 8594TIP3    H125746   1.816   4.828   3.376  0.4390  1.0100  0.1298
 8594TIP3    H225747   1.738   4.958   3.378 -1.3219  0.0425 -1.7312
 8595TIP3   OH225748   5.735   5.661   2.621  0.1964 -0.0154  0.3397
 8595TIP3    H125749   5.668   5.684   2.557 -1.1259 -1.8951  0.9499
 8595TIP3    H225750   5.732   5.566   2.626  1.8828 -0.0611  1.5234
 8596TIP3   OH225751   1.928   4.417   4.453 -0.3193  0.0887  0.4171
 8596TIP3    H125752   1.955   4.487   4.394  0.5511  1.0930  1.9379
 8596TIP3    H225753   1.955   4.337   4.409 -0.6135  0.7317 -0.9889
 8597TIP3   OH225754   3.962   3.097   5.365 -0.0817 -0.0725 -0.4586
 8597TIP3    H125755   4.042   3.112   5.315  0.7180  0.8079  1.0265
 8597TIP3    H225756   3.960   3.002   5.380  0.5451 -0.1309 -0.7146
 8598TIP3   OH225757   6.827   1.798   2.223  0.3010  0.0666  0.0762
 8598TIP3    H125758   6.750   1.767   2.175  1.7261 -1.7081 -1.2584
 8598TIP3    H225759   6.844   1.885   2.188  0.3689 -0.5623 -1.5538
 8599TIP3   OH225760   1.642   0.798   2.419 -0.2163 -0.2829 -0.0535
 8599TIP3    H125761   1.724   0.805   2.470  0.3942  0.9854 -1.1671
 8599TIP3    H225762   1.588   0.870   2.450  0.7106  1.3843 -2.0973
 8600TIP3   OH225763   7.112   5.150   5.333  0.4623  0.1248  0.8721
 8600TIP3    H125764   7.033   5.202   5.344 -0.6114 -1.1011 -0.6050
 8600TIP3    H225765   7.091   5.066   5.375  0.9996 -0.1784  0.5491
 8601TIP3   OH225766   1.365   4.152   5.184 -0.5564 -0.2068 -0.6527
 8601TIP3    H125767   1.297   4.084   5.187  0.8020 -1.6115 -0.1220
 8601TIP3    H225768   1.446   4.103   5.171  0.2862  1.4924 -2.2127
 8602TIP3   OH225769   1.811   1.370   5.823  0.0189 -0.3028 -0.7076
 8602TIP3    H125770   1.901   1.385   5.793 -0.4246 -0.9479 -2.4891
 8602TIP3    H225771   1.764   1.449   5.798  0.4016  0.8832  1.9297
 8603TIP3   OH225772   1.297   2.477   4.079  0.0123  0.1198 -0.1237
 8603TIP3    H125773   1.341   2.434   4.153  1.2906  1.2195 -0.2068
 8603TIP3    H225774   1.349   2.451   4.002 -0.5983 -0.0481 -0.4897
 8604TIP3   OH225775   2.945   0.141   1.962 -0.2527 -0.3890 -0.0210
 8604TIP3    H125776   2.860   0.098   1.968 -0.1657 -0.9251 -2.0650
 8604TIP3    H225777   2.925   0.234   1.969 -0.9362 -0.5322  0.0242
 8605TIP3   OH225778   7.009   0.219   4.963 -0.2808 -0.0673 -0.0335
 8605TIP3    H125779   6.976   0.131   4.983  0.6917 -0.4629 -0.1223
 8605TIP3    H225780   6.935   0.263   4.921 -0.1179 -1.6030 -2.1129
 8606TIP3   OH225781   3.952   1.893   0.120  0.1453 -0.1400  0.4057
 8606TIP3    H125782   4.013   1.891   0.193 -1.5853  0.3044  1.9219
 8606TIP3    H225783   3.932   1.801   0.103  1.5273 -0.3299 -0.4378
 8607TIP3   OH225784   6.950   5.467   4.145  0.3196  0.1419 -0.2069
 8607TIP3    H125785   6.893   5.485   4.220 -1.0596  0.5046 -1.2910
 8607TIP3    H225786   6.907   5.511   4.072  1.3225 -0.6785 -1.3237
 8608TIP3   OH225787   1.365   6.418   3.019 -0.0398 -0.4817 -0.0945
 8608TIP3    H125788   1.398   6.418   2.929 -0.5412 -0.4629 -0.2867
 8608TIP3    H225789   1.432   6.463   3.070  0.1027 -0.2036 -0.5192
 8609TIP3   OH225790   0.138   3.983   4.392 -0.4459  1.2157  0.7639
 8609TIP3    H125791   0.108   4.052   4.452 -0.7945  1.1146  0.7087
 8609TIP3    H225792   0.154   3.908   4.449 -1.8639  0.7660  0.6107
 8610TIP3   OH225793   2.420   5.253   3.462 -0.0724 -0.0860 -0.5626
 8610TIP3    H125794   2.363   5.256   3.539 -0.3162  0.5704 -0.7628
 8610TIP3    H225795   2.374   5.195   3.401 -1.9111  2.4083 -1.7662
 8611TIP3   OH225796   0.385   2.619   2.428  0.4493  0.1037 -0.1959
 8611TIP3    H125797   0.355   2.530   2.410 -0.2842  0.1001  0.9651
 8611TIP3    H225798   0.382   2.626   2.523 -0.8193  1.8108 -0.3218
 8612TIP3   OH225799   2.025   4.893   0.148  0.3814 -0.1234 -0.6606
 8612TIP3    H125800   2.001   4.983   0.125 -0.2038 -0.1857 -0.3212
 8612TIP3    H225801   2.088   4.902   0.219  1.2559  0.0421 -1.4432
 8613TIP3   OH225802   6.162   0.596   2.186  0.2420 -0.0130 -0.6474
 8613TIP3    H125803   6.147   0.567   2.276 -4.7492 -1.6386 -1.6994
 8613TIP3    H225804   6.232   0.540   2.154  1.9970  0.4567  2.0577
 8614TIP3   OH225805   0.160   2.600   3.466  0.0746 -0.4289  0.1062
 8614TIP3    H125806   0.252   2.575   3.454  0.9873  1.7860  1.6913
 8614TIP3    H225807   0.134   2.557   3.547 -0.6989 -1.9832 -0.9369
 8615TIP3   OH225808   5.670   5.769   2.049 -0.0920  0.0627  0.2738
 8615TIP3    H125809   5.678   5.710   1.974 -1.8459 -0.5136  0.5125
 8615TIP3    H225810   5.708   5.719   2.122  2.1441  0.8432 -0.2797
 8616TIP3   OH225811   1.310   4.192   4.893 -0.2021 -0.5220  0.1474
 8616TIP3    H125812   1.338   4.182   4.984 -1.1327 -1.6071  0.3491
 8616TIP3    H225813   1.388   4.173   4.842 -0.1815 -2.1119  0.7062
 8617TIP3   OH225814   2.733   2.038   3.543 -0.1335 -0.0470 -0.3165
 8617TIP3    H125815   2.803   2.087   3.585 -0.7291  0.5707 -0.0112
 8617TIP3    H225816   2.770   1.952   3.525  0.8699  0.4386 -0.6516
 8618TIP3   OH225817   6.945   4.618   2.545 -0.0069 -0.0727  0.8864
 8618TIP3    H125818   6.855   4.607   2.577  0.3636  0.4159  2.1559
 8618TIP3    H225819   6.965   4.536   2.501 -1.6030  0.3561 -0.7972
 8619TIP3   OH225820   5.485   1.170   4.829 -0.3333  0.1557 -0.1717
 8619TIP3    H125821   5.418   1.231   4.795 -0.8706 -1.2643 -1.8476
 8619TIP3    H225822   5.561   1.185   4.773 -0.2540 -0.2823 -0.1798
 8620TIP3   OH225823   5.874   5.038   5.244 -0.2762  0.5881  0.1328
 8620TIP3    H125824   5.778   5.033   5.236 -0.3956  0.9784  1.1411
 8620TIP3    H225825   5.893   4.992   5.326  0.6208 -1.2776 -1.0414
 8621TIP3   OH225826   4.113   0.052   1.599 -0.0304  0.3129 -0.3073
 8621TIP3    H125827   4.089   0.145   1.594 -0.2491  0.3549  1.1837
 8621TIP3    H225828   4.209   0.052   1.597  0.0160  0.6915  1.1207
 8622TIP3   OH225829   2.871   5.989   3.514  0.0001  0.4627  0.0891
 8622TIP3    H125830   2.818   5.912   3.535 -0.0790  0.6781  0.6764
 8622TIP3    H225831   2.946   5.953   3.465  0.7488 -0.1986  1.6434
 8623TIP3   OH225832   0.166   2.061   5.637 -0.1892  0.7395 -0.1993
 8623TIP3    H125833   0.096   2.000   5.615  0.1245 -0.1159  1.0932
 8623TIP3    H225834   0.133   2.111   5.712  0.7503 -0.0062  0.7346
 8624TIP3   OH225835   4.644   3.092   2.646  0.2057  0.6363 -0.2586
 8624TIP3    H125836   4.567   3.072   2.593 -0.6465  2.6499  0.1397
 8624TIP3    H225837   4.659   3.012   2.697 -1.2381 -0.0139 -0.7911
 8625TIP3   OH225838   2.747   0.135   2.604 -0.0123 -1.0404  0.4305
 8625TIP3    H125839   2.680   0.068   2.618 -0.1300 -1.4838 -1.7865
 8625TIP3    H225840   2.779   0.118   2.515 -0.2219  2.0263 -0.3341
 8626TIP3   OH225841   7.125   0.204   1.644 -1.0980  0.0180 -0.0026
 8626TIP3    H125842   7.183   0.236   1.714 -0.4668  1.5059 -1.1459
 8626TIP3    H225843   7.171   0.127   1.609 -1.7834 -1.2008  1.6568
 8627TIP3   OH225844   5.513   4.872   3.839  0.6640 -0.9264  0.2466
 8627TIP3    H125845   5.584   4.883   3.775  1.4709 -0.0978  1.2563
 8627TIP3    H225846   5.449   4.818   3.793 -0.0958  1.8628 -2.3125
 8628TIP3   OH225847   5.668   2.231   3.045  0.0341 -0.2992 -0.6721
 8628TIP3    H125848   5.677   2.316   3.002  0.7413  0.8078  1.5493
 8628TIP3    H225849   5.580   2.231   3.081  0.6009  0.2555  0.7892
 8629TIP3   OH225850   5.954   3.550   1.589 -0.3666 -0.0250 -0.5432
 8629TIP3    H125851   5.888   3.488   1.618 -0.6043  0.9285  1.0790
 8629TIP3    H225852   5.905   3.626   1.560 -0.0277  0.0561 -0.9103
 8630TIP3   OH225853   6.415   6.383   2.088  0.2242 -0.2187 -0.3727
 8630TIP3    H125854   6.343   6.365   2.029 -0.2184  1.2618 -0.3307
 8630TIP3    H225855   6.374   6.387   2.175  0.5655 -0.6031 -0.1928
 8631TIP3   OH225856   1.027   4.601   0.819  0.0461 -0.3006  0.2032
 8631TIP3    H125857   1.105   4.569   0.772 -0.9004  0.2160 -1.8310
 8631TIP3    H225858   0.968   4.631   0.750 -0.9756  1.6084  1.7954
 8632TIP3   OH225859   5.631   6.549   1.736  0.6921 -0.0590  0.1705
 8632TIP3    H125860   5.566   6.611   1.703  1.1702 -0.0905 -0.8911
 8632TIP3    H225861   5.599   6.523   1.822 -0.5944  0.0864 -0.2469
 8633TIP3   OH225862   1.078   4.495   3.633 -0.2049 -0.3565 -0.1188
 8633TIP3    H125863   1.128   4.413   3.638  3.2998  1.5282 -0.7743
 8633TIP3    H225864   1.003   4.474   3.577  0.8778 -2.9666 -0.7391
 8634TIP3   OH225865   3.934   5.256   1.494 -0.5507  0.2358 -0.1324
 8634TIP3    H125866   3.921   5.266   1.400 -1.4180 -0.2114 -0.0715
 8634TIP3    H225867   4.021   5.217   1.503 -0.2739  0.7017 -0.7164
 8635TIP3   OH225868   1.601   2.067   5.895  0.5765  0.6861 -0.4295
 8635TIP3    H125869   1.587   2.012   5.817 -1.5077  1.6306 -0.7934
 8635TIP3    H225870   1.513   2.093   5.921  1.1871  0.1941  2.4416
 8636TIP3   OH225871   4.631   1.886   5.438  0.0761 -0.1096  0.0454
 8636TIP3    H125872   4.643   1.819   5.370  1.0724 -0.5884  0.6662
 8636TIP3    H225873   4.630   1.837   5.520  4.2330  0.7685  0.8673
 8637TIP3   OH225874   0.206   2.622   5.079  0.4082 -0.7775 -0.2140
 8637TIP3    H125875   0.288   2.631   5.032  0.8361 -1.3113  0.4166
 8637TIP3    H225876   0.147   2.684   5.036  1.1685 -0.3055 -0.5927
 8638TIP3   OH225877   5.517   0.383   0.758  0.3994 -0.8041  0.2418
 8638TIP3    H125878   5.601   0.378   0.713  0.5896 -1.6527  0.6648
 8638TIP3    H225879   5.480   0.467   0.733  2.3986  0.6447  1.8815
 8639TIP3   OH225880   4.007   0.476   1.391 -0.8090  0.5713 -0.7955
 8639TIP3    H125881   3.919   0.513   1.380  0.1120  2.2068 -3.6585
 8639TIP3    H225882   4.041   0.469   1.302  1.6594 -0.9032  0.1720
 8640TIP3   OH225883   5.090   2.859   1.681 -0.1515 -0.3020  0.2125
 8640TIP3    H125884   5.141   2.908   1.746  0.0488 -0.8471  0.4716
 8640TIP3    H225885   5.152   2.842   1.610  1.7597 -5.3393  2.5701
 8641TIP3   OH225886   2.058   5.013   0.981  0.4269  0.7641  0.4185
 8641TIP3    H125887   2.058   5.097   0.935  1.3142  0.4808 -0.1174
 8641TIP3    H225888   2.032   5.035   1.071 -0.8137  1.3969 -0.0698
 8642TIP3   OH225889   6.841   2.682   2.171 -0.3103 -0.1064 -0.5771
 8642TIP3    H125890   6.889   2.734   2.107 -0.5395  0.5076 -0.2592
 8642TIP3    H225891   6.775   2.742   2.206  0.0399 -0.3091  0.4874
 8643TIP3   OH225892   4.044   3.761   2.069 -0.2797  0.2219 -0.7817
 8643TIP3    H125893   4.063   3.828   2.135  0.1776 -0.7593  0.1146
 8643TIP3    H225894   4.086   3.682   2.103 -2.5598 -1.0471 -0.7393
 8644TIP3   OH225895   6.393   1.819   1.369 -0.0243 -0.2592  0.0922
 8644TIP3    H125896   6.399   1.908   1.332  1.1433 -0.7259 -0.8861
 8644TIP3    H225897   6.348   1.832   1.453  0.1908  1.2669  0.0117
 8645TIP3   OH225898   3.097   0.895   0.402  0.2001 -0.1125  0.0807
 8645TIP3    H125899   3.003   0.900   0.386 -0.0930 -0.1423  1.6281
 8645TIP3    H225900   3.122   0.985   0.424  0.3547 -0.2688  0.5508
 8646TIP3   OH225901   5.705   4.402   4.001 -0.9196 -0.1388 -1.0004
 8646TIP3    H125902   5.728   4.310   4.016  0.5172  0.0909 -1.6914
 8646TIP3    H225903   5.611   4.400   3.983 -1.1298 -1.3356  0.0864
 8647TIP3   OH225904   1.085   2.246   4.796  0.6094 -0.3959 -0.6234
 8647TIP3    H125905   1.085   2.192   4.875 -0.1038  0.3437 -0.1060
 8647TIP3    H225906   1.171   2.289   4.797  1.3334 -1.7887 -1.2409
 8648TIP3   OH225907   3.387   5.041   4.200 -0.3004 -0.5737 -0.6530
 8648TIP3    H125908   3.418   5.038   4.109  2.1443 -0.0227  0.0904
 8648TIP3    H225909   3.430   5.118   4.238 -0.4955 -1.3386  1.2288
 8649TIP3   OH225910   6.136   0.413   2.947 -0.1088 -0.6717  0.3381
 8649TIP3    H125911   6.133   0.481   2.880  0.8981  1.0075  1.9150
 8649TIP3    H225912   6.056   0.363   2.935 -1.8660  1.9827  0.2962
 8650TIP3   OH225913   5.622   0.740   1.091  0.1400  0.1398 -0.4208
 8650TIP3    H125914   5.629   0.729   0.996 -0.3009  1.7762 -0.6835
 8650TIP3    H225915   5.704   0.705   1.126  0.4551 -0.1686 -1.4408
 8651TIP3   OH225916   6.982   6.559   0.625 -0.3273  0.4287  0.5552
 8651TIP3    H125917   6.960   6.482   0.572 -0.4394  0.6137  0.3355
 8651TIP3    H225918   6.903   6.612   0.626  0.3984  1.6050 -1.1151
 8652TIP3   OH225919   4.947   3.257   4.161  0.4473  0.2068  0.1746
 8652TIP3    H125920   4.908   3.238   4.076 -0.0734 -1.3660  0.7250
 8652TIP3    H225921   5.035   3.218   4.156  1.0133  1.4826 -0.1649
 8653TIP3   OH225922   2.798   2.071   4.731  0.5919  0.0832  0.5481
 8653TIP3    H125923   2.704   2.079   4.715  0.0183 -2.5929  1.9822
 8653TIP3    H225924   2.839   2.101   4.650 -1.6408 -1.8685 -1.4547
 8654TIP3   OH225925   6.874   2.229   2.526  0.5633  0.1701 -0.4444
 8654TIP3    H125926   6.787   2.194   2.508  0.6039  1.0776 -2.7356
 8654TIP3    H225927   6.927   2.201   2.451  1.4095  2.3433 -0.7238
 8655TIP3   OH225928   4.945   2.085   1.090  0.0127 -0.7398  0.4361
 8655TIP3    H125929   5.004   2.141   1.141 -1.5056  0.3756  1.0471
 8655TIP3    H225930   4.974   1.996   1.110  0.4973 -0.2710  1.9761
 8656TIP3   OH225931   3.605   6.289   4.621 -0.7763 -0.2083  0.6184
 8656TIP3    H125932   3.648   6.374   4.611 -0.7694 -0.1704  0.9809
 8656TIP3    H225933   3.669   6.227   4.585 -1.1110  0.0145 -0.3877
 8657TIP3   OH225934   1.410   2.004   1.205 -0.0211  0.4920 -0.0100
 8657TIP3    H125935   1.462   1.937   1.161 -0.9226 -0.1876 -0.0529
 8657TIP3    H225936   1.475   2.058   1.251  0.9075  0.9327 -1.7605
 8658TIP3   OH225937   5.948   5.121   1.828  0.1113 -0.1517  0.0850
 8658TIP3    H125938   6.015   5.122   1.897 -0.1491 -1.0369  0.3714
 8658TIP3    H225939   5.961   5.037   1.783 -0.9826 -0.4742  0.3328
 8659TIP3   OH225940   5.013   2.525   5.770  0.3993 -0.9348 -0.0780
 8659TIP3    H125941   5.078   2.456   5.782 -0.6372 -2.1149 -1.0102
 8659TIP3    H225942   4.980   2.512   5.681 -0.0961  0.5365 -0.1375
 8660TIP3   OH225943   3.225   0.873   1.814  0.5201  0.1182 -0.2404
 8660TIP3    H125944   3.302   0.834   1.773 -0.0042 -1.1846 -0.0376
 8660TIP3    H225945   3.163   0.801   1.824 -0.8331  1.1752 -0.6005
 8661TIP3   OH225946   5.054   4.324   3.529 -0.2680  0.3378 -0.3538
 8661TIP3    H125947   5.113   4.260   3.489  0.7100  1.8799 -1.5109
 8661TIP3    H225948   4.980   4.330   3.467 -0.9519 -0.5086  0.3530
 8662TIP3   OH225949   6.121   6.278   5.467 -0.4037  0.6340  0.2274
 8662TIP3    H125950   6.141   6.250   5.377 -0.8101 -1.7796  0.8086
 8662TIP3    H225951   6.171   6.218   5.522 -0.9029  1.4611  1.6245
 8663TIP3   OH225952   2.661   0.116   3.550 -0.0126 -0.2094  0.2373
 8663TIP3    H125953   2.661   0.210   3.531 -1.7735 -0.5532 -1.8199
 8663TIP3    H225954   2.740   0.103   3.603  0.3547  2.3821  0.4928
 8664TIP3   OH225955   4.370   4.033   1.340 -0.2629  0.1152 -0.0655
 8664TIP3    H125956   4.384   4.114   1.291  0.4766  0.6953  1.0728
 8664TIP3    H225957   4.290   4.048   1.390  0.1063  0.3182  0.4734
 8665TIP3   OH225958   3.576   6.159   0.804  0.0878 -0.4090  0.2836
 8665TIP3    H125959   3.583   6.064   0.804 -0.7395 -0.4988  1.6441
 8665TIP3    H225960   3.487   6.177   0.836  0.5833  0.8174  1.0857
 8666TIP3   OH225961   0.334   4.867   0.259 -0.6965 -0.1034 -0.0264
 8666TIP3    H125962   0.302   4.948   0.297 -0.4870  0.1815 -0.4447
 8666TIP3    H225963   0.307   4.871   0.167 -0.5628 -0.4417 -0.0840
 8667TIP3   OH225964   1.478   5.257   1.983  0.1066 -0.0968  0.2826
 8667TIP3    H125965   1.481   5.271   2.078 -1.7557  0.5961  0.2878
 8667TIP3    H225966   1.566   5.278   1.953  0.3045  1.2661  1.6701
 8668TIP3   OH225967   3.831   4.639   1.578  0.8476  0.8213 -0.4254
 8668TIP3    H125968   3.762   4.702   1.558  0.3551  0.6454  0.6757
 8668TIP3    H225969   3.904   4.665   1.521  0.3397  1.8247 -0.6338
 8669TIP3   OH225970   2.919   5.876   1.176 -0.1483 -0.7768 -0.0481
 8669TIP3    H125971   2.902   5.961   1.136 -0.7083 -0.9341 -0.1656
 8669TIP3    H225972   2.904   5.813   1.105 -1.3567 -1.0755  0.4352
 8670TIP3   OH225973   0.877   6.348   0.012 -0.0892  0.2021 -0.0312
 8670TIP3    H125974   0.796   6.299   0.023  0.3156 -0.8496 -1.4053
 8670TIP3    H225975   0.849   6.440   0.008 -1.4952 -0.2395 -2.3853
 8671TIP3   OH225976   0.716   0.514   5.806  0.0891  0.2495  0.4424
 8671TIP3    H125977   0.763   0.587   5.765 -1.2141  0.6081 -0.4668
 8671TIP3    H225978   0.654   0.486   5.739  2.2731 -3.4502 -0.3306
 8672TIP3   OH225979   1.499   3.383   1.467  0.3835  0.0510  1.2436
 8672TIP3    H125980   1.444   3.438   1.410  0.5799 -0.4275  0.5801
 8672TIP3    H225981   1.573   3.439   1.489 -1.1897  1.3778  3.6643
 8673TIP3   OH225982   5.352   2.788   3.059 -0.7947  0.3194 -0.6946
 8673TIP3    H125983   5.323   2.705   3.095 -1.8730  1.1595  0.4842
 8673TIP3    H225984   5.394   2.833   3.132  0.2163  0.6155 -1.4443
 8674TIP3   OH225985   3.617   4.655   3.957  0.6375  0.7933 -0.0427
 8674TIP3    H125986   3.634   4.734   4.008 -0.5597  2.3653 -1.8950
 8674TIP3    H225987   3.635   4.681   3.866  0.6961 -1.2384 -0.6655
 8675TIP3   OH225988   5.880   5.815   5.523 -0.1994  0.0826 -0.0861
 8675TIP3    H125989   5.906   5.846   5.610 -1.0011 -0.0194  0.1957
 8675TIP3    H225990   5.823   5.740   5.540  0.7611 -0.8225 -0.7418
 8676TIP3   OH225991   3.718   0.542   1.397  0.1608 -0.2114  0.7579
 8676TIP3    H125992   3.677   0.607   1.455 -1.2892  0.5720 -1.0440
 8676TIP3    H225993   3.662   0.464   1.406 -0.6023  0.2031 -0.2020
 8677TIP3   OH225994   6.593   5.723   4.307 -0.3425  0.5093  0.5747
 8677TIP3    H125995   6.575   5.740   4.214  0.8992  0.8630  0.3850
 8677TIP3    H225996   6.531   5.654   4.331 -1.0984  0.8399 -0.3477
 8678TIP3   OH225997   6.459   4.311   2.167  0.0528 -0.8672 -0.1183
 8678TIP3    H125998   6.385   4.273   2.214 -0.8979  0.7665 -0.1867
 8678TIP3    H225999   6.495   4.240   2.115 -2.1105 -1.5065 -0.8501
 8679TIP3   OH226000   6.814   0.169   1.008  0.9201 -0.3232 -0.1868
 8679TIP3    H126001   6.882   0.147   1.071 -0.1929 -0.9645  0.8150
 8679TIP3    H226002   6.738   0.118   1.035 -0.5391  1.7447 -0.1535
 8680TIP3   OH226003   4.510   1.329   2.348  0.0420  0.0117  0.0907
 8680TIP3    H126004   4.508   1.356   2.256  0.4886 -1.2950 -0.3262
 8680TIP3    H226005   4.515   1.411   2.397 -0.7773  0.7598 -1.0227
 8681TIP3   OH226006   1.699   4.372   1.002 -0.7942  0.2655 -0.2466
 8681TIP3    H126007   1.645   4.420   0.939 -0.8392  0.3123 -0.1723
 8681TIP3    H226008   1.696   4.281   0.971 -0.1972  0.4068 -0.7486
 8682TIP3   OH226009   1.319   5.642   5.122 -0.1293 -0.1971 -0.3987
 8682TIP3    H126010   1.396   5.679   5.077 -1.7627  0.7490 -2.5898
 8682TIP3    H226011   1.252   5.709   5.113 -0.9469 -0.4833  2.5550
 8683TIP3   OH226012   3.235   6.176   1.120 -0.2458 -0.3058  0.2488
 8683TIP3    H126013   3.330   6.182   1.131 -0.3043  2.0917 -0.0861
 8683TIP3    H226014   3.203   6.144   1.204  0.7118  0.8985  1.0967
 8684TIP3   OH226015   0.317   3.244   1.851  0.4166 -0.5644  0.6807
 8684TIP3    H126016   0.389   3.288   1.808  0.0480 -0.3603  0.2693
 8684TIP3    H226017   0.357   3.202   1.928  1.0336 -0.7550  0.2642
 8685TIP3   OH226018   1.297   0.659   0.991 -0.3428 -0.4598 -0.0261
 8685TIP3    H126019   1.226   0.626   1.045 -3.3625  2.0507 -2.0684
 8685TIP3    H226020   1.332   0.582   0.947 -2.3961 -1.7403  0.4750
 8686TIP3   OH226021   1.289   2.712   2.772 -0.1925  0.2843  0.5458
 8686TIP3    H126022   1.237   2.724   2.693  0.0666 -1.5235  0.0599
 8686TIP3    H226023   1.374   2.751   2.751 -0.0166 -0.4928 -0.1985
 8687TIP3   OH226024   6.633   0.187   3.385 -0.5522  0.0382 -0.3747
 8687TIP3    H126025   6.662   0.278   3.377  0.5532 -0.1812  0.7847
 8687TIP3    H226026   6.554   0.182   3.331 -0.4655  1.6051 -0.6946
 8688TIP3   OH226027   2.809   4.779   2.204  1.0539  0.1780  0.1128
 8688TIP3    H126028   2.725   4.773   2.249  1.0045  1.6064  0.2745
 8688TIP3    H226029   2.831   4.689   2.180 -0.6552 -0.1944 -0.1904
 8689TIP3   OH226030   3.103   5.281   3.134 -0.4337 -0.1391  0.0899
 8689TIP3    H126031   3.095   5.304   3.227 -0.8057 -1.5285  0.4184
 8689TIP3    H226032   3.019   5.308   3.096 -0.4283  0.0876  0.2371
 8690TIP3   OH226033   0.935   5.430   4.038  0.0461 -0.0429  0.6450
 8690TIP3    H126034   1.024   5.418   4.003  1.3552  1.3042  3.1881
 8690TIP3    H226035   0.909   5.517   4.006  0.3220  0.2424  1.1870
 8691TIP3   OH226036   5.075   5.959   4.721  0.5683  0.2487 -0.1249
 8691TIP3    H126037   4.998   5.929   4.770  0.9700  0.1528  0.4612
 8691TIP3    H226038   5.149   5.919   4.767  1.0654  1.5074  0.1925
 8692TIP3   OH226039   6.520   0.676   1.811 -0.0621 -0.1117  0.0502
 8692TIP3    H126040   6.601   0.703   1.767 -0.5141 -1.7820 -1.9416
 8692TIP3    H226041   6.489   0.602   1.760 -2.6531  0.2220  1.0283
 8693TIP3   OH226042   2.405   0.390   4.964  0.0564 -0.2572 -0.1594
 8693TIP3    H126043   2.317   0.418   4.991 -0.8212 -0.7934 -2.2868
 8693TIP3    H226044   2.455   0.471   4.959 -0.5392  0.1503  0.3051
 8694TIP3   OH226045   5.627   0.888   2.512 -0.1926 -0.4849 -0.0673
 8694TIP3    H126046   5.592   0.814   2.464 -0.7625 -0.1725 -0.1388
 8694TIP3    H226047   5.684   0.849   2.578  0.4565 -0.9239 -0.8679
 8695TIP3   OH226048   4.045   2.933   1.350  0.1401  0.2258 -0.6704
 8695TIP3    H126049   3.971   2.949   1.292 -1.5292  1.7367  1.6832
 8695TIP3    H226050   4.017   2.862   1.407  1.0711 -0.1168 -0.6107
 8696TIP3   OH226051   4.494   6.057   4.518  0.3418  0.7482  0.2692
 8696TIP3    H126052   4.540   5.986   4.474 -0.2262  1.0856 -0.9043
 8696TIP3    H226053   4.499   6.035   4.611  2.3016  0.4465  0.1274
 8697TIP3   OH226054   0.554   0.715   5.469  0.2249 -0.4850 -0.1572
 8697TIP3    H126055   0.650   0.719   5.479  0.0604  1.0162  1.3296
 8697TIP3    H226056   0.531   0.629   5.503  0.9912 -0.5984  0.1108
 8698TIP3   OH226057   5.552   5.846   0.548  0.0182  0.3856 -0.0329
 8698TIP3    H126058   5.505   5.919   0.589  0.6108  0.0958  1.2001
 8698TIP3    H226059   5.632   5.886   0.514  1.4829 -0.0153  2.6857
 8699TIP3   OH226060   5.274   4.996   0.089 -0.1414 -0.2102 -0.3643
 8699TIP3    H126061   5.233   5.081   0.104  0.8445  0.0630  1.0460
 8699TIP3    H226062   5.366   5.016   0.073 -0.0712 -0.9612 -0.9963
 8700TIP3   OH226063   5.556   0.463   2.296 -0.1879 -0.1245 -0.3053
 8700TIP3    H126064   5.590   0.374   2.304  1.1459  0.4621  0.8413
 8700TIP3    H226065   5.633   0.518   2.285 -1.0392  0.8204 -2.1113
 8701TIP3   OH226066   2.400   6.614   0.567  0.7299 -0.0070  0.0269
 8701TIP3    H126067   2.327   6.666   0.602  0.7075 -1.7481  2.9346
 8701TIP3    H226068   2.360   6.556   0.503 -0.1319  0.2680  0.2994
 8702TIP3   OH226069   1.873   5.163   2.027 -0.6378  0.1922 -0.3353
 8702TIP3    H126070   1.837   5.221   2.095  2.4049  1.5569  0.2344
 8702TIP3    H226071   1.948   5.122   2.069 -0.5799 -1.4285 -1.9348
 8703TIP3   OH226072   4.435   5.953   0.477 -0.1901 -0.2890  0.6890
 8703TIP3    H126073   4.521   5.974   0.440 -1.4376 -0.7076 -2.8450
 8703TIP3    H226074   4.403   6.036   0.512  1.0954  0.1570  0.8661
 8704TIP3   OH226075   6.790   0.448   2.311  0.0740 -0.3581  0.4757
 8704TIP3    H126076   6.811   0.423   2.221  0.3241  0.2843  0.3537
 8704TIP3    H226077   6.753   0.536   2.304 -1.7160 -1.0253  0.7945
 8705TIP3   OH226078   4.994   3.245   4.588 -0.5640  0.1544  0.1402
 8705TIP3    H126079   5.012   3.276   4.676 -0.9985 -1.4497  0.8328
 8705TIP3    H226080   5.080   3.220   4.553 -0.4848  0.0403  0.4156
 8706TIP3   OH226081   2.059   6.387   3.709 -0.0179 -0.2962  0.0083
 8706TIP3    H126082   2.080   6.351   3.623 -1.2116 -0.2780 -0.3123
 8706TIP3    H226083   1.964   6.392   3.710  0.0448  1.7202  0.5061
 8707TIP3   OH226084   7.076   4.777   4.959 -0.0868 -0.2723  0.6333
 8707TIP3    H126085   7.157   4.728   4.977 -0.0236 -0.4023  0.0314
 8707TIP3    H226086   7.092   4.864   4.996  0.5143 -0.1580  0.1276
 8708TIP3   OH226087   6.706   3.115   3.777  0.2938 -0.0432 -0.3742
 8708TIP3    H126088   6.706   3.024   3.805 -0.5668 -0.1253 -0.6184
 8708TIP3    H226089   6.655   3.160   3.845  1.4916  0.4322  0.2513
 8709TIP3   OH226090   6.302   5.799   5.712 -0.2990 -0.2170  0.4637
 8709TIP3    H126091   6.242   5.754   5.653 -2.9606  0.5750  2.3891
 8709TIP3    H226092   6.251   5.871   5.748  1.9551  0.7307  2.0024
 8710TIP3   OH226093   3.730   5.795   5.205  0.2676  0.2117 -0.1537
 8710TIP3    H126094   3.685   5.745   5.137  1.8881 -2.6217  0.6950
 8710TIP3    H226095   3.720   5.742   5.284  2.1228  1.2020  0.8024
 8711TIP3   OH226096   4.131   1.559   5.594  0.7858  0.6846  0.1718
 8711TIP3    H126097   4.088   1.479   5.625  1.7103  0.3777  0.7137
 8711TIP3    H226098   4.066   1.601   5.538  0.7644 -1.1460 -1.2737
 8712TIP3   OH226099   6.100   1.991   2.993  0.4228 -0.1608 -0.0453
 8712TIP3    H126100   6.060   1.939   3.063  0.9699 -0.8051 -0.1937
 8712TIP3    H226101   6.026   2.036   2.951  0.1618  0.8326  1.3997
 8713TIP3   OH226102   4.294   3.137   3.743 -0.2233  0.1163 -0.4016
 8713TIP3    H126103   4.223   3.147   3.806 -0.0347  1.2546 -0.3488
 8713TIP3    H226104   4.362   3.090   3.792 -0.1869  0.7414  0.1779
 8714TIP3   OH226105   6.274   6.692   0.900  0.0655  0.1413 -0.3608
 8714TIP3    H126106   6.363   6.658   0.912 -0.5225 -1.6909 -0.8820
 8714TIP3    H226107   6.224   6.617   0.870 -2.0660  0.6951  1.5746
 8715TIP3   OH226108   0.707   2.688   2.741  0.1072  0.0854 -0.6637
 8715TIP3    H126109   0.798   2.672   2.715  0.3978 -0.1300  0.4172
 8715TIP3    H226110   0.677   2.604   2.777 -0.5440  0.1329 -1.0856
 8716TIP3   OH226111   4.093   2.235   4.333 -0.2596  0.8230  1.0050
 8716TIP3    H126112   4.180   2.206   4.302 -0.7730 -0.4229  0.6474
 8716TIP3    H226113   4.101   2.329   4.344  0.7444  0.9140 -0.3482
 8717TIP3   OH226114   6.748   0.840   0.348 -0.4851 -0.1898  0.0845
 8717TIP3    H126115   6.658   0.811   0.356 -0.8434  1.0702  0.9429
 8717TIP3    H226116   6.765   0.842   0.254 -0.9841 -1.4747 -0.0410
 8718TIP3   OH226117   1.278   4.403   0.864  0.3442  0.2596  0.2407
 8718TIP3    H126118   1.201   4.435   0.912  0.3132 -0.2777  0.5541
 8718TIP3    H226119   1.310   4.329   0.916 -0.6932 -1.4393 -1.4047
 8719TIP3   OH226120   2.738   2.702   2.794  0.0147  0.0298  0.5134
 8719TIP3    H126121   2.751   2.611   2.767  0.1166  0.0626  0.4508
 8719TIP3    H226122   2.815   2.722   2.848  0.3213  0.2849 -0.0168
 8720TIP3   OH226123   6.265   2.562   1.581 -0.1981  0.3979 -0.1419
 8720TIP3    H126124   6.270   2.468   1.562  1.2897  0.5057 -0.4832
 8720TIP3    H226125   6.174   2.585   1.563 -1.2657 -1.4294  2.3535
 8721TIP3   OH226126   6.224   3.145   0.798 -0.2398  0.0379 -0.8411
 8721TIP3    H126127   6.210   3.221   0.742 -3.1463 -0.3012 -0.7060
 8721TIP3    H226128   6.259   3.077   0.740 -0.2000  0.6472 -1.5344
 8722TIP3   OH226129   4.226   1.786   1.881 -0.0743  0.1805 -0.3047
 8722TIP3    H126130   4.217   1.784   1.786 -0.9081 -0.4707 -0.2262
 8722TIP3    H226131   4.307   1.834   1.897  0.2878 -0.0700 -1.3507
 8723TIP3   OH226132   3.548   2.167   5.761  0.1587  0.1011 -0.2975
 8723TIP3    H126133   3.471   2.205   5.718  0.5821  1.5044  0.1473
 8723TIP3    H226134   3.613   2.237   5.762  1.1418 -0.7857  0.1339
 8724TIP3   OH226135   6.088   2.447   1.211 -0.5377  0.0169 -0.3809
 8724TIP3    H126136   6.073   2.384   1.141 -1.2759 -1.5308  1.0962
 8724TIP3    H226137   6.160   2.501   1.179  0.2386 -1.6657 -1.6645
 8725TIP3   OH226138   6.364   1.413   2.775  0.0267  0.2081 -0.2708
 8725TIP3    H126139   6.380   1.335   2.722 -0.2141  1.0112 -1.5541
 8725TIP3    H226140   6.273   1.437   2.757  0.4472  1.4667 -0.8572
 8726TIP3   OH226141   0.331   5.615   0.534 -0.3980 -0.1835 -0.3176
 8726TIP3    H126142   0.354   5.669   0.459  1.4590 -1.9193 -1.0970
 8726TIP3    H226143   0.269   5.551   0.500 -0.3675 -0.3134 -0.1327
 8727TIP3   OH226144   4.524   0.829   0.882 -0.3568  0.2137  0.1134
 8727TIP3    H126145   4.582   0.780   0.940 -0.0005  0.3671 -0.1020
 8727TIP3    H226146   4.528   0.919   0.915 -1.2753  0.0497  0.7163
 8728TIP3   OH226147   3.280   4.029   3.318  0.0207 -0.4135  0.1461
 8728TIP3    H126148   3.195   4.055   3.283 -0.5298  0.4857  1.9737
 8728TIP3    H226149   3.343   4.087   3.275 -0.7892  1.6007  1.5167
 8729TIP3   OH226150   3.260   6.614   4.716  0.2241 -0.5190  0.0535
 8729TIP3    H126151   3.194   6.554   4.751 -0.7065 -0.3746 -1.3761
 8729TIP3    H226152   3.258   6.599   4.622  2.4384 -0.6834 -0.0236
 8730TIP3   OH226153   2.174   2.029   4.802  0.3741 -0.3077 -0.6123
 8730TIP3    H126154   2.156   2.099   4.739  1.2600  0.7257  0.2497
 8730TIP3    H226155   2.175   1.950   4.749  1.1621  0.5382 -1.9262
 8731TIP3   OH226156   1.679   5.469   5.265 -0.3855  0.6620 -0.0964
 8731TIP3    H126157   1.657   5.377   5.255  1.2687  0.2012  0.3007
 8731TIP3    H226158   1.748   5.471   5.331  0.2567  2.0953 -0.7542
 8732TIP3   OH226159   3.591   2.779   4.317  0.1018 -0.3474  0.8097
 8732TIP3    H126160   3.616   2.871   4.322  0.2980 -0.4493  2.0314
 8732TIP3    H226161   3.514   2.778   4.260 -0.4179  0.6928  1.4551
 8733TIP3   OH226162   3.085   4.192   2.908  0.5482 -0.4095 -0.2564
 8733TIP3    H126163   3.162   4.139   2.889  0.8262  0.5952 -2.1541
 8733TIP3    H226164   3.025   4.176   2.835  0.1658  0.9951 -0.2967
 8734TIP3   OH226165   6.487   5.555   1.114 -0.0775  0.2100  0.1463
 8734TIP3    H126166   6.553   5.497   1.151  1.4669  1.1479 -1.0064
 8734TIP3    H226167   6.476   5.526   1.024 -0.2239  0.9160 -0.0753
 8735TIP3   OH226168   6.322   1.974   2.537  1.0091 -0.5086  0.3977
 8735TIP3    H126169   6.402   1.954   2.488 -0.2967 -1.1532 -1.5783
 8735TIP3    H226170   6.285   1.888   2.559 -0.9218 -0.3678 -1.8628
 8736TIP3   OH226171   4.231   3.280   5.340 -0.0472  0.6910 -0.2024
 8736TIP3    H126172   4.321   3.249   5.353 -1.1351 -2.4766  0.7848
 8736TIP3    H226173   4.223   3.356   5.397  1.4014 -0.3258  1.4518
 8737TIP3   OH226174   0.193   4.603   2.523  0.6572  0.3379  0.2507
 8737TIP3    H126175   0.120   4.650   2.563  0.1407 -0.8771  0.7887
 8737TIP3    H226176   0.157   4.570   2.440  0.9725  0.7708 -0.0586
 8738TIP3   OH226177   3.959   4.417   4.850  0.5527  0.1177 -0.0201
 8738TIP3    H126178   3.976   4.426   4.756 -1.0136 -0.9669 -0.4512
 8738TIP3    H226179   3.948   4.507   4.881  0.8439  0.4829 -0.9239
 8739TIP3   OH226180   0.569   4.732   2.006  0.1901  0.0556  0.6078
 8739TIP3    H126181   0.518   4.662   2.047  1.3160 -0.6526  0.8331
 8739TIP3    H226182   0.554   4.808   2.062  0.4495 -0.4915  1.4282
 8740TIP3   OH226183   1.099   1.506   0.143  0.1748  0.3122  0.1240
 8740TIP3    H126184   1.014   1.490   0.102 -1.2711  3.1286  1.7420
 8740TIP3    H226185   1.147   1.560   0.080 -0.0452  0.4431  0.0694
 8741TIP3   OH226186   3.076   6.404   5.728 -0.5779  0.2964  0.1718
 8741TIP3    H126187   3.051   6.321   5.769 -0.1251 -0.6318 -1.3524
 8741TIP3    H226188   2.997   6.458   5.732 -0.7619 -0.0388  1.5486
 8742TIP3   OH226189   2.839   1.784   4.297 -0.5191  0.7538  0.4709
 8742TIP3    H126190   2.785   1.805   4.221  0.1705  1.0369  0.0482
 8742TIP3    H226191   2.777   1.758   4.365 -1.3434  2.9937  0.6538
 8743TIP3   OH226192   6.684   5.390   1.208 -0.1497 -0.5220 -0.6589
 8743TIP3    H126193   6.685   5.327   1.280  0.6426 -0.0508 -0.2426
 8743TIP3    H226194   6.760   5.446   1.224  0.3015 -0.6730 -2.1067
 8744TIP3   OH226195   2.135   2.248   1.307  0.0307 -0.3860  0.0030
 8744TIP3    H126196   2.194   2.317   1.276  1.1480 -1.2401  0.1528
 8744TIP3    H226197   2.188   2.199   1.371 -1.1038 -0.7097  0.7130
 8745TIP3   OH226198   6.491   5.760   0.623 -0.5331 -0.5770  0.0151
 8745TIP3    H126199   6.504   5.758   0.718  0.1860 -0.6027 -0.0752
 8745TIP3    H226200   6.418   5.820   0.610  1.1826  1.7091  0.4192
 8746TIP3   OH226201   1.370   6.615   4.440 -0.3404 -0.0083  0.2210
 8746TIP3    H126202   1.385   6.670   4.517 -0.1455 -1.3852  1.2176
 8746TIP3    H226203   1.292   6.564   4.463  0.4996 -1.4026  0.1106
 8747TIP3   OH226204   0.335   3.150   0.766  0.3913  0.7256  0.2633
 8747TIP3    H126205   0.317   3.235   0.806 -1.6433  0.4479  0.0109
 8747TIP3    H226206   0.302   3.086   0.829  0.9718  0.1389 -0.0111
 8748TIP3   OH226207   1.424   2.398   5.736  0.3959 -0.3606  0.2075
 8748TIP3    H126208   1.449   2.339   5.665  0.3451 -0.6629  0.4364
 8748TIP3    H226209   1.339   2.433   5.710  0.6099 -0.0840 -0.1156
 8749TIP3   OH226210   5.663   1.932   5.792  0.0624  0.2903  0.4736
 8749TIP3    H126211   5.726   1.886   5.848  0.2953  0.6232  0.4893
 8749TIP3    H226212   5.677   2.025   5.812  0.4987  0.4451 -0.5027
 8750TIP3   OH226213   3.055   5.216   3.967  1.0232 -0.2939 -0.2501
 8750TIP3    H126214   3.078   5.128   3.996  1.5079  0.2868  1.2167
 8750TIP3    H226215   3.064   5.270   4.045 -0.7999  0.7944 -0.7416
 8751TIP3   OH226216   4.013   3.366   1.521  0.3346 -0.1208  0.0050
 8751TIP3    H126217   4.045   3.346   1.433 -0.5892 -1.1207 -0.1203
 8751TIP3    H226218   4.032   3.287   1.572  1.6447  0.7510  0.9534
 8752TIP3   OH226219   4.350   6.132   5.697 -0.7455  0.4251  0.4937
 8752TIP3    H126220   4.272   6.094   5.738 -0.4247  0.5821  1.2666
 8752TIP3    H226221   4.336   6.226   5.702 -0.2996  0.4654  1.0620
 8753TIP3   OH226222   4.165   5.611   3.800  0.7864 -0.1953  0.5116
 8753TIP3    H126223   4.169   5.680   3.734  1.7387 -0.2365  0.5063
 8753TIP3    H226224   4.104   5.644   3.866  0.5322  0.2474  0.0574
 8754TIP3   OH226225   2.106   6.120   0.037 -0.9871 -0.9781 -0.0671
 8754TIP3    H126226   2.153   6.050  -0.007 -1.7730 -0.0490 -2.5490
 8754TIP3    H226227   2.027   6.132  -0.014 -0.7011  1.9590 -0.0017
 8755TIP3   OH226228   2.255   3.808   2.161  0.5221 -0.3534 -0.1211
 8755TIP3    H126229   2.308   3.875   2.118  1.1435 -1.2822 -0.8477
 8755TIP3    H226230   2.314   3.734   2.171 -1.0873 -2.1177 -2.6750
 8756TIP3   OH226231   4.778   5.943   4.265  0.3776  0.2518  0.5663
 8756TIP3    H126232   4.706   5.893   4.224  1.9343 -0.8307 -0.9981
 8756TIP3    H226233   4.782   5.909   4.354  0.4268 -1.3968 -0.0147
 8757TIP3   OH226234   6.762   3.720   2.532 -0.7828 -0.1261 -0.1085
 8757TIP3    H126235   6.791   3.797   2.483 -1.7106  0.8072  0.7762
 8757TIP3    H226236   6.842   3.688   2.575 -0.2677 -0.0461 -0.9858
 8758TIP3   OH226237   4.463   2.742   0.470  0.1878  0.1081 -0.2043
 8758TIP3    H126238   4.427   2.752   0.382 -0.8215  1.6310  0.3238
 8758TIP3    H226239   4.435   2.822   0.516  0.3565 -0.8215  1.6070
 8759TIP3   OH226240   5.964   6.256   1.689  0.4618  0.1553  0.2261
 8759TIP3    H126241   6.030   6.216   1.633  1.7379  1.5134  0.7125
 8759TIP3    H226242   5.949   6.191   1.758  1.4570 -0.0725  0.2356
 8760TIP3   OH226243   2.646   4.735   3.086  0.3618 -0.3230  0.7207
 8760TIP3    H126244   2.576   4.765   3.145 -0.9955 -1.1578 -0.3931
 8760TIP3    H226245   2.656   4.642   3.107  1.0969 -0.2337  0.8024
 8761TIP3   OH226246   7.164   2.081   0.874  0.0214 -0.5726  0.4067
 8761TIP3    H126247   7.127   2.000   0.909 -1.0301 -0.7069 -0.9445
 8761TIP3    H226248   7.183   2.061   0.782 -1.2858  1.0020 -0.2487
 8762TIP3   OH226249   4.204   5.169   4.084  0.3245  0.2263  0.3888
 8762TIP3    H126250   4.241   5.087   4.054  0.8753 -0.0741  1.8033
 8762TIP3    H226251   4.150   5.200   4.011  0.8927 -0.8840 -0.5243
 8763TIP3   OH226252   1.085   0.334   0.171 -0.6479  0.0326  0.4288
 8763TIP3    H126253   1.084   0.342   0.266 -0.6279  1.6694  0.3149
 8763TIP3    H226254   1.143   0.260   0.155 -0.2417  0.0450  1.6818
 8764TIP3   OH226255   1.905   0.892   0.054  0.0963  0.0278  0.0628
 8764TIP3    H126256   1.948   0.974   0.029 -1.0198  0.3752 -0.7694
 8764TIP3    H226257   1.948   0.868   0.137  1.4395  0.6756 -0.4089
 8765TIP3   OH226258   2.691   5.894   4.939  0.2597  0.4407  0.5592
 8765TIP3    H126259   2.688   5.867   4.848 -0.9467  1.4736  0.2529
 8765TIP3    H226260   2.697   5.813   4.989  0.4620 -0.1566 -0.4223
 8766TIP3   OH226261   6.272   4.181   4.631  0.0322  0.1372 -0.5612
 8766TIP3    H126262   6.292   4.169   4.723 -3.3078  0.7818  0.3958
 8766TIP3    H226263   6.290   4.274   4.614  0.7550 -0.0088 -0.6140
 8767TIP3   OH226264   3.838   5.750   3.222  0.4975  0.1784 -0.2772
 8767TIP3    H126265   3.765   5.721   3.166  0.9293  0.1342 -0.8303
 8767TIP3    H226266   3.886   5.813   3.168  1.4504 -0.5435 -0.3123
 8768TIP3   OH226267   6.615   2.916   0.817 -0.1199  0.0624 -0.6223
 8768TIP3    H126268   6.604   2.843   0.877  2.1482 -0.9469 -1.3133
 8768TIP3    H226269   6.532   2.923   0.771 -1.0040 -0.8397  0.7755
 8769TIP3   OH226270   6.914   6.137   0.035 -0.4092 -0.4787  0.7294
 8769TIP3    H126271   6.938   6.228   0.018  0.8515 -0.9371 -0.1137
 8769TIP3    H226272   6.948   6.089  -0.041 -0.7035 -1.7006  1.3499
 8770TIP3   OH226273   6.475   0.366   1.765 -0.0048 -0.3982 -0.4728
 8770TIP3    H126274   6.567   0.362   1.739 -0.0024  0.0878 -0.5307
 8770TIP3    H226275   6.427   0.383   1.684 -0.3173 -2.4128 -0.7714
 8771TIP3   OH226276   0.422   1.363   3.028  0.3590 -0.3459 -0.0559
 8771TIP3    H126277   0.502   1.331   3.069 -1.1738 -2.9958  1.0927
 8771TIP3    H226278   0.405   1.302   2.957 -0.0348  0.9150 -1.0943
 8772TIP3   OH226279   4.388   3.730   3.736  0.5367 -0.0526 -0.0205
 8772TIP3    H126280   4.373   3.638   3.757 -1.1276  0.3080  0.5354
 8772TIP3    H226281   4.304   3.772   3.752  1.1060  1.4740 -0.8350
 8773TIP3   OH226282   6.411   3.261   2.973  0.7253 -0.3286  0.3408
 8773TIP3    H126283   6.369   3.334   3.018  3.4272  0.4959  1.7143
 8773TIP3    H226284   6.444   3.205   3.044  0.7136 -1.6963 -0.6922
 8774TIP3   OH226285   2.724   3.921   3.848  0.2692 -0.0399 -0.3259
 8774TIP3    H126286   2.649   3.935   3.791  0.8336 -0.0335 -1.0869
 8774TIP3    H226287   2.798   3.961   3.801  0.5652  0.9298  0.9086
 8775TIP3   OH226288   5.039   5.737   1.141 -0.4325 -0.1144  0.0239
 8775TIP3    H126289   4.964   5.753   1.197 -0.2899 -0.8799  0.4526
 8775TIP3    H226290   5.076   5.655   1.173  0.9408  0.5340  0.2242
 8776TIP3   OH226291   3.914   0.111   5.667  0.2145 -0.4634  0.3737
 8776TIP3    H126292   3.906   0.082   5.577 -0.7380  2.5333 -0.6110
 8776TIP3    H226293   3.826   0.135   5.694  0.7490  0.4536  1.4357
 8777TIP3   OH226294   6.844   3.637   1.535 -0.3331  0.3078  0.1264
 8777TIP3    H126295   6.755   3.638   1.501 -0.1600  1.8882 -0.3858
 8777TIP3    H226296   6.899   3.625   1.458 -0.0877 -3.3276  0.6771
 8778TIP3   OH226297   5.074   5.693   1.610  0.3279 -0.3282 -0.7083
 8778TIP3    H126298   5.094   5.728   1.697  1.4271 -1.7923 -0.3404
 8778TIP3    H226299   5.139   5.731   1.552 -0.7426  1.0853 -1.0341
 8779TIP3   OH226300   3.175   6.122   2.876 -0.8100 -0.3396  0.1266
 8779TIP3    H126301   3.244   6.185   2.858 -0.3034 -1.2252 -1.2070
 8779TIP3    H226302   3.094   6.168   2.855 -0.6543  0.6770  1.6240
 8780TIP3   OH226303   4.852   0.343   1.300 -0.4863  0.3618 -0.1588
 8780TIP3    H126304   4.891   0.424   1.266 -0.3676  0.1846 -0.4541
 8780TIP3    H226305   4.758   0.359   1.297 -0.4561  0.5824  0.0214
 8781TIP3   OH226306   1.720   2.304   5.823 -0.0279  0.2482  0.0725
 8781TIP3    H126307   1.663   2.237   5.860  0.5800  0.4355  1.4361
 8781TIP3    H226308   1.728   2.281   5.731  0.2094 -1.6039  0.5096
 8782TIP3   OH226309   5.016   1.477   5.863 -0.0240  0.0844 -0.4485
 8782TIP3    H126310   5.102   1.458   5.826  0.3515 -0.0848  0.4757
 8782TIP3    H226311   5.018   1.572   5.880  1.0573 -0.3145  2.1049
 8783TIP3   OH226312   5.685   2.570   0.345 -0.3339 -0.5277  0.2218
 8783TIP3    H126313   5.701   2.659   0.376  0.1518 -0.8228  0.8457
 8783TIP3    H226314   5.590   2.557   0.357 -0.5715  0.1957 -0.7008
 8784TIP3   OH226315   1.103   5.732   4.749 -0.2916  0.0037 -0.1718
 8784TIP3    H126316   1.186   5.729   4.795 -0.6657 -1.1305  0.4717
 8784TIP3    H226317   1.100   5.651   4.698 -0.5042  0.5753 -1.1053
 8785TIP3   OH226318   6.363   6.025   2.674  0.2461 -0.2316  0.1913
 8785TIP3    H126319   6.345   6.052   2.584 -2.8234  1.8172  1.2673
 8785TIP3    H226320   6.279   5.992   2.707  1.4637 -1.6424  2.1341
 8786TIP3   OH226321   5.473   3.440   4.648  0.2635  0.4533 -0.1527
 8786TIP3    H126322   5.392   3.429   4.698  0.1570  1.3531 -0.1114
 8786TIP3    H226323   5.486   3.355   4.606 -0.5792  0.2213  0.0188
 8787TIP3   OH226324   6.847   3.114   5.254 -0.0471  0.4412  0.0116
 8787TIP3    H126325   6.827   3.032   5.209 -0.0245  0.7091 -0.4881
 8787TIP3    H226326   6.942   3.112   5.267 -0.0996  0.1988  0.3755
 8788TIP3   OH226327   0.638   5.737   5.365  0.1004 -0.7264 -0.2927
 8788TIP3    H126328   0.721   5.767   5.329 -0.0509  0.4465  0.2921
 8788TIP3    H226329   0.662   5.688   5.444  0.2307 -0.0811  0.0758
 8789TIP3   OH226330   0.665   3.525   2.438  1.0287 -0.4236  0.0457
 8789TIP3    H126331   0.647   3.481   2.356  0.4005  0.8232 -0.5285
 8789TIP3    H226332   0.601   3.489   2.500  0.7481 -0.5560 -0.3233
 8790TIP3   OH226333   2.369   3.347   3.307  0.4338 -0.2450  0.1975
 8790TIP3    H126334   2.337   3.359   3.396  1.3671  2.0015  0.2947
 8790TIP3    H226335   2.293   3.367   3.251  0.6306  1.3717  0.4724
 8791TIP3   OH226336   6.175   4.259   4.152  0.2146 -0.1225  0.6734
 8791TIP3    H126337   6.148   4.278   4.062 -0.4457  0.7340  1.0376
 8791TIP3    H226338   6.220   4.175   4.147  1.0298  0.3673 -0.6152
 8792TIP3   OH226339   3.186   0.106   5.004 -0.3187 -0.0300 -0.2168
 8792TIP3    H126340   3.108   0.137   5.050  0.1459  1.0988 -0.1567
 8792TIP3    H226341   3.154   0.083   4.916 -0.9492 -0.8505  0.2129
 8793TIP3   OH226342   4.122   1.651   5.860 -0.3810 -1.0396  0.3381
 8793TIP3    H126343   4.187   1.614   5.919  2.5295 -0.0407 -1.9638
 8793TIP3    H226344   4.095   1.577   5.805 -0.5499 -1.2799  0.7375
 8794TIP3   OH226345   5.259   6.451   0.117  0.9339  0.1139 -0.2338
 8794TIP3    H126346   5.174   6.421   0.149  1.3937 -1.5714 -0.5196
 8794TIP3    H226347   5.300   6.494   0.192  0.4677 -0.4443  0.3406
 8795TIP3   OH226348   5.274   5.617   0.560 -0.0426  0.4078  0.3368
 8795TIP3    H126349   5.357   5.570   0.559 -0.8377 -1.0671 -0.8288
 8795TIP3    H226350   5.207   5.549   0.551 -1.3107  1.6788 -0.3432
 8796TIP3   OH226351   3.211   1.656   2.315  0.6897 -0.5262 -0.9494
 8796TIP3    H126352   3.159   1.653   2.395 -0.0261  2.6546 -1.1487
 8796TIP3    H226353   3.156   1.704   2.253  2.1800 -0.8288 -2.5847
 8797TIP3   OH226354   0.524   0.065   3.717 -0.0452  0.8703 -0.7178
 8797TIP3    H126355   0.444   0.116   3.729 -0.7439 -0.4016  0.1784
 8797TIP3    H226356   0.584   0.099   3.784 -0.1626  1.1607 -0.7568
 8798TIP3   OH226357   5.718   4.913   4.461 -0.1465  0.3992 -0.4140
 8798TIP3    H126358   5.659   4.858   4.513 -1.8776  2.3530 -0.1953
 8798TIP3    H226359   5.805   4.883   4.484 -0.9937 -1.9406  0.0183
 8799TIP3   OH226360   4.947   6.502   4.846  0.3112 -0.0834 -0.0765
 8799TIP3    H126361   4.959   6.420   4.892 -0.0320  0.5881  1.2381
 8799TIP3    H226362   5.025   6.509   4.790  1.1485 -0.5203  1.0074
 8800TIP3   OH226363   2.583   1.466   5.648 -0.6607  0.0205  0.8005
 8800TIP3    H126364   2.653   1.531   5.646  0.1967 -0.8930 -0.4149
 8800TIP3    H226365   2.612   1.401   5.712  0.8415 -1.6025 -1.3894
 8801TIP3   OH226366   5.958   3.754   1.087 -0.7348 -0.4580 -0.2854
 8801TIP3    H126367   5.934   3.731   1.177  0.5381 -0.6006  0.0337
 8801TIP3    H226368   5.881   3.731   1.035 -2.5346  2.0633  1.0717
 8802TIP3   OH226369   5.904   6.286   4.843 -0.5162 -0.8411 -0.5182
 8802TIP3    H126370   5.863   6.318   4.924 -1.7415 -1.8832 -0.6865
 8802TIP3    H226371   5.973   6.350   4.824 -0.3879 -0.4073  1.1821
 8803TIP3   OH226372   7.192   4.051   3.310  0.3615  0.3602  0.2601
 8803TIP3    H126373   7.256   4.122   3.314 -0.9265  1.5619  0.3177
 8803TIP3    H226374   7.122   4.085   3.254 -1.4379  0.1329  2.2410
 8804TIP3   OH226375   5.506   4.317   4.532 -0.2887  0.2843 -0.2729
 8804TIP3    H126376   5.476   4.233   4.565  0.7500 -0.4390 -1.1340
 8804TIP3    H226377   5.500   4.376   4.608  1.3502 -1.1464  1.0509
 8805TIP3   OH226378   1.702   2.553   0.284  0.2737 -0.1003  0.3213
 8805TIP3    H126379   1.622   2.564   0.232  0.8564 -0.9891 -0.8062
 8805TIP3    H226380   1.710   2.634   0.334 -1.0287  0.2251  0.0313
 8806TIP3   OH226381   3.849   3.877   5.753 -0.4594 -0.1043  0.4887
 8806TIP3    H126382   3.870   3.824   5.676 -1.2871  0.6105 -0.2466
 8806TIP3    H226383   3.900   3.837   5.824  3.6151  1.5871 -1.1561
 8807TIP3   OH226384   5.669   2.298   0.322 -0.8528 -0.1678  0.1458
 8807TIP3    H126385   5.657   2.273   0.414 -1.9538  1.4405  0.4901
 8807TIP3    H226386   5.693   2.390   0.325 -3.7530  0.7546 -1.2292
 8808TIP3   OH226387   5.182   2.013   2.085 -0.5984  0.2849  0.1988
 8808TIP3    H126388   5.130   2.072   2.031 -0.0296 -0.1438 -0.8421
 8808TIP3    H226389   5.164   2.041   2.175 -2.0588  0.5855 -0.1662
 8809TIP3   OH226390   2.470   3.541   5.486 -0.1148  0.6488  0.4817
 8809TIP3    H126391   2.506   3.623   5.518  0.0814  1.2507 -1.1918
 8809TIP3    H226392   2.377   3.559   5.471  0.1119  0.8449 -0.7357
 8810TIP3   OH226393   1.973   0.363   0.943  0.4179 -0.1629 -0.2603
 8810TIP3    H126394   1.880   0.363   0.923  0.2553  1.3155  0.3625
 8810TIP3    H226395   1.986   0.285   0.998 -0.5125 -0.1756 -0.0472
 8811TIP3   OH226396   6.976   2.127   4.727  0.3644  0.0613 -0.0506
 8811TIP3    H126397   6.889   2.147   4.763 -0.4592  1.0967 -2.4471
 8811TIP3    H226398   7.014   2.066   4.790 -2.6783 -1.6487  0.3361
 8812TIP3   OH226399   4.683   5.908   1.793 -0.1527  0.2012  0.4209
 8812TIP3    H126400   4.669   5.984   1.737  0.1089 -0.0167  0.0529
 8812TIP3    H226401   4.595   5.870   1.805 -0.2063  0.2290  0.1267
 8813TIP3   OH226402   6.716   4.165   5.541 -0.1421  0.0692 -0.1257
 8813TIP3    H126403   6.811   4.156   5.538 -0.2579 -1.0603 -0.8180
 8813TIP3    H226404   6.693   4.209   5.459 -0.2643 -0.1056 -0.1851
 8814TIP3   OH226405   6.623   3.822   4.947  0.1547  0.2845 -0.3039
 8814TIP3    H126406   6.673   3.743   4.970 -1.2929  0.0164  2.2410
 8814TIP3    H226407   6.653   3.844   4.859  1.7115 -2.2252 -0.4992
 8815TIP3   OH226408   1.187   6.255   3.400 -0.2398 -0.0313 -0.7391
 8815TIP3    H126409   1.237   6.178   3.427 -1.1260 -1.2597 -2.4681
 8815TIP3    H226410   1.252   6.315   3.365  0.3166 -0.5397 -0.5885
 8816TIP3   OH226411   3.857   2.549   4.823 -0.5317  0.1354  0.3289
 8816TIP3    H126412   3.881   2.497   4.746  0.1248  1.1298 -0.1728
 8816TIP3    H226413   3.773   2.589   4.799 -1.3843 -1.2042  0.9922
 8817TIP3   OH226414   1.905   3.891   2.341 -0.7027  0.2264  0.3198
 8817TIP3    H126415   1.973   3.917   2.403 -0.3593  0.5723 -0.1964
 8817TIP3    H226416   1.923   3.942   2.262  0.9136 -2.5938 -1.3118
 8818TIP3   OH226417   6.660   4.904   2.085  0.9196 -0.1140 -0.1820
 8818TIP3    H126418   6.643   4.843   2.157  1.9465 -0.7358 -0.4365
 8818TIP3    H226419   6.739   4.869   2.043 -0.3331 -0.4593 -2.3707
 8819TIP3   OH226420   5.794   3.552   4.365  0.3785 -0.1350 -0.0744
 8819TIP3    H126421   5.705   3.522   4.346 -0.0075  0.3440  0.8824
 8819TIP3    H226422   5.825   3.589   4.283 -0.1224 -0.7468 -0.5487
 8820TIP3   OH226423   7.159   5.529   3.797 -0.2184  0.0222  0.0784
 8820TIP3    H126424   7.228   5.484   3.749 -1.1263  0.3388 -1.5845
 8820TIP3    H226425   7.155   5.484   3.882 -1.1401 -3.1336 -1.4863
 8821TIP3   OH226426   4.304   3.670   1.753  0.1491 -0.4780  0.0800
 8821TIP3    H126427   4.279   3.703   1.666 -2.2836 -1.0800  0.4615
 8821TIP3    H226428   4.337   3.582   1.736 -0.2057 -0.5499 -0.2541
 8822TIP3   OH226429   0.824   2.001   0.638  0.3604 -0.2677  1.2539
 8822TIP3    H126430   0.852   2.063   0.706  2.1235 -0.2649  0.5632
 8822TIP3    H226431   0.764   2.052   0.583 -1.4773 -0.3979  3.0065
 8823TIP3   OH226432   5.155   6.621   2.369 -0.1296 -0.3371 -0.2622
 8823TIP3    H126433   5.145   6.554   2.437  1.9162  0.8518  1.3423
 8823TIP3    H226434   5.089   6.687   2.390 -2.1834 -1.7479 -1.8747
 8824TIP3   OH226435   4.113   1.631   3.915 -0.7443 -0.2393  0.6231
 8824TIP3    H126436   4.054   1.561   3.886 -0.8811  0.0279  0.2338
 8824TIP3    H226437   4.123   1.687   3.837  0.8335 -0.8181  0.3662
 8825TIP3   OH226438   6.991   5.498   3.120  0.1479 -0.3465  0.3221
 8825TIP3    H126439   6.943   5.445   3.056  0.7541  1.2170 -1.5011
 8825TIP3    H226440   7.048   5.554   3.068  0.6828  1.0160  2.2443
 8826TIP3   OH226441   2.967   4.635   0.121 -0.4815 -0.3651 -0.3518
 8826TIP3    H126442   3.046   4.628   0.175 -0.6050 -3.2423 -0.4007
 8826TIP3    H226443   2.928   4.547   0.124 -1.9439  0.1074 -2.9421
 8827TIP3   OH226444   0.192   3.693   0.444 -0.3949 -0.5915 -0.2256
 8827TIP3    H126445   0.231   3.640   0.375 -1.2671 -1.1049 -0.3360
 8827TIP3    H226446   0.109   3.650   0.464 -0.7217  0.2471  0.2879
 8828TIP3   OH226447   2.656   0.916   1.572 -0.0176  0.2234 -0.1137
 8828TIP3    H126448   2.612   0.927   1.656 -1.9670  0.8208 -1.1668
 8828TIP3    H226449   2.648   0.823   1.552 -0.3726  0.2455 -0.0765
 8829TIP3   OH226450   4.149   5.834   3.630  0.2582 -0.1026 -0.0915
 8829TIP3    H126451   4.093   5.813   3.556  1.6755  0.4990 -1.3970
 8829TIP3    H226452   4.161   5.929   3.624 -0.9107  0.2224  1.9146
 8830TIP3   OH226453   1.246   6.606   5.620  1.3396  0.1455  0.0520
 8830TIP3    H126454   1.175   6.571   5.566  1.4194 -0.1767  0.1529
 8830TIP3    H226455   1.312   6.538   5.620  0.8786 -0.3479  1.4655
 8831TIP3   OH226456   1.992   6.046   3.478 -0.3894  0.9218 -0.2746
 8831TIP3    H126457   2.009   5.989   3.553 -1.0300  2.7326  1.3428
 8831TIP3    H226458   1.903   6.023   3.450 -0.3619  0.6338 -0.1287
 8832TIP3   OH226459   2.407   2.705   0.926  0.0239  0.4302 -0.2760
 8832TIP3    H126460   2.330   2.734   0.975  1.2964  2.0579  0.8996
 8832TIP3    H226461   2.399   2.747   0.841 -1.6126 -1.4630 -1.1258
 8833TIP3   OH226462   1.680   3.026   3.195  0.9698  0.1007 -0.2269
 8833TIP3    H126463   1.672   3.091   3.265 -0.5292 -0.8054  0.4880
 8833TIP3    H226464   1.633   3.064   3.121 -1.9692 -1.0505  0.9077
 8834TIP3   OH226465   5.327   6.521   2.658 -0.0067 -0.5428  0.1847
 8834TIP3    H126466   5.244   6.479   2.640  0.1489 -1.0829  0.6946
 8834TIP3    H226467   5.380   6.453   2.700  1.0688 -0.5361 -1.0866
 8835TIP3   OH226468   1.296   2.312   2.421  0.0048  0.3132  0.6229
 8835TIP3    H126469   1.346   2.257   2.361 -1.9406 -0.2815 -0.5389
 8835TIP3    H226470   1.347   2.393   2.427 -0.6276  1.2191 -3.4738
 8836TIP3   OH226471   5.865   6.037   4.970  0.2234  0.4703  0.3916
 8836TIP3    H126472   5.902   6.116   4.930 -0.9006  1.1094  0.5644
 8836TIP3    H226473   5.807   6.070   5.039  0.9741 -0.5655  1.5515
 8837TIP3   OH226474   6.602   4.912   1.413  0.3062  0.1949  1.0422
 8837TIP3    H126475   6.637   4.906   1.502 -0.3857 -1.1459  1.2440
 8837TIP3    H226476   6.510   4.935   1.425 -0.7274 -3.2958  0.9212
 8838TIP3   OH226477   5.233   5.088   3.697  0.2876  0.7167  0.0448
 8838TIP3    H126478   5.293   5.100   3.771  0.6866 -0.2766 -0.0981
 8838TIP3    H226479   5.146   5.104   3.735  0.5983  1.6718  0.3706
 8839TIP3   OH226480   6.941   5.519   1.159  0.0824  0.1567 -0.5657
 8839TIP3    H126481   6.990   5.459   1.103 -0.9527 -1.4229  0.1350
 8839TIP3    H226482   7.005   5.549   1.224  0.9255  0.8549 -1.6833
 8840TIP3   OH226483   2.743   6.511   3.927 -0.1007  0.3776  0.6817
 8840TIP3    H126484   2.663   6.545   3.968 -0.5987 -0.3408  0.3412
 8840TIP3    H226485   2.726   6.518   3.833  0.1310  0.0063  0.6088
 8841TIP3   OH226486   0.318   4.645   5.732 -0.1198  0.3524  0.8165
 8841TIP3    H126487   0.251   4.693   5.780  0.9007  1.5279  1.1125
 8841TIP3    H226488   0.310   4.675   5.642  1.1146  1.8517  1.1596
 8842TIP3   OH226489   0.270   6.305   2.066  0.5578 -0.2763 -0.3721
 8842TIP3    H126490   0.262   6.390   2.022  1.0592  0.0258  0.0987
 8842TIP3    H226491   0.313   6.249   2.001 -0.2666 -0.3358 -0.8831
 8843TIP3   OH226492   4.812   3.872   1.129 -0.1527 -0.2498  0.4540
 8843TIP3    H126493   4.724   3.856   1.161 -0.0092 -1.3069  0.3728
 8843TIP3    H226494   4.869   3.835   1.197  0.1658 -1.7000 -0.5583
 8844TIP3   OH226495   3.150   3.736   4.199  0.6699 -0.4818  0.4568
 8844TIP3    H126496   3.117   3.646   4.194 -0.8175  0.0300  0.6980
 8844TIP3    H226497   3.072   3.791   4.201  1.5490  0.8204  0.5551
 8845TIP3   OH226498   2.732   3.487   0.138 -0.2925 -0.0267  0.3811
 8845TIP3    H126499   2.738   3.416   0.074  0.8380  0.6450 -0.2843
 8845TIP3    H226500   2.640   3.512   0.137 -0.6888 -1.3827  0.5292
 8846TIP3   OH226501   1.187   1.049   2.569  0.1266 -0.4107  0.0668
 8846TIP3    H126502   1.194   1.115   2.500  0.5621  0.0453  0.5462
 8846TIP3    H226503   1.184   1.099   2.650 -1.6476 -0.8702  0.3326
 8847TIP3   OH226504   5.557   5.151   0.060  0.4723 -0.5491  0.0864
 8847TIP3    H126505   5.622   5.201   0.011 -0.7643 -0.5768 -1.6672
 8847TIP3    H226506   5.494   5.216   0.091  0.1971 -0.7442 -0.0570
 8848TIP3   OH226507   6.340   3.866   5.047  0.2642  0.0126  0.1927
 8848TIP3    H126508   6.301   3.786   5.082 -0.5772  0.5599  0.5580
 8848TIP3    H226509   6.419   3.837   5.002 -1.4056 -1.3707 -2.0390
 8849TIP3   OH226510   0.979   6.685   2.353 -0.5037  0.0523 -0.1070
 8849TIP3    H126511   0.991   6.604   2.402  1.2293  0.7537  0.7069
 8849TIP3    H226512   1.007   6.665   2.264  2.2349  0.3228  0.6282
 8850TIP3   OH226513   1.573   5.250   4.673  0.2862 -0.5704 -0.5692
 8850TIP3    H126514   1.547   5.165   4.709  1.1358 -0.0593  1.3736
 8850TIP3    H226515   1.506   5.311   4.707 -0.7475 -0.5284 -2.5558
 8851TIP3   OH226516   1.191   5.479   1.240 -0.3878 -0.2826 -0.0296
 8851TIP3    H126517   1.282   5.471   1.209 -0.0319  2.1334  0.2495
 8851TIP3    H226518   1.195   5.454   1.332 -0.0530 -0.3417 -0.0587
 8852TIP3   OH226519   0.243   0.173   2.922 -1.2031  0.6943  1.2190
 8852TIP3    H126520   0.276   0.148   2.836  0.0647  2.8102  1.0211
 8852TIP3    H226521   0.216   0.090   2.962 -0.4362 -0.5173 -0.6144
 8853TIP3   OH226522   3.451   2.091   5.134  0.4440 -0.9458 -0.1335
 8853TIP3    H126523   3.410   2.058   5.054 -1.0820  0.6671 -0.0726
 8853TIP3    H226524   3.467   2.183   5.117  1.3243 -0.8800  0.9604
 8854TIP3   OH226525   1.846   5.559   0.814 -0.0144  0.4297  0.0945
 8854TIP3    H126526   1.791   5.628   0.777  0.1458  1.1036  1.0756
 8854TIP3    H226527   1.812   5.545   0.902  1.9488  1.5656  1.1008
 8855TIP3   OH226528   1.727   6.375   0.796  0.0423  0.2994 -0.2405
 8855TIP3    H126529   1.695   6.287   0.777 -0.5230  0.3578  0.4067
 8855TIP3    H226530   1.823   6.366   0.795 -0.0093 -0.2823 -0.3421
 8856TIP3   OH226531   7.127   1.263   1.476  0.4612  0.0022  0.1121
 8856TIP3    H126532   7.222   1.270   1.487  0.0955  1.3177  3.9407
 8856TIP3    H226533   7.092   1.341   1.519 -2.4292 -1.3838  0.5149
 8857TIP3   OH226534   0.871   4.354   1.654 -0.1502 -0.0727  0.1362
 8857TIP3    H126535   0.813   4.404   1.597  0.1872 -0.0863 -0.2272
 8857TIP3    H226536   0.939   4.417   1.680  0.8593 -0.5751 -1.1527
 8858TIP3   OH226537   4.435   0.437   5.004 -0.2808  0.8443 -0.5600
 8858TIP3    H126538   4.390   0.388   4.936 -1.3902  1.1381 -0.0695
 8858TIP3    H226539   4.399   0.525   4.998 -0.3582  0.8882  0.3575
 8859TIP3   OH226540   4.944   2.418   1.648  0.2770 -0.8270 -0.1000
 8859TIP3    H126541   4.994   2.392   1.571  0.4617  0.1030 -0.3047
 8859TIP3    H226542   5.010   2.447   1.711  0.0833  4.3931 -1.7752
 8860TIP3   OH226543   2.948   6.766   2.855  0.3056  0.1427 -0.8073
 8860TIP3    H126544   2.885   6.715   2.805 -0.2433 -0.0712  0.0897
 8860TIP3    H226545   2.900   6.844   2.883  0.5210  0.1116 -0.3435
 8861TIP3   OH226546   5.146   1.079   2.423  0.1387  0.2272  0.3718
 8861TIP3    H126547   5.105   1.052   2.341 -0.6106 -1.6611  1.3311
 8861TIP3    H226548   5.096   1.156   2.450  0.5899  1.0714 -1.0559
 8862TIP3   OH226549   6.807   0.217   2.541 -0.2247 -0.2058 -0.1026
 8862TIP3    H126550   6.745   0.246   2.474  0.9412  1.8484 -0.3883
 8862TIP3    H226551   6.885   0.271   2.526  0.5856 -0.7037  2.0142
 8863TIP3   OH226552   5.251   5.597   2.470  0.9957 -0.0384 -0.0672
 8863TIP3    H126553   5.190   5.668   2.450 -0.1418 -1.5852 -2.6413
 8863TIP3    H226554   5.248   5.589   2.565 -0.3417  2.0345  0.1401
 8864TIP3   OH226555   4.309   0.635   0.941  0.4219 -0.0372  0.1263
 8864TIP3    H126556   4.393   0.674   0.966  0.6904 -0.6929  0.2666
 8864TIP3    H226557   4.277   0.690   0.870  1.7363 -0.6990 -1.0148
 8865TIP3   OH226558   2.394   3.905   5.216 -0.0255 -0.2541 -0.3688
 8865TIP3    H126559   2.365   3.828   5.168  0.3936 -1.1548  0.7876
 8865TIP3    H226560   2.369   3.979   5.160 -1.4600 -1.1564 -0.9657
 8866TIP3   OH226561   3.727   1.156   4.932  0.6295 -0.0062  0.4851
 8866TIP3    H126562   3.704   1.091   4.999 -0.7454  0.0981  0.1429
 8866TIP3    H226563   3.666   1.139   4.861  1.2417  0.7129 -0.2293
 8867TIP3   OH226564   0.498   5.087   1.662 -0.0023 -0.4601 -0.0164
 8867TIP3    H126565   0.508   5.097   1.757  3.2389 -1.5556 -0.1305
 8867TIP3    H226566   0.587   5.070   1.630 -0.8326  0.7753 -3.3940
 8868TIP3   OH226567   4.967   3.857   4.482  0.2579 -0.5799  0.5741
 8868TIP3    H126568   4.950   3.804   4.404  0.3072 -1.2495  1.0046
 8868TIP3    H226569   5.063   3.865   4.484  0.1574  2.1852 -1.1970
 8869TIP3   OH226570   2.382   2.475   5.842  0.5575  0.7494 -0.1313
 8869TIP3    H126571   2.397   2.536   5.769  1.6384  2.0148  1.0959
 8869TIP3    H226572   2.469   2.444   5.865  0.2372  0.4368  0.6815
 8870TIP3   OH226573   1.271   3.053   4.261 -0.1377  0.1931  0.7323
 8870TIP3    H126574   1.281   2.961   4.238 -1.6662 -0.1795  1.4738
 8870TIP3    H226575   1.308   3.100   4.187 -0.8811 -1.0062 -0.4421
 8871TIP3   OH226576   3.529   3.941   4.911 -0.3390 -0.1190 -0.2472
 8871TIP3    H126577   3.596   3.875   4.928 -0.4888 -0.4937 -1.0481
 8871TIP3    H226578   3.449   3.903   4.947 -0.0804  0.4705  1.0033
 8872TIP3   OH226579   2.527   2.169   2.037  0.4124 -0.1612 -0.4966
 8872TIP3    H126580   2.602   2.152   2.094 -1.3204 -0.9592  1.7093
 8872TIP3    H226581   2.497   2.256   2.062  1.4698  0.8545 -2.5128
 8873TIP3   OH226582   0.020   4.419   1.272  0.5588 -0.1239  0.3989
 8873TIP3    H126583   0.055   4.505   1.246 -0.8478 -0.5484 -3.6916
 8873TIP3    H226584  -0.072   4.437   1.292  0.6829 -0.4413  1.2605
 8874TIP3   OH226585   1.668   3.751   4.348 -0.0684  0.2070 -0.1400
 8874TIP3    H126586   1.663   3.839   4.385 -1.1010  0.3718 -0.6464
 8874TIP3    H226587   1.748   3.714   4.386 -0.8801  0.4917  2.0101
 8875TIP3   OH226588   1.981   3.717   4.398  0.2212  0.1165  0.0478
 8875TIP3    H126589   1.990   3.622   4.411 -0.7303  0.0710  0.4147
 8875TIP3    H226590   2.065   3.752   4.428 -0.1006 -0.4429  1.7544
 8876TIP3   OH226591   1.413   2.069   0.407  0.0181 -0.2722  0.4305
 8876TIP3    H126592   1.495   2.032   0.374  0.2854  0.4523  0.2534
 8876TIP3    H226593   1.359   2.083   0.330 -0.1613 -0.4780  0.5171
 8877TIP3   OH226594   2.875   6.528   3.540 -0.1339  0.3685 -0.2596
 8877TIP3    H126595   2.913   6.441   3.554 -2.0524 -0.3486  0.9310
 8877TIP3    H226596   2.916   6.583   3.607  2.4491  0.9373 -2.1477
 8878TIP3   OH226597   5.802   1.635   2.177 -0.4388 -0.2302 -0.7075
 8878TIP3    H126598   5.732   1.585   2.220 -0.6198  2.4855  2.6241
 8878TIP3    H226599   5.883   1.600   2.214 -0.4140  0.1495 -0.3908
 8879TIP3   OH226600   4.638   3.707   1.929 -0.1803 -0.1830  0.2738
 8879TIP3    H126601   4.639   3.751   1.844  1.6979 -2.1685 -0.8495
 8879TIP3    H226602   4.701   3.756   1.982  0.0060 -0.0022 -0.1103
 8880TIP3   OH226603   7.121   4.017   2.165  0.8321 -0.1764 -0.1290
 8880TIP3    H126604   7.198   4.001   2.110  1.0578 -0.1964  0.1913
 8880TIP3    H226605   7.079   3.931   2.172  1.9812 -0.6725  1.4928
 8881TIP3   OH226606   4.708   4.939   2.331  0.1599  0.3113  0.4722
 8881TIP3    H126607   4.678   4.980   2.412 -0.3740  0.1330  0.3665
 8881TIP3    H226608   4.647   4.867   2.316  1.9655 -1.5435  1.4827
 8882TIP3   OH226609   1.955   1.749   1.786  0.0417 -0.1772 -0.3703
 8882TIP3    H126610   2.047   1.774   1.794  0.3245 -1.1391 -0.5037
 8882TIP3    H226611   1.955   1.654   1.787 -1.0936 -0.2002  1.1101
 8883TIP3   OH226612   2.271   2.877   3.162  0.0893 -0.1211 -0.6019
 8883TIP3    H126613   2.289   2.784   3.148  0.2803 -0.1158 -0.3972
 8883TIP3    H226614   2.278   2.916   3.075  0.9523 -0.1409 -0.5589
 8884TIP3   OH226615   1.350   6.452   4.714 -0.1706  0.6434  0.1396
 8884TIP3    H126616   1.406   6.492   4.648  0.2094 -1.9550 -1.2640
 8884TIP3    H226617   1.282   6.406   4.664 -0.8773 -0.0143  1.6240
 8885TIP3   OH226618   5.862   3.491   2.924  0.2789  0.3520  0.0763
 8885TIP3    H126619   5.935   3.431   2.908 -1.3200 -1.4782 -0.7645
 8885TIP3    H226620   5.845   3.485   3.018 -1.0123 -2.0512 -0.2227
 8886TIP3   OH226621   1.479   3.583   2.227  0.8174 -0.3566  0.1103
 8886TIP3    H126622   1.459   3.638   2.302  2.0557 -0.0879  0.2707
 8886TIP3    H226623   1.566   3.547   2.246  0.4444 -1.6144 -0.4328
 8887TIP3   OH226624   2.095   1.744   4.082  0.0031  0.9295 -0.5724
 8887TIP3    H126625   2.041   1.678   4.126 -0.1235 -0.0960 -2.1939
 8887TIP3    H226626   2.032   1.801   4.038  0.0255  3.0836  1.9524
 8888TIP3   OH226627   5.255   4.638   1.315 -0.0968  0.0536  0.4980
 8888TIP3    H126628   5.340   4.653   1.355  0.4171  0.2750 -0.6177
 8888TIP3    H226629   5.273   4.583   1.239 -0.7588  1.0437 -0.4216
 8889TIP3   OH226630   2.102   0.713   5.358  0.4446  0.5901  0.2262
 8889TIP3    H126631   2.136   0.626   5.379  1.8987  1.5612  2.2145
 8889TIP3    H226632   2.010   0.710   5.386  0.4609 -0.3174  0.2054
 8890TIP3   OH226633   3.177   2.849   1.801 -0.1296  0.2805  0.0735
 8890TIP3    H126634   3.119   2.908   1.849 -2.5390  0.7723 -3.1035
 8890TIP3    H226635   3.185   2.772   1.857 -3.5055  0.4066  0.9675
 8891TIP3   OH226636   2.316   3.741   1.823 -0.0150  0.3380  0.6622
 8891TIP3    H126637   2.343   3.756   1.732 -2.0748  0.5976  0.0510
 8891TIP3    H226638   2.232   3.696   1.816 -1.1210  2.0142  2.4105
 8892TIP3   OH226639   3.260   3.531   0.961 -0.7590 -0.2815  0.0646
 8892TIP3    H126640   3.212   3.605   0.923 -0.8214 -0.1785  0.3396
 8892TIP3    H226641   3.250   3.542   1.055 -1.7654 -1.2870  0.0966
 8893TIP3   OH226642   0.364   1.789   3.937  0.0757  0.0894 -0.5563
 8893TIP3    H126643   0.284   1.840   3.949  1.7657  2.6818  0.4234
 8893TIP3    H226644   0.338   1.699   3.955 -2.8481  0.6530 -1.4456
 8894TIP3   OH226645   4.643   1.802   2.372 -0.1090 -0.6654 -0.6245
 8894TIP3    H126646   4.731   1.767   2.390  0.1943 -0.6886 -2.0389
 8894TIP3    H226647   4.640   1.810   2.277 -1.0917  0.8036 -0.4954
 8895TIP3   OH226648   5.182   3.987   0.707  0.0850  0.3831  0.0363
 8895TIP3    H126649   5.165   3.958   0.617 -1.5247 -2.6347  1.1793
 8895TIP3    H226650   5.274   4.016   0.706 -0.3741  2.0728 -2.8913
 8896TIP3   OH226651   4.188   0.482   2.586  0.2157 -0.1060  0.2771
 8896TIP3    H126652   4.211   0.444   2.671  0.5152 -1.4150 -0.3699
 8896TIP3    H226653   4.272   0.498   2.543  0.0391 -0.7463 -0.3201
 8897TIP3   OH226654   4.835   0.401   5.446  0.1038 -0.2097  0.1104
 8897TIP3    H126655   4.824   0.486   5.402 -0.5286 -0.0461  0.5681
 8897TIP3    H226656   4.929   0.395   5.463  0.6481 -1.0462 -2.7555
 8898TIP3   OH226657   5.536   0.064   3.722 -0.0013 -0.3977 -0.3282
 8898TIP3    H126658   5.494   0.145   3.750 -1.3964 -0.5823 -1.7609
 8898TIP3    H226659   5.482  -0.006   3.761  0.6652 -0.6607  0.1516
 8899TIP3   OH226660   4.078   2.302   2.082  0.2680  0.0845  0.8817
 8899TIP3    H126661   4.096   2.392   2.107 -2.0462  0.3541  1.7758
 8899TIP3    H226662   3.983   2.299   2.067  0.5345 -1.7665 -1.0128
 8900TIP3   OH226663   1.318   5.574   3.861  0.8436 -0.0728 -0.4358
 8900TIP3    H126664   1.371   5.650   3.835  1.0146 -0.5280 -1.4713
 8900TIP3    H226665   1.228   5.605   3.857  0.9707  0.5485  0.7976
 8901TIP3   OH226666   1.483   3.013   5.793 -0.2268  0.4064  0.4933
 8901TIP3    H126667   1.512   2.927   5.762 -0.4515  1.2647 -2.3929
 8901TIP3    H226668   1.545   3.075   5.754 -0.8706  1.6594  1.3937
 8902TIP3   OH226669   4.945   4.745   2.602  0.4374 -0.1034 -0.2509
 8902TIP3    H126670   5.018   4.778   2.654  0.9335 -1.2720 -0.1741
 8902TIP3    H226671   4.939   4.804   2.527  0.6691  0.7140  0.3663
 8903TIP3   OH226672   2.756   1.927   0.077  0.7224 -0.2348  0.5348
 8903TIP3    H126673   2.675   1.977   0.082  1.0517  0.4233 -0.3649
 8903TIP3    H226674   2.733   1.840   0.109  0.0784  0.4184  1.9202
 8904TIP3   OH226675   4.343   6.532   4.529 -0.0436  0.1603  0.1901
 8904TIP3    H126676   4.308   6.509   4.443  1.3813 -0.3041 -0.2966
 8904TIP3    H226677   4.365   6.447   4.569 -0.1834  0.4017  0.7912
 8905TIP3   OH226678   3.923   5.782   0.151  0.4890 -0.3367  0.3582
 8905TIP3    H126679   3.910   5.815   0.062  0.3030  0.1482  0.5673
 8905TIP3    H226680   4.014   5.802   0.171  0.5139 -0.3931  0.3040
 8906TIP3   OH226681   7.198   0.881   2.191 -0.0201 -0.0170  0.2421
 8906TIP3    H126682   7.130   0.931   2.236 -1.1561 -1.5504  0.3173
 8906TIP3    H226683   7.274   0.885   2.249 -1.1532 -1.1523  1.8869
 8907TIP3   OH226684   1.551   5.604   2.088 -0.2534 -0.3001  0.0382
 8907TIP3    H126685   1.461   5.573   2.096 -0.2516 -0.5408 -0.8161
 8907TIP3    H226686   1.543   5.690   2.048 -0.0730 -0.6154 -0.6928
 8908TIP3   OH226687   0.543   1.589   5.478  0.1254  0.5863 -0.3108
 8908TIP3    H126688   0.516   1.680   5.488  0.6732  0.6790  0.4015
 8908TIP3    H226689   0.597   1.571   5.555  2.1347  0.4021 -1.6788
 8909TIP3   OH226690   0.099   6.774   4.990  0.0372 -0.0996 -0.1025
 8909TIP3    H126691   0.012   6.813   4.984  0.0011  0.2052  1.8743
 8909TIP3    H226692   0.083   6.680   4.981 -0.4531 -0.0193 -0.1150
 8910TIP3   OH226693   2.741   5.551   4.069  0.2671 -0.7532 -0.2557
 8910TIP3    H126694   2.815   5.553   4.008  1.0803 -2.1161  0.6587
 8910TIP3    H226695   2.737   5.461   4.100  0.5050  0.0844  2.4788
 8911TIP3   OH226696   4.530   5.367   5.223 -0.6827 -0.6138 -0.0033
 8911TIP3    H126697   4.494   5.327   5.144 -3.2100 -0.1408  0.8390
 8911TIP3    H226698   4.495   5.456   5.223 -0.1475 -0.3816  1.3050
 8912TIP3   OH226699   5.305   3.142   4.865  0.3015 -0.0078  0.7190
 8912TIP3    H126700   5.390   3.117   4.902  0.0470 -1.9786  0.0754
 8912TIP3    H226701   5.241   3.102   4.924 -0.2812  2.2065  1.7254
 8913TIP3   OH226702   3.859   0.986   2.158 -0.7138 -0.1254  0.3272
 8913TIP3    H126703   3.933   1.046   2.152  0.4608 -1.5471  0.1347
 8913TIP3    H226704   3.793   1.035   2.208  0.5576  0.9587  1.0190
 8914TIP3   OH226705   3.702   1.801   3.000  0.0888  0.1497  0.5856
 8914TIP3    H126706   3.672   1.813   3.090 -1.5630  0.0453  0.0825
 8914TIP3    H226707   3.703   1.706   2.988 -2.1804  0.1708 -0.2412
 8915TIP3   OH226708   4.975   0.553   1.160  0.2205 -0.0231 -0.9060
 8915TIP3    H126709   4.923   0.611   1.105  1.1443  0.1733 -1.6072
 8915TIP3    H226710   5.047   0.607   1.192 -0.2954 -0.1415  0.5186
 8916TIP3   OH226711   2.282   1.656   3.096  0.1238  0.2424 -0.1491
 8916TIP3    H126712   2.234   1.580   3.127  1.8572 -1.0625 -0.5300
 8916TIP3    H226713   2.244   1.675   3.010 -2.0558  1.4860  0.9825
 8917TIP3   OH226714   1.400   4.670   3.905  0.5964  0.2196 -0.1151
 8917TIP3    H126715   1.369   4.618   3.979  0.3404 -0.6392 -0.8112
 8917TIP3    H226716   1.496   4.668   3.912  0.5693  0.2642  0.2712
 8918TIP3   OH226717   6.866   5.915   1.912  0.2905  0.1534  0.2922
 8918TIP3    H126718   6.891   5.827   1.885 -2.0761 -0.0404 -1.6122
 8918TIP3    H226719   6.944   5.969   1.894  0.7657 -1.0344 -1.5151
 8919TIP3   OH226720   1.915   1.295   3.400  0.1078 -0.4529 -0.7613
 8919TIP3    H126721   1.825   1.283   3.368 -0.3537 -0.9248  0.6208
 8919TIP3    H226722   1.936   1.386   3.379 -0.9183 -0.1680 -0.6094
 8920TIP3   OH226723   5.646   3.906   3.434  0.2750  0.1845  0.8932
 8920TIP3    H126724   5.649   3.999   3.414  1.5984 -0.0232  0.0210
 8920TIP3    H226725   5.685   3.863   3.358 -2.0700 -1.2488  0.4029
 8921TIP3   OH226726   3.131   1.836   3.147 -0.1904  0.6695 -0.5168
 8921TIP3    H126727   3.073   1.889   3.202 -0.7228 -0.1936 -0.2363
 8921TIP3    H226728   3.174   1.776   3.209 -1.5404 -0.9971 -1.1353
 8922TIP3   OH226729   3.372   4.688   2.673  0.1201  0.1244  0.3128
 8922TIP3    H126730   3.308   4.619   2.654  2.0316 -2.0053  1.1494
 8922TIP3    H226731   3.372   4.696   2.768  0.4834  0.7125  0.2663
 8923TIP3   OH226732   1.548   3.096   2.956 -0.0139 -0.0287 -0.1936
 8923TIP3    H126733   1.456   3.099   2.929  0.1625  0.4599 -0.7700
 8923TIP3    H226734   1.592   3.044   2.888  0.2413  0.2606 -0.2527
 8924TIP3   OH226735   4.168   0.320   3.566 -0.5529  0.1935  0.6049
 8924TIP3    H126736   4.212   0.241   3.536  1.7609  1.2267  1.0479
 8924TIP3    H226737   4.096   0.289   3.621 -0.4724 -1.5821 -0.2225
 8925TIP3   OH226738   3.275   5.269   0.248  0.1849  0.0868 -0.2453
 8925TIP3    H126739   3.370   5.276   0.252  0.3137 -1.2856 -0.5051
 8925TIP3    H226740   3.247   5.346   0.199  1.2621 -0.1185 -1.2095
 8926TIP3   OH226741   0.349   1.853   0.996  0.1973  0.1779  0.0976
 8926TIP3    H126742   0.299   1.836   0.916 -1.3574 -2.1086  1.4519
 8926TIP3    H226743   0.341   1.948   1.010 -1.7882  0.2213 -1.0144
 8927TIP3   OH226744   0.044   0.961   3.403  0.0810 -0.1317  0.6844
 8927TIP3    H126745   0.099   0.944   3.326  1.5953 -1.9893  2.0620
 8927TIP3    H226746  -0.037   0.913   3.386  1.1854 -2.2396  1.0325
 8928TIP3   OH226747   6.060   4.800   4.770  0.0802  0.4081  0.2734
 8928TIP3    H126748   5.990   4.744   4.803  0.9874  0.2969  2.1736
 8928TIP3    H226749   6.063   4.873   4.832 -2.2891  3.7023 -3.0652
 8929TIP3   OH226750   1.489   3.482   3.750  0.2673 -0.1466 -0.4024
 8929TIP3    H126751   1.529   3.569   3.744 -1.9758  0.8785 -1.5941
 8929TIP3    H226752   1.482   3.453   3.659 -1.2201 -0.4721 -0.2067
 8930TIP3   OH226753   4.907   6.111   2.238  0.2993  0.3631 -0.2957
 8930TIP3    H126754   4.832   6.074   2.193 -0.1107  1.4877 -0.5848
 8930TIP3    H226755   4.975   6.044   2.233 -1.2433 -1.4513  1.6159
 8931TIP3   OH226756   4.276   5.805   2.176  0.9304 -0.8610 -0.1683
 8931TIP3    H126757   4.245   5.845   2.257  0.3258  1.4033 -1.4369
 8931TIP3    H226758   4.372   5.803   2.186  0.8954 -0.1100  0.3742
 8932TIP3   OH226759   4.806   4.542   0.324 -0.6458  0.5652 -0.9391
 8932TIP3    H126760   4.724   4.584   0.299 -0.2089  2.3565  0.4178
 8932TIP3    H226761   4.814   4.559   0.417 -0.5963 -2.9858 -0.1567
 8933TIP3   OH226762   1.303   5.310   0.633  0.1693 -0.5608  0.3120
 8933TIP3    H126763   1.239   5.302   0.563 -0.9027  0.4584  1.1166
 8933TIP3    H226764   1.274   5.247   0.699  1.3375 -1.7212 -0.2553
 8934TIP3   OH226765   0.500   0.216   4.481  0.3431  0.2173  0.1324
 8934TIP3    H126766   0.417   0.236   4.439  1.6209  0.7943 -2.3153
 8934TIP3    H226767   0.527   0.298   4.522  0.1421  0.2809  0.1393
 8935TIP3   OH226768   5.047   1.907   5.049 -0.4816 -0.3179 -0.0790
 8935TIP3    H126769   4.968   1.940   5.004  0.0774  0.1527 -0.7384
 8935TIP3    H226770   5.110   1.892   4.978 -0.6649 -2.7591  0.1816
 8936TIP3   OH226771   2.767   4.877   1.915 -0.0367  0.1342  0.4089
 8936TIP3    H126772   2.834   4.812   1.893  0.2025  0.5821 -0.2112
 8936TIP3    H226773   2.744   4.858   2.006 -0.5033 -1.2983  0.0185
 8937TIP3   OH226774   3.548   3.622   3.304  0.1231 -0.2113  0.2766
 8937TIP3    H126775   3.547   3.674   3.385 -1.3458 -0.2696  0.3307
 8937TIP3    H226776   3.601   3.673   3.243 -0.2879  0.7598  0.7080
 8938TIP3   OH226777   6.663   4.093   1.602 -0.2993 -0.3365 -0.2852
 8938TIP3    H126778   6.634   4.037   1.530 -0.7470 -0.4579 -0.0141
 8938TIP3    H226779   6.633   4.181   1.577  0.2824 -0.2334 -0.6439
 8939TIP3   OH226780   1.759   5.601   3.719  0.0777  0.4541 -0.2081
 8939TIP3    H126781   1.736   5.511   3.697  1.5675  0.3686 -1.6015
 8939TIP3    H226782   1.682   5.652   3.694 -0.8027 -0.4028  0.6458
 8940TIP3   OH226783   2.722   4.512   4.482  0.1094 -0.7559  0.7742
 8940TIP3    H126784   2.761   4.528   4.568  0.6671  0.9949  0.2405
 8940TIP3    H226785   2.668   4.590   4.466  1.3492 -0.2356 -1.1562
 8941TIP3   OH226786   5.984   5.882   5.782 -0.1722  0.0671 -0.1969
 8941TIP3    H126787   6.071   5.918   5.769 -0.1637 -0.2186 -0.9657
 8941TIP3    H226788   5.962   5.905   5.872  0.5952  0.3477 -0.0745
 8942TIP3   OH226789   2.534   0.619   4.941 -0.0496 -0.0281  0.2387
 8942TIP3    H126790   2.596   0.682   4.977 -0.0423 -0.2480  0.6201
 8942TIP3    H226791   2.473   0.671   4.890  0.6646  0.1573 -0.4509
 8943TIP3   OH226792   4.070   2.315   5.254  0.7165  0.6535 -0.0047
 8943TIP3    H126793   4.051   2.229   5.292  1.3818  0.4547 -0.1096
 8943TIP3    H226794   4.023   2.315   5.171 -0.0465  0.7582  0.4078
 8944TIP3   OH226795   5.431   2.968   1.166 -0.4617 -0.4259  0.3799
 8944TIP3    H126796   5.426   3.020   1.246 -0.4959  1.7596 -0.9442
 8944TIP3    H226797   5.523   2.976   1.139 -0.2068 -2.0134  0.7240
 8945TIP3   OH226798   1.007   1.595   2.723 -0.0198 -0.0505  0.1595
 8945TIP3    H126799   1.027   1.680   2.763 -0.4606  1.3997 -2.4657
 8945TIP3    H226800   1.086   1.572   2.675 -0.1610 -0.7614  0.2621
 8946TIP3   OH226801   5.326   0.391   2.191 -0.2968 -0.0032  0.3726
 8946TIP3    H126802   5.340   0.299   2.169 -0.5678  0.3385 -1.4132
 8946TIP3    H226803   5.412   0.422   2.220  0.2223 -0.4250 -0.6423
 8947TIP3   OH226804   3.308   0.423   5.585 -0.4295 -0.0160 -0.3249
 8947TIP3    H126805   3.383   0.380   5.544  0.1653  1.1275 -0.4703
 8947TIP3    H226806   3.308   0.390   5.676  0.4281  0.2118 -0.2403
 8948TIP3   OH226807   1.559   0.548   0.795  0.3963  0.1168  0.2537
 8948TIP3    H126808   1.473   0.539   0.754  0.4839 -0.0110  0.1005
 8948TIP3    H226809   1.553   0.631   0.844 -0.2186 -0.4791  1.2250
 8949TIP3   OH226810   2.975   1.782   2.313 -0.0916  0.3827  0.0092
 8949TIP3    H126811   2.933   1.824   2.388 -0.4570 -0.3401  0.2224
 8949TIP3    H226812   2.980   1.851   2.246 -1.2102  0.6052  0.1402
 8950TIP3   OH226813   0.194   0.430   3.298  0.3040  0.1206 -0.1965
 8950TIP3    H126814   0.273   0.396   3.257 -0.7509 -0.4508 -1.8781
 8950TIP3    H226815   0.147   0.351   3.326  0.1095  0.4280  0.3416
 8951TIP3   OH226816   3.134   0.836   2.605 -0.3173 -0.2330 -0.3394
 8951TIP3    H126817   3.223   0.849   2.571  0.1182 -0.4399  0.6803
 8951TIP3    H226818   3.084   0.909   2.569 -0.1329 -0.9776 -2.2143
 8952TIP3   OH226819   2.639   0.575   2.211  0.3491  0.4726  0.1321
 8952TIP3    H126820   2.646   0.547   2.302  1.7111  0.1931 -0.0483
 8952TIP3    H226821   2.597   0.501   2.166 -1.7131  1.1777  0.7603
 8953TIP3   OH226822   2.072   5.389   1.119  0.4421  0.4216  0.6334
 8953TIP3    H126823   2.062   5.334   1.042  1.9816 -1.5358  1.7222
 8953TIP3    H226824   1.983   5.414   1.143 -0.1924 -0.4829 -0.7021
 8954TIP3   OH226825   6.276   5.550   3.216 -0.7780 -0.1905 -0.0240
 8954TIP3    H126826   6.311   5.463   3.198 -2.1387 -0.5994 -0.8467
 8954TIP3    H226827   6.276   5.556   3.312 -0.1248 -0.8550  0.0311
 8955TIP3   OH226828   1.036   5.436   5.490  0.2960 -0.2526 -0.3308
 8955TIP3    H126829   0.986   5.357   5.471 -0.7788  0.6460 -1.3865
 8955TIP3    H226830   1.125   5.405   5.503  0.2033 -1.4844 -2.2521
 8956TIP3   OH226831   2.057   4.658   1.761  0.3279  0.2284 -0.4965
 8956TIP3    H126832   2.106   4.576   1.765  0.8363  0.5986  1.8849
 8956TIP3    H226833   1.974   4.634   1.719 -0.0178 -1.7952  1.2023
 8957TIP3   OH226834   5.975   3.287   4.706 -0.4173  0.0590  0.4689
 8957TIP3    H126835   6.003   3.196   4.713 -0.4209 -0.0067 -0.2641
 8957TIP3    H226836   5.884   3.287   4.736 -0.9384 -0.4767 -1.0002
 8958TIP3   OH226837   0.895   3.346   4.692  0.8531 -0.4780  0.1091
 8958TIP3    H126838   0.850   3.275   4.738  0.2225 -0.9875 -1.2689
 8958TIP3    H226839   0.839   3.365   4.617  2.3053 -0.2352 -0.9319
 8959TIP3   OH226840   4.142   5.155   0.543  0.0886  0.3868 -0.3173
 8959TIP3    H126841   4.108   5.125   0.459  0.0602 -0.5819  0.0349
 8959TIP3    H226842   4.218   5.208   0.520  0.8033 -0.8666 -0.8958
 8960TIP3   OH226843   4.758   5.088   1.631 -0.8259 -0.4777 -0.2613
 8960TIP3    H126844   4.755   5.083   1.727 -0.5210  0.7214 -0.1717
 8960TIP3    H226845   4.812   5.014   1.605 -0.0704 -0.2413  0.5723
 8961TIP3   OH226846   5.964   2.983   5.073 -0.1059  0.4235  0.6366
 8961TIP3    H126847   5.940   3.075   5.067  0.0860  0.4302 -0.1104
 8961TIP3    H226848   5.934   2.956   5.160  0.1846  1.2842  1.0137
 8962TIP3   OH226849   4.058   2.763   0.690 -0.0808 -0.7685 -0.0831
 8962TIP3    H126850   4.034   2.826   0.621 -0.8843  0.8971  1.6234
 8962TIP3    H226851   3.974   2.731   0.723  0.2631 -0.9624  0.6198
 8963TIP3   OH226852   2.573   3.976   4.729  0.0576 -0.2435 -0.0227
 8963TIP3    H126853   2.631   4.020   4.668 -0.4879  1.4160  0.6025
 8963TIP3    H226854   2.495   4.031   4.732 -0.6978 -1.3248  0.7132
 8964TIP3   OH226855   2.942   2.791   3.256  0.1557  0.2238  0.0329
 8964TIP3    H126856   2.996   2.753   3.325 -1.4925  0.4418  1.4930
 8964TIP3    H226857   2.873   2.838   3.302 -0.9753  0.4303 -1.7761
 8965TIP3   OH226858   5.884   1.399   5.285 -0.1645 -0.4095  0.3335
 8965TIP3    H126859   5.807   1.443   5.322  0.5536  0.8200  0.4200
 8965TIP3    H226860   5.869   1.400   5.191  0.3830  1.1117  0.2426
 8966TIP3   OH226861   6.227   3.020   3.051  0.3913  0.4159 -0.2036
 8966TIP3    H126862   6.213   2.945   2.992 -0.8813 -0.7411  1.4448
 8966TIP3    H226863   6.138   3.051   3.071  0.6437 -0.2676  2.3040
 8967TIP3   OH226864   1.450   1.638   4.585  0.0781  0.4327  0.4556
 8967TIP3    H126865   1.398   1.694   4.528 -0.0560  0.9486  1.0698
 8967TIP3    H226866   1.420   1.659   4.674 -0.4053 -1.0403  0.6788
 8968TIP3   OH226867   3.776   1.125   5.546  0.1103  0.3242 -0.5924
 8968TIP3    H126868   3.760   1.174   5.466 -0.8479  0.3648 -0.3890
 8968TIP3    H226869   3.694   1.132   5.596  0.2423 -0.7703 -0.1834
 8969TIP3   OH226870   4.222   4.019   3.847 -0.1741 -0.1696 -0.0454
 8969TIP3    H126871   4.174   3.936   3.855  0.7208 -0.5874  1.3448
 8969TIP3    H226872   4.274   4.024   3.927 -0.0544  1.6526 -0.2006
 8970TIP3   OH226873   5.000   2.804   5.512 -0.1859 -0.1472  0.9585
 8970TIP3    H126874   4.995   2.849   5.427  0.2983  0.1873  1.1037
 8970TIP3    H226875   5.075   2.844   5.556 -0.4718 -0.2761  1.5744
 8971TIP3   OH226876   5.094   3.426   5.572  0.2065 -0.0256 -0.0008
 8971TIP3    H126877   5.042   3.376   5.510  1.4741 -0.0803 -1.0865
 8971TIP3    H226878   5.037   3.497   5.600 -0.4116  0.0063 -1.2620
 8972TIP3   OH226879   2.769   5.251   0.409 -0.0395 -0.4606 -0.8797
 8972TIP3    H126880   2.806   5.163   0.404  2.0544  0.3109  0.0946
 8972TIP3    H226881   2.844   5.310   0.400 -1.4071  1.2520 -1.6920
 8973TIP3   OH226882   1.555   3.674   5.916  0.4049 -0.6901  0.0240
 8973TIP3    H126883   1.545   3.743   5.851  1.6081  0.5853  1.1403
 8973TIP3    H226884   1.548   3.593   5.865 -1.5728  0.1876 -1.2294
 8974TIP3   OH226885   1.506   1.488   3.660  0.3267  0.1721 -0.7585
 8974TIP3    H126886   1.556   1.457   3.585 -0.5223  0.5523 -1.5033
 8974TIP3    H226887   1.426   1.435   3.658 -0.3760  1.2181 -1.0436
 8975TIP3   OH226888   4.482   2.987   0.626 -0.6315 -0.2703 -0.2707
 8975TIP3    H126889   4.479   3.061   0.687  1.4640  0.3911 -0.9068
 8975TIP3    H226890   4.562   3.000   0.576 -1.0661 -2.1073 -1.5323
 8976TIP3   OH226891   7.103   3.266   5.212  0.1338 -0.0335 -0.3617
 8976TIP3    H126892   7.196   3.244   5.215 -0.1603 -1.2242  0.8580
 8976TIP3    H226893   7.090   3.329   5.283  0.0051  0.1856 -0.5751
 8977TIP3   OH226894   3.897   2.507   1.853  0.0803  0.1793  0.3012
 8977TIP3    H126895   3.836   2.441   1.887  2.4179 -1.9496  0.6621
 8977TIP3    H226896   3.888   2.581   1.913 -1.0667 -0.6523  1.2128
 8978TIP3   OH226897   2.292   3.004   0.754 -0.0883  0.6748 -0.2541
 8978TIP3    H126898   2.279   3.079   0.812  0.3687  1.8506 -1.6037
 8978TIP3    H226899   2.219   3.007   0.693 -0.1399 -0.0708 -0.2414
 8979TIP3   OH226900   0.957   1.381   3.686 -0.0839  0.4664 -0.1546
 8979TIP3    H126901   0.885   1.441   3.667  1.7841  2.4220 -1.5487
 8979TIP3    H226902   1.021   1.435   3.731  0.5577 -1.2275  1.0421
 8980TIP3   OH226903   3.832   1.878   3.896 -0.4474  0.4746  0.3689
 8980TIP3    H126904   3.791   1.916   3.974  0.5530 -0.2360  1.2807
 8980TIP3    H226905   3.886   1.949   3.861 -0.2453  0.5530  0.8241
 8981TIP3   OH226906   1.090   4.204   1.566 -0.4683 -0.1664  0.0390
 8981TIP3    H126907   1.012   4.222   1.619  0.4695  0.5394  1.2517
 8981TIP3    H226908   1.163   4.238   1.618  0.7901 -1.8068 -0.5339
 8982TIP3   OH226909  -0.005   5.301   2.952  0.0475  0.0845 -0.3723
 8982TIP3    H126910   0.010   5.389   2.985  1.1584 -0.2008 -0.0623
 8982TIP3    H226911   0.048   5.295   2.873 -1.0737  0.1168 -1.1619
 8983TIP3   OH226912   2.450   4.504   5.516 -0.5652 -0.2304  0.4586
 8983TIP3    H126913   2.374   4.503   5.574 -0.4890 -0.0247  0.5631
 8983TIP3    H226914   2.437   4.429   5.457 -1.9067  1.0294 -0.9081
 8984TIP3   OH226915   1.965   4.207   2.492  0.3518 -0.0618  0.2832
 8984TIP3    H126916   1.953   4.142   2.561 -2.2354  0.2108  0.1850
 8984TIP3    H226917   1.910   4.281   2.520 -0.0447  0.3989 -1.6047
 8985TIP3   OH226918   1.907   0.529   0.211  0.0460 -0.9326 -0.7903
 8985TIP3    H126919   1.823   0.566   0.184  0.7077  2.3940  1.1064
 8985TIP3    H226920   1.971   0.572   0.154  0.7106 -0.5447  0.2174
 8986TIP3   OH226921   1.975   4.870   1.520 -0.3177  0.2199  0.2253
 8986TIP3    H126922   1.973   4.796   1.581 -0.9916  0.7583  0.8757
 8986TIP3    H226923   2.064   4.869   1.483 -0.5882 -1.4410 -0.4470
 8987TIP3   OH226924   2.544   1.665   3.417 -0.5198  0.4837  0.0486
 8987TIP3    H126925   2.514   1.643   3.329  0.1108  1.2928 -0.3812
 8987TIP3    H226926   2.517   1.590   3.471 -0.1482 -0.4263 -0.9863
 8988TIP3   OH226927   4.374   5.340   1.292 -0.1450 -0.1729  0.1040
 8988TIP3    H126928   4.338   5.425   1.320  0.4986 -0.1610  0.9191
 8988TIP3    H226929   4.456   5.331   1.340 -2.0920 -3.1123  3.3754
 8989TIP3   OH226930   1.070   5.657   3.744 -0.6334 -0.2142  0.3559
 8989TIP3    H126931   1.130   5.686   3.676 -0.6573 -0.7655  0.0984
 8989TIP3    H226932   0.993   5.625   3.697 -0.7549 -0.3647  0.6524
 8990TIP3   OH226933   3.691   5.871   0.271  0.7723  0.0206  0.1267
 8990TIP3    H126934   3.686   5.932   0.198  2.4020  0.4479  0.3441
 8990TIP3    H226935   3.766   5.816   0.252  0.6356 -0.4950  1.0083
 8991TIP3   OH226936   0.511   0.505   5.634  0.0390 -0.0014  0.0694
 8991TIP3    H126937   0.462   0.435   5.590 -0.2141  1.2155 -1.7031
 8991TIP3    H226938   0.473   0.509   5.721 -1.1242 -0.9352 -0.3629
 8992TIP3   OH226939   0.486   4.057   0.345  0.1713 -0.2785 -0.3865
 8992TIP3    H126940   0.436   3.997   0.400 -2.2119  0.8301 -1.2075
 8992TIP3    H226941   0.438   4.140   0.351  2.8190  1.3352 -0.0102
 8993TIP3   OH226942   0.827   2.748   4.297  0.5666 -0.3093 -0.4644
 8993TIP3    H126943   0.796   2.817   4.354  0.7020 -1.7470  1.4400
 8993TIP3    H226944   0.749   2.696   4.277  0.3579  0.6224 -2.3363
 8994TIP3   OH226945   0.743   1.202   1.100  0.5023 -0.4056  0.5433
 8994TIP3    H126946   0.698   1.149   1.034 -0.5274  0.6461  0.3630
 8994TIP3    H226947   0.824   1.230   1.056 -0.6865  1.2230 -0.7747
 8995TIP3   OH226948   5.654   2.280   2.269 -0.2218 -0.2539  0.0583
 8995TIP3    H126949   5.675   2.192   2.302 -2.1363 -0.9515 -0.4178
 8995TIP3    H226950   5.710   2.290   2.192 -0.1848 -1.2030 -0.0618
 8996TIP3   OH226951   6.591   0.841   0.880  0.0157 -0.3830 -0.1737
 8996TIP3    H126952   6.506   0.798   0.879 -0.2079  0.0281  0.4816
 8996TIP3    H226953   6.610   0.860   0.788 -1.3379  0.9795 -0.2014
 8997TIP3   OH226954   6.919   0.425   2.752 -0.0676 -0.2375 -0.3043
 8997TIP3    H126955   6.982   0.361   2.787  0.7798  0.7014 -0.0757
 8997TIP3    H226956   6.940   0.431   2.659 -0.0467 -0.1788 -0.2957
 8998TIP3   OH226957   4.437   1.091   2.526 -0.9091 -0.4344  0.4011
 8998TIP3    H126958   4.514   1.063   2.477 -2.2322 -1.0322 -1.4581
 8998TIP3    H226959   4.441   1.186   2.524 -0.4272 -0.4577 -0.0266
 8999TIP3   OH226960   0.538   1.653   5.170  0.0920 -0.1483  0.1416
 8999TIP3    H126961   0.451   1.681   5.141  0.3416  1.4800  0.8709
 8999TIP3    H226962   0.526   1.632   5.263 -0.1278 -2.8017 -0.4031
 9000TIP3   OH226963   5.386   2.776   2.563 -0.5208  0.1070  0.4052
 9000TIP3    H126964   5.470   2.773   2.608 -0.9205  0.5688  1.2278
 9000TIP3    H226965   5.324   2.741   2.628 -1.4796  2.9502  1.1751
 9001TIP3   OH226966   0.238   0.266   4.397  0.0997  0.0401  0.6937
 9001TIP3    H126967   0.152   0.230   4.375 -0.1336  0.8625  0.2319
 9001TIP3    H226968   0.224   0.360   4.400  0.6593  0.0993  2.0821
 9002TIP3   OH226969   6.675   0.139   2.272  0.2292 -0.1609  0.6769
 9002TIP3    H126970   6.683   0.044   2.262 -0.5559 -0.2816  1.0826
 9002TIP3    H226971   6.754   0.175   2.231 -0.6582 -0.8475 -1.8042
 9003TIP3   OH226972   4.106   3.802   4.747  0.0870 -0.4611 -0.0997
 9003TIP3    H126973   4.081   3.891   4.724  0.3887 -0.6519 -1.2346
 9003TIP3    H226974   4.178   3.781   4.688  1.6487 -0.6287  1.7540
 9004TIP3   OH226975   3.701   6.308   5.488  0.3208  0.4081 -0.3761
 9004TIP3    H126976   3.753   6.365   5.544  0.3766  0.7338 -0.7513
 9004TIP3    H226977   3.638   6.267   5.547 -0.5225  1.7832 -0.2757
 9005TIP3   OH226978   0.504   4.609   4.786  0.5752  0.3378 -0.1336
 9005TIP3    H126979   0.587   4.562   4.782  0.5604  0.2712  0.2407
 9005TIP3    H226980   0.458   4.584   4.705  1.0779  0.6869 -0.5290
 9006TIP3   OH226981   4.913   1.352   1.198 -0.2127  0.7621  0.5545
 9006TIP3    H126982   4.958   1.277   1.235 -0.3966  1.1458  1.6004
 9006TIP3    H226983   4.973   1.425   1.211  0.8423  0.5280 -2.2374
 9007TIP3   OH226984   1.696   5.426   3.261 -0.3257  0.4480 -0.3088
 9007TIP3    H126985   1.607   5.460   3.271 -0.3162  0.1095  1.1619
 9007TIP3    H226986   1.684   5.337   3.227 -0.6488 -0.0532  1.0329
 9008TIP3   OH226987   5.496   0.186   5.010  0.3131 -0.3121 -0.7057
 9008TIP3    H126988   5.539   0.104   5.035  0.9831  0.5426  1.0966
 9008TIP3    H226989   5.415   0.187   5.061  0.2807  0.1276 -0.7623
 9009TIP3   OH226990   5.598   3.652   3.774  0.1577  0.4345  0.1433
 9009TIP3    H126991   5.613   3.691   3.688  0.1218  1.1170  0.4481
 9009TIP3    H226992   5.657   3.576   3.776 -0.5189 -0.1467 -0.8507
 9010TIP3   OH226993   2.631   1.131   4.591  0.3120  0.6337  0.4965
 9010TIP3    H126994   2.543   1.156   4.622  0.0103 -1.1287  1.1823
 9010TIP3    H226995   2.667   1.080   4.663  1.9880  1.4470  0.2699
 9011TIP3   OH226996   0.134   1.261   3.412  0.6026  0.3639  0.2293
 9011TIP3    H126997   0.056   1.208   3.429  0.8705 -0.4175 -0.8727
 9011TIP3    H226998   0.206   1.197   3.407  0.8617  0.7513 -1.5574
 9012TIP3   OH226999   0.714   4.275   4.447 -0.1561  0.2214  0.0600
 9012TIP3    H127000   0.732   4.223   4.525 -0.0833  0.3511  0.1291
 9012TIP3    H227001   0.641   4.230   4.405  1.1279 -1.0472 -0.8962
 9013TIP3   OH227002   2.515   4.879   4.814 -0.2451 -0.2626  0.1058
 9013TIP3    H127003   2.464   4.827   4.751 -0.6660  1.5655 -1.1554
 9013TIP3    H227004   2.579   4.925   4.760  1.1946 -0.6920  1.3979
 9014TIP3   OH227005   4.429   0.732   5.748 -0.5436 -0.0502  0.7577
 9014TIP3    H127006   4.498   0.699   5.806 -1.1984  1.2715  2.3901
 9014TIP3    H227007   4.368   0.659   5.737  0.1967 -0.6743  0.7566
 9015TIP3   OH227008   6.432   5.029   0.682 -0.5314 -0.3520 -0.2422
 9015TIP3    H127009   6.473   4.945   0.700 -0.5911  0.1457  2.9018
 9015TIP3    H227010   6.504   5.092   0.688 -0.6476 -0.0578 -1.6196
 9016TIP3   OH227011   5.769   3.622   1.394  0.4349 -0.2054  0.3369
 9016TIP3    H127012   5.734   3.645   1.308  0.1509 -1.5712  0.0664
 9016TIP3    H227013   5.714   3.670   1.456  0.1727  0.2117 -0.2051
 9017TIP3   OH227014   5.864   0.775   3.981  0.4684 -0.8631 -0.0945
 9017TIP3    H127015   5.935   0.721   4.018  1.4768  0.9458  0.7353
 9017TIP3    H227016   5.789   0.757   4.038  1.0048 -0.8146  0.6506
 9018TIP3   OH227017   1.383   0.695   2.095  0.0878  0.2994  1.0201
 9018TIP3    H127018   1.379   0.654   2.009  0.5211  1.1960  0.5650
 9018TIP3    H227019   1.293   0.696   2.126  0.2116 -2.2746  1.6740
 9019TIP3   OH227020   3.201   1.543   4.131 -0.4138 -0.2787  0.1242
 9019TIP3    H127021   3.273   1.550   4.068  0.3528  0.2788  1.0309
 9019TIP3    H227022   3.239   1.499   4.207 -1.4693 -1.4527  0.0011
 9020TIP3   OH227023   0.016   5.976   5.403  0.4414 -0.0932  0.3027
 9020TIP3    H127024   0.029   5.892   5.360 -1.8157 -0.0584 -0.6134
 9020TIP3    H227025   0.024   5.957   5.497 -3.2873 -2.1796  0.4024
 9021TIP3   OH227026   6.051   6.536   5.366  0.0555  0.5446 -0.1866
 9021TIP3    H127027   6.039   6.452   5.410 -1.4208 -0.3056 -2.0270
 9021TIP3    H227028   6.070   6.512   5.275 -0.0175  2.2023 -0.6622
 9022TIP3   OH227029   0.443   5.661   1.038 -0.4255 -0.2938  0.0337
 9022TIP3    H127030   0.369   5.620   1.083 -0.1051  1.3949  2.3232
 9022TIP3    H227031   0.518   5.646   1.096 -0.0157  2.1476  0.2367
 9023TIP3   OH227032   3.181   0.089   2.101  0.7782  0.4678  0.6262
 9023TIP3    H127033   3.165   0.068   2.194  0.8104  2.3318  1.0788
 9023TIP3    H227034   3.096   0.073   2.058  1.4541 -3.3245  0.3100
 9024TIP3   OH227035   3.771   4.808   1.779 -0.1382 -0.2247 -0.9464
 9024TIP3    H127036   3.754   4.729   1.728  1.0301 -0.7782 -0.5414
 9024TIP3    H227037   3.863   4.828   1.761 -0.7672  1.8790 -2.1236
 9025TIP3   OH227038   1.931   4.131   5.433  0.2019  0.1349  0.0621
 9025TIP3    H127039   1.851   4.102   5.477  0.4041 -1.8009 -0.7579
 9025TIP3    H227040   1.900   4.184   5.359 -0.3550 -0.7747 -0.3746
 9026TIP3   OH227041   0.074   1.485   5.563 -0.0329  0.1711  0.5326
 9026TIP3    H127042   0.032   1.559   5.607 -0.4714 -1.2708  2.6740
 9026TIP3    H227043   0.167   1.495   5.583 -0.0864  0.1433  0.7912
 9027TIP3   OH227044   2.091   3.873   1.128 -0.0756 -0.1515  0.5781
 9027TIP3    H127045   2.055   3.791   1.095  0.1466  0.1197 -0.3431
 9027TIP3    H227046   2.183   3.854   1.144  0.1685  0.1377 -0.4225
 9028TIP3   OH227047   5.436   1.934   1.449  0.1391 -0.0893 -0.6028
 9028TIP3    H127048   5.514   1.907   1.401 -0.1267 -0.7546 -0.6686
 9028TIP3    H227049   5.461   1.929   1.541 -0.0857 -1.1368 -0.5929
 9029TIP3   OH227050   4.190   1.346   3.328 -0.3904 -0.3351 -0.0212
 9029TIP3    H127051   4.191   1.401   3.251  1.2386 -0.8635 -0.4131
 9029TIP3    H227052   4.177   1.257   3.294 -0.4373 -0.4825  0.3743
 9030TIP3   OH227053   4.388   2.340   3.183  0.0427  0.4094  0.0239
 9030TIP3    H127054   4.320   2.299   3.236  0.4915  1.9082  1.8257
 9030TIP3    H227055   4.430   2.266   3.138 -2.3154 -0.6055 -0.6723
 9031TIP3   OH227056   2.385   2.221   3.221 -0.2029 -0.3226 -0.1700
 9031TIP3    H127057   2.393   2.249   3.130 -0.3749  1.8513  0.4332
 9031TIP3    H227058   2.474   2.200   3.248  0.5844  3.1142  0.3210
 9032TIP3   OH227059   2.483   2.392   2.186  0.3807  0.1558 -0.1235
 9032TIP3    H127060   2.537   2.451   2.239  1.4192 -1.2194  0.4208
 9032TIP3    H227061   2.414   2.363   2.245 -0.5784  1.3739 -0.6136
 9033TIP3   OH227062   2.209   4.082   0.202 -0.1858  0.4897 -0.4446
 9033TIP3    H127063   2.122   4.042   0.200  0.1717 -0.3287 -0.0691
 9033TIP3    H227064   2.251   4.050   0.122  0.7361 -1.4135  0.7150
 9034TIP3   OH227065   2.531   5.999   1.484 -0.2628 -0.6193  1.0315
 9034TIP3    H127066   2.545   6.049   1.564  1.1448  1.6271 -0.5134
 9034TIP3    H227067   2.611   5.948   1.472  0.1518  0.1781  0.3218
 9035TIP3   OH227068   0.531   2.406   3.809  0.1787  0.7224 -0.1458
 9035TIP3    H127069   0.500   2.482   3.857 -2.2906 -0.4963  0.3789
 9035TIP3    H227070   0.610   2.378   3.855 -1.4496  0.2897  2.5879
 9036TIP3   OH227071   5.016   6.020   2.932  0.2534  0.1701 -0.7600
 9036TIP3    H127072   5.095   6.061   2.969 -0.1000  0.0091  0.1964
 9036TIP3    H227073   4.996   6.074   2.856  0.8116  0.7189 -0.5373
 9037TIP3   OH227074   5.803   5.767   0.087  0.0196 -0.1437  0.0153
 9037TIP3    H127075   5.752   5.736   0.012  0.4785 -5.3686  1.4748
 9037TIP3    H227076   5.738   5.782   0.156 -0.0811  0.6264 -0.2409
 9038TIP3   OH227077   1.094   3.400   0.071 -0.1880 -0.3595  0.2709
 9038TIP3    H127078   1.174   3.355   0.097 -0.4227 -0.1557  1.4335
 9038TIP3    H227079   1.030   3.330   0.060 -0.2576 -0.4141  0.9549
 9039TIP3   OH227080   3.682   0.656   1.907  0.2471 -0.0736 -0.1080
 9039TIP3    H127081   3.752   0.608   1.952 -0.2450 -1.5889 -0.8869
 9039TIP3    H227082   3.703   0.748   1.922  1.8472 -0.4984  0.5251
 9040TIP3   OH227083   2.819   6.152   5.040 -0.0932  0.1057 -0.4790
 9040TIP3    H127084   2.769   6.072   5.025 -1.2043  0.7255 -0.2471
 9040TIP3    H227085   2.754   6.215   5.072  0.5914  1.3224 -1.3645
 9041TIP3   OH227086   6.023   5.269   2.263 -0.4460 -0.2392 -0.3041
 9041TIP3    H127087   5.936   5.266   2.302 -1.3027 -1.7394 -2.1680
 9041TIP3    H227088   6.079   5.306   2.332 -2.2330 -0.7779  1.5382
 9042TIP3   OH227089   3.428   4.748   2.063  0.1361  0.5161 -0.1253
 9042TIP3    H127090   3.402   4.833   2.097  2.4688  1.0470  0.4541
 9042TIP3    H227091   3.351   4.692   2.076 -0.7190  1.9837  1.3937
 9043TIP3   OH227092   1.408   3.591   5.253  0.0443  0.6835  0.3525
 9043TIP3    H127093   1.501   3.602   5.271  0.1334  0.5659 -0.0421
 9043TIP3    H227094   1.367   3.589   5.340  0.2189  2.3049  0.4935
 9044TIP3   OH227095   4.850   0.531   4.190  0.1156 -0.0077 -0.2374
 9044TIP3    H127096   4.811   0.537   4.102  1.0351  0.8488 -0.6151
 9044TIP3    H227097   4.943   0.511   4.173  0.5607  1.3383  0.4651
 9045TIP3   OH227098   5.343   1.237   4.457  0.0265 -0.3579 -0.6755
 9045TIP3    H127099   5.367   1.289   4.380 -1.4801  1.0772 -0.2294
 9045TIP3    H227100   5.380   1.285   4.531  0.0727 -0.8622 -0.3658
 9046TIP3   OH227101   4.715   5.534   3.418 -0.0758 -0.7741  0.4933
 9046TIP3    H127102   4.670   5.462   3.463  0.2440 -0.6884  0.9567
 9046TIP3    H227103   4.714   5.606   3.482 -0.7278 -0.2364 -0.1041
 9047TIP3   OH227104   0.246   6.196   1.694 -0.3432  0.1779  0.2619
 9047TIP3    H127105   0.225   6.116   1.743  0.3084  0.3452  0.8354
 9047TIP3    H227106   0.189   6.193   1.617 -0.6479 -0.6108  0.5083
 9048TIP3   OH227107   2.276   3.686   3.007 -0.5183  0.0870 -0.1107
 9048TIP3    H127108   2.235   3.695   2.921 -1.6673  0.4959  0.4566
 9048TIP3    H227109   2.280   3.776   3.041 -0.7993 -0.1615  0.5903
 9049TIP3   OH227110   1.817   2.250   2.224  0.2685 -0.0252  0.2378
 9049TIP3    H127111   1.732   2.263   2.181  0.3256 -1.1574 -0.2694
 9049TIP3    H227112   1.881   2.280   2.159  0.2861 -0.1667  0.1877
 9050TIP3   OH227113   5.975   2.302   1.757 -0.2292 -0.0740 -0.2667
 9050TIP3    H127114   5.959   2.384   1.803  0.4856  1.0281 -1.9193
 9050TIP3    H227115   6.070   2.291   1.760 -0.2621 -0.4929 -0.6427
 9051TIP3   OH227116   7.079   6.073   5.181  0.4621 -0.2130 -0.2482
 9051TIP3    H127117   7.017   6.003   5.159  0.8179 -0.0391 -1.9106
 9051TIP3    H227118   7.148   6.030   5.231 -0.2277 -0.6994  0.2950
 9052TIP3   OH227119   5.159   4.128   0.165 -0.4943  0.5320  0.0386
 9052TIP3    H127120   5.101   4.164   0.233  1.0281  1.7117  0.7753
 9052TIP3    H227121   5.139   4.034   0.164 -0.8571  0.5418  1.8569
 9053TIP3   OH227122   2.999   4.009   1.023 -0.0587 -0.1912  0.0890
 9053TIP3    H127123   2.919   4.010   0.970  0.3134  0.9983 -0.4691
 9053TIP3    H227124   3.051   4.081   0.989  0.9903 -0.5666  0.8697
 9054TIP3   OH227125   5.582   3.849   0.495 -0.0337  0.0663 -0.2859
 9054TIP3    H127126   5.550   3.939   0.486  0.4770  0.2651 -0.1496
 9054TIP3    H227127   5.669   3.851   0.456  1.2491  0.3641  2.3721
 9055TIP3   OH227128   6.050   3.977   4.413  0.2676  0.1185  0.0149
 9055TIP3    H127129   5.984   4.016   4.470 -0.7507 -0.7512 -0.5207
 9055TIP3    H227130   6.002   3.955   4.333  1.1233 -0.9011 -0.2415
 9056TIP3   OH227131   0.627   6.192   1.170  0.2160  0.1295  0.1809
 9056TIP3    H127132   0.693   6.164   1.233  1.8430 -1.0192 -1.9142
 9056TIP3    H227133   0.593   6.110   1.132 -1.2276  0.7632  0.0435
 9057TIP3   OH227134   6.825   5.996   5.889 -0.3104  0.5484  0.5293
 9057TIP3    H127135   6.764   5.932   5.854  0.9080 -0.5578  0.3298
 9057TIP3    H227136   6.852   6.047   5.813 -0.2408  0.3833  0.4419
 9058TIP3   OH227137   4.788   3.957   0.741  0.5304 -0.3749 -0.7595
 9058TIP3    H127138   4.783   3.988   0.650  1.0856 -0.0914 -0.6994
 9058TIP3    H227139   4.788   4.037   0.793  1.3216 -0.4917 -0.5701
 9059TIP3   OH227140   0.672   0.260   0.975  0.5820  0.0300  0.2427
 9059TIP3    H127141   0.665   0.251   1.070  0.2295 -1.8667  0.0764
 9059TIP3    H227142   0.733   0.191   0.948  1.1351  0.9021 -0.8693
 9060TIP3   OH227143   5.283   6.259   3.592 -0.1894  0.1493  0.0519
 9060TIP3    H127144   5.322   6.247   3.678  1.2785  0.7296 -0.4972
 9060TIP3    H227145   5.269   6.353   3.584 -0.8931  0.0377 -0.1186
 9061TIP3   OH227146   3.360   6.288   2.802  0.0494 -0.2702 -0.3255
 9061TIP3    H127147   3.456   6.290   2.803  0.0855 -1.3701  0.6323
 9061TIP3    H227148   3.335   6.357   2.740  1.4593 -0.2483 -0.8997
 9062TIP3   OH227149   6.024   3.178   3.148  0.5371 -0.0288 -0.6207
 9062TIP3    H127150   6.066   3.255   3.109  3.0940  0.1121  2.0656
 9062TIP3    H227151   5.997   3.208   3.235 -0.9505 -1.4620 -0.5507
 9063TIP3   OH227152   4.621   4.229   4.828 -0.6470 -0.4509 -0.1904
 9063TIP3    H127153   4.562   4.301   4.851 -0.2035 -0.4291  0.9073
 9063TIP3    H227154   4.629   4.235   4.732 -0.3121  1.2083 -0.0939
 9064TIP3   OH227155   1.262   1.292   1.075 -0.2951  0.5615  0.5533
 9064TIP3    H127156   1.212   1.240   1.137 -2.0450  0.8027 -0.5689
 9064TIP3    H227157   1.215   1.376   1.071 -0.5666  0.3690 -1.4299
 9065TIP3   OH227158   1.020   1.218   4.658  0.2663  0.9196  0.4601
 9065TIP3    H127159   0.946   1.192   4.603  2.0855 -0.2737 -1.5271
 9065TIP3    H227160   0.991   1.196   4.747 -1.5753  0.0285 -0.2904
 9066TIP3   OH227161   1.614   0.748   4.417 -0.6837 -0.1958 -0.9989
 9066TIP3    H127162   1.568   0.667   4.438 -2.1276  1.2586  2.0159
 9066TIP3    H227163   1.695   0.745   4.468 -0.5814  0.0945 -1.1382
 9067TIP3   OH227164   5.601   6.475   5.369 -0.6067  0.7825 -0.6499
 9067TIP3    H127165   5.522   6.421   5.365 -0.4794  0.4140  1.1480
 9067TIP3    H227166   5.668   6.417   5.404 -0.4490  2.0495  1.2544
 9068TIP3   OH227167   1.180   0.058   2.956  0.6967  0.0149  0.3538
 9068TIP3    H127168   1.145   0.033   3.042 -0.9886  1.3961  0.1339
 9068TIP3    H227169   1.265   0.099   2.976  0.6575 -0.3334  1.2802
 9069TIP3   OH227170   3.602   0.853   5.514 -0.3289  0.0373  0.0137
 9069TIP3    H127171   3.675   0.846   5.576 -0.9712 -2.2025  0.6082
 9069TIP3    H227172   3.645   0.857   5.428  0.5900 -2.9815  0.2184
 9070TIP3   OH227173   3.336   3.770   0.713  0.4271  0.2234  0.0737
 9070TIP3    H127174   3.247   3.770   0.750  0.2103 -0.0906 -0.4205
 9070TIP3    H227175   3.366   3.680   0.725  0.8071  0.4094  0.5273
 9071TIP3   OH227176   5.647   4.578   4.823  1.0302 -0.0715 -0.4834
 9071TIP3    H127177   5.610   4.490   4.830  1.2365 -0.1058  0.1787
 9071TIP3    H227178   5.640   4.599   4.729 -0.4631 -0.1627 -0.4250
 9072TIP3   OH227179   3.066   2.855   2.272  0.1551 -0.1820 -0.4956
 9072TIP3    H127180   3.118   2.878   2.349  0.1905  1.4554 -0.9731
 9072TIP3    H227181   3.054   2.760   2.278  2.0470 -0.4071  0.3404
 9073TIP3   OH227182   3.142   1.788   0.301 -0.2556  0.1860  0.2066
 9073TIP3    H127183   3.179   1.873   0.277 -3.8006  1.6205 -0.7420
 9073TIP3    H227184   3.107   1.801   0.389 -0.1203 -0.5470  0.3722
 9074TIP3   OH227185   5.557   1.797   2.454 -0.3295  0.5369 -0.2354
 9074TIP3    H127186   5.505   1.806   2.374 -0.2040  0.3482 -0.3395
 9074TIP3    H227187   5.493   1.795   2.525 -0.4550  0.4800 -0.3494
 9075TIP3   OH227188   4.222   6.576   4.011 -0.5929 -0.5381 -0.7899
 9075TIP3    H127189   4.146   6.603   3.960  0.0350 -0.3844 -1.6605
 9075TIP3    H227190   4.290   6.639   3.989  0.2371 -1.5385 -1.1668
 9076TIP3   OH227191   1.457   2.942   1.722 -0.2186 -0.0397  0.0302
 9076TIP3    H127192   1.524   3.000   1.687  1.6568 -2.5934 -0.9207
 9076TIP3    H227193   1.385   2.946   1.659  0.0593  0.8522 -0.2431
 9077TIP3   OH227194   6.604   1.665   5.588  0.4388 -0.1318  0.0209
 9077TIP3    H127195   6.608   1.692   5.496  0.4459 -0.6824 -0.1446
 9077TIP3    H227196   6.676   1.713   5.630 -0.6131  1.4182  0.0999
 9078TIP3   OH227197   6.096   3.921   2.561 -0.2122 -0.2664 -0.2640
 9078TIP3    H127198   6.131   4.007   2.586 -0.6057 -0.2890  0.3779
 9078TIP3    H227199   6.016   3.941   2.512 -1.9126 -0.2841  2.3354
 9079TIP3   OH227200   1.615   2.815   2.040  0.8470  0.6000  0.1421
 9079TIP3    H127201   1.556   2.786   1.970  1.8428 -0.2719 -0.3683
 9079TIP3    H227202   1.697   2.770   2.021  1.2073  0.5447  1.7530
 9080TIP3   OH227203   3.445   4.427   3.962 -0.2001 -0.2846  0.5208
 9080TIP3    H127204   3.507   4.368   4.005  0.5259 -1.5939 -2.1016
 9080TIP3    H227205   3.498   4.501   3.933 -0.2381 -0.4453  0.0271
 9081TIP3   OH227206   1.259   4.947   2.136  0.1993 -0.4458 -0.3119
 9081TIP3    H127207   1.194   4.965   2.067  0.2608 -0.0848 -0.2773
 9081TIP3    H227208   1.340   4.931   2.088  0.3385  0.2243 -0.3108
 9082TIP3   OH227209   3.485   3.493   5.368  0.0558 -0.1210 -0.1174
 9082TIP3    H127210   3.570   3.505   5.409 -0.0811 -0.6747  0.3449
 9082TIP3    H227211   3.426   3.553   5.414 -0.4479 -1.8592  1.6219
 9083TIP3   OH227212   4.045   6.142   4.084  0.5450 -0.1013 -0.0008
 9083TIP3    H127213   4.014   6.107   4.000  0.3426  0.4699 -0.1703
 9083TIP3    H227214   4.048   6.237   4.071 -1.3569  0.1802  1.2492
 9084TIP3   OH227215   6.631   6.439   0.669  0.1811  0.3454 -0.2405
 9084TIP3    H127216   6.623   6.423   0.764 -0.4881  1.0710 -0.1616
 9084TIP3    H227217   6.696   6.376   0.640  0.3853  0.0949  0.7059
 9085TIP3   OH227218   1.824   2.480   4.517  0.1192 -0.4539  0.0761
 9085TIP3    H127219   1.748   2.514   4.469  1.3447  3.7817  0.6736
 9085TIP3    H227220   1.899   2.500   4.461  1.3192  2.1034  2.3557
 9086TIP3   OH227221   5.884   6.678   1.005 -0.4566 -0.0354  0.1212
 9086TIP3    H127222   5.844   6.716   0.927 -0.3578 -1.6438 -0.7520
 9086TIP3    H227223   5.924   6.596   0.975  1.8565  0.5499  1.3473
 9087TIP3   OH227224   4.492   0.716   2.070  0.0243 -0.3932 -0.4160
 9087TIP3    H127225   4.535   0.687   2.150  0.1774 -0.0819 -0.3859
 9087TIP3    H227226   4.515   0.649   2.005  1.3580  0.2501 -0.6495
 9088TIP3   OH227227   0.692   1.724   3.886  0.4586 -0.1288 -0.2160
 9088TIP3    H127228   0.737   1.652   3.929 -0.5531 -0.9598 -0.5181
 9088TIP3    H227229   0.723   1.721   3.796  1.1275  0.4203 -0.0163
 9089TIP3   OH227230   0.710   4.879   0.701 -0.6551 -0.6895  0.4641
 9089TIP3    H127231   0.720   4.907   0.792 -0.3827  0.5436  0.0741
 9089TIP3    H227232   0.676   4.789   0.706  0.7308 -1.1657  1.7796
 9090TIP3   OH227233   4.952   5.435   1.608 -0.0658 -0.0354  0.7123
 9090TIP3    H127234   4.998   5.393   1.534  0.0143 -0.0655  0.7791
 9090TIP3    H227235   4.988   5.524   1.611 -0.4803  0.1452  0.3581
 9091TIP3   OH227236   0.107   2.195   2.954 -0.3124  0.2576 -0.0559
 9091TIP3    H127237   0.080   2.155   3.037 -0.1864  0.5904  0.1487
 9091TIP3    H227238   0.044   2.162   2.890  0.6418 -1.4213 -0.1828
 9092TIP3   OH227239   5.438   1.236   3.517  0.3574 -0.1255 -0.3605
 9092TIP3    H127240   5.366   1.220   3.456 -0.0867  1.1168 -0.1785
 9092TIP3    H227241   5.495   1.298   3.472  1.1108 -0.7832 -0.3344
 9093TIP3   OH227242   3.267   0.118   5.386 -0.0111 -0.4509  0.2700
 9093TIP3    H127243   3.336   0.106   5.451  0.4477  0.9814  0.0887
 9093TIP3    H227244   3.272   0.211   5.362  0.4345 -1.0780 -2.4678
 9094TIP3   OH227245   0.386   4.514   1.539 -0.1950  0.7284  0.1773
 9094TIP3    H127246   0.346   4.430   1.516  1.9107 -0.1875 -0.3946
 9094TIP3    H227247   0.329   4.579   1.498 -0.5023 -0.5457 -1.5553
 9095TIP3   OH227248   5.678   3.100   3.424 -0.1270  0.1183 -0.6045
 9095TIP3    H127249   5.724   3.180   3.451 -1.3571  0.3510  0.9354
 9095TIP3    H227250   5.642   3.122   3.338 -1.9024  1.9202  0.5028
 9096TIP3   OH227251   4.554   5.748   3.742  0.3276 -0.2040 -0.0028
 9096TIP3    H127252   4.570   5.800   3.821  0.4056  1.2777 -0.9652
 9096TIP3    H227253   4.522   5.664   3.776  0.1934  0.4468  1.6061
 9097TIP3   OH227254   0.850   1.951   3.337  0.6967  0.5368 -0.0329
 9097TIP3    H127255   0.824   1.881   3.278 -1.5707  1.4042 -0.1815
 9097TIP3    H227256   0.787   1.946   3.409  1.7241  1.1975  0.9453
 9098TIP3   OH227257   2.019   0.561   3.485  0.2241  0.1707  0.0129
 9098TIP3    H127258   2.017   0.578   3.580 -0.9242 -0.5928  0.1468
 9098TIP3    H227259   2.106   0.589   3.458  0.0768  1.7550  1.0357
 9099TIP3   OH227260   3.828   0.224   4.359 -0.0928  0.3661  0.5207
 9099TIP3    H127261   3.877   0.306   4.357  2.4150 -1.0401 -1.1316
 9099TIP3    H227262   3.881   0.165   4.412 -1.2521 -0.5577  0.7045
 9100TIP3   OH227263   5.330   2.900   4.497 -0.2802 -0.3619  0.8128
 9100TIP3    H127264   5.275   2.827   4.469 -0.0712 -1.1837  2.4276
 9100TIP3    H227265   5.362   2.938   4.416  0.0520 -2.4047 -0.0722
 9101TIP3   OH227266   1.171   3.471   1.005 -0.1052 -0.2281  0.1793
 9101TIP3    H127267   1.181   3.375   1.003  0.3138 -0.2278  1.3093
 9101TIP3    H227268   1.077   3.485   0.993 -0.1867 -0.7896  0.0973
 9102TIP3   OH227269   5.606   0.065   1.995 -1.1735 -0.1226  0.1361
 9102TIP3    H127270   5.599   0.125   1.921  0.7152 -1.4374 -1.2000
 9102TIP3    H227271   5.609  -0.022   1.954 -0.0986 -0.8832  1.7663
 9103TIP3   OH227272   0.113   4.878   3.909 -0.6941  0.4113  0.5557
 9103TIP3    H127273   0.084   4.799   3.863  0.1302  0.6759 -0.4627
 9103TIP3    H227274   0.031   4.922   3.935 -1.2542  0.8817 -1.7807
 9104TIP3   OH227275   0.335   3.930   1.984 -0.0762 -0.4000 -0.6598
 9104TIP3    H127276   0.416   3.978   1.970 -0.1973 -0.0615 -0.2270
 9104TIP3    H227277   0.343   3.852   1.930  0.1599  0.0632 -1.2937
 9105TIP3   OH227278   0.377   5.107   0.916 -0.3650 -0.3935 -0.0568
 9105TIP3    H127279   0.296   5.063   0.942 -1.3141  1.3228  0.0387
 9105TIP3    H227280   0.381   5.095   0.821  0.0031 -1.6228  0.0914
 9106TIP3   OH227281   5.516   1.512   0.298  0.1184 -0.3829 -0.1167
 9106TIP3    H127282   5.582   1.540   0.362  0.6195 -1.0568 -0.3366
 9106TIP3    H227283   5.559   1.444   0.246  0.3471  1.3424 -2.3460
 9107TIP3   OH227284   4.644   6.436   5.134  0.4410 -0.7523 -0.3689
 9107TIP3    H127285   4.710   6.488   5.179 -0.6109 -1.5066  2.2678
 9107TIP3    H227286   4.582   6.412   5.203 -3.0309  0.4965 -2.7872
 9108TIP3   OH227287   3.569   6.069   5.599 -0.0631  0.4136  0.0560
 9108TIP3    H127288   3.554   5.975   5.601 -0.7770  0.4884 -1.0008
 9108TIP3    H227289   3.482   6.107   5.591  0.1903  1.1845  0.8226
 9109TIP3   OH227290   3.296   0.227   1.693  1.0634  0.2195 -0.1003
 9109TIP3    H127291   3.232   0.285   1.650  1.0877 -1.0227 -1.9173
 9109TIP3    H227292   3.309   0.266   1.779 -2.0496  0.5940  0.3211
 9110TIP3   OH227293   2.477   2.908   1.210  0.0997 -0.2448 -0.4933
 9110TIP3    H127294   2.397   2.869   1.175 -1.8410  0.9645  2.2128
 9110TIP3    H227295   2.448   2.992   1.247  2.7108  0.3840  0.3152
 9111TIP3   OH227296   3.366   6.232   0.544 -0.0357 -0.4296 -0.1806
 9111TIP3    H127297   3.383   6.138   0.542  0.7653 -0.3242  0.8607
 9111TIP3    H227298   3.330   6.248   0.631  0.1828  0.2857 -0.2146
 9112TIP3   OH227299   6.919   4.103   1.000 -0.1818 -0.4084 -0.1825
 9112TIP3    H127300   6.939   4.015   0.968  1.0325 -0.0936 -0.3452
 9112TIP3    H227301   6.907   4.092   1.094 -0.1441 -0.7623 -0.2164
 9113TIP3   OH227302   4.036   5.619   4.110 -0.4582  0.7966 -0.6572
 9113TIP3    H127303   4.106   5.562   4.141  0.1380  2.0464  0.3955
 9113TIP3    H227304   3.962   5.599   4.167 -0.0643  1.4588  0.1172
 9114TIP3   OH227305   0.412   4.192   3.982  0.5463  0.0010  0.3034
 9114TIP3    H127306   0.479   4.151   3.929 -0.1252 -0.3790 -0.2700
 9114TIP3    H227307   0.353   4.121   4.008 -0.2066  0.4710 -0.0650
 9115TIP3   OH227308   4.443   5.468   2.482 -0.4249 -0.0686 -0.3119
 9115TIP3    H127309   4.406   5.385   2.512 -0.0695 -0.0728  0.1215
 9115TIP3    H227310   4.482   5.447   2.397 -0.4249 -0.3209 -0.2507
 9116TIP3   OH227311   7.170   4.745   2.611  0.2599 -0.0959 -0.1372
 9116TIP3    H127312   7.159   4.802   2.687  0.5136 -1.1936  0.7394
 9116TIP3    H227313   7.090   4.693   2.608 -0.1686  0.5932 -1.2021
 9117TIP3   OH227314   4.208   3.554   5.482 -0.7471 -0.3032  0.2776
 9117TIP3    H127315   4.214   3.641   5.521  1.8160  0.4310 -1.5225
 9117TIP3    H227316   4.268   3.500   5.534 -1.6665 -0.8133  0.8396
 9118TIP3   OH227317   5.762   3.831   3.201 -0.4823 -0.2579 -0.3472
 9118TIP3    H127318   5.703   3.766   3.163 -0.4891 -0.1619 -0.5058
 9118TIP3    H227319   5.849   3.805   3.171 -0.0297 -2.1570  2.3538
 9119TIP3   OH227320   2.347   1.918   3.407 -0.6160 -0.6135  0.1552
 9119TIP3    H127321   2.381   1.998   3.446 -0.6523  0.0694 -1.1480
 9119TIP3    H227322   2.397   1.847   3.448 -0.0246  0.1361  0.7411
 9120TIP3   OH227323   3.782   2.951   2.136  0.3169  0.3446  0.1064
 9120TIP3    H127324   3.874   2.961   2.112  0.3965  0.3690  0.4111
 9120TIP3    H227325   3.733   2.969   2.055  0.6275 -0.9242 -0.3785
 9121TIP3   OH227326   0.469   5.064   1.196  0.2305  0.1298 -0.3391
 9121TIP3    H127327   0.428   5.080   1.111 -0.0488 -0.7523 -0.3869
 9121TIP3    H227328   0.527   5.139   1.210  1.4777 -0.4451 -2.0317
 9122TIP3   OH227329   5.840   0.437   1.418  0.0665  0.1617  0.1451
 9122TIP3    H127330   5.749   0.446   1.389  0.2454  0.2898 -0.3824
 9122TIP3    H227331   5.869   0.354   1.381  0.4480  0.5576 -0.4646
 9123TIP3   OH227332   3.344   2.395   3.847  0.0036  0.2406  0.1475
 9123TIP3    H127333   3.408   2.420   3.913 -0.2780 -0.2565  0.6067
 9123TIP3    H227334   3.266   2.446   3.869 -0.0842  0.0902  0.1804
 9124TIP3   OH227335   4.299   2.469   4.236  0.2467  1.1566 -0.1103
 9124TIP3    H127336   4.384   2.443   4.200 -0.0118 -0.9420  0.6877
 9124TIP3    H227337   4.320   2.498   4.325 -0.0710 -1.8142  1.0533
 9125TIP3   OH227338   0.944   4.624   5.190 -0.1820 -0.0090  0.8746
 9125TIP3    H127339   0.881   4.666   5.131  1.0939  1.5125  0.5095
 9125TIP3    H227340   0.969   4.543   5.145  0.3329  0.8401 -0.4327
 9126TIP3   OH227341   5.091   5.939   0.983  0.4036 -0.0299  0.2551
 9126TIP3    H127342   5.074   5.865   1.041  0.4861 -1.7415 -1.7697
 9126TIP3    H227343   5.017   5.939   0.922  1.2360  0.5016 -0.7911
 9127TIP3   OH227344   1.010   4.209   4.555  0.1885 -0.4437 -0.8607
 9127TIP3    H127345   0.993   4.303   4.566  0.6427 -0.3889 -0.5975
 9127TIP3    H227346   0.987   4.191   4.464  0.1550 -0.0623 -0.9305
 9128TIP3   OH227347   3.344   5.918   4.862 -0.2859 -0.4433 -0.1770
 9128TIP3    H127348   3.426   5.931   4.910  0.2100 -1.3319 -0.7760
 9128TIP3    H227349   3.292   5.996   4.884  0.0330 -0.6649  1.5586
 9129TIP3   OH227350   5.242   5.715   3.339  0.3883  0.1132 -0.0507
 9129TIP3    H127351   5.303   5.752   3.275 -0.8682 -1.0846 -2.0553
 9129TIP3    H227352   5.186   5.788   3.364  1.2544  0.7280  0.1335
 9130TIP3   OH227353   3.625   2.296   3.563  0.1370  0.1401 -0.5070
 9130TIP3    H127354   3.649   2.277   3.654 -1.0970  1.5458  0.1687
 9130TIP3    H227355   3.661   2.223   3.513  1.4740 -0.3130  1.0054
 9131TIP3   OH227356   5.892   5.345   4.293  0.2389  0.0263  0.0558
 9131TIP3    H127357   5.869   5.255   4.271  0.9325 -0.5725  1.5897
 9131TIP3    H227358   5.922   5.383   4.210  0.7324 -1.4195 -0.4710
 9132TIP3   OH227359   6.968   5.473   2.864  0.4268  0.3035 -0.3007
 9132TIP3    H127360   7.029   5.398   2.862  0.8677  0.6670 -0.8364
 9132TIP3    H227361   6.908   5.457   2.791 -0.0050  0.0445  0.1084
 9133TIP3   OH227362   6.646   0.138   2.888 -0.6400  0.3295 -0.4195
 9133TIP3    H127363   6.600   0.061   2.922 -0.1162  1.1047  2.2751
 9133TIP3    H227364   6.581   0.209   2.892 -0.1125  0.7726  0.5033
 9134TIP3   OH227365   4.040   2.063   5.356 -0.2944 -0.5174 -0.1157
 9134TIP3    H127366   4.009   2.033   5.441 -0.0118  0.5437  0.3857
 9134TIP3    H227367   4.001   2.003   5.293  0.2559 -1.9212  0.8179
 9135TIP3   OH227368   6.619   1.045   1.059  0.1655  0.0360 -0.4283
 9135TIP3    H127369   6.602   0.979   0.992 -0.9221 -0.8953  0.6936
 9135TIP3    H227370   6.671   1.112   1.015 -0.1149 -0.7624 -2.0525
 9136TIP3   OH227371   6.016   1.242   5.764 -0.1776  0.4279  0.5913
 9136TIP3    H127372   6.057   1.314   5.813 -0.2272  1.2441 -0.5443
 9136TIP3    H227373   5.922   1.259   5.769 -0.1581  0.7456 -0.1506
 9137TIP3   OH227374   5.232   5.481   4.512 -0.4813 -0.2174  0.4898
 9137TIP3    H127375   5.168   5.439   4.455  1.3140  0.8978 -2.5964
 9137TIP3    H227376   5.316   5.457   4.475  0.7070  3.0286  0.8185
 9138TIP3   OH227377   0.960   1.016   3.181 -0.4231 -0.2939  0.7959
 9138TIP3    H127378   0.943   1.068   3.102  0.7074 -2.3430 -0.9186
 9138TIP3    H227379   1.055   1.022   3.194 -0.5495 -0.3042  1.7769
 9139TIP3   OH227380   3.748   5.571   4.180  0.3573 -0.7727  0.3678
 9139TIP3    H127381   3.683   5.636   4.209  1.5637  0.5899  0.1351
 9139TIP3    H227382   3.758   5.513   4.255 -2.1784 -1.9228 -0.0866
 9140TIP3   OH227383   5.261   6.199   2.539  0.2703  0.2373 -0.2961
 9140TIP3    H127384   5.280   6.181   2.631 -1.5694  0.6326  0.2021
 9140TIP3    H227385   5.336   6.163   2.491  0.1556 -2.1953  1.1680
 9141TIP3   OH227386   6.136   0.239   3.316 -0.1949  0.0927 -0.7099
 9141TIP3    H127387   6.074   0.245   3.389  1.7463  0.1140  1.0022
 9141TIP3    H227388   6.083   0.262   3.239 -1.8147  2.4369  0.9315
 9142TIP3   OH227389   5.107   4.471   1.026 -0.4289  0.4364  0.2683
 9142TIP3    H127390   5.091   4.397   0.966 -1.6443  1.5354 -0.8429
 9142TIP3    H227391   5.154   4.432   1.100  0.8000 -1.0613 -1.2028
 9143TIP3   OH227392   3.300   4.360   5.876  0.3035  0.4226  0.1348
 9143TIP3    H127393   3.284   4.272   5.842  0.1685  0.3413  0.4069
 9143TIP3    H227394   3.386   4.354   5.918  0.5466  0.5668 -0.3378
 9144TIP3   OH227395   5.912   6.747   2.294 -0.2330 -0.0229  0.1872
 9144TIP3    H127396   5.850   6.767   2.364  0.3112  0.3839  0.5670
 9144TIP3    H227397   5.968   6.825   2.289 -0.1226 -0.1400 -0.5503
 9145TIP3   OH227398   3.667   4.606   3.374  0.4939 -0.1641  0.1795
 9145TIP3    H127399   3.674   4.699   3.352  0.1555  0.1576  1.3148
 9145TIP3    H227400   3.573   4.591   3.380  0.5354 -0.7400 -0.6136
 9146TIP3   OH227401   3.599   3.671   1.380 -0.4384 -0.2358  0.5157
 9146TIP3    H127402   3.621   3.578   1.375  0.5819 -0.1332  2.3319
 9146TIP3    H227403   3.673   3.711   1.426 -1.3080  1.3030  0.6484
 9147TIP3   OH227404   1.046   3.254   1.668 -0.2097  0.0918  0.4560
 9147TIP3    H127405   0.975   3.261   1.731 -1.8278  4.0106 -1.4575
 9147TIP3    H227406   1.017   3.188   1.606  0.3051 -2.0384  2.3554
 9148TIP3   OH227407   5.058   4.852   1.552  0.0256 -0.0544  0.0438
 9148TIP3    H127408   5.133   4.792   1.555 -0.3188 -0.4543  1.2467
 9148TIP3    H227409   4.999   4.812   1.488  1.0343  0.5332 -1.3042
 9149TIP3   OH227410   5.956   6.559   1.680  0.3902 -0.3345 -0.4647
 9149TIP3    H127411   6.017   6.513   1.623 -0.7841 -0.8004 -1.3772
 9149TIP3    H227412   5.983   6.651   1.674  1.8885 -0.6993  0.2990
 9150TIP3   OH227413   6.606   4.769   3.704  0.3003 -0.1119  0.1627
 9150TIP3    H127414   6.611   4.686   3.752 -0.9362 -0.0627  0.4270
 9150TIP3    H227415   6.692   4.809   3.716  0.7711 -1.1596  0.3915
 9151TIP3   OH227416   0.904   5.648   1.074  0.3658 -0.2784  0.2026
 9151TIP3    H127417   0.952   5.692   1.144 -0.9673  1.8672 -0.1323
 9151TIP3    H227418   0.950   5.673   0.994  0.2451 -0.3901  0.0972
 9152TIP3   OH227419   0.625   1.802   1.039  0.1374  0.1850  0.4897
 9152TIP3    H127420   0.672   1.719   1.038  0.3139  0.2749 -1.2996
 9152TIP3    H227421   0.535   1.778   1.016  0.3289  0.5477 -0.6767
 9153TIP3   OH227422   3.039   2.602   2.591  0.2175 -0.5789  0.2305
 9153TIP3    H127423   3.009   2.692   2.606 -1.1159 -1.0003  0.2081
 9153TIP3    H227424   2.962   2.548   2.608  0.2660 -1.5398 -2.2108
 9154TIP3   OH227425   0.972   3.207   3.399  0.4034  0.1133 -0.2274
 9154TIP3    H127426   0.910   3.137   3.418 -0.3724  0.8019 -0.1561
 9154TIP3    H227427   0.939   3.283   3.448  3.3442 -0.3922  2.9482
 9155TIP3   OH227428   1.370   0.264   0.932  0.8614 -0.1598  0.0048
 9155TIP3    H127429   1.277   0.242   0.938  0.8157  0.2082  0.8018
 9155TIP3    H227430   1.406   0.201   0.869  0.1928 -0.6972  0.1497
 9156TIP3   OH227431   3.974   2.810   4.623 -0.0108 -0.1732 -0.8694
 9156TIP3    H127432   3.917   2.856   4.685 -1.1321 -0.6127 -1.5385
 9156TIP3    H227433   4.038   2.765   4.679 -0.7487 -0.2378 -0.0463
 9157TIP3   OH227434   1.262   6.698   5.148  0.1794  0.1709 -0.0626
 9157TIP3    H127435   1.250   6.622   5.090  0.4338  0.2174 -0.1777
 9157TIP3    H227436   1.309   6.664   5.223 -2.0846 -0.3902  1.2016
 9158TIP3   OH227437   5.170   1.215   2.027 -0.4762 -0.4952 -0.3638
 9158TIP3    H127438   5.083   1.232   2.063 -1.2060 -1.3069 -1.6386
 9158TIP3    H227439   5.157   1.218   1.932  0.7172 -1.3760 -0.5769
 9159TIP3   OH227440   2.188   2.425   3.229 -0.4229 -0.2411  0.5360
 9159TIP3    H127441   2.137   2.381   3.161  0.6096  1.3794 -1.4003
 9159TIP3    H227442   2.258   2.363   3.251  0.1976 -0.1803 -1.1328
 9160TIP3   OH227443   6.422   3.800   5.681  0.2610  0.1385 -0.0620
 9160TIP3    H127444   6.450   3.713   5.712 -3.1010 -0.8604  0.5281
 9160TIP3    H227445   6.405   3.849   5.761  0.7923  0.9060 -0.4092
 9161TIP3   OH227446   1.021   5.978   1.913  0.6592 -0.1185 -0.8520
 9161TIP3    H127447   1.085   6.046   1.937  0.8633 -0.2891 -0.9086
 9161TIP3    H227448   1.060   5.934   1.837  0.8761 -0.7817 -0.3633
 9162TIP3   OH227449   4.856   4.112   3.902  0.7912  0.1536  0.1571
 9162TIP3    H127450   4.778   4.082   3.949 -0.3695 -1.1199 -2.3977
 9162TIP3    H227451   4.925   4.052   3.929  0.8890  1.0782  2.1806
 9163TIP3   OH227452   1.573   1.159   3.512 -0.0204  0.5152 -0.0583
 9163TIP3    H127453   1.504   1.095   3.495  1.9837 -1.8475  0.1480
 9163TIP3    H227454   1.595   1.146   3.605  2.0611 -0.3009 -0.6144
 9164TIP3   OH227455   5.348   0.160   0.751 -0.3154  0.3992 -0.3984
 9164TIP3    H127456   5.274   0.206   0.713 -0.7243 -1.3918 -1.8870
 9164TIP3    H227457   5.413   0.229   0.768 -1.4351  1.6867 -1.1858
 9165TIP3   OH227458   0.698   6.122   2.171 -0.2074  0.1076 -0.1501
 9165TIP3    H127459   0.662   6.161   2.091  1.4869  1.3386 -0.3805
 9165TIP3    H227460   0.754   6.191   2.207 -1.8268  0.0639  2.7854
 9166TIP3   OH227461   5.072   0.988   4.289  0.7314  0.1217 -0.1950
 9166TIP3    H127462   4.978   0.969   4.291  0.4991  1.2196 -0.1017
 9166TIP3    H227463   5.088   1.036   4.371  1.2356  0.5383 -0.5353
 9167TIP3   OH227464   5.315   1.255   2.726  0.2460 -0.4966  0.3454
 9167TIP3    H127465   5.277   1.300   2.802  1.4660 -1.3691  1.5137
 9167TIP3    H227466   5.255   1.276   2.654 -1.3681 -0.2449  1.6869
 9168TIP3   OH227467   3.014   6.150   0.781 -0.2496  0.5657  0.0951
 9168TIP3    H127468   3.091   6.095   0.772 -1.0192 -0.9075  2.0072
 9168TIP3    H227469   2.993   6.177   0.691  2.2250  0.7028 -0.4946
 9169TIP3   OH227470   2.375   5.906   3.484  0.2638 -0.4533 -0.3510
 9169TIP3    H127471   2.281   5.890   3.484  0.3797 -1.1886  0.1865
 9169TIP3    H227472   2.384   5.999   3.505 -0.3465 -0.3332 -0.6005
 9170TIP3   OH227473   2.707   2.553   3.951 -0.0581  0.4338  0.7420
 9170TIP3    H127474   2.650   2.522   4.021 -0.4317 -0.3140  0.1231
 9170TIP3    H227475   2.647   2.584   3.884  0.3062  2.0344  1.1169
 9171TIP3   OH227476   2.304   4.398   4.301 -0.9653 -0.0854  0.7194
 9171TIP3    H127477   2.247   4.467   4.269 -0.6044 -0.1124 -0.0076
 9171TIP3    H227478   2.382   4.403   4.245 -0.9869 -1.1483  0.5744
 9172TIP3   OH227479   4.524   6.577   0.265 -0.7114  0.0688 -0.6164
 9172TIP3    H127480   4.526   6.667   0.298  0.3906  0.1152 -0.7925
 9172TIP3    H227481   4.431   6.558   0.254 -1.2449 -0.1619  3.0641
 9173TIP3   OH227482   6.956   6.659   1.883  0.2769  0.4194  0.2736
 9173TIP3    H127483   6.920   6.673   1.795 -0.6506 -2.0663  0.1819
 9173TIP3    H227484   7.050   6.667   1.872  0.2635 -0.9715 -1.2247
 9174TIP3   OH227485   0.821   0.672   5.552 -0.3770  0.0412 -0.0081
 9174TIP3    H127486   0.849   0.590   5.510 -2.2684  0.3173 -2.0095
 9174TIP3    H227487   0.897   0.701   5.601  0.9665 -1.9586 -0.7809
 9175TIP3   OH227488   5.110   3.605   5.326  0.4741 -0.2268 -0.2745
 9175TIP3    H127489   5.118   3.529   5.384 -0.0071  0.7719  1.1603
 9175TIP3    H227490   5.184   3.661   5.351  0.6591 -0.0814 -1.1244
 9176TIP3   OH227491   6.423   2.483   4.817  0.2490  0.0594  0.0432
 9176TIP3    H127492   6.460   2.485   4.905  1.1746  1.5746 -0.3447
 9176TIP3    H227493   6.356   2.552   4.817  1.3209  1.1508 -0.8404
 9177TIP3   OH227494   4.888   5.640   2.261 -0.3914 -0.2464  0.2692
 9177TIP3    H127495   4.896   5.665   2.354 -0.7060  1.8142 -0.2067
 9177TIP3    H227496   4.818   5.574   2.260  0.3905 -1.1611  1.6051
 9178TIP3   OH227497   3.686   5.470   0.391 -0.2320 -0.9321 -0.0029
 9178TIP3    H127498   3.776   5.490   0.364 -0.0610  1.1162  1.7789
 9178TIP3    H227499   3.694   5.391   0.444  0.5841 -0.5383  0.4764
 9179TIP3   OH227500   0.752   5.583   0.420 -0.7221  0.0709  0.0497
 9179TIP3    H127501   0.837   5.581   0.463 -0.4529 -1.5964 -0.4835
 9179TIP3    H227502   0.689   5.564   0.490 -0.6050  0.5830  0.3007
 9180TIP3   OH227503   6.710   1.088   0.060 -0.8124  0.4915  0.2516
 9180TIP3    H127504   6.780   1.112   0.122 -0.9358 -0.9732  1.0179
 9180TIP3    H227505   6.668   1.012   0.101 -1.1975 -0.2330 -1.4282
 9181TIP3   OH227506   3.014   1.580   0.942 -0.1155  0.6706 -0.2438
 9181TIP3    H127507   3.009   1.558   1.035 -0.2649  2.8105  0.3046
 9181TIP3    H227508   2.931   1.548   0.906 -0.0550 -0.1807  0.3581
 9182TIP3   OH227509   1.687   2.013   4.078  0.1153  0.3212  0.1760
 9182TIP3    H127510   1.607   2.064   4.094  0.3063  0.0703  2.2013
 9182TIP3    H227511   1.662   1.922   4.096  0.6513  0.1382  0.0197
 9183TIP3   OH227512   5.330   2.109   1.707 -0.1476 -0.3111 -0.9878
 9183TIP3    H127513   5.236   2.107   1.690 -0.3659 -0.3321  0.1750
 9183TIP3    H227514   5.337   2.123   1.801  1.0081 -2.3653 -0.7300
 9184TIP3   OH227515   0.500   6.173   3.281 -0.1951  0.2633 -0.0200
 9184TIP3    H127516   0.439   6.219   3.223  0.0822 -0.9593 -1.3436
 9184TIP3    H227517   0.561   6.129   3.222 -0.5534 -1.9393  1.1313
 9185TIP3   OH227518   1.748   5.612   5.046 -0.3418  0.2356  0.2360
 9185TIP3    H127519   1.812   5.541   5.036  0.4156  0.9339  0.0943
 9185TIP3    H227520   1.696   5.586   5.122  1.5123  0.7016  1.7546
 9186TIP3   OH227521   0.174   1.070   3.853 -0.0285 -0.0844  0.0418
 9186TIP3    H127522   0.230   1.141   3.883  0.0660  0.7344 -1.8826
 9186TIP3    H227523   0.092   1.114   3.828 -0.4353 -0.8388  0.0264
 9187TIP3   OH227524   6.255   2.604   1.850 -0.0146  0.3078 -0.4005
 9187TIP3    H127525   6.287   2.519   1.881  0.3256  0.7251  0.4196
 9187TIP3    H227526   6.268   2.601   1.755 -0.5841 -0.7934 -0.4656
 9188TIP3   OH227527   3.518   0.791   1.268  0.0068  0.4176 -0.4976
 9188TIP3    H127528   3.548   0.853   1.202 -0.9845  1.3253 -0.1208
 9188TIP3    H227529   3.486   0.716   1.217 -0.7907  1.1220 -1.0797
 9189TIP3   OH227530   0.205   5.140   0.057  0.2511  0.3614 -0.2340
 9189TIP3    H127531   0.226   5.158   0.149 -0.8277 -2.3227  0.6623
 9189TIP3    H227532   0.113   5.164   0.049 -0.1010 -0.8345 -0.1004
 9190TIP3   OH227533   6.965   3.343   4.271  0.5355 -0.4032  0.4412
 9190TIP3    H127534   7.014   3.272   4.228  0.2208 -0.8375  0.7838
 9190TIP3    H227535   6.981   3.420   4.216  2.6149 -0.2161  1.2146
 9191TIP3   OH227536   6.189   6.028   5.770 -0.4012 -0.0339  0.2019
 9191TIP3    H127537   6.194   6.120   5.795 -2.0926  0.3875 -0.8403
 9191TIP3    H227538   6.220   6.026   5.680 -1.8789 -0.1849 -0.3295
 9192TIP3   OH227539   3.807   3.099   3.301 -0.1248  0.6162 -0.4636
 9192TIP3    H127540   3.857   3.180   3.316  2.1682 -0.7107 -0.3781
 9192TIP3    H227541   3.739   3.100   3.368  0.3749  2.0808  0.0745
 9193TIP3   OH227542   2.678   4.060   1.531 -0.3472  0.1040 -0.0415
 9193TIP3    H127543   2.694   3.984   1.474  0.3901  0.2135  0.0099
 9193TIP3    H227544   2.631   4.122   1.476  0.1150  0.0921 -0.4606
 9194TIP3   OH227545   1.052   5.185   0.037  0.1123  0.2601 -0.2818
 9194TIP3    H127546   1.027   5.117  -0.026  0.4561  1.1156 -1.3922
 9194TIP3    H227547   1.142   5.164   0.061 -0.3892 -0.7200  0.8459
 9195TIP3   OH227548   3.596   4.536   5.632  0.2361  0.3954  0.1930
 9195TIP3    H127549   3.515   4.533   5.684  0.4472  2.1488  0.7083
 9195TIP3    H227550   3.633   4.622   5.652  1.9679 -0.1677 -0.4473
 9196TIP3   OH227551   5.989   6.497   3.223 -0.3201  0.0708  0.1308
 9196TIP3    H127552   5.930   6.572   3.229 -0.1599  0.3327 -1.2946
 9196TIP3    H227553   6.067   6.525   3.271  0.3777  1.5014 -1.6974
 9197TIP3   OH227554   0.408   3.857   0.915  1.2356 -0.1021  0.1236
 9197TIP3    H127555   0.356   3.938   0.912  0.6576 -0.4907 -1.2737
 9197TIP3    H227556   0.343   3.788   0.930  1.2440 -0.6239 -1.8936
 9198TIP3   OH227557   0.941   5.724   4.514  0.7776  0.0398  0.0577
 9198TIP3    H127558   0.866   5.664   4.514 -0.6664  1.7685  0.3607
 9198TIP3    H227559   0.973   5.721   4.604 -1.6774  2.4553  1.1457
 9199TIP3   OH227560   5.676   0.033   1.284 -0.2383  0.3380 -0.5153
 9199TIP3    H127561   5.732  -0.033   1.244 -1.4105 -1.0726  0.0593
 9199TIP3    H227562   5.587   0.008   1.257 -0.7826  1.1630  0.4421
 9200TIP3   OH227563   0.731   0.057   4.623 -0.6190 -0.1679 -0.0680
 9200TIP3    H127564   0.656   0.083   4.570  0.1220  0.9619 -0.6095
 9200TIP3    H227565   0.741  -0.036   4.605 -1.3808 -0.1520 -0.6450
 9201TIP3   OH227566   5.177   1.049   5.052  0.0721  0.1976 -0.0484
 9201TIP3    H127567   5.103   0.989   5.061 -0.4655  0.8010 -0.3561
 9201TIP3    H227568   5.200   1.045   4.959 -0.3978  0.9530 -0.2080
 9202TIP3   OH227569   0.464   1.238   2.773  0.1322 -0.1213 -0.5158
 9202TIP3    H127570   0.500   1.186   2.845  0.5741 -0.0285 -0.6616
 9202TIP3    H227571   0.517   1.211   2.697 -0.4358 -0.3444 -0.8398
 9203TIP3   OH227572   5.312   6.632   4.046 -0.4866 -0.8510  0.5462
 9203TIP3    H127573   5.367   6.672   4.113  0.7517  1.1654 -1.5113
 9203TIP3    H227574   5.366   6.562   4.009 -1.1627 -1.9524  1.5927
 9204TIP3   OH227575   7.013   5.222   2.508  0.3478  0.3937 -0.5672
 9204TIP3    H127576   7.063   5.297   2.476  1.4003  0.0771  0.3047
 9204TIP3    H227577   6.927   5.231   2.465  0.7249  1.6271 -1.1095
 9205TIP3   OH227578   3.830   3.033   3.609 -0.1370 -0.6443 -0.4015
 9205TIP3    H127579   3.802   2.996   3.692  2.0305 -1.0154  0.2252
 9205TIP3    H227580   3.753   3.029   3.553 -1.5155 -0.8001  1.4402
 9206TIP3   OH227581   6.381   4.882   1.082 -0.0936 -0.4505  0.3991
 9206TIP3    H127582   6.343   4.915   1.163 -0.7858 -1.2909  0.4359
 9206TIP3    H227583   6.340   4.933   1.013  0.3816  0.1599  0.5569
 9207TIP3   OH227584   5.720   0.999   4.530 -0.1733 -0.0494 -0.1178
 9207TIP3    H127585   5.774   1.073   4.555  1.5389 -0.4742 -2.2031
 9207TIP3    H227586   5.639   1.038   4.497 -0.4059  0.7032  1.2746
 9208TIP3   OH227587   2.477   5.009   2.039 -0.1353  0.3161 -0.3026
 9208TIP3    H127588   2.466   4.923   2.000 -1.7009  1.0580 -1.6260
 9208TIP3    H227589   2.428   5.005   2.121 -1.1790  0.2428 -0.9032
 9209TIP3   OH227590   1.350   1.673   0.884 -0.2470  0.0084 -0.9491
 9209TIP3    H127591   1.377   1.686   0.975 -0.5072  0.1536 -0.8921
 9209TIP3    H227592   1.329   1.761   0.853  0.5098  0.0523 -1.3657
 9210TIP3   OH227593   7.011   3.763   2.160  0.0357  0.1809 -0.1038
 9210TIP3    H127594   7.062   3.696   2.206  1.7537 -0.0115 -2.1471
 9210TIP3    H227595   6.923   3.725   2.154  0.8864 -1.8035 -0.9170
 9211TIP3   OH227596   4.446   0.940   0.486  0.6329 -0.3188  0.0350
 9211TIP3    H127597   4.405   0.929   0.400  0.3803  0.3284  0.0617
 9211TIP3    H227598   4.484   1.028   0.483 -1.5857  0.7711  1.4727
 9212TIP3   OH227599   4.927   0.686   0.727  0.0361  0.5211 -0.6173
 9212TIP3    H127600   4.986   0.662   0.798 -0.5143  2.1846  0.4481
 9212TIP3    H227601   4.914   0.604   0.678  0.1922 -0.7401  1.3465
 9213TIP3   OH227602   1.114   2.588   2.316 -0.1291  0.3598  0.0474
 9213TIP3    H127603   1.090   2.651   2.248  0.0800  0.4013  0.0129
 9213TIP3    H227604   1.161   2.519   2.269  2.2436  1.5809  0.4730
 9214TIP3   OH227605   6.747   1.278   3.430 -0.0412  0.1006  0.3457
 9214TIP3    H127606   6.710   1.308   3.347  0.3258 -0.2149  0.0620
 9214TIP3    H227607   6.694   1.321   3.497 -0.0350  0.7450 -0.0516
 9215TIP3   OH227608   5.075   5.952   4.397 -0.7529  0.3178 -0.4424
 9215TIP3    H127609   5.047   6.016   4.331 -0.1018 -0.7875 -1.8342
 9215TIP3    H227610   5.145   5.996   4.445 -1.1600  1.0927 -0.5394
 9216TIP3   OH227611   5.400   1.108   1.081  0.0089 -0.5505  0.1607
 9216TIP3    H127612   5.338   1.177   1.060  0.6959 -0.7713 -3.1190
 9216TIP3    H227613   5.467   1.152   1.134 -0.1526  1.0830 -0.8946
 9217TIP3   OH227614   1.327   2.878   4.472 -0.4109 -0.2823 -0.4824
 9217TIP3    H127615   1.346   2.963   4.432  0.5836  0.6893  1.8449
 9217TIP3    H227616   1.342   2.814   4.403  1.2306  1.2690 -1.6455
 9218TIP3   OH227617   1.157   6.823   3.441 -0.1365  0.3520 -0.3242
 9218TIP3    H127618   1.103   6.757   3.485 -1.9500  1.0047 -1.4652
 9218TIP3    H227619   1.177   6.786   3.355 -0.1195  0.7771 -0.5085
 9219TIP3   OH227620   5.668   0.920   0.524  0.2129 -0.1192  0.0504
 9219TIP3    H127621   5.604   0.981   0.561  0.3938  0.1285 -0.0435
 9219TIP3    H227622   5.625   0.834   0.531  0.4555 -0.1571  1.3320
 9220TIP3   OH227623   2.979   3.550   0.431  0.1322 -0.4462  0.0710
 9220TIP3    H127624   3.025   3.504   0.502  0.6168 -1.5932 -0.9552
 9220TIP3    H227625   3.043   3.555   0.360 -0.0410  1.5112 -0.0151
 9221TIP3   OH227626   0.973   1.643   1.521  0.0365  0.0397 -0.5413
 9221TIP3    H127627   0.944   1.704   1.453  1.1900  0.6212 -0.5293
 9221TIP3    H227628   1.067   1.659   1.529  0.0719 -0.6424  0.5780
 9222TIP3   OH227629   6.098   0.962   3.104 -0.2182 -0.5596  0.1562
 9222TIP3    H127630   6.095   0.928   3.193  1.3190 -0.5596  0.2230
 9222TIP3    H227631   6.187   0.994   3.093 -1.0520  1.7034 -0.5574
 9223TIP3   OH227632   2.005   6.420   0.164  0.1816 -0.7305 -0.3066
 9223TIP3    H127633   2.069   6.483   0.133  0.6884 -0.5286  1.0819
 9223TIP3    H227634   1.966   6.384   0.084  1.5865 -0.4236 -1.1624
 9224TIP3   OH227635   1.488   2.174   4.992  0.3353 -0.0096  0.6931
 9224TIP3    H127636   1.476   2.113   4.919  1.1877  1.9571 -1.1531
 9224TIP3    H227637   1.409   2.161   5.046 -0.4184 -1.3650 -0.6490
 9225TIP3   OH227638   2.498   4.298   4.121 -0.6133 -0.5005  0.0061
 9225TIP3    H127639   2.549   4.323   4.045  0.3907  1.5591  1.2868
 9225TIP3    H227640   2.560   4.253   4.178 -1.6003 -3.0030 -0.7542
 9226TIP3   OH227641   7.164   3.473   0.898  0.2204 -0.0442  0.3159
 9226TIP3    H127642   7.200   3.401   0.950 -1.6745  0.4845  2.5412
 9226TIP3    H227643   7.076   3.486   0.933  0.3911  3.1940 -0.1730
 9227TIP3   OH227644   4.060   6.025   0.492  0.2027 -0.2462 -0.1803
 9227TIP3    H127645   3.974   6.058   0.521  0.3952 -0.6658  0.9188
 9227TIP3    H227646   4.098   6.098   0.442  0.1325  0.8012  1.2226
 9228TIP3   OH227647   2.877   2.324   3.953  0.2614 -0.0983 -0.3140
 9228TIP3    H127648   2.820   2.400   3.939  0.2975 -0.2830 -1.5864
 9228TIP3    H227649   2.849   2.289   4.037 -2.2054 -0.7492 -1.3117
 9229TIP3   OH227650   3.026   1.300   3.697 -0.1658 -0.7654 -0.1729
 9229TIP3    H127651   3.053   1.312   3.606 -2.3832 -2.1039 -1.0941
 9229TIP3    H227652   3.107   1.277   3.744  1.6312  3.0454 -1.0504
 9230TIP3   OH227653   6.514   0.496   4.182 -0.1720  0.0081 -0.0077
 9230TIP3    H127654   6.594   0.488   4.235 -0.2764 -0.3921  0.0893
 9230TIP3    H227655   6.546   0.503   4.092  0.2309  4.1137  0.2450
 9231TIP3   OH227656   0.933   6.183   5.448 -0.0457 -0.0597  0.2398
 9231TIP3    H127657   0.981   6.106   5.477  1.3738  0.0648 -1.5956
 9231TIP3    H227658   0.947   6.186   5.353 -2.5708  0.7915 -0.1666
 9232TIP3   OH227659   1.576   2.459   2.604  0.1094  0.2302 -0.0109
 9232TIP3    H127660   1.532   2.501   2.530  0.1876  0.5013  0.0957
 9232TIP3    H227661   1.616   2.380   2.567  0.9034  0.8217 -0.4443
 9233TIP3   OH227662   5.983   5.405   3.782 -0.1818  0.3208  0.2159
 9233TIP3    H127663   5.899   5.410   3.828  0.1370  1.4885  0.6813
 9233TIP3    H227664   5.987   5.485   3.730  0.6644  0.2849  0.2167
 9234TIP3   OH227665   2.428   1.386   2.234 -0.4098  0.0010  0.6328
 9234TIP3    H127666   2.382   1.397   2.317 -1.0867  1.3831  0.1148
 9234TIP3    H227667   2.362   1.406   2.167 -0.1112 -1.8722 -0.2947
 9235TIP3   OH227668   1.329   0.943   4.765 -0.1971 -0.3725  0.4981
 9235TIP3    H127669   1.399   0.928   4.829 -1.1354 -1.4035  1.3004
 9235TIP3    H227670   1.376   0.959   4.683  1.0278  0.8303  1.3679
 9236TIP3   OH227671   0.511   1.985   3.371  0.1207  0.1180  0.0954
 9236TIP3    H127672   0.423   1.963   3.403 -0.0566  1.0773  0.2939
 9236TIP3    H227673   0.507   1.971   3.277 -0.1349 -0.1904  0.1511
 9237TIP3   OH227674   0.643   3.750   3.441  0.1184 -0.5357 -0.1874
 9237TIP3    H127675   0.641   3.845   3.430  0.9025 -0.3036  1.3718
 9237TIP3    H227676   0.653   3.737   3.535  4.1123 -2.0536 -0.6183
 9238TIP3   OH227677   6.315   0.172   1.078 -0.3864  0.1901 -0.4534
 9238TIP3    H127678   6.362   0.107   1.025 -1.1117 -1.2407  0.6141
 9238TIP3    H227679   6.223   0.154   1.062 -0.6020  1.0823 -0.2622
 9239TIP3   OH227680   4.159   0.693   5.172 -0.0789 -0.2825  0.4033
 9239TIP3    H127681   4.195   0.711   5.259 -1.0923  2.1567  0.3997
 9239TIP3    H227682   4.082   0.639   5.189 -0.0937 -0.0810  1.0196
 9240TIP3   OH227683   4.253   4.906   3.067 -0.3300 -0.3188 -0.5760
 9240TIP3    H127684   4.203   4.975   3.023 -1.8313 -0.9347  0.1179
 9240TIP3    H227685   4.258   4.836   3.002  0.2198 -0.0202 -0.8716
 9241TIP3   OH227686   2.127   6.595   4.947 -0.4752 -0.6222  0.2026
 9241TIP3    H127687   2.177   6.552   4.877 -1.1292 -0.8560 -0.1281
 9241TIP3    H227688   2.119   6.528   5.015  0.1613 -0.3950  0.5093
 9242TIP3   OH227689   3.058   6.206   5.170  0.1673  0.1923 -0.6549
 9242TIP3    H127690   3.124   6.215   5.102  1.0150 -0.0056  0.1180
 9242TIP3    H227691   2.974   6.211   5.124  0.7241  0.0099 -1.7061
 9243TIP3   OH227692   6.942   3.398   1.909  0.4956  0.5327 -0.1534
 9243TIP3    H127693   6.888   3.421   1.833 -1.0599  0.6355  0.9458
 9243TIP3    H227694   6.932   3.303   1.918 -0.0978  0.6494  0.4818
 9244TIP3   OH227695   5.426   0.127   0.397 -0.2301 -0.3017  0.5548
 9244TIP3    H127696   5.432   0.171   0.312  0.3747  1.7059  1.5886
 9244TIP3    H227697   5.495   0.060   0.393 -1.0949 -1.1664 -1.0032
 9245TIP3   OH227698   4.834   4.531   3.010 -0.2874  0.0289  0.4821
 9245TIP3    H127699   4.847   4.531   2.915  1.8079  0.2733  0.7253
 9245TIP3    H227700   4.752   4.578   3.023  0.0256  1.1124 -1.1454
 9246TIP3   OH227701   1.682   3.828   2.189  0.1192  0.8442  0.1278
 9246TIP3    H127702   1.699   3.797   2.100 -3.2434 -0.4248 -0.2166
 9246TIP3    H227703   1.768   3.831   2.230  1.7241  0.7920 -2.9223
 9247TIP3   OH227704   6.930   4.339   1.393  0.2091  0.0231  0.2965
 9247TIP3    H127705   6.994   4.371   1.456  0.8690  0.3400 -0.5155
 9247TIP3    H227706   6.920   4.410   1.330 -0.6412 -0.1841  0.1851
 9248TIP3   OH227707   1.478   3.599   0.997 -0.0020  0.5321  0.3693
 9248TIP3    H127708   1.536   3.675   1.007  1.0063 -0.1818  0.0845
 9248TIP3    H227709   1.470   3.587   0.903  0.0775  0.1009  0.4176
 9249TIP3   OH227710   1.825   5.902   3.083  0.1228 -0.7580 -0.1236
 9249TIP3    H127711   1.896   5.927   3.143 -0.6212 -0.8834  0.8390
 9249TIP3    H227712   1.860   5.920   2.996  0.3849  1.7057  0.4158
 9250TIP3   OH227713   1.086   0.916   4.878  0.3315 -0.0176 -0.1659
 9250TIP3    H127714   1.175   0.931   4.848  1.3300 -0.3616  2.4230
 9250TIP3    H227715   1.050   1.004   4.890  0.3610  0.1202 -1.0348
 9251TIP3   OH227716   2.337   1.639   0.403 -0.2331 -0.1012  0.7123
 9251TIP3    H127717   2.369   1.584   0.474 -0.0974  0.4852  1.1127
 9251TIP3    H227718   2.351   1.587   0.324 -1.2457 -1.1528  1.1888
 9252TIP3   OH227719   4.673   1.694   1.624 -0.0969  0.4682 -0.5511
 9252TIP3    H127720   4.687   1.784   1.653 -1.1920  0.7254 -0.7709
 9252TIP3    H227721   4.730   1.684   1.547  2.4461 -0.0687  1.2847
 9253TIP3   OH227722   1.954   2.744   3.467  0.0061 -0.5923 -0.3118
 9253TIP3    H127723   1.997   2.665   3.436  0.3290  0.1854 -1.9312
 9253TIP3    H227724   2.026   2.797   3.504 -0.1799 -0.9401  0.5842
 9254TIP3   OH227725   0.746   2.965   2.014 -0.4214 -0.3746  0.0142
 9254TIP3    H127726   0.674   2.985   2.073 -1.2149 -1.2733 -0.6100
 9254TIP3    H227727   0.815   2.928   2.070 -0.4026  0.5614  0.6254
 9255TIP3   OH227728   5.638   5.397   2.950  0.2066 -0.4429  0.0782
 9255TIP3    H127729   5.568   5.381   3.013  0.6282  0.1078  0.7088
 9255TIP3    H227730   5.596   5.393   2.865 -0.8642  1.1381  0.4809
 9256TIP3   OH227731   0.853   0.525   1.211  0.4326  0.2054  0.3105
 9256TIP3    H127732   0.852   0.573   1.128  1.0995 -1.6115 -0.8006
 9256TIP3    H227733   0.770   0.478   1.212 -0.5921  1.9147  1.7871
 9257TIP3   OH227734   2.616   6.115   3.582 -0.4414  0.0403 -0.6109
 9257TIP3    H127735   2.583   6.163   3.658 -2.0672 -1.4835 -0.2786
 9257TIP3    H227736   2.700   6.079   3.611 -0.1847  0.9466 -0.1791
 9258TIP3   OH227737   1.162   1.556   3.754  0.1234 -0.7555  0.1962
 9258TIP3    H127738   1.204   1.581   3.836  0.7364 -0.0504 -0.3285
 9258TIP3    H227739   1.127   1.637   3.718  2.6041 -0.4192 -1.7838
 9259TIP3   OH227740   1.284   0.723   5.315 -0.0905 -0.5110 -0.5056
 9259TIP3    H127741   1.375   0.741   5.290  0.0120 -3.1673 -2.4826
 9259TIP3    H227742   1.267   0.635   5.282 -3.0594 -0.5684  0.8461
 9260TIP3   OH227743   1.473   2.187   2.233  0.0937 -0.1384  0.1107
 9260TIP3    H127744   1.415   2.239   2.178 -3.3151 -1.6724  1.9523
 9260TIP3    H227745   1.502   2.116   2.176 -3.1271 -1.5330 -0.0163
 9261TIP3   OH227746   6.923   3.605   2.710  0.2477 -0.4254  0.2314
 9261TIP3    H127747   7.016   3.586   2.723  0.5534  0.4718 -0.5785
 9261TIP3    H227748   6.902   3.669   2.779  0.9147  1.3727 -1.1383
 9262TIP3   OH227749   7.022   4.134   2.807 -0.6767 -0.7729 -0.3886
 9262TIP3    H127750   6.929   4.155   2.810 -0.3729  0.5839  1.4315
 9262TIP3    H227751   7.032   4.058   2.864 -0.6427 -0.8966 -0.5554
 9263TIP3   OH227752   0.142   2.749   3.839  0.3490 -0.6224 -0.7888
 9263TIP3    H127753   0.082   2.726   3.910 -1.4059  2.2106 -1.2219
 9263TIP3    H227754   0.160   2.665   3.796 -1.4395 -1.9163  0.7775
 9264TIP3   OH227755   6.200   5.454   3.948 -0.3290 -0.1161 -0.4023
 9264TIP3    H127756   6.235   5.523   3.892 -1.8518 -0.0914 -1.3827
 9264TIP3    H227757   6.150   5.398   3.889  0.2724 -1.6601  0.4975
 9265TIP3   OH227758   0.590   3.503   2.867  0.1975 -0.5937 -0.2372
 9265TIP3    H127759   0.591   3.502   2.771  2.1928  1.2006 -0.3237
 9265TIP3    H227760   0.499   3.482   2.890 -0.2436 -1.4944 -2.4760
 9266TIP3   OH227761   7.194   5.833   3.309  0.4006  0.1730 -0.5914
 9266TIP3    H127762   7.156   5.753   3.347  0.0303  0.5988 -0.0500
 9266TIP3    H227763   7.122   5.871   3.258  0.1817  0.7937  0.1482
 9267TIP3   OH227764   3.445   2.407   3.358 -0.0799 -0.2572  0.2118
 9267TIP3    H127765   3.495   2.387   3.279  0.6386  0.0815  0.5668
 9267TIP3    H227766   3.503   2.382   3.430 -1.1028 -1.4957  0.6463
 9268TIP3   OH227767   3.645   6.072   3.837  0.0638 -0.0804 -0.2231
 9268TIP3    H127768   3.709   6.055   3.769 -1.1796 -1.2328 -1.1763
 9268TIP3    H227769   3.581   6.130   3.796 -0.3352 -0.2345  0.1651
 9269TIP3   OH227770   4.832   5.865   4.793 -0.0444  0.2014  0.0017
 9269TIP3    H127771   4.754   5.920   4.786  0.8015  1.1634 -3.1838
 9269TIP3    H227772   4.806   5.781   4.753  0.4218  0.3953 -0.7170
 9270TIP3   OH227773   5.452   1.153   1.911  0.5200 -0.6421 -0.1773
 9270TIP3    H127774   5.506   1.182   1.985 -0.7096 -0.3843  0.6466
 9270TIP3    H227775   5.389   1.093   1.950 -0.4340 -0.1549 -0.9441
 9271TIP3   OH227776   4.332   1.374   1.826 -0.3492 -0.0890  0.1432
 9271TIP3    H127777   4.358   1.283   1.812 -0.0042  0.2755 -1.9880
 9271TIP3    H227778   4.312   1.406   1.738  0.6767  2.2298  0.6828
 9272TIP3   OH227779   7.071   2.507   3.730 -0.5054 -0.0461 -0.1238
 9272TIP3    H127780   7.096   2.568   3.800  1.2361  1.6483 -2.0852
 9272TIP3    H227781   7.152   2.464   3.705 -1.5638 -2.7215  0.6458
 9273TIP3   OH227782   1.696   0.078   0.864 -0.0405 -0.1776  0.5975
 9273TIP3    H127783   1.728   0.020   0.933  2.0623 -0.4231 -0.4971
 9273TIP3    H227784   1.671   0.019   0.793  1.4641  0.1957 -0.2671
 9274TIP3   OH227785   2.108   0.326   4.711 -0.0420 -0.2806  0.2455
 9274TIP3    H127786   2.148   0.413   4.720 -0.9717  0.0801  1.0447
 9274TIP3    H227787   2.076   0.325   4.621  0.7020 -0.1256 -0.0346
 9275TIP3   OH227788   4.675   1.779   4.530  0.9078  0.6093  0.3274
 9275TIP3    H127789   4.588   1.819   4.533  0.7721  0.5903 -1.8783
 9275TIP3    H227790   4.699   1.767   4.622 -1.9979 -0.6432  1.0445
 9276TIP3   OH227791   5.599   0.511   3.243  0.5606 -0.0187 -0.4446
 9276TIP3    H127792   5.555   0.427   3.253  0.4108 -0.0280 -1.1661
 9276TIP3    H227793   5.657   0.500   3.168  1.7354  0.0334  0.4247
 9277TIP3   OH227794   5.660   0.192   4.218 -0.1045  0.2226 -0.1401
 9277TIP3    H127795   5.621   0.133   4.283  0.4799 -0.1123 -0.0802
 9277TIP3    H227796   5.586   0.243   4.184 -0.4268  0.3720  0.7530
 9278TIP3   OH227797   5.364   1.535   3.990  0.3002 -0.5350  0.2439
 9278TIP3    H127798   5.352   1.505   3.900 -0.2445 -0.4431  0.2882
 9278TIP3    H227799   5.279   1.570   4.016  0.7965  0.6609  0.3361
 9279TIP3   OH227800   2.671   2.740   0.290  0.1445 -0.9447  0.1247
 9279TIP3    H127801   2.589   2.734   0.242  0.6629  0.5571 -1.0140
 9279TIP3    H227802   2.734   2.693   0.236  0.5584  0.0660 -0.2887
 9280TIP3   OH227803   2.665   3.271   3.996  0.3578 -0.2640 -0.3391
 9280TIP3    H127804   2.639   3.183   3.971  0.3428 -0.1376 -0.7714
 9280TIP3    H227805   2.585   3.323   3.989  0.5553 -0.0343 -0.9385
 9281TIP3   OH227806   2.684   1.752   1.866  0.0259  0.3592 -0.7597
 9281TIP3    H127807   2.690   1.748   1.771  1.2683 -0.3088 -0.6711
 9281TIP3    H227808   2.769   1.784   1.895 -0.3861  0.6971  0.1252
 9282TIP3   OH227809   2.390   2.984   2.429 -0.0612  0.1126 -0.6444
 9282TIP3    H127810   2.412   2.902   2.472  1.3594  0.9849  0.3942
 9282TIP3    H227811   2.324   2.961   2.364 -0.1910 -1.7175  0.0944
 9283TIP3   OH227812   5.126   4.388   0.427  0.5323  0.3314  0.0563
 9283TIP3    H127813   5.216   4.366   0.452  0.7481  1.2350  0.1095
 9283TIP3    H227814   5.073   4.315   0.461  1.2398 -0.2282 -0.0073
 9284TIP3   OH227815   4.780   1.200   3.871 -0.4020 -0.0680  0.1295
 9284TIP3    H127816   4.861   1.165   3.909  0.2526  1.8720  0.6302
 9284TIP3    H227817   4.799   1.206   3.777  0.2127  0.7835  0.2993
 9285TIP3   OH227818   3.578   6.032   2.319  0.7565 -0.2661  0.1165
 9285TIP3    H127819   3.632   6.108   2.296  2.1147 -1.0498  0.6481
 9285TIP3    H227820   3.533   6.059   2.400  0.5601  0.2835 -0.1683
 9286TIP3   OH227821   0.772   6.261   0.425 -0.1477 -0.3797 -0.5075
 9286TIP3    H127822   0.792   6.354   0.436  1.0562 -0.6578 -0.1646
 9286TIP3    H227823   0.739   6.234   0.510  0.6762 -0.5315 -0.2281
 9287TIP3   OH227824   5.799   2.894   4.071  0.0244 -0.3268 -0.2637
 9287TIP3    H127825   5.771   2.815   4.026 -1.9726  0.5958 -0.7489
 9287TIP3    H227826   5.848   2.863   4.147 -1.8462 -2.0780  0.2982
 9288TIP3   OH227827   0.491   1.559   2.837 -0.1400 -0.0152 -0.1281
 9288TIP3    H127828   0.498   1.592   2.748  1.1923 -1.1160 -0.4725
 9288TIP3    H227829   0.477   1.465   2.827 -2.1491  0.1253  0.8355
 9289TIP3   OH227830   1.488   4.392   2.646 -0.2463 -0.9052 -0.5051
 9289TIP3    H127831   1.441   4.310   2.628  0.2557 -0.8647 -2.2134
 9289TIP3    H227832   1.459   4.451   2.576 -0.4381  0.3277  0.5800
 9290TIP3   OH227833   0.195   0.726   1.139  0.7564  0.1175 -0.3722
 9290TIP3    H127834   0.188   0.640   1.180  1.2001  0.5670  0.6926
 9290TIP3    H227835   0.279   0.760   1.170  0.7209  0.8129 -1.0192
 9291TIP3   OH227836   5.733   2.228   5.845  0.3159  1.0884 -0.2085
 9291TIP3    H127837   5.745   2.323   5.853  3.4063  0.6891  1.5079
 9291TIP3    H227838   5.680   2.204   5.921 -0.9068  1.4150 -0.9160
 9292TIP3   OH227839   2.714   6.637   4.231 -0.2675  0.1545 -0.2992
 9292TIP3    H127840   2.669   6.608   4.311 -1.2824  1.1463 -0.4877
 9292TIP3    H227841   2.764   6.713   4.259  2.2147 -1.5012  0.1426
 9293TIP3   OH227842   1.475   2.658   5.812  0.3745 -0.2208  0.1098
 9293TIP3    H127843   1.449   2.567   5.798  1.0537 -0.4714  0.4188
 9293TIP3    H227844   1.455   2.702   5.730 -1.5486 -0.2681  0.5246
 9294TIP3   OH227845   3.079   1.775   2.878 -0.3188 -0.3893 -0.1878
 9294TIP3    H127846   3.114   1.799   2.964 -1.2535  1.3711 -0.2592
 9294TIP3    H227847   3.114   1.842   2.819 -1.2419 -0.4491 -0.8191
 9295TIP3   OH227848   3.179   0.563   3.780 -0.5626  0.1542 -0.2632
 9295TIP3    H127849   3.135   0.491   3.735 -0.6555  0.6054 -0.9094
 9295TIP3    H227850   3.134   0.642   3.748 -0.4054  0.5088  0.3642
 9296TIP3   OH227851   0.283   2.137   1.025 -0.6473  0.5603 -0.4980
 9296TIP3    H127852   0.224   2.198   0.981 -0.2888 -0.1578 -2.0848
 9296TIP3    H227853   0.265   2.147   1.118 -2.1999  1.4312 -0.8663
 9297TIP3   OH227854   6.121   3.113   0.400  0.4032 -0.1940  0.0630
 9297TIP3    H127855   6.042   3.110   0.454 -1.0446 -0.8398 -1.9610
 9297TIP3    H227856   6.139   3.206   0.390 -1.0830  0.0365 -0.7553
 9298TIP3   OH227857   5.715   5.266   5.848  0.3049 -0.2035 -0.0917
 9298TIP3    H127858   5.635   5.237   5.804 -0.7290 -0.5359  1.8662
 9298TIP3    H227859   5.701   5.360   5.864 -0.2392 -0.4994  1.2750
 9299TIP3   OH227860   5.852   1.664   5.677 -0.0507 -0.0546 -0.2166
 9299TIP3    H127861   5.880   1.742   5.628 -0.4125  0.8792  1.0157
 9299TIP3    H227862   5.933   1.630   5.715  0.1782 -0.5685 -1.1389
 9300TIP3   OH227863   5.831   2.054   2.917 -0.6077  0.1090  0.1797
 9300TIP3    H127864   5.789   2.045   2.832 -1.6535  0.3215  0.6546
 9300TIP3    H227865   5.781   2.123   2.962 -0.6838 -0.6625  1.3229
 9301TIP3   OH227866   0.250   5.491   4.110 -0.0068  0.5879 -0.7632
 9301TIP3    H127867   0.182   5.458   4.051  0.7024 -0.2012 -1.1697
 9301TIP3    H227868   0.330   5.445   4.082  0.5636  1.0307  0.0989
 9302TIP3   OH227869   1.157   4.835   0.567 -0.1712  0.5947  0.0365
 9302TIP3    H127870   1.220   4.877   0.510  0.2707  0.9596  0.7771
 9302TIP3    H227871   1.186   4.744   0.573  1.2749  1.1007  1.6520
 9303TIP3   OH227872   1.802   2.801   0.396 -0.3250  0.3223 -0.0585
 9303TIP3    H127873   1.875   2.751   0.431 -0.3653 -1.2247 -1.9642
 9303TIP3    H227874   1.828   2.823   0.306 -1.5480  1.1105 -0.2526
 9304TIP3   OH227875   3.680   3.581   1.014 -0.2000  0.3543 -0.2566
 9304TIP3    H127876   3.688   3.548   1.103 -0.8652  1.0680  0.0731
 9304TIP3    H227877   3.760   3.551   0.970  1.5632  2.4386  1.3454
 9305TIP3   OH227878   6.072   4.743   2.896  0.1867 -0.5851 -0.7408
 9305TIP3    H127879   6.127   4.785   2.962 -1.3408  1.1908 -0.4882
 9305TIP3    H227880   6.093   4.650   2.901  2.3747 -0.0975  0.0300
 9306TIP3   OH227881   2.763   2.300   0.888  0.0663 -0.6952 -0.3572
 9306TIP3    H127882   2.684   2.299   0.942  1.1591 -1.0254  1.2878
 9306TIP3    H227883   2.731   2.280   0.800 -1.6631 -0.9727  0.2880
 9307TIP3   OH227884   2.124   2.090   1.672 -0.6652  0.1509 -0.6330
 9307TIP3    H127885   2.121   2.127   1.760 -1.0980 -1.3808  0.0487
 9307TIP3    H227886   2.146   1.998   1.686 -0.6577 -0.1043 -2.1388
 9308TIP3   OH227887   3.242   0.976   5.436 -0.0772  0.6385  0.0858
 9308TIP3    H127888   3.328   1.016   5.447 -0.4632  1.9196 -1.3073
 9308TIP3    H227889   3.260   0.888   5.402  0.7134  0.1463  1.6642
 9309TIP3   OH227890   6.665   1.711   4.715  0.5960  0.4748 -0.2043
 9309TIP3    H127891   6.688   1.625   4.749 -0.3414 -0.1364 -1.0405
 9309TIP3    H227892   6.618   1.692   4.634  0.7178  1.7940 -0.6059
 9310TIP3   OH227893   0.416   1.244   2.480  0.4518  0.2903 -0.2671
 9310TIP3    H127894   0.361   1.314   2.515  0.5758 -0.3906  1.3429
 9310TIP3    H227895   0.444   1.277   2.394 -1.9930  0.8676 -0.9109
 9311TIP3   OH227896   4.724   3.300   1.923  0.1267 -0.2809 -0.4917
 9311TIP3    H127897   4.685   3.282   1.838 -0.2057 -1.1414 -0.1729
 9311TIP3    H227898   4.778   3.223   1.941 -1.6041 -1.1920  1.0813
 9312TIP3   OH227899   5.661   0.263   3.558  0.0926  0.2936 -0.1596
 9312TIP3    H127900   5.675   0.318   3.635  0.0465  0.5125 -0.3075
 9312TIP3    H227901   5.621   0.183   3.592  0.4052  0.2421  0.0884
 9313TIP3   OH227902   6.420   0.701   3.570  0.3277 -0.2142  0.0183
 9313TIP3    H127903   6.495   0.645   3.590  0.8433 -0.1626 -1.6421
 9313TIP3    H227904   6.374   0.656   3.500  0.7851  1.4113 -1.3996
 9314TIP3   OH227905   4.429   0.842   4.253 -0.3175  0.5767  0.7115
 9314TIP3    H127906   4.506   0.863   4.305 -0.2809  1.3429  0.3631
 9314TIP3    H227907   4.418   0.748   4.263  0.9950  0.3611  0.3107
 9315TIP3   OH227908   1.925   3.701   5.710  0.2290 -0.1415  0.3528
 9315TIP3    H127909   2.001   3.753   5.739 -0.1960 -0.2081  1.6326
 9315TIP3    H227910   1.857   3.766   5.692  0.5377 -0.0885 -0.7080
 9316TIP3   OH227911   2.090   6.479   5.639  0.3358 -0.2319 -0.0730
 9316TIP3    H127912   2.063   6.396   5.600 -1.7582 -0.1146  1.0175
 9316TIP3    H227913   2.070   6.470   5.732  1.7599  0.8650  0.3921
 9317TIP3   OH227914   3.748   5.965   3.581  0.0479  0.2063 -0.0456
 9317TIP3    H127915   3.831   5.930   3.548 -0.5865 -0.7941 -0.6275
 9317TIP3    H227916   3.690   5.966   3.505 -1.3451 -1.8369  0.8934
 9318TIP3   OH227917   0.678   3.826   0.270  0.1396  0.3804 -0.2606
 9318TIP3    H127918   0.630   3.765   0.214  0.3515  1.7286 -2.0091
 9318TIP3    H227919   0.620   3.902   0.277  1.5311  1.5997 -1.5161
 9319TIP3   OH227920   5.969   1.367   1.299  0.0642  0.1555  0.4032
 9319TIP3    H127921   5.989   1.301   1.366  0.2249  0.4591  0.6556
 9319TIP3    H227922   6.031   1.438   1.316 -0.6448  0.7181  0.6332
 9320TIP3   OH227923   3.632   6.288   2.722  0.1908 -0.0599  0.5262
 9320TIP3    H127924   3.675   6.206   2.744 -0.2058 -0.1667  0.9097
 9320TIP3    H227925   3.703   6.348   2.699  0.4213 -0.9151 -1.1796
 9321TIP3   OH227926   3.462   5.745   5.821  0.3191  0.6310  0.1686
 9321TIP3    H127927   3.385   5.756   5.764 -0.8768 -0.2531  1.5342
 9321TIP3    H227928   3.427   5.703   5.900  2.2507  0.0688  0.7769
 9322TIP3   OH227929   3.036   1.231   2.760  0.1116  0.1458 -0.9323
 9322TIP3    H127930   3.120   1.268   2.786  1.4182 -1.2790 -2.8287
 9322TIP3    H227931   2.974   1.304   2.765  1.0831  0.8907  1.9169
 9323TIP3   OH227932   5.412   0.445   5.576 -0.3564 -0.5687  1.0986
 9323TIP3    H127933   5.374   0.529   5.549  1.0680  0.1745  1.3385
 9323TIP3    H227934   5.505   0.453   5.554 -0.1265 -1.9283  1.5230
 9324TIP3   OH227935   3.046   1.078   3.491  0.1055 -1.0584 -0.2166
 9324TIP3    H127936   3.029   1.170   3.472 -1.4344 -1.3522 -0.4285
 9324TIP3    H227937   3.139   1.066   3.471  1.2978  1.2115  3.1110
 9325TIP3   OH227938   1.899   2.811   3.169 -0.2724  0.3009  0.2273
 9325TIP3    H127939   1.858   2.890   3.202 -0.2976  0.3301  0.1261
 9325TIP3    H227940   1.976   2.799   3.225 -0.2289  0.4362  0.1956
 9326TIP3   OH227941   1.030   1.003   0.950  0.5420 -0.0108  0.0516
 9326TIP3    H127942   1.056   1.079   1.002  1.2436  0.4729 -0.9956
 9326TIP3    H227943   0.966   1.038   0.888  0.6927 -0.3257 -0.2790
 9327TIP3   OH227944   4.219   6.444   4.258  0.1692 -0.8339  0.1753
 9327TIP3    H127945   4.222   6.489   4.174  0.9401 -1.4703 -0.1529
 9327TIP3    H227946   4.249   6.355   4.239 -0.0875 -1.1194  1.0408
 9328TIP3   OH227947   4.062   6.576   1.049  0.3298 -0.3788 -0.1751
 9328TIP3    H127948   4.056   6.480   1.055  2.8188 -0.6139 -0.7368
 9328TIP3    H227949   4.085   6.593   0.958  2.6176  0.5353  0.5101
 9329TIP3   OH227950   2.819   2.761   1.737  0.4891 -0.3353 -0.0931
 9329TIP3    H127951   2.790   2.850   1.719 -1.1941 -0.5775  1.1384
 9329TIP3    H227952   2.851   2.764   1.827  0.9363 -0.8563 -0.2289
 9330TIP3   OH227953   5.092   4.550   2.857  0.3619  0.2007 -0.9582
 9330TIP3    H127954   5.083   4.630   2.909  0.2645 -0.0251 -0.6216
 9330TIP3    H227955   5.187   4.535   2.852  0.3446 -0.8886  0.9108
 9331TIP3   OH227956   1.357   5.380   4.830 -0.1724  0.3019  1.0299
 9331TIP3    H127957   1.294   5.329   4.781  0.0303 -0.7952  1.8528
 9331TIP3    H227958   1.326   5.376   4.921  1.3503 -0.7848  1.5591
 9332TIP3   OH227959   0.868   1.784   1.302 -0.0952  0.3333 -0.1926
 9332TIP3    H127960   0.788   1.739   1.274  0.6567 -1.0546 -0.2182
 9332TIP3    H227961   0.928   1.773   1.228  0.9817 -0.9652  0.8092
 9333TIP3   OH227962   3.746   1.782   0.316 -0.2118  0.3049 -0.5947
 9333TIP3    H127963   3.824   1.742   0.277 -0.3231 -0.0053 -0.5021
 9333TIP3    H227964   3.678   1.715   0.308 -0.5725  0.7099 -1.0177
 9334TIP3   OH227965   4.568   4.086   3.449  0.3641  0.6737  0.7037
 9334TIP3    H127966   4.659   4.114   3.465  0.8392 -0.9540  1.0213
 9334TIP3    H227967   4.530   4.078   3.536 -0.0535  1.1911  0.5759
 9335TIP3   OH227968   2.904   1.832   3.788 -0.4313  0.1289  0.3049
 9335TIP3    H127969   2.994   1.800   3.792  0.1725  1.5522 -0.7286
 9335TIP3    H227970   2.871   1.801   3.703 -1.2207 -1.0828  1.0354
 9336TIP3   OH227971   5.642   3.217   2.262  0.4444 -0.4570  0.2701
 9336TIP3    H127972   5.612   3.194   2.350  0.1621  0.0128  0.2985
 9336TIP3    H227973   5.718   3.273   2.277  0.2219 -0.1390  0.2215
 9337TIP3   OH227974   2.341   3.140   5.408  0.3864 -0.1215 -0.0569
 9337TIP3    H127975   2.249   3.120   5.394  0.4677  0.3025 -1.3240
 9337TIP3    H227976   2.370   3.179   5.325  1.1179  1.9243  1.0957
 9338TIP3   OH227977   5.813   0.088   4.967  0.3663 -1.0441  0.2172
 9338TIP3    H127978   5.754   0.094   4.892 -1.9269  0.8245  2.0198
 9338TIP3    H227979   5.892   0.134   4.939 -0.4135 -0.4218 -1.0675
 9339TIP3   OH227980   2.997   2.168   2.803  0.1781 -0.0078  0.1846
 9339TIP3    H127981   3.002   2.172   2.708 -1.2414 -0.6265  0.0536
 9339TIP3    H227982   3.000   2.075   2.824  0.6015  0.1271  0.7654
 9340TIP3   OH227983   4.438   1.586   2.360  0.6892  0.1163 -0.1064
 9340TIP3    H127984   4.361   1.629   2.323  0.0669 -0.0854  0.9243
 9340TIP3    H227985   4.505   1.654   2.361  0.4106  0.4048 -0.6427
 9341TIP3   OH227986   1.672   2.027   1.060  0.2741  0.2004  0.0251
 9341TIP3    H127987   1.724   1.980   0.995 -1.7932 -1.2143 -0.7096
 9341TIP3    H227988   1.671   2.118   1.029  2.6383  0.4062  0.3505
 9342TIP3   OH227989   2.012   5.261   2.723 -0.1315 -0.1806  0.0545
 9342TIP3    H127990   1.931   5.312   2.727 -0.2459 -0.3490 -0.1081
 9342TIP3    H227991   1.986   5.177   2.687  0.2564  0.0622 -0.8301
 9343TIP3   OH227992   3.392   4.535   3.336  0.2697 -0.3777 -0.1554
 9343TIP3    H127993   3.355   4.519   3.249 -1.5444 -0.7111  0.6302
 9343TIP3    H227994   3.376   4.453   3.384  1.9026 -0.4651  0.2910
 9344TIP3   OH227995   0.371   0.312   3.112 -0.5579  0.1936 -0.1522
 9344TIP3    H127996   0.325   0.266   3.043 -0.5858 -0.1177  0.0761
 9344TIP3    H227997   0.455   0.338   3.071 -0.5820  0.0305 -0.3057
 9345TIP3   OH227998   3.890   4.106   5.249 -0.5417 -0.1158 -0.6204
 9345TIP3    H127999   3.897   4.170   5.319  1.1768 -2.1362  1.1848
 9345TIP3    H228000   3.969   4.053   5.256 -2.0304 -2.6979 -1.7170
 9346TIP3   OH228001   4.640   3.365   1.531  0.7966 -0.2131  0.1871
 9346TIP3    H128002   4.642   3.290   1.589 -0.0820 -0.9777 -0.7395
 9346TIP3    H228003   4.677   3.333   1.449 -0.6659  0.0180 -0.5913
 9347TIP3   OH228004   5.383   0.223   0.121  0.0281 -0.7527 -0.2357
 9347TIP3    H128005   5.422   0.172   0.050  1.2714 -2.3128  1.4888
 9347TIP3    H228006   5.291   0.197   0.121 -0.7561  1.4704 -3.0581
 9348TIP3   OH228007   1.461   2.462   2.868  0.1684 -0.1018  0.0363
 9348TIP3    H128008   1.491   2.482   2.780  0.8579  0.6396  0.4176
 9348TIP3    H228009   1.439   2.548   2.906 -0.8691 -0.4775  0.3282
 9349TIP3   OH228010   3.781   2.350   0.922 -0.5517  0.0102  0.5363
 9349TIP3    H128011   3.821   2.362   0.836 -0.0852 -1.4259  0.5251
 9349TIP3    H228012   3.689   2.373   0.910 -0.4849 -0.1549 -0.3421
 9350TIP3   OH228013   6.685   2.334   3.804  0.2717  0.3906  0.0307
 9350TIP3    H128014   6.711   2.321   3.895  0.3034  0.0063 -0.0298
 9350TIP3    H228015   6.601   2.288   3.796  1.0679 -1.0372 -0.5499
 9351TIP3   OH228016   0.043   2.625   3.218 -0.3562  0.1977  0.5556
 9351TIP3    H128017   0.081   2.712   3.225 -1.1685  0.5558  0.5916
 9351TIP3    H228018   0.003   2.608   3.303 -2.9635  1.1239 -0.4139
 9352TIP3   OH228019   5.581   1.469   2.304  0.2254 -0.3204 -0.1027
 9352TIP3    H128020   5.500   1.517   2.285  1.0348  1.6982  1.2528
 9352TIP3    H228021   5.578   1.454   2.398  0.8258 -1.4403 -0.2458
 9353TIP3   OH228022   1.969   2.856   2.315 -0.0477  0.0368  0.0505
 9353TIP3    H128023   1.924   2.937   2.292 -0.1042 -0.3045 -1.1424
 9353TIP3    H228024   2.052   2.860   2.268  0.8399  0.2715  1.5577
 9354TIP3   OH228025   6.986   4.084   3.111  0.6354  0.4146 -0.2216
 9354TIP3    H128026   6.960   4.174   3.131  1.0100  0.3457  0.6262
 9354TIP3    H228027   6.906   4.033   3.121  0.6369  0.5078  0.3323
 9355TIP3   OH228028   5.823   3.155   4.466  0.2574 -0.2602 -0.6712
 9355TIP3    H128029   5.815   3.159   4.371  0.9339  0.8554 -0.6884
 9355TIP3    H228030   5.843   3.244   4.493  1.5860 -0.8459  0.3786
 9356TIP3   OH228031   4.881   0.320   2.800 -0.3989  0.3341 -0.3900
 9356TIP3    H128032   4.855   0.357   2.885 -0.0966  0.7873 -0.4907
 9356TIP3    H228033   4.817   0.252   2.783 -0.8923  0.7296 -0.1353
 9357TIP3   OH228034   3.497   0.410   4.471 -0.5817  0.4468  0.2069
 9357TIP3    H128035   3.412   0.452   4.480 -0.1891  1.4257 -0.4813
 9357TIP3    H228036   3.558   0.482   4.456  0.5433 -0.1494  1.7194
 9358TIP3   OH228037   1.334   0.068   0.741 -0.7378  0.2199  0.5624
 9358TIP3    H128038   1.392   0.011   0.793 -1.3041  0.4188  1.4413
 9358TIP3    H228039   1.252   0.019   0.736 -0.3902 -0.2559 -1.0533
 9359TIP3   OH228040   4.531   2.338   1.896 -0.1573 -0.7198 -0.6432
 9359TIP3    H128041   4.538   2.414   1.838 -1.6726  0.6979  0.8961
 9359TIP3    H228042   4.437   2.321   1.903 -0.0190 -1.0263  1.0895
 9360TIP3   OH228043   1.068   2.648   3.985  0.4625  0.1644  0.8294
 9360TIP3    H128044   1.060   2.601   3.903 -2.7447 -0.7938  1.5510
 9360TIP3    H228045   1.148   2.614   4.025  0.7393 -1.1656 -0.7666
 9361TIP3   OH228046   1.645   6.601   0.637  0.6476  0.3665 -0.0898
 9361TIP3    H128047   1.675   6.512   0.657  1.0032  0.9734  2.4491
 9361TIP3    H228048   1.639   6.604   0.542  1.4230 -2.1137 -0.2752
 9362TIP3   OH228049   0.867   5.816   0.361 -0.3440  0.0654 -0.4070
 9362TIP3    H128050   0.945   5.792   0.310 -1.0642  0.1153 -1.5690
 9362TIP3    H228051   0.817   5.735   0.368  0.7810 -0.5185  2.2253
 9363TIP3   OH228052   3.329   4.928   0.883 -0.2813  0.1649  0.0777
 9363TIP3    H128053   3.295   5.014   0.860  1.8929  1.1004  0.1210
 9363TIP3    H228054   3.379   4.942   0.963 -0.1170 -1.2021  0.2359
 9364TIP3   OH228055   5.842   5.053   0.209  0.2486 -0.9830  0.1277
 9364TIP3    H128056   5.801   4.996   0.143  1.1217 -2.0972  0.5250
 9364TIP3    H228057   5.768   5.092   0.256 -0.3887 -2.5539  0.4908
 9365TIP3   OH228058   4.044   0.662   5.600  0.1379  0.3346  0.0661
 9365TIP3    H128059   3.957   0.630   5.574  0.3485 -0.2988  0.1251
 9365TIP3    H228060   4.034   0.757   5.607 -0.2356  0.4130 -1.1931
 9366TIP3   OH228061   1.570   3.294   2.522 -0.6649 -0.1003  0.1161
 9366TIP3    H128062   1.509   3.225   2.550 -1.3797  0.5245  0.1106
 9366TIP3    H228063   1.644   3.285   2.582 -1.1509 -0.2949  0.7032
 9367TIP3   OH228064   4.281   3.083   0.450  0.0073  0.2508 -0.1066
 9367TIP3    H128065   4.294   3.053   0.360 -0.1781  1.5385 -0.5900
 9367TIP3    H228066   4.351   3.042   0.500 -0.9548 -1.9422 -0.4559
 9368TIP3   OH228067   4.860   3.613   4.850 -0.1709  0.5162 -0.3205
 9368TIP3    H128068   4.811   3.553   4.907 -2.3090  1.6495 -0.8487
 9368TIP3    H228069   4.918   3.660   4.909 -1.8116  1.1491  0.8816
 9369TIP3   OH228070   4.048   1.102   5.822  0.3511  0.3918 -0.5143
 9369TIP3    H128071   4.006   1.058   5.748 -1.4266  0.8966  0.1472
 9369TIP3    H228072   4.112   1.039   5.855 -1.2924 -1.2394 -0.3172
 9370TIP3   OH228073   0.037   5.977   4.682  0.4295 -0.2512 -0.1147
 9370TIP3    H128074  -0.019   6.006   4.611  1.4074 -1.7810 -1.5848
 9370TIP3    H228075   0.091   5.908   4.644  0.8847 -1.2616  2.1493
 9371TIP3   OH228076   1.098   5.956   2.349  0.5715  0.6058 -0.4960
 9371TIP3    H128077   1.052   6.036   2.373  1.5283  0.9829  0.1640
 9371TIP3    H228078   1.030   5.898   2.315 -0.3273  1.2488  0.1578
 9372TIP3   OH228079   0.039   4.053   1.397 -0.0118 -0.0964  0.4418
 9372TIP3    H128080   0.048   4.129   1.454  0.8145  0.8577 -0.9068
 9372TIP3    H228081  -0.045   4.014   1.422 -0.8801  1.7456  0.5917
 9373TIP3   OH228082   1.213   6.460   4.949 -0.1101 -0.1515 -0.4615
 9373TIP3    H128083   1.135   6.510   4.925 -0.5951 -0.3941  0.5635
 9373TIP3    H228084   1.274   6.475   4.877 -0.8181  0.6665 -0.9075
 9374TIP3   OH228085   0.558   0.054   1.925 -0.0169 -0.2585 -0.1931
 9374TIP3    H128086   0.573   0.124   1.861 -0.1303  2.1445  2.2263
 9374TIP3    H228087   0.646   0.028   1.952  0.0558  0.9993  0.9013
 9375TIP3   OH228088   0.313   1.650   1.194  0.4258 -0.6638  0.0024
 9375TIP3    H128089   0.326   1.723   1.134  0.3349  0.5652  1.4076
 9375TIP3    H228090   0.273   1.582   1.141  0.2810  0.3988 -1.3038
 9376TIP3   OH228091   1.928   0.960   5.611 -0.2730 -0.5484  0.1883
 9376TIP3    H128092   2.018   0.963   5.645  0.6469  0.0908 -2.1436
 9376TIP3    H228093   1.879   0.913   5.679  2.2237 -2.6834  0.6960
 9377TIP3   OH228094   5.664   5.892   3.559  0.5858  0.0550 -0.1440
 9377TIP3    H128095   5.579   5.927   3.587  0.9080  1.7693 -1.1848
 9377TIP3    H228096   5.681   5.819   3.619 -1.2879  0.1187  0.5241
 9378TIP3   OH228097   6.747   5.975   1.664 -0.0969 -0.2176  0.2185
 9378TIP3    H128098   6.664   6.024   1.657  0.2768  0.4291  0.2014
 9378TIP3    H228099   6.762   5.968   1.758 -0.0646 -0.1540  0.2179
 9379TIP3   OH228100   6.763   2.413   2.240  0.2235  0.1257  0.2541
 9379TIP3    H128101   6.691   2.414   2.303  0.6053  0.9472  0.6926
 9379TIP3    H228102   6.764   2.501   2.203  0.6163 -0.0623 -0.1924
 9380TIP3   OH228103   6.728   2.134   3.441  0.3071  0.0892 -0.3800
 9380TIP3    H128104   6.792   2.204   3.447  0.2158  0.0792  1.5010
 9380TIP3    H228105   6.657   2.170   3.387  1.3192  0.5354 -1.4539
 9381TIP3   OH228106   5.223   5.091   1.539 -0.5559 -0.0510 -0.0143
 9381TIP3    H128107   5.168   5.014   1.519  0.1596 -0.6095  0.1457
 9381TIP3    H228108   5.311   5.064   1.514 -0.5257  1.3123 -1.5582
 9382TIP3   OH228109   4.909   1.483   3.290  0.1602 -0.5344  0.0875
 9382TIP3    H128110   4.813   1.486   3.296  0.1814 -1.1091  0.8810
 9382TIP3    H228111   4.928   1.397   3.251  0.3070  0.2359 -1.6063
 9383TIP3   OH228112   4.612   0.970   2.084  0.5096  0.1948  0.0721
 9383TIP3    H128113   4.578   1.015   2.006 -0.4683  2.5885  1.7548
 9383TIP3    H228114   4.565   0.887   2.085 -0.2556  0.5667 -1.3054
 9384TIP3   OH228115   0.632   2.497   2.928 -0.1869 -0.0371 -0.2120
 9384TIP3    H128116   0.555   2.508   2.984  0.5126 -4.4122  2.1626
 9384TIP3    H228117   0.706   2.514   2.987  0.5827 -1.2382 -0.7847
 9385TIP3   OH228118   3.626   6.675   4.154  0.2940  0.0277  0.1897
 9385TIP3    H128119   3.652   6.751   4.205 -0.2949 -0.2748  0.9550
 9385TIP3    H228120   3.536   6.657   4.181 -0.1310  0.0256 -1.1617
 9386TIP3   OH228121   6.847   6.189   1.203 -0.3103  0.4520 -0.2935
 9386TIP3    H128122   6.917   6.142   1.250 -0.4742  0.0864 -0.4121
 9386TIP3    H228123   6.787   6.218   1.272  0.7952  2.2142 -0.0135
 9387TIP3   OH228124   1.901   0.566   4.971 -0.3554  0.4456 -0.1743
 9387TIP3    H128125   1.898   0.652   5.013 -2.6124  0.5922 -0.5235
 9387TIP3    H228126   1.810   0.538   4.968  0.2659 -1.6629 -0.7130
 9388TIP3   OH228127   4.165   3.944   3.010  0.2157  0.0403 -0.1782
 9388TIP3    H128128   4.247   3.908   3.044  0.6671 -0.7431 -1.9723
 9388TIP3    H228129   4.102   3.874   3.022  0.6378 -0.6898 -1.8611
 9389TIP3   OH228130   6.711   3.607   3.054 -0.4949  0.3680  0.1814
 9389TIP3    H128131   6.711   3.608   2.959  1.4883 -2.8308 -0.0122
 9389TIP3    H228132   6.804   3.606   3.078 -0.9513  0.7633  2.1229
 9390TIP3   OH228133   5.893   4.245   0.302 -0.1184  0.1748  0.0659
 9390TIP3    H128134   5.948   4.313   0.339  0.8252 -0.2947 -0.4285
 9390TIP3    H228135   5.891   4.263   0.208 -0.2430 -0.1960 -0.0075
 9391TIP3   OH228136   4.157   1.557   0.305  0.3239 -0.1857  0.4854
 9391TIP3    H128137   4.234   1.535   0.253  0.2890 -0.5403  0.5818
 9391TIP3    H228138   4.169   1.649   0.328 -0.5884  0.5486 -1.7382
 9392TIP3   OH228139   4.365   2.950   1.778 -0.6962 -0.2749 -0.5475
 9392TIP3    H128140   4.359   2.974   1.871 -3.2408  0.8570 -0.9333
 9392TIP3    H228141   4.459   2.942   1.763 -0.1290  0.7617  1.8312
 9393TIP3   OH228142   6.753   1.851   4.079 -0.2642 -0.0277 -0.4999
 9393TIP3    H128143   6.774   1.910   4.006 -1.7137  0.4357 -0.5585
 9393TIP3    H228144   6.773   1.764   4.045  0.4861  0.2908 -0.9202
 9394TIP3   OH228145   0.828   2.407   3.903 -0.0088 -0.1478 -0.2348
 9394TIP3    H128146   0.818   2.430   3.995 -0.8963  0.4145 -0.4604
 9394TIP3    H228147   0.906   2.351   3.900  1.5409  1.8772  0.4862
 9395TIP3   OH228148   5.692   5.548   4.402  0.2831  0.4000 -0.2041
 9395TIP3    H128149   5.749   5.509   4.469 -0.8725 -0.4787  0.2904
 9395TIP3    H228150   5.695   5.642   4.421  0.8161  0.2692  0.4110
 9396TIP3   OH228151   2.800   4.198   3.163 -0.0340 -0.0077  0.0243
 9396TIP3    H128152   2.780   4.203   3.070  1.2221  3.0616 -0.2118
 9396TIP3    H228153   2.752   4.122   3.195 -1.3666 -0.4968 -2.8942
 9397TIP3   OH228154   6.170   3.171   4.499 -0.1310 -0.2444  0.1639
 9397TIP3    H128155   6.256   3.179   4.456  0.2728  2.0479  1.2417
 9397TIP3    H228156   6.129   3.256   4.485 -1.9200 -1.0377  0.3925
 9398TIP3   OH228157   5.670   0.683   0.855 -0.2696 -0.3563  0.2630
 9398TIP3    H128158   5.762   0.658   0.844  0.1376  1.2689 -0.4299
 9398TIP3    H228159   5.642   0.709   0.767 -0.9511  0.5104  0.7180
 9399TIP3   OH228160   4.259   2.756   4.711 -0.5860 -0.0541  0.0553
 9399TIP3    H128161   4.264   2.851   4.703 -1.6989  0.0417  0.4897
 9399TIP3    H228162   4.265   2.738   4.805 -0.7973 -0.3925  0.0067
 9400TIP3   OH228163   4.902   4.522   1.176  0.2067 -0.0900  0.0333
 9400TIP3    H128164   4.893   4.429   1.197  0.5404 -0.5047 -1.5507
 9400TIP3    H228165   4.979   4.527   1.121 -0.7158  0.8948 -1.2326
 9401TIP3   OH228166   1.564   6.166   1.922 -0.2749 -0.3307 -0.0491
 9401TIP3    H128167   1.654   6.188   1.899  0.3945 -1.7206  1.0983
 9401TIP3    H228168   1.532   6.115   1.848 -0.7390  1.5629 -1.2301
 9402TIP3   OH228169   6.419   5.344   3.170  0.3953 -0.3778 -0.2374
 9402TIP3    H128170   6.399   5.326   3.078  0.1788  0.3512 -0.3354
 9402TIP3    H228171   6.507   5.380   3.169  0.2497 -0.0196 -0.1986
 9403TIP3   OH228172   4.762   4.566   0.603 -0.0109 -0.3154 -0.5259
 9403TIP3    H128173   4.686   4.623   0.619  1.8072  2.0207  0.4066
 9403TIP3    H228174   4.780   4.526   0.687 -1.6022 -2.8906 -1.2916
 9404TIP3   OH228175   1.954   6.145   4.676  0.0400 -0.2437  0.3985
 9404TIP3    H128176   1.937   6.099   4.758  0.3963  1.4720  1.4925
 9404TIP3    H228177   2.048   6.132   4.661  0.1465  0.1281  0.7210
 9405TIP3   OH228178   4.952   1.267   3.016  0.0474  0.3964 -0.8929
 9405TIP3    H128179   4.866   1.307   3.028  0.0182 -0.0059  0.3041
 9405TIP3    H228180   4.959   1.254   2.921 -0.5942  1.7700 -1.1570
 9406TIP3   OH228181   6.793   6.688   3.746  0.6744  0.2646 -0.2529
 9406TIP3    H128182   6.737   6.654   3.676  0.8325 -0.7368  0.0954
 9406TIP3    H228183   6.830   6.769   3.710 -0.2761  0.4629 -0.8246
 9407TIP3   OH228184   2.845   3.106   5.210 -0.5365 -0.0960  0.2151
 9407TIP3    H128185   2.776   3.107   5.276  0.2348  2.2772  1.0928
 9407TIP3    H228186   2.802   3.137   5.130 -1.1177 -1.4912 -0.0389
 9408TIP3   OH228187   2.915   2.300   1.472 -0.0330  0.2689 -0.3644
 9408TIP3    H128188   2.919   2.376   1.531  1.4096 -1.0568  1.3473
 9408TIP3    H228189   2.883   2.336   1.389 -2.8531  2.1088  1.3534
 9409TIP3   OH228190   1.516   3.735   5.656  0.2837  0.2281  0.0716
 9409TIP3    H128191   1.473   3.679   5.592  0.9169 -0.0687 -0.1027
 9409TIP3    H228192   1.583   3.782   5.607 -0.4973  1.4453  0.1416
 9410TIP3   OH228193   7.030   2.824   2.745  0.0612 -0.4753 -0.4933
 9410TIP3    H128194   7.107   2.769   2.731  0.0692 -1.0395  1.3954
 9410TIP3    H228195   6.967   2.796   2.679  1.1159 -0.6790 -1.4407
 9411TIP3   OH228196   0.640   4.693   4.117  0.2785 -0.5189  0.0381
 9411TIP3    H128197   0.664   4.776   4.076 -1.0821 -0.0591  0.1267
 9411TIP3    H228198   0.549   4.678   4.091  0.8110 -2.5459 -0.8756
 9412TIP3   OH228199   1.912   3.598   2.382  0.0499  0.1815 -0.1031
 9412TIP3    H128200   1.913   3.638   2.295  1.2944  0.8923  0.2118
 9412TIP3    H228201   1.856   3.521   2.373 -2.5142  1.9977 -0.7377
 9413TIP3   OH228202   6.328   1.762   3.731 -0.0414 -0.2093 -0.1009
 9413TIP3    H128203   6.378   1.844   3.724 -0.0049 -0.2591 -0.4048
 9413TIP3    H228204   6.362   1.721   3.811  0.8440 -0.5416 -0.6379
 9414TIP3   OH228205   1.708   0.359   0.932  0.5936  0.6944 -0.6446
 9414TIP3    H128206   1.672   0.413   0.861 -0.2961 -0.1582 -0.8540
 9414TIP3    H228207   1.698   0.269   0.901 -1.0473  0.2204  1.1028
 9415TIP3   OH228208   6.812   5.129   5.020 -0.5497  0.6364  0.0729
 9415TIP3    H128209   6.902   5.102   5.040 -1.2392 -0.9255  1.3021
 9415TIP3    H228210   6.781   5.065   4.956 -0.2722  2.1790 -1.6653
 9416TIP3   OH228211   1.989   6.173   0.599  0.2372  0.3976 -0.8832
 9416TIP3    H128212   2.023   6.210   0.680 -0.0188 -1.0622 -0.0794
 9416TIP3    H228213   2.063   6.122   0.563  0.2558  0.7918 -1.4224
 9417TIP3   OH228214   1.994   5.354   4.246 -0.4922  0.5866  0.2790
 9417TIP3    H128215   1.980   5.313   4.331  1.2255 -1.2602 -0.2377
 9417TIP3    H228216   1.921   5.323   4.192 -2.3975  2.9167  1.3752
 9418TIP3   OH228217   6.034   2.580   0.164  0.8995 -0.1245  0.0008
 9418TIP3    H128218   6.004   2.641   0.232  0.9849 -1.4962  1.3255
 9418TIP3    H228219   6.036   2.495   0.208  2.0061 -0.8779 -1.4393
 9419TIP3   OH228220   1.148   4.032   1.304 -0.0216 -0.1911 -0.9004
 9419TIP3    H128221   1.121   3.999   1.390 -0.6861 -0.2921 -1.1354
 9419TIP3    H228222   1.066   4.034   1.254  0.7009 -2.5756 -2.3552
 9420TIP3   OH228223   1.782   4.242   5.235 -0.6060 -0.5067  0.1157
 9420TIP3    H128224   1.787   4.328   5.278  2.4251 -1.5916  2.2318
 9420TIP3    H228225   1.809   4.259   5.145  2.9612  0.4633  1.2299
 9421TIP3   OH228226   1.646   3.217   3.422 -0.5089  0.4417 -0.3481
 9421TIP3    H128227   1.729   3.254   3.452 -2.0009  2.7876  1.2871
 9421TIP3    H228228   1.626   3.148   3.486 -0.9953  1.6422  0.8515
 9422TIP3   OH228229   4.210   5.905   1.913 -0.0490  0.1378  0.0816
 9422TIP3    H128230   4.122   5.883   1.882 -0.6254 -1.1566  2.4072
 9422TIP3    H228231   4.222   5.851   1.991  1.9305  1.9819  1.1595
 9423TIP3   OH228232   6.502   6.068   4.426  0.0540 -0.5813 -0.2426
 9423TIP3    H128233   6.419   6.100   4.463 -0.7237 -2.5869 -0.1173
 9423TIP3    H228234   6.476   6.003   4.361  1.5077 -2.0485  0.5565
 9424TIP3   OH228235   3.977   4.543   2.699 -0.0159 -0.1835 -0.4380
 9424TIP3    H128236   3.988   4.490   2.778  1.8296  0.8810  0.0799
 9424TIP3    H228237   3.929   4.486   2.639 -1.0587 -1.1887  1.2681
 9425TIP3   OH228238   0.942   1.417   5.108  0.3907 -0.5569 -0.5236
 9425TIP3    H128239   0.869   1.466   5.146  0.2327 -0.4716 -0.9256
 9425TIP3    H228240   0.937   1.330   5.148 -0.5448 -0.8730 -1.2816
 9426TIP3   OH228241   4.285   1.151   0.169 -0.1017  0.2630  0.4408
 9426TIP3    H128242   4.377   1.159   0.141 -0.1405  0.0992  0.2596
 9426TIP3    H228243   4.263   1.059   0.152 -1.0809  0.8666 -1.9364
 9427TIP3   OH228244   2.020   6.251   4.939 -0.0589 -0.5761 -1.1822
 9427TIP3    H128245   1.946   6.227   4.883  0.0432  2.9452 -3.0460
 9427TIP3    H228246   1.986   6.319   4.997  1.1187 -0.6402 -0.3685
 9428TIP3   OH228247   4.654   6.473   4.439  0.6418  0.2032  0.1391
 9428TIP3    H128248   4.559   6.480   4.448  0.6024 -0.5816  0.4251
 9428TIP3    H228249   4.688   6.504   4.523  0.5448 -1.2872  0.7527
 9429TIP3   OH228250   5.000   4.671   4.978  0.3247  0.3838  0.0419
 9429TIP3    H128251   5.069   4.727   5.014  0.0732  1.7355 -1.4621
 9429TIP3    H228252   4.927   4.731   4.960 -0.2344 -0.5447 -0.9330
 9430TIP3   OH228253   6.548   3.228   1.085 -0.1384 -0.3651  0.1247
 9430TIP3    H128254   6.501   3.145   1.095  1.4202 -1.2327  0.5834
 9430TIP3    H228255   6.483   3.289   1.050 -2.4362 -0.6619  3.4363
 9431TIP3   OH228256   0.673   6.466   1.140 -0.4561  0.1731 -0.3212
 9431TIP3    H128257   0.672   6.494   1.232 -0.6139  1.4159 -0.6767
 9431TIP3    H228258   0.652   6.373   1.143  1.6597 -0.3280  1.0430
 9432TIP3   OH228259   4.403   4.073   1.805 -0.2762 -0.3271  0.3987
 9432TIP3    H128260   4.420   3.982   1.829 -2.4682 -0.9635 -0.3110
 9432TIP3    H228261   4.308   4.080   1.801 -0.1957  2.2329  1.2405
 9433TIP3   OH228262   0.663   5.419   5.185 -0.0613  0.1687  0.8197
 9433TIP3    H128263   0.607   5.415   5.263 -0.0350 -1.5660  0.7778
 9433TIP3    H228264   0.741   5.370   5.209  1.1143  1.8300  0.5705
 9434TIP3   OH228265   6.114   4.610   5.501  0.1839  0.1911  0.8449
 9434TIP3    H128266   6.182   4.560   5.547  0.6560  1.4059  1.5261
 9434TIP3    H228267   6.054   4.638   5.569 -1.3812 -1.3655  0.1728
 9435TIP3   OH228268   0.444   6.212   0.910  0.5163 -0.3477  0.1071
 9435TIP3    H128269   0.353   6.242   0.908  0.7531  0.3206 -1.0314
 9435TIP3    H228270   0.447   6.139   0.848  0.8829 -0.0207 -0.2580
 9436TIP3   OH228271   4.956   5.847   1.866  0.0616  0.1316  0.0132
 9436TIP3    H128272   4.985   5.932   1.898 -0.4724  0.2874  0.1051
 9436TIP3    H228273   4.861   5.857   1.856  0.1803  0.0177 -1.4107
 9437TIP3   OH228274   3.183   4.695   3.376  0.2664  0.5229  0.2944
 9437TIP3    H128275   3.265   4.646   3.377 -0.2794 -0.4017  0.0037
 9437TIP3    H228276   3.146   4.680   3.289 -1.2089 -0.7592  1.1065
 9438TIP3   OH228277   7.220   5.691   0.800 -0.0871 -0.2142  0.6364
 9438TIP3    H128278   7.164   5.748   0.852 -0.2560  0.4826 -0.2888
 9438TIP3    H228279   7.181   5.690   0.713  0.2917 -1.2217  0.4571
 9439TIP3   OH228280   2.984   4.495   1.458  0.1332 -0.2557 -0.0652
 9439TIP3    H128281   3.027   4.468   1.539  2.0562 -0.6954 -1.1827
 9439TIP3    H228282   2.911   4.433   1.448 -1.2390  0.8630  2.1524
 9440TIP3   OH228283   0.407   4.952   2.268 -0.1944  0.1186 -0.2713
 9440TIP3    H128284   0.406   4.863   2.305 -0.5700 -0.2638 -1.1571
 9440TIP3    H228285   0.488   4.991   2.298 -0.1831 -0.4194  0.3961
 9441TIP3   OH228286   1.539   0.354   1.934 -0.0039 -0.1395  0.4649
 9441TIP3    H128287   1.564   0.262   1.937 -1.5210 -0.6588 -1.0491
 9441TIP3    H228288   1.622   0.402   1.940  0.9925 -1.6559 -0.5373
 9442TIP3   OH228289   0.141   6.438   3.043 -0.0025 -0.0934  0.2978
 9442TIP3    H128290   0.053   6.419   3.075  0.3750  0.5569  1.8262
 9442TIP3    H228291   0.193   6.361   3.068  0.1581  0.1414  0.6986
 9443TIP3   OH228292   1.736   3.608   0.696 -0.0401 -0.3957 -0.1408
 9443TIP3    H128293   1.672   3.549   0.737  0.1947 -1.7351 -1.6338
 9443TIP3    H228294   1.687   3.652   0.627  0.2085 -0.0382 -0.0940
 9444TIP3   OH228295   0.729   3.450   2.150  0.2149 -0.4358 -0.3974
 9444TIP3    H128296   0.774   3.366   2.165  2.4619  0.7712  0.0401
 9444TIP3    H228297   0.779   3.492   2.081 -1.1089  0.4181 -0.8666
 9445TIP3   OH228298   1.923   1.742   2.736 -0.3384  0.7819 -0.5592
 9445TIP3    H128299   1.892   1.655   2.709 -1.0511  0.5800  0.8272
 9445TIP3    H228300   1.883   1.802   2.673 -1.1876  0.2464 -0.5497
 9446TIP3   OH228301   2.734   5.302   3.306  0.0164  0.0171  0.1001
 9446TIP3    H128302   2.661   5.305   3.243  1.0554 -0.7406 -1.1982
 9446TIP3    H228303   2.763   5.211   3.306  1.9740  0.5846 -0.6637
 9447TIP3   OH228304   2.470   4.797   0.441  0.5021 -0.3245  0.5475
 9447TIP3    H128305   2.542   4.825   0.385  1.8564 -1.8496  1.4268
 9447TIP3    H228306   2.405   4.760   0.381  0.3641  1.1923 -0.2658
 9448TIP3   OH228307   2.924   5.511   0.108  0.2001 -0.2902  0.0883
 9448TIP3    H128308   2.925   5.523   0.203  0.6638  0.9495 -0.0513
 9448TIP3    H228309   2.897   5.596   0.074  0.8622 -0.4665 -0.9261
 9449TIP3   OH228310   4.496   2.932   0.068 -0.2030  0.2652  0.0902
 9449TIP3    H128311   4.473   3.025   0.070  0.1768  0.3541  0.4446
 9449TIP3    H228312   4.502   2.911  -0.025  2.3840  1.2697 -0.0499
 9450TIP3   OH228313   5.240   6.739   0.245  0.5600 -0.2310  0.5864
 9450TIP3    H128314   5.219   6.698   0.329 -1.8715  2.6879  1.5886
 9450TIP3    H228315   5.198   6.684   0.180  0.3236 -1.1893  1.5254
 9451TIP3   OH228316   5.054   4.788   3.065 -0.0720  0.4203 -0.2020
 9451TIP3    H128317   4.968   4.819   3.034  0.6544  2.7283 -0.1253
 9451TIP3    H228318   5.038   4.760   3.155 -1.0851 -0.9701 -0.7780
 9452TIP3   OH228319   6.978   4.759   5.312  0.2785  0.2633  0.0632
 9452TIP3    H128320   6.932   4.797   5.237  0.5703  2.8258  1.0670
 9452TIP3    H228321   7.071   4.759   5.286  0.4032  1.3509  0.4767
 9453TIP3   OH228322   0.799   2.786   5.604  0.4825  0.2163 -0.4304
 9453TIP3    H128323   0.807   2.783   5.509 -1.8919 -0.9386 -0.6712
 9453TIP3    H228324   0.707   2.808   5.620  0.8498  0.4953  1.6059
 9454TIP3   OH228325   5.772   4.621   4.351  0.0815 -0.3327 -0.5735
 9454TIP3    H128326   5.795   4.528   4.344 -1.4033 -0.7542 -0.2615
 9454TIP3    H228327   5.706   4.634   4.282 -1.1334 -0.0084  0.6081
 9455TIP3   OH228328   6.756   1.906   0.056  0.5618  0.3946 -0.1280
 9455TIP3    H128329   6.693   1.883   0.125  0.5559 -0.0489 -0.2787
 9455TIP3    H228330   6.747   2.001   0.046 -0.4553  0.2709 -0.5083
 9456TIP3   OH228331   5.868   6.243   4.006  0.3663  0.5196  0.0562
 9456TIP3    H128332   5.773   6.238   4.019  0.3994 -0.8357 -0.1318
 9456TIP3    H228333   5.885   6.336   3.990 -0.7584  0.9845  1.3610
 9457TIP3   OH228334   3.659   2.550   0.171 -0.2159  0.0950 -0.0825
 9457TIP3    H128335   3.733   2.607   0.152 -0.2482  0.1223 -0.1274
 9457TIP3    H228336   3.582   2.608   0.168 -0.5138 -0.3107 -2.3039
 9458TIP3   OH228337   5.799   6.338   2.288 -0.3740  0.6528 -0.1111
 9458TIP3    H128338   5.831   6.325   2.199 -0.6534  2.5237 -0.5185
 9458TIP3    H228339   5.849   6.412   2.321 -1.1433  0.7660  0.8435
 9459TIP3   OH228340   2.206   4.616   3.885 -0.1648  0.1052  0.2715
 9459TIP3    H128341   2.165   4.534   3.914  1.0515  0.2636  2.6808
 9459TIP3    H228342   2.134   4.666   3.847 -1.4668 -1.0609  1.0592
 9460TIP3   OH228343   3.916   5.468   5.704  0.2661  0.1604  0.8258
 9460TIP3    H128344   3.832   5.513   5.698  0.1686 -0.0364  0.7289
 9460TIP3    H228345   3.909   5.394   5.644  0.6448  0.3624  0.5315
 9461TIP3   OH228346   2.192   1.780   4.674  0.9087 -0.8011 -0.1528
 9461TIP3    H128347   2.144   1.718   4.618  1.2068 -0.1494 -1.1444
 9461TIP3    H228348   2.283   1.751   4.668  0.9554 -0.6668 -0.0796
 9462TIP3   OH228349   3.307   0.203   3.268 -0.0952 -0.3429  0.0018
 9462TIP3    H128350   3.301   0.156   3.351 -0.5392  2.0943  1.4196
 9462TIP3    H228351   3.397   0.232   3.262  0.2126 -1.3979 -0.9418
 9463TIP3   OH228352   6.254   4.782   2.528 -0.2135 -0.3506  0.3641
 9463TIP3    H128353   6.208   4.863   2.506  2.5830  0.9580 -1.3746
 9463TIP3    H228354   6.256   4.732   2.446 -1.0977 -1.7700  1.1806
 9464TIP3   OH228355   2.545   1.142   2.777 -0.4423 -0.0178  0.1378
 9464TIP3    H128356   2.543   1.221   2.830  1.1454 -0.0506  0.2915
 9464TIP3    H228357   2.638   1.120   2.770 -0.6323 -0.3580 -2.1284
 9465TIP3   OH228358   0.649   5.475   2.223  0.0661 -0.1977  0.2148
 9465TIP3    H128359   0.701   5.515   2.293 -1.8040  0.8004  1.1120
 9465TIP3    H228360   0.591   5.545   2.194 -1.5159 -1.5432  0.0007
 9466TIP3   OH228361   4.129   5.581   2.085 -0.1362  0.0535 -0.3322
 9466TIP3    H128362   4.142   5.531   2.167 -0.5868  0.3663 -0.0699
 9466TIP3    H228363   4.171   5.665   2.102 -3.0148  1.3835  0.8110
 9467TIP3   OH228364   3.406   0.690   3.571  0.0365 -0.5715 -0.6256
 9467TIP3    H128365   3.475   0.633   3.538  1.6057 -0.5269  2.2504
 9467TIP3    H228366   3.342   0.630   3.610 -0.1055 -0.4892 -0.7293
 9468TIP3   OH228367   6.043   4.680   4.272  0.9568 -0.5067 -0.0852
 9468TIP3    H128368   6.028   4.587   4.289 -0.3500 -0.1131  1.0611
 9468TIP3    H228369   6.006   4.696   4.186 -1.6297 -0.4524  0.9577
 9469TIP3   OH228370   4.602   2.179   0.336  0.0177  0.2533 -0.2811
 9469TIP3    H128371   4.568   2.186   0.426  0.3732  0.5083 -0.1646
 9469TIP3    H228372   4.530   2.139   0.287 -0.6612  1.2964 -0.1652
 9470TIP3   OH228373   1.447   5.127   0.205 -0.0084 -0.0879  0.0275
 9470TIP3    H128374   1.515   5.122   0.272  0.7795  2.5729 -0.4601
 9470TIP3    H228375   1.495   5.135   0.122 -0.9402  0.1367 -0.5046
 9471TIP3   OH228376   5.106   1.214   4.837  0.5498 -0.0440 -0.3133
 9471TIP3    H128377   5.065   1.208   4.924  0.1805  0.0245 -0.4811
 9471TIP3    H228378   5.149   1.299   4.837  1.1896 -0.3603  0.0786
 9472TIP3   OH228379   3.716   5.119   1.388 -0.0392 -0.8962  0.5325
 9472TIP3    H128380   3.657   5.102   1.461 -0.4892  0.2568  0.4506
 9472TIP3    H228381   3.705   5.212   1.369  2.7884 -0.2990  1.3708
 9473TIP3   OH228382   0.752   2.059   2.934  0.2697 -0.3300 -0.2049
 9473TIP3    H128383   0.694   1.986   2.911  1.3209 -0.9256 -1.0691
 9473TIP3    H228384   0.819   2.059   2.866  1.3001  0.3287  0.7685
 9474TIP3   OH228385   1.791   4.215   1.508  0.3651 -0.0829 -0.4708
 9474TIP3    H128386   1.741   4.134   1.507 -0.6442  0.5284 -1.8380
 9474TIP3    H228387   1.808   4.234   1.416  1.8688  0.5045 -0.1041
 9475TIP3   OH228388   6.751   3.017   1.079  0.0513 -0.1104 -0.0910
 9475TIP3    H128389   6.719   2.938   1.036 -0.2979 -0.6600  1.1299
 9475TIP3    H228390   6.672   3.065   1.105  0.1877  1.8857 -2.8616
 9476TIP3   OH228391   1.429   1.562   4.269  0.4664 -0.0165 -0.1216
 9476TIP3    H128392   1.508   1.520   4.236  0.5916 -0.7492  1.0508
 9476TIP3    H228393   1.360   1.498   4.257  0.6823 -0.6839  1.7866
 9477TIP3   OH228394   1.817   5.181   5.103 -0.2169  0.4656  0.5045
 9477TIP3    H128395   1.784   5.224   5.024  1.0446 -0.1486 -0.3917
 9477TIP3    H228396   1.749   5.197   5.169 -1.1785  1.2172 -0.6209
 9478TIP3   OH228397   5.100   3.320   0.993 -0.2150  0.5241 -0.2510
 9478TIP3    H128398   5.124   3.246   0.938 -0.5492  0.3621 -0.1857
 9478TIP3    H228399   5.004   3.318   0.994 -0.2049  0.2588  0.6940
 9479TIP3   OH228400   7.073   4.750   1.555 -0.1788  0.2550 -0.4213
 9479TIP3    H128401   7.076   4.790   1.469  1.0754  0.1906 -0.4261
 9479TIP3    H228402   7.102   4.819   1.615  1.0155 -0.3150 -0.3148
 9480TIP3   OH228403   6.470   1.561   3.181 -0.2548 -0.3063  0.4824
 9480TIP3    H128404   6.418   1.490   3.142 -0.2762 -0.1495  0.2217
 9480TIP3    H228405   6.549   1.565   3.127  1.4953 -2.5363  2.6281
 9481TIP3   OH228406   0.107   5.285   1.293 -0.8720 -0.3607  0.3814
 9481TIP3    H128407   0.150   5.203   1.269 -0.2121  0.0301  0.2141
 9481TIP3    H228408   0.026   5.258   1.336 -0.7558 -1.0962  0.1432
 9482TIP3   OH228409   4.743   5.249   4.301  0.1267 -0.4489  0.2479
 9482TIP3    H128410   4.733   5.229   4.208  1.4155  1.2031 -0.2833
 9482TIP3    H228411   4.703   5.335   4.312  1.1499 -0.0366  0.9354
 9483TIP3   OH228412   2.821   0.211   1.576  0.3199 -0.4509  0.4982
 9483TIP3    H128413   2.839   0.204   1.482 -0.2910  0.2667  0.3122
 9483TIP3    H228414   2.802   0.122   1.604  0.4401 -0.6605 -0.0729
 9484TIP3   OH228415   1.907   3.781   4.131  0.2227 -0.0655  0.5170
 9484TIP3    H128416   1.915   3.870   4.096  0.5576  0.1543  1.1338
 9484TIP3    H228417   1.933   3.789   4.223 -2.5646 -0.2437  1.4140
 9485TIP3   OH228418   6.484   3.861   4.021 -0.4584 -0.2289  0.1083
 9485TIP3    H128419   6.527   3.879   4.104  0.3977 -1.3444 -0.0796
 9485TIP3    H228420   6.555   3.860   3.956 -1.3776  3.9868 -1.3154
 9486TIP3   OH228421   5.537   6.198   1.908  0.7337  0.3245  0.2157
 9486TIP3    H128422   5.470   6.214   1.841  0.3816 -2.0287 -0.0748
 9486TIP3    H228423   5.536   6.103   1.921  1.2959  0.6176  3.0610
 9487TIP3   OH228424   0.776   4.793   1.214  0.0835  0.0588 -0.4599
 9487TIP3    H128425   0.784   4.737   1.137 -1.4149 -1.7054  0.5581
 9487TIP3    H228426   0.845   4.763   1.273 -1.5286 -1.7997  0.6271
 9488TIP3   OH228427   7.073   1.682   3.379  0.4492  1.1179  0.1937
 9488TIP3    H128428   7.043   1.610   3.436 -0.2762  3.1204  2.5149
 9488TIP3    H228429   7.150   1.716   3.424  0.8387  1.7434 -0.9274
 9489TIP3   OH228430   6.762   6.177   4.500 -0.3538  0.6961  0.3853
 9489TIP3    H128431   6.772   6.242   4.430  1.1928 -1.5863 -1.7117
 9489TIP3    H228432   6.695   6.118   4.468 -1.3383  0.8830  2.0040
 9490TIP3   OH228433   4.626   5.450   1.029  0.7737  0.7833 -0.5644
 9490TIP3    H128434   4.702   5.452   0.971  0.6556 -1.9319 -0.9378
 9490TIP3    H228435   4.553   5.478   0.973  0.8771 -0.5551 -1.4089
 9491TIP3   OH228436   1.618   5.711   0.613  0.3608 -0.5868  0.1776
 9491TIP3    H128437   1.608   5.774   0.685  2.5881 -0.3996  0.3935
 9491TIP3    H228438   1.542   5.653   0.622 -0.3533  0.4770  1.5935
 9492TIP3   OH228439   1.326   6.657   0.223 -0.6673  0.1274  0.2976
 9492TIP3    H128440   1.322   6.753   0.221 -2.8953  0.0720  0.2684
 9492TIP3    H228441   1.236   6.629   0.238 -0.3667 -2.0287 -1.4041
 9493TIP3   OH228442   4.926   1.653   5.581 -0.3000  0.2921  0.1820
 9493TIP3    H128443   4.924   1.557   5.583  0.9961  0.2582  1.4230
 9493TIP3    H228444   4.835   1.679   5.591 -0.8317 -0.7944 -1.4327
 9494TIP3   OH228445   3.852   0.898   4.894 -0.4407  0.3729 -0.4937
 9494TIP3    H128446   3.849   0.884   4.800 -0.0440 -0.6179 -0.3701
 9494TIP3    H228447   3.792   0.833   4.930 -0.3595  0.5463 -0.0365
 9495TIP3   OH228448   0.569   6.566   5.573 -0.2030  0.3510 -0.6900
 9495TIP3    H128449   0.557   6.615   5.491 -0.5173 -1.9635 -2.1162
 9495TIP3    H228450   0.653   6.521   5.561  1.1684  2.1183  1.5059
 9496TIP3   OH228451   5.360   0.503   1.769  0.1805  0.3580  0.3269
 9496TIP3    H128452   5.339   0.413   1.793 -0.1996  1.0111  2.6714
 9496TIP3    H228453   5.430   0.529   1.828  0.5125  1.5039 -0.5328
 9497TIP3   OH228454   0.231   5.409   2.467 -0.2441  0.1801  0.0768
 9497TIP3    H128455   0.230   5.321   2.430 -2.7584  0.2243 -0.0996
 9497TIP3    H228456   0.302   5.454   2.421 -0.4916 -1.0421 -1.5559
 9498TIP3   OH228457   0.222   2.330   2.007  0.3677  0.1589 -0.2246
 9498TIP3    H128458   0.302   2.337   1.955 -0.6812  1.9250 -1.7399
 9498TIP3    H228459   0.201   2.421   2.031 -0.1215 -0.4493  1.8953
 9499TIP3   OH228460   1.981   2.190   0.991  0.0228  0.6857 -0.3168
 9499TIP3    H128461   2.067   2.224   0.966  0.6336  0.9186  1.8328
 9499TIP3    H228462   1.949   2.253   1.056 -0.5947 -0.7379  0.8217
 9500TIP3   OH228463   2.512   2.696   1.851 -0.2864 -0.2035 -0.0066
 9500TIP3    H128464   2.490   2.788   1.838 -0.1111 -0.2056 -0.3352
 9500TIP3    H228465   2.592   2.683   1.799  1.3832  0.1864  2.2820
 9501TIP3   OH228466   5.937   4.709   1.392  0.1355  0.1162  0.0889
 9501TIP3    H128467   5.939   4.748   1.305 -0.1411  0.6627  0.3197
 9501TIP3    H228468   5.960   4.617   1.378 -0.4041  0.0844 -0.6219
 9502TIP3   OH228469   6.189   4.525   2.657 -0.1774 -0.6323  0.0617
 9502TIP3    H128470   6.210   4.618   2.652 -2.8652  0.1532  1.6898
 9502TIP3    H228471   6.275   4.482   2.655  1.1010  1.7282 -2.0113
 9503TIP3   OH228472   6.804   4.807   1.193 -0.0469 -0.4792 -0.2753
 9503TIP3    H128473   6.764   4.826   1.277  1.3527 -3.0352  1.0844
 9503TIP3    H228474   6.760   4.728   1.162  2.0742 -1.8735  0.0435
 9504TIP3   OH228475   5.345   2.207   3.940 -0.0426 -0.0048  0.9644
 9504TIP3    H128476   5.293   2.286   3.922  0.4153 -0.2240 -1.6138
 9504TIP3    H228477   5.280   2.140   3.962 -0.5788  0.5525  1.1046
 9505TIP3   OH228478   6.960   5.369   5.322  0.3653  0.0686  0.3196
 9505TIP3    H128479   6.889   5.425   5.289  0.6904 -0.0312 -0.5856
 9505TIP3    H228480   7.040   5.413   5.295  0.6797  0.4536  1.7961
 9506TIP3   OH228481   4.409   3.047   4.151 -0.2405  0.8197  0.3113
 9506TIP3    H128482   4.398   2.993   4.229  2.5762 -0.6859 -0.1695
 9506TIP3    H228483   4.414   2.984   4.079  0.1258  1.9451 -0.6820
 9507TIP3   OH228484   5.433   3.735   4.995  0.2314 -0.2285 -0.3812
 9507TIP3    H128485   5.370   3.794   4.953 -3.2452 -0.7652  3.4723
 9507TIP3    H228486   5.464   3.784   5.071  1.1798 -1.5864  0.1458
 9508TIP3   OH228487   5.283   6.182   5.827  0.6740 -0.2017 -0.0653
 9508TIP3    H128488   5.364   6.219   5.792  0.4922  0.8260  0.5616
 9508TIP3    H228489   5.310   6.140   5.909  0.6406 -0.2280 -0.0681
 9509TIP3   OH228490   6.052   5.959   0.329  0.5114  0.1056 -0.4441
 9509TIP3    H128491   6.144   5.970   0.355  0.0425 -0.9671  1.9400
 9509TIP3    H228492   6.052   5.884   0.270  1.1524 -0.0493 -0.2539
 9510TIP3   OH228493   1.776   1.776   4.745  0.4551 -0.1875 -0.4307
 9510TIP3    H128494   1.789   1.851   4.803  0.5080  0.1186 -0.8390
 9510TIP3    H228495   1.826   1.705   4.786  0.0407 -0.1264  0.1936
 9511TIP3   OH228496   4.191   0.998   1.587  0.0208  0.3477  0.3092
 9511TIP3    H128497   4.154   1.082   1.559 -2.5639 -0.4867  0.9237
 9511TIP3    H228498   4.201   1.007   1.682  2.2139  0.7936  0.0883
 9512TIP3   OH228499   3.930   0.854   0.745  0.0241  0.3239  0.1056
 9512TIP3    H128500   3.959   0.764   0.728  1.6966  0.6793  0.8710
 9512TIP3    H228501   3.991   0.908   0.695 -0.7308  1.0584 -0.0347
 9513TIP3   OH228502   0.569   3.305   1.744 -0.2381  0.0754 -0.0026
 9513TIP3    H128503   0.648   3.274   1.789  1.8796  2.5892 -1.7253
 9513TIP3    H228504   0.533   3.226   1.703  0.9498 -1.2596  1.3950
 9514TIP3   OH228505   6.962   3.315   4.548  0.6765 -0.1455  0.4498
 9514TIP3    H128506   6.952   3.316   4.453 -0.5509 -1.3638  0.5326
 9514TIP3    H228507   6.889   3.261   4.579  1.2574 -0.0544  2.0637
 9515TIP3   OH228508   3.669   5.695   3.033 -0.3384 -0.0737  0.0131
 9515TIP3    H128509   3.716   5.718   2.953  1.5118  2.7668  1.7398
 9515TIP3    H228510   3.639   5.605   3.018  0.6624  0.0324 -3.4698
 9516TIP3   OH228511   6.800   1.508   3.283  0.4315  0.3166  0.2160
 9516TIP3    H128512   6.736   1.458   3.233  0.1454  0.3512  0.5397
 9516TIP3    H228513   6.757   1.592   3.299 -0.1709 -0.2658  1.9330
 9517TIP3   OH228514   5.634   2.015   5.388 -0.3875 -0.1613 -0.3704
 9517TIP3    H128515   5.684   2.097   5.392 -0.7546  0.0191  1.7702
 9517TIP3    H228516   5.549   2.038   5.425 -0.2225 -1.6918  1.0383
 9518TIP3   OH228517   1.991   1.612   5.900  0.3586 -0.2259 -0.1529
 9518TIP3    H128518   1.989   1.550   5.827  3.1184  1.2166 -1.6561
 9518TIP3    H228519   2.000   1.698   5.858 -0.6779  0.9405  1.8783
 9519TIP3   OH228520   5.790   0.980   4.813 -0.5901 -0.2380 -0.2907
 9519TIP3    H128521   5.774   0.914   4.745 -0.7217  1.4197 -1.9550
 9519TIP3    H228522   5.768   0.935   4.895 -2.2501 -1.7638 -1.4779
 9520TIP3   OH228523   4.854   1.082   0.853 -0.5244 -0.4354 -0.1085
 9520TIP3    H128524   4.925   1.145   0.843  0.5221 -1.3737  1.0456
 9520TIP3    H228525   4.798   1.096   0.777 -0.1040  1.5852 -0.0918
 9521TIP3   OH228526   4.545   0.666   4.532 -0.1424 -0.4528 -0.5152
 9521TIP3    H128527   4.571   0.589   4.481 -0.8093 -0.7449 -0.4337
 9521TIP3    H228528   4.621   0.723   4.531 -0.4387 -0.0198 -2.6276
 9522TIP3   OH228529   3.860   2.629   0.852  0.1510  0.4742  0.3486
 9522TIP3    H128530   3.943   2.608   0.894  0.4665  1.2911  0.1681
 9522TIP3    H228531   3.794   2.617   0.920  0.4345 -0.0503  0.5322
 9523TIP3   OH228532   5.898   0.778   2.403 -0.0448 -0.6142  0.0875
 9523TIP3    H128533   5.891   0.705   2.464  0.6111  0.0852  1.0152
 9523TIP3    H228534   5.974   0.827   2.432  1.9791 -1.7043 -2.8908
 9524TIP3   OH228535   5.161   2.924   0.751 -1.1262 -0.0340 -0.2298
 9524TIP3    H128536   5.123   2.836   0.753  1.8861 -1.4797  0.3491
 9524TIP3    H228537   5.174   2.946   0.843  0.4821 -0.1851 -0.3849
 9525TIP3   OH228538   0.393   6.086   1.365 -0.0525 -0.4818  0.1987
 9525TIP3    H128539   0.381   6.149   1.294  0.4225 -1.1412 -0.4860
 9525TIP3    H228540   0.482   6.103   1.397 -0.7427  0.7252  1.5727
 9526TIP3   OH228541   1.086   0.532   4.044  0.7125  0.3900  0.2226
 9526TIP3    H128542   1.111   0.544   4.135  0.6458  1.8036  0.0876
 9526TIP3    H228543   0.991   0.544   4.043  0.6722  0.0749  0.0081
 9527TIP3   OH228544   2.202   3.450   1.593 -0.4981  0.2127 -0.8046
 9527TIP3    H128545   2.222   3.479   1.504  0.8344 -0.9304 -0.9098
 9527TIP3    H228546   2.123   3.396   1.584  0.6591 -1.4172 -1.6202
 9528TIP3   OH228547   1.727   2.195   3.809 -0.0476  0.7794 -0.1519
 9528TIP3    H128548   1.696   2.151   3.730 -0.7930 -1.0229  1.0648
 9528TIP3    H228549   1.808   2.149   3.831  0.2951  1.4476  0.0090
 9529TIP3   OH228550   5.566   3.174   4.578 -0.3937  0.0097  0.5452
 9529TIP3    H128551   5.647   3.128   4.557 -0.3344  0.2732  0.1851
 9529TIP3    H228552   5.568   3.185   4.673 -0.3106 -0.5399  0.6087
 9530TIP3   OH228553   1.472   2.645   1.402  0.0379  0.0308 -0.3730
 9530TIP3    H128554   1.466   2.694   1.484  0.8464  0.9420 -0.8249
 9530TIP3    H228555   1.538   2.578   1.419 -1.3180 -1.1817  0.3566
 9531TIP3   OH228556   1.820   0.270   0.233 -0.0952  0.5086  0.1141
 9531TIP3    H128557   1.854   0.359   0.229  0.3581  0.3009 -0.8429
 9531TIP3    H228558   1.863   0.231   0.309  0.5985  0.7424 -0.1545
 9532TIP3   OH228559   2.966   1.375   4.643  1.0938  0.1061 -0.1960
 9532TIP3    H128560   3.039   1.316   4.625 -0.7087 -1.8851 -1.4276
 9532TIP3    H228561   2.937   1.405   4.557  1.0672  1.7199  0.3305
 9533TIP3   OH228562   4.104   0.629   1.150  0.2989  0.5543 -0.0095
 9533TIP3    H128563   4.194   0.646   1.124  0.0785  1.7995 -0.0514
 9533TIP3    H228564   4.063   0.716   1.151 -1.1280 -0.0733 -0.8351
 9534TIP3   OH228565   2.440   3.751   4.589 -0.4848  0.6244  0.0450
 9534TIP3    H128566   2.474   3.832   4.625 -2.3262  1.3759  0.2063
 9534TIP3    H228567   2.512   3.688   4.599  1.5735  2.5834 -1.5768
 9535TIP3   OH228568   2.893   4.739   3.244 -0.0030 -0.2199 -0.0292
 9535TIP3    H128569   2.819   4.713   3.189  0.3622 -0.6076 -0.3484
 9535TIP3    H228570   2.900   4.669   3.309  0.7592 -0.7527 -0.6700
 9536TIP3   OH228571   2.509   2.107   2.972 -0.0311 -0.2043  0.2485
 9536TIP3    H128572   2.467   2.025   2.998 -0.0827 -0.5017 -0.7384
 9536TIP3    H228573   2.603   2.091   2.983 -0.0678 -0.2279  0.5284
 9537TIP3   OH228574   2.720   0.694   5.194  0.6139  0.1470 -0.2252
 9537TIP3    H128575   2.763   0.609   5.188  0.0477 -0.1898  0.2852
 9537TIP3    H228576   2.782   0.750   5.240  0.9965  0.0095 -0.5772
 9538TIP3   OH228577   0.661   5.033   2.764 -0.1084  0.2304 -0.4147
 9538TIP3    H128578   0.630   5.091   2.694 -2.0418 -0.2994 -0.0506
 9538TIP3    H228579   0.599   5.047   2.835  1.1161 -0.1531  0.7565
 9539TIP3   OH228580   2.928   2.422   2.891 -0.0690  0.5514  0.0191
 9539TIP3    H128581   2.845   2.390   2.926  0.0754  0.6503  0.4579
 9539TIP3    H228582   2.965   2.347   2.844 -1.9674  1.3896 -3.1558
 9540TIP3   OH228583   3.703   5.021   0.533 -0.5546  0.4065 -0.0972
 9540TIP3    H128584   3.722   4.929   0.517 -0.1604  0.4381  0.1772
 9540TIP3    H228585   3.704   5.030   0.628  1.2642  1.0719 -0.1421
 9541TIP3   OH228586   6.764   6.768   2.042  0.4299 -0.4688  0.3339
 9541TIP3    H128587   6.828   6.726   1.984  1.1848  0.5345  0.4202
 9541TIP3    H228588   6.714   6.695   2.079  0.4404 -1.1717 -0.9858
 9542TIP3   OH228589   4.269   3.463   0.256 -0.1889  0.6535  0.4981
 9542TIP3    H128590   4.267   3.403   0.330 -0.4474 -0.9305 -0.7441
 9542TIP3    H228591   4.322   3.537   0.287  0.4736 -0.3716  1.9310
 9543TIP3   OH228592   0.653   0.640   5.094  0.0075  0.1674  0.4261
 9543TIP3    H128593   0.747   0.627   5.098 -0.0649 -0.1749  1.2717
 9543TIP3    H228594   0.619   0.562   5.049 -0.0978 -0.9975  2.4169
 9544TIP3   OH228595   0.558   1.342   4.737 -0.3186 -0.5358 -0.1296
 9544TIP3    H128596   0.474   1.325   4.780 -0.9035  1.8683 -0.1697
 9544TIP3    H228597   0.568   1.437   4.742  1.2010 -0.5163 -2.3702
 9545TIP3   OH228598   7.163   3.332   5.535  0.0610  0.0486  0.0381
 9545TIP3    H128599   7.206   3.254   5.570 -0.0463 -0.0910 -0.1368
 9545TIP3    H228600   7.071   3.307   5.529  0.0077  0.2327  0.1026
 9546TIP3   OH228601   0.944   1.788   1.960 -0.2511  0.1452 -0.4496
 9546TIP3    H128602   0.960   1.695   1.942 -1.3650  0.2225 -2.0218
 9546TIP3    H228603   0.878   1.814   1.896  1.3473  2.4846 -1.2845
 9547TIP3   OH228604   0.922   4.061   1.943  0.4811 -0.6899  0.0361
 9547TIP3    H128605   0.955   4.034   2.029 -0.4944 -0.5421  0.4772
 9547TIP3    H228606   0.999   4.064   1.887  1.1783 -0.4894  0.9863
 9548TIP3   OH228607   3.590   0.466   2.324 -0.4023 -1.0597 -0.0164
 9548TIP3    H128608   3.527   0.532   2.295  0.6147  0.7401  1.5529
 9548TIP3    H228609   3.549   0.424   2.399  0.2880  0.3221  1.1952
 9549TIP3   OH228610   6.591   4.294   2.871  0.7524 -0.0699 -0.3223
 9549TIP3    H128611   6.654   4.281   2.800  0.8811  2.7337 -0.8167
 9549TIP3    H228612   6.645   4.325   2.945  0.1959  0.4275 -0.1204
 9550TIP3   OH228613   3.837   2.757   0.162  0.1646  0.0494  0.2729
 9550TIP3    H128614   3.845   2.822   0.093 -0.2305  0.1584  0.3248
 9550TIP3    H228615   3.912   2.773   0.219  0.5297 -0.0888 -0.1659
 9551TIP3   OH228616   3.556   5.508   4.789  1.0050 -0.5719 -0.6274
 9551TIP3    H128617   3.570   5.580   4.850  0.7011 -2.7116  2.1802
 9551TIP3    H228618   3.466   5.519   4.759  0.1363 -0.9797  1.6262
 9552TIP3   OH228619   6.185   1.037   1.283 -0.1800  0.0770  0.1274
 9552TIP3    H128620   6.097   1.048   1.319  0.1347  1.0165  0.6348
 9552TIP3    H228621   6.242   1.079   1.347  0.5734  0.1179 -0.5656
 9553TIP3   OH228622   1.505   4.997   5.703  0.1665 -0.3084  0.0248
 9553TIP3    H128623   1.433   4.969   5.759  1.2837  1.4227  2.5386
 9553TIP3    H228624   1.580   4.945   5.733  0.9381  1.1453  0.7203
 9554TIP3   OH228625   2.307   6.246   2.664 -1.0416  0.2673  0.9396
 9554TIP3    H128626   2.342   6.259   2.577  0.5109 -1.5496  1.2273
 9554TIP3    H228627   2.230   6.190   2.650  0.1410 -1.3956  0.8139
 9555TIP3   OH228628   3.255   3.638   1.866  0.2372  0.1156 -1.0211
 9555TIP3    H128629   3.160   3.626   1.868  0.3832 -1.0654  0.1979
 9555TIP3    H228630   3.289   3.552   1.840  1.0062  0.2230 -0.3898
 9556TIP3   OH228631   6.960   5.168   4.216  0.2208 -0.0195  0.2880
 9556TIP3    H128632   6.926   5.248   4.175 -1.3164 -1.1782 -0.8323
 9556TIP3    H228633   7.021   5.199   4.283  0.7816  2.0298 -1.0933
 9557TIP3   OH228634   2.625   1.029   4.859 -0.3608  0.3326  0.0955
 9557TIP3    H128635   2.665   1.043   4.945 -0.1284 -0.0144  0.0459
 9557TIP3    H228636   2.531   1.029   4.876 -0.3118  0.0138  0.3917
 9558TIP3   OH228637   6.458   6.246   0.528  0.3829  0.3258  0.1878
 9558TIP3    H128638   6.472   6.311   0.459  2.2114 -0.7910 -0.5878
 9558TIP3    H228639   6.397   6.287   0.589 -0.8444  1.5938 -1.7772
 9559TIP3   OH228640   5.797   5.337   3.234  0.4090  0.2848  0.4510
 9559TIP3    H128641   5.743   5.302   3.163  1.7241  0.9200 -0.9352
 9559TIP3    H228642   5.855   5.265   3.258  1.0872  0.5558 -0.3147
 9560TIP3   OH228643   1.773   0.896   1.709  0.4717 -0.2112  0.4793
 9560TIP3    H128644   1.835   0.886   1.637 -0.2754 -1.8958  0.0205
 9560TIP3    H228645   1.707   0.957   1.676  1.0432  0.3606  0.3874
 9561TIP3   OH228646   4.399   6.107   3.840  0.2084  0.4240  0.2900
 9561TIP3    H128647   4.460   6.148   3.900  1.4182  1.4613 -1.5491
 9561TIP3    H228648   4.425   6.139   3.753 -3.2009  1.2913 -0.5720
 9562TIP3   OH228649   0.389   4.017   0.082  0.4091 -0.1005 -0.0429
 9562TIP3    H128650   0.474   4.057   0.099  0.2108  0.8272 -1.1709
 9562TIP3    H228651   0.406   3.951   0.015  0.0870  0.8287 -1.0733
 9563TIP3   OH228652   3.085   1.535   1.671  0.3639  0.0006  0.0238
 9563TIP3    H128653   3.146   1.467   1.696 -0.8704 -0.8541  0.8076
 9563TIP3    H228654   3.009   1.522   1.727 -0.9153  0.4709 -1.5017
 9564TIP3   OH228655   4.705   2.688   3.937  0.1759  0.1725  0.0118
 9564TIP3    H128656   4.692   2.737   4.019 -1.9954  1.5765 -1.0791
 9564TIP3    H228657   4.717   2.756   3.870  0.3431 -0.9030 -1.0748
 9565TIP3   OH228658   5.985   0.992   0.937 -0.3081  0.0019 -0.1967
 9565TIP3    H128659   6.029   0.942   1.006  0.5753  1.4812  0.3402
 9565TIP3    H228660   5.892   0.986   0.959 -0.0601  0.2264  0.9663
 9566TIP3   OH228661   6.705   5.242   1.436 -0.0759  0.1360 -0.1327
 9566TIP3    H128662   6.745   5.157   1.449 -1.3058 -0.4106  0.2207
 9566TIP3    H228663   6.634   5.246   1.501  1.0633  2.1628  1.0890
 9567TIP3   OH228664   6.456   6.492   2.881  0.5393 -0.0081 -0.0568
 9567TIP3    H128665   6.530   6.535   2.838  0.5149 -0.1157 -0.2079
 9567TIP3    H228666   6.484   6.400   2.889  2.4046  0.7073  4.0777
 9568TIP3   OH228667   6.742   3.780   3.354  0.7672  0.2557  0.3361
 9568TIP3    H128668   6.704   3.790   3.441 -0.4464  0.9589 -0.2548
 9568TIP3    H228669   6.820   3.726   3.368 -0.6541 -1.6042  1.5265
 9569TIP3   OH228670   1.424   0.223   4.676 -0.1005  0.0554  0.4926
 9569TIP3    H128671   1.333   0.226   4.707 -0.9450 -2.9999 -1.1891
 9569TIP3    H228672   1.468   0.166   4.740 -0.0345 -0.4752 -0.0180
 9570TIP3   OH228673   4.226   6.792   1.127  0.5870  0.0796 -0.7298
 9570TIP3    H128674   4.301   6.733   1.130 -0.0106 -0.7475 -1.5253
 9570TIP3    H228675   4.151   6.735   1.110 -0.0304  1.0428 -1.3478
 9571TIP3   OH228676   0.634   4.971   4.044 -0.3448 -0.2492 -0.3416
 9571TIP3    H128677   0.582   5.029   3.988 -1.6898 -0.1797  0.9524
 9571TIP3    H228678   0.676   5.030   4.107  0.8784 -0.3686 -1.0045
 9572TIP3   OH228679   0.943   5.660   1.844 -0.0350 -0.4839 -0.1588
 9572TIP3    H128680   0.891   5.712   1.906  0.2697 -0.2025 -0.1364
 9572TIP3    H228681   1.018   5.629   1.895 -1.5191 -3.1760  0.5684
 9573TIP3   OH228682   3.738   1.788   2.100  0.0364  0.7252  0.5273
 9573TIP3    H128683   3.816   1.793   2.045  1.8890 -0.9778  2.8178
 9573TIP3    H228684   3.665   1.781   2.038  1.9332 -0.4829 -1.6896
 9574TIP3   OH228685   5.860   0.303   2.849 -0.0124 -0.1246  0.1088
 9574TIP3    H128686   5.768   0.285   2.827  0.3715 -1.3231 -0.5371
 9574TIP3    H228687   5.892   0.222   2.887  0.4349  0.7031  1.5969
 9575TIP3   OH228688   6.210   4.243   3.705  0.4378 -0.4944  0.5342
 9575TIP3    H128689   6.134   4.197   3.740 -0.7092  0.3764 -0.6931
 9575TIP3    H228690   6.271   4.249   3.778 -1.1681 -0.1903  1.8944
 9576TIP3   OH228691   5.027   0.444   4.924 -0.4398  0.4294 -0.3057
 9576TIP3    H128692   5.024   0.349   4.918 -1.2631  0.4619 -0.4957
 9576TIP3    H228693   5.116   0.467   4.897 -0.5127 -0.2198 -1.1495
 9577TIP3   OH228694   1.910   3.692   1.627  0.1803  0.2690  0.5471
 9577TIP3    H128695   1.963   3.665   1.702  1.8146  2.4724  0.2810
 9577TIP3    H228696   1.967   3.749   1.577 -0.5829 -1.6805 -2.8494
 9578TIP3   OH228697   6.223   6.794   3.446  0.9856  0.2427 -0.0568
 9578TIP3    H128698   6.236   6.701   3.428 -1.0524 -0.0926 -0.0033
 9578TIP3    H228699   6.309   6.833   3.431  2.2805 -1.8482  1.4048
 9579TIP3   OH228700   6.315   4.180   0.561 -0.4201 -0.3101 -0.3378
 9579TIP3    H128701   6.369   4.258   0.571  0.4425 -1.0766  1.3488
 9579TIP3    H228702   6.364   4.111   0.606 -2.3025 -1.2759  0.3173
 9580TIP3   OH228703   3.373   4.835   5.290  0.5416  0.0956  0.2372
 9580TIP3    H128704   3.311   4.905   5.308  1.0524  0.1936  1.7382
 9580TIP3    H228705   3.458   4.872   5.312  0.9945 -0.4820 -0.4901
 9581TIP3   OH228706   1.948   5.507   0.404 -0.6125  0.4141  0.0741
 9581TIP3    H128707   1.973   5.582   0.351 -0.8898  0.4683  0.0185
 9581TIP3    H228708   1.975   5.530   0.493  3.1970 -1.1340 -0.4864
 9582TIP3   OH228709   3.218   5.678   0.381 -0.4365  0.5178  0.0320
 9582TIP3    H128710   3.309   5.670   0.355  0.4374  2.5162  2.1554
 9582TIP3    H228711   3.193   5.767   0.356 -0.8260  1.0354  2.0678
 9583TIP3   OH228712   1.184   6.402   3.803 -0.3756  0.2484 -0.2099
 9583TIP3    H128713   1.273   6.388   3.770  0.0410  2.0632  0.0668
 9583TIP3    H228714   1.172   6.497   3.800 -1.7720  0.1429  1.1743
 9584TIP3   OH228715   0.126   1.470   2.496  0.2064  0.0618  0.2983
 9584TIP3    H128716   0.068   1.466   2.573  1.1041 -0.5321  0.9598
 9584TIP3    H228717   0.141   1.378   2.473  1.0981  0.2038  0.2996
 9585TIP3   OH228718   4.219   3.835   4.273 -0.4791  0.3125 -0.1994
 9585TIP3    H128719   4.193   3.784   4.196  0.7127 -1.3619  0.4614
 9585TIP3    H228720   4.315   3.837   4.270 -0.4251  0.5706  1.0164
 9586TIP3   OH228721   5.294   5.163   2.016 -0.1327 -0.2766 -0.0941
 9586TIP3    H128722   5.362   5.121   1.962 -0.7802 -2.3052  0.5713
 9586TIP3    H228723   5.281   5.249   1.976  2.3521 -0.0618 -0.6287
 9587TIP3   OH228724   1.425   4.128   2.580 -0.0841  0.1209  0.0652
 9587TIP3    H128725   1.419   4.062   2.649  1.3246  1.1500  1.2231
 9587TIP3    H228726   1.507   4.109   2.535 -0.0384  0.6398 -0.0786
 9588TIP3   OH228727   1.317   2.967   3.162 -0.1650  0.2749  0.3705
 9588TIP3    H128728   1.233   2.955   3.207 -1.0727 -1.5020 -1.6357
 9588TIP3    H228729   1.355   3.045   3.203 -2.3252  0.5668  2.0125
 9589TIP3   OH228730   0.788   0.690   0.997 -0.4638  0.4265 -0.3707
 9589TIP3    H128731   0.709   0.744   0.992  0.8180  2.4400  0.0658
 9589TIP3    H228732   0.794   0.648   0.912 -3.1440 -1.5381  0.2894
 9590TIP3   OH228733   5.441   6.640   5.749 -0.4017 -0.0256  0.2314
 9590TIP3    H128734   5.526   6.623   5.709 -1.2762 -1.1478 -1.2715
 9590TIP3    H228735   5.379   6.591   5.695 -2.0032  0.6931  1.3324
 9591TIP3   OH228736   0.439   4.113   0.829  0.3279  0.3573  0.0274
 9591TIP3    H128737   0.444   4.151   0.917 -2.4213 -1.1527  0.9672
 9591TIP3    H228738   0.524   4.070   0.817  1.2900  1.7964  1.3125
 9592TIP3   OH228739   2.268   0.368   2.534  0.5077 -0.1144  0.7402
 9592TIP3    H128740   2.202   0.330   2.592  0.9208  1.1580  2.0862
 9592TIP3    H228741   2.282   0.456   2.568  3.5484 -0.6146  1.0387
 9593TIP3   OH228742   4.486   6.616  -0.009 -0.0603 -0.5592 -0.4476
 9593TIP3    H128743   4.487   6.543   0.053 -0.1542  0.2040  0.4735
 9593TIP3    H228744   4.520   6.690   0.040  0.7337 -0.1373 -1.5946
 9594TIP3   OH228745   3.328   1.665   5.512  0.0223  0.0029  0.3326
 9594TIP3    H128746   3.296   1.718   5.439  0.4211 -0.3298 -0.0914
 9594TIP3    H228747   3.251   1.615   5.540 -0.3446  0.7708  0.7115
 9595TIP3   OH228748   4.022   4.163   4.951 -0.2269 -0.1088 -0.1002
 9595TIP3    H128749   3.963   4.091   4.928  0.2270 -0.3835 -0.4257
 9595TIP3    H228750   3.995   4.235   4.894  1.0945 -0.8821 -1.8101
 9596TIP3   OH228751   0.029   2.875   1.819  0.1087  0.2566 -0.1498
 9596TIP3    H128752   0.083   2.905   1.745  0.8892  1.2776  0.7918
 9596TIP3    H228753  -0.036   2.818   1.780  1.1278 -0.0287 -1.5005
 9597TIP3   OH228754   5.302   5.991   4.061  0.5528 -0.2083 -0.5403
 9597TIP3    H128755   5.311   5.993   4.156  0.1604 -2.0119 -0.4403
 9597TIP3    H228756   5.267   5.905   4.042  1.5324 -0.2437 -2.4052
 9598TIP3   OH228757   3.425   5.710   2.635 -0.2743  0.1109 -0.0588
 9598TIP3    H128758   3.513   5.675   2.652  0.3364  0.2144 -2.6304
 9598TIP3    H228759   3.440   5.801   2.610 -1.1444  0.2012 -0.2729
 9599TIP3   OH228760   5.830   3.951   1.844  0.3790  0.3848  0.3791
 9599TIP3    H128761   5.876   4.026   1.881  1.4252 -0.0430 -0.0157
 9599TIP3    H228762   5.751   3.987   1.805  1.0357  1.3232 -0.1009
 9600TIP3   OH228763   0.095   2.446   3.982 -0.4563  0.1938  0.2086
 9600TIP3    H128764   0.180   2.409   4.006 -0.1420  0.9575  0.3033
 9600TIP3    H228765   0.032   2.382   4.014  0.0629 -0.1293  0.6182
 9601TIP3   OH228766   0.323   1.847   1.851  0.0689  0.5100 -0.5304
 9601TIP3    H128767   0.308   1.926   1.904 -1.4290  0.4664 -0.8385
 9601TIP3    H228768   0.378   1.791   1.906 -0.2419  1.0776  0.3745
 9602TIP3   OH228769   6.654   3.446   3.517 -0.0775  0.0667 -0.2214
 9602TIP3    H128770   6.692   3.464   3.430  1.8120 -1.5960  0.1770
 9602TIP3    H228771   6.560   3.438   3.501  0.2872 -0.9180 -2.2870
 9603TIP3   OH228772   3.313   5.538   4.377  0.0802 -0.1881 -0.4256
 9603TIP3    H128773   3.296   5.457   4.424  1.6133 -0.2940  0.0036
 9603TIP3    H228774   3.320   5.512   4.286 -2.5045 -0.0440 -0.7236
 9604TIP3   OH228775   7.087   2.235   5.016 -0.5025  0.3171 -0.4360
 9604TIP3    H128776   7.090   2.303   4.949  0.9927 -0.0963 -0.8150
 9604TIP3    H228777   7.148   2.168   4.985 -0.2322 -0.1513  1.0357
 9605TIP3   OH228778   1.500   4.553   1.765  0.1326 -0.0126 -0.1843
 9605TIP3    H128779   1.539   4.598   1.840  0.3531  0.4111 -0.5573
 9605TIP3    H228780   1.567   4.491   1.737  1.3350  1.9580 -1.9752
 9606TIP3   OH228781   3.006   1.748   1.917  0.1085  0.4480 -0.9724
 9606TIP3    H128782   3.058   1.808   1.863  1.0435  0.2534 -0.3216
 9606TIP3    H228783   2.998   1.669   1.863 -0.3175  0.8054 -1.4482
 9607TIP3   OH228784   7.064   1.295   4.088 -0.0150 -0.6470  0.2400
 9607TIP3    H128785   7.040   1.220   4.034 -0.8797 -0.3180  0.1559
 9607TIP3    H228786   7.024   1.276   4.173  0.1274 -0.4824  0.3438
 9608TIP3   OH228787   0.903   1.155   2.962  0.0337  0.3562  0.3740
 9608TIP3    H128788   0.949   1.083   2.918 -1.1881 -0.3072  0.1244
 9608TIP3    H228789   0.867   1.207   2.890  0.0407  0.6349  0.5721
 9609TIP3   OH228790   0.906   2.613   5.812 -0.0716  0.6873  0.1960
 9609TIP3    H128791   0.876   2.685   5.756  0.1002  1.2452  0.7972
 9609TIP3    H228792   0.839   2.545   5.803  0.0033  0.7317 -0.7436
 9610TIP3   OH228793   1.439   1.364   2.818  0.3878 -0.2710  0.6990
 9610TIP3    H128794   1.407   1.389   2.732  1.8115 -0.2158  0.1667
 9610TIP3    H228795   1.412   1.273   2.828 -0.7097  0.0372  0.6651
 9611TIP3   OH228796   4.039   6.713   2.885  0.1896  0.4483 -0.4993
 9611TIP3    H128797   4.026   6.660   2.964  1.0378  0.2809 -0.4693
 9611TIP3    H228798   3.961   6.769   2.881 -0.6027 -0.6191 -0.3946
 9612TIP3   OH228799   4.095   6.648   3.186 -0.1105 -0.2440  0.2148
 9612TIP3    H128800   4.036   6.722   3.202 -0.7617 -0.9489  1.1855
 9612TIP3    H228801   4.183   6.687   3.190 -0.4745  0.6840 -0.4932
 9613TIP3   OH228802   1.821   2.510   0.873  0.8407  0.0291 -0.2783
 9613TIP3    H128803   1.837   2.589   0.822 -0.5860  1.7010  1.6661
 9613TIP3    H228804   1.862   2.440   0.823  1.3678  1.8431 -2.5571
 9614TIP3   OH228805   1.088   5.879   3.935 -1.0275 -0.0386  0.0932
 9614TIP3    H128806   1.130   5.810   3.986  0.0448 -1.0484 -2.0077
 9614TIP3    H228807   1.046   5.833   3.863 -0.9532  1.4303 -0.9366
 9615TIP3   OH228808   4.228   0.906   5.819  0.4232  0.0038  0.1225
 9615TIP3    H128809   4.227   0.949   5.734 -0.0362 -0.2630 -0.0140
 9615TIP3    H228810   4.292   0.836   5.810 -0.0738 -0.4132 -0.2052
 9616TIP3   OH228811   6.950   4.182   3.451  0.1576  0.3054  0.1890
 9616TIP3    H128812   6.965   4.099   3.496  1.0396  0.1047 -0.4566
 9616TIP3    H228813   7.032   4.230   3.459  1.2091 -0.6536 -3.0422
 9617TIP3   OH228814   4.000   1.887   5.592 -0.7320 -0.0032 -0.7217
 9617TIP3    H128815   4.084   1.889   5.637 -1.7902 -0.0886  1.3512
 9617TIP3    H228816   3.999   1.803   5.546  0.2848 -0.0105 -0.7551
 9618TIP3   OH228817   3.792   5.540   3.447  0.0279 -0.0380  0.8131
 9618TIP3    H128818   3.757   5.563   3.533 -0.2420 -0.2038  0.7469
 9618TIP3    H228819   3.754   5.605   3.387  0.6408  0.4124  0.9001
 9619TIP3   OH228820   0.223   4.338   2.333  0.2981 -0.4279  0.1916
 9619TIP3    H128821   0.282   4.271   2.298  0.0850 -0.2527 -0.5186
 9619TIP3    H228822   0.194   4.302   2.417  0.8089 -0.8658  0.1906
 9620TIP3   OH228823   6.568   2.482   2.414  0.2755  0.1421 -0.0708
 9620TIP3    H128824   6.494   2.523   2.368 -1.7783  0.4531  3.1835
 9620TIP3    H228825   6.534   2.397   2.442  1.4388 -0.0574  0.7718
 9621TIP3   OH228826   0.768   6.359   2.656  0.0625  0.3264 -0.0230
 9621TIP3    H128827   0.755   6.451   2.635  0.7453  1.0220  2.3368
 9621TIP3    H228828   0.863   6.349   2.661 -0.0322 -0.3041  0.5756
 9622TIP3   OH228829   5.678   5.556   1.198  0.0219 -0.6153 -1.2930
 9622TIP3    H128830   5.633   5.533   1.117  0.9353 -0.9223 -1.7269
 9622TIP3    H228831   5.759   5.505   1.196  1.1897  1.1592 -1.3350
 9623TIP3   OH228832   1.731   6.307   2.308  0.5000  0.7149 -0.5051
 9623TIP3    H128833   1.806   6.287   2.364 -0.7909  0.7134  1.2976
 9623TIP3    H228834   1.759   6.382   2.256  1.2094  1.7222  1.2680
 9624TIP3   OH228835   4.187   1.617   0.940  0.5247 -0.5924 -0.1808
 9624TIP3    H128836   4.249   1.678   0.900  0.7055  0.5186  1.6515
 9624TIP3    H228837   4.231   1.532   0.939  0.6939 -0.5035 -1.8466
 9625TIP3   OH228838   1.374   5.465   1.464 -0.0157  0.4671  0.0807
 9625TIP3    H128839   1.378   5.549   1.509 -0.3363 -0.2344  1.4766
 9625TIP3    H228840   1.396   5.400   1.531  0.9771 -0.5277 -1.1454
 9626TIP3   OH228841   3.359   6.378   3.947 -0.2930  0.7540 -0.1218
 9626TIP3    H128842   3.420   6.355   3.877  1.0280  0.9101  0.9184
 9626TIP3    H228843   3.402   6.347   4.027 -3.1229 -2.2399  0.4542
 9627TIP3   OH228844   6.833   1.837   5.609 -0.2462  0.2819 -0.0766
 9627TIP3    H128845   6.832   1.932   5.618  1.1889  0.2546  0.7229
 9627TIP3    H228846   6.923   1.816   5.584 -0.5897 -0.8630 -0.4444
 9628TIP3   OH228847   1.257   3.376   3.860  0.2533  0.0348 -0.1657
 9628TIP3    H128848   1.346   3.403   3.835 -0.1006 -0.4696 -2.1905
 9628TIP3    H228849   1.210   3.458   3.875  0.8180  0.3291  0.0368
 9629TIP3   OH228850   5.392   5.881   2.499 -0.3524 -0.0089 -0.4456
 9629TIP3    H128851   5.389   5.923   2.585 -0.9734  0.4132 -0.6648
 9629TIP3    H228852   5.300   5.874   2.473 -0.1487  0.2159 -1.2445
 9630TIP3   OH228853   0.879   0.501   4.989  0.7490 -0.2980  0.0606
 9630TIP3    H128854   0.862   0.408   5.006  1.6349 -0.3992  0.4561
 9630TIP3    H228855   0.952   0.501   4.927  2.4242  0.1158  1.9198
 9631TIP3   OH228856   5.557   4.436   5.686  0.0586  0.2580 -0.3620
 9631TIP3    H128857   5.500   4.485   5.627 -0.9734 -2.1230 -1.4976
 9631TIP3    H228858   5.514   4.442   5.771 -0.8101  0.1953 -0.7776
 9632TIP3   OH228859   0.827   0.584   4.038 -0.3352 -0.3399  0.4569
 9632TIP3    H128860   0.773   0.525   3.986 -1.3583 -0.3385  1.4832
 9632TIP3    H228861   0.778   0.667   4.040  0.6506  0.2859 -0.2075
 9633TIP3   OH228862   3.562   6.312   1.949  0.5681  0.4760  0.3787
 9633TIP3    H128863   3.560   6.404   1.923  1.5637  0.4444  0.1549
 9633TIP3    H228864   3.496   6.270   1.895  1.4780  0.7108 -0.9622
 9634TIP3   OH228865   3.411   4.351   3.514  0.6845 -0.1217  0.5898
 9634TIP3    H128866   3.396   4.289   3.585 -0.3404  0.3863  0.8417
 9634TIP3    H228867   3.488   4.402   3.542  1.1133 -0.8139  0.6908
 9635TIP3   OH228868   3.949   0.945   0.377  0.2143 -0.5898  0.1271
 9635TIP3    H128869   3.857   0.932   0.356  0.6630 -2.8505 -0.6997
 9635TIP3    H228870   3.974   1.024   0.329 -1.3289  0.2396  0.6171
 9636TIP3   OH228871   6.726   6.355   5.108 -0.1220 -0.1036  0.2343
 9636TIP3    H128872   6.789   6.426   5.119  1.1717 -1.0778 -0.5047
 9636TIP3    H228873   6.752   6.290   5.173 -1.1713  0.0084  0.7778
 9637TIP3   OH228874   0.719   2.949   1.159  0.3501 -0.1691  0.0892
 9637TIP3    H128875   0.634   2.913   1.132  0.6428 -0.0044 -1.1167
 9637TIP3    H228876   0.698   3.035   1.196 -0.0592 -0.3725  0.3477
 9638TIP3   OH228877   0.552   3.807   5.609  0.3731 -0.4706  0.0932
 9638TIP3    H128878   0.621   3.807   5.542 -1.6033  0.4454 -2.0866
 9638TIP3    H228879   0.551   3.897   5.642 -2.1967  0.7579 -2.7691
 9639TIP3   OH228880   4.299   3.566   4.951  0.4470  0.3719  0.0012
 9639TIP3    H128881   4.272   3.642   4.899  2.1519  0.5804 -0.6116
 9639TIP3    H228882   4.295   3.597   5.042  1.0430  1.1688 -0.2380
 9640TIP3   OH228883   4.014   1.370   0.433 -0.1818 -0.0146  0.1439
 9640TIP3    H128884   3.980   1.413   0.512  1.0220  1.0047  0.1405
 9640TIP3    H228885   4.055   1.441   0.383  1.6918 -1.1015  0.0353
 9641TIP3   OH228886   1.951   1.365   2.024 -0.2482 -0.3918 -1.0249
 9641TIP3    H128887   1.916   1.364   1.935 -0.4910 -0.3970 -0.9310
 9641TIP3    H228888   1.878   1.396   2.078 -0.1049 -0.3957 -0.8282
 9642TIP3   OH228889   4.458   1.576   3.127 -0.1778  0.0162 -0.1357
 9642TIP3    H128890   4.418   1.643   3.071  0.0388 -0.3133 -0.7011
 9642TIP3    H228891   4.551   1.598   3.127 -0.1565 -0.0738 -0.0243
 9643TIP3   OH228892   0.062   5.066   2.509  0.2389 -0.1809 -0.4207
 9643TIP3    H128893   0.037   4.994   2.450  0.2540 -1.2067  0.7763
 9643TIP3    H228894  -0.015   5.121   2.514 -0.3154 -0.9699 -0.1381
 9644TIP3   OH228895   0.487   5.575   1.825  0.1707  0.1807  0.0604
 9644TIP3    H128896   0.515   5.664   1.804 -1.0843  0.4537 -0.6070
 9644TIP3    H228897   0.565   5.522   1.812  0.4671  0.9216 -1.4998
 9645TIP3   OH228898   2.320   1.419   2.471  0.3548 -0.0407 -0.5788
 9645TIP3    H128899   2.292   1.507   2.496  1.1375 -0.0499  0.3643
 9645TIP3    H228900   2.338   1.375   2.554  0.5511 -0.8974 -1.0691
 9646TIP3   OH228901   4.718   5.526   3.882  0.2493 -0.1147  0.4068
 9646TIP3    H128902   4.741   5.579   3.805  1.7047 -2.1588 -0.6656
 9646TIP3    H228903   4.622   5.523   3.881  0.1985  0.9517 -0.5750
 9647TIP3   OH228904   5.516   0.253   3.320 -0.5993 -0.5220  0.6376
 9647TIP3    H128905   5.454   0.180   3.322  0.3719 -1.4070 -0.4054
 9647TIP3    H228906   5.540   0.266   3.412 -1.3356 -1.0403  0.9115
 9648TIP3   OH228907   6.480   5.966   4.809 -0.7985  0.1058 -0.3967
 9648TIP3    H128908   6.522   5.968   4.723 -0.4086 -1.2399 -0.2611
 9648TIP3    H228909   6.516   6.042   4.855 -0.2608  0.2734 -1.0697
 9649TIP3   OH228910   6.295   2.669   5.209 -0.1583  0.2137 -0.3313
 9649TIP3    H128911   6.222   2.644   5.152  0.6893  1.1610 -1.9028
 9649TIP3    H228912   6.270   2.755   5.242 -0.0387  0.2587 -0.3592
 9650TIP3   OH228913   3.873   2.947   0.554  0.0602 -0.1735  0.0498
 9650TIP3    H128914   3.778   2.937   0.545  0.0593  0.6394 -1.1510
 9650TIP3    H228915   3.907   2.935   0.465  1.1272 -0.8319  0.5271
 9651TIP3   OH228916   0.588   3.125   0.168  0.3859 -0.3886 -0.2461
 9651TIP3    H128917   0.497   3.154   0.172  0.2561 -0.8655  0.4109
 9651TIP3    H228918   0.629   3.184   0.105 -0.0876  0.6182  0.3609
 9652TIP3   OH228919   1.760   4.251   1.233  0.2651  0.1380 -0.3885
 9652TIP3    H128920   1.849   4.227   1.207  0.9614  1.1746  0.9083
 9652TIP3    H228921   1.731   4.311   1.165  0.2909 -0.6898 -1.1571
 9653TIP3   OH228922   6.763   4.273   0.467 -0.4077  0.0285 -0.7632
 9653TIP3    H128923   6.815   4.267   0.387  0.2783  0.3422 -0.3464
 9653TIP3    H228924   6.757   4.183   0.499  0.5008  0.0810 -0.4230
 9654TIP3   OH228925   2.695   1.913   2.316  0.3954  0.3509 -0.2330
 9654TIP3    H128926   2.743   1.879   2.391  0.1437 -0.5724 -0.4808
 9654TIP3    H228927   2.654   1.836   2.276 -0.1319  0.9335 -0.8481
 9655TIP3   OH228928   0.328   3.915   0.546  0.0460  0.5004  0.0685
 9655TIP3    H128929   0.346   3.910   0.639  1.0311 -0.1377 -0.1360
 9655TIP3    H228930   0.280   3.834   0.526 -1.6862  1.4139  0.3017
 9656TIP3   OH228931   6.840   1.836   5.173  0.0862 -0.3328  0.3008
 9656TIP3    H128932   6.792   1.852   5.091  0.1672 -1.2379  0.0580
 9656TIP3    H228933   6.899   1.911   5.182 -0.7300  0.3402  0.1285
 9657TIP3   OH228934   2.206   6.470   2.793 -0.2932 -0.0281 -0.1585
 9657TIP3    H128935   2.141   6.450   2.861  0.9467 -0.0290  1.0747
 9657TIP3    H228936   2.252   6.387   2.779 -1.2769 -0.3276 -1.8724
 9658TIP3   OH228937   0.666   4.670   2.612 -0.0535  0.2181 -0.1633
 9658TIP3    H128938   0.628   4.582   2.612  1.8218 -0.6371 -0.0531
 9658TIP3    H228939   0.684   4.688   2.520 -2.2078  1.3499 -0.4238
 9659TIP3   OH228940   2.881   1.322   2.471 -0.0346 -0.1800 -0.3343
 9659TIP3    H128941   2.811   1.331   2.407 -0.2860 -2.7578 -0.4976
 9659TIP3    H228942   2.839   1.336   2.555 -0.0635  1.3905 -0.5754
 9660TIP3   OH228943   1.826   2.823   1.055  0.7484 -0.2694 -0.4559
 9660TIP3    H128944   1.900   2.830   0.995  1.4515 -1.4869  0.2207
 9660TIP3    H228945   1.811   2.729   1.064 -2.3998 -0.0759 -2.3371
 9661TIP3   OH228946   1.662   0.740   2.952  0.4426 -0.2477 -0.2220
 9661TIP3    H128947   1.669   0.833   2.931 -0.8714  0.0197  0.4021
 9661TIP3    H228948   1.733   0.724   3.014  1.9593 -0.1691 -1.8580
 9662TIP3   OH228949   2.215   0.306   2.839 -0.6617 -0.0611  0.3710
 9662TIP3    H128950   2.181   0.220   2.813 -2.5185  0.3368  1.2870
 9662TIP3    H228951   2.179   0.321   2.927  0.1968  1.3570  0.5192
 9663TIP3   OH228952   6.030   1.127   2.417  0.3635 -0.5528 -0.5110
 9663TIP3    H128953   5.977   1.179   2.479 -0.6049  0.4838 -2.1425
 9663TIP3    H228954   6.074   1.063   2.473 -0.2160  0.5256  1.3069
 9664TIP3   OH228955   3.129   0.959   1.287 -0.2129  0.4737 -0.1508
 9664TIP3    H128956   3.163   0.875   1.319 -0.6362  0.2345 -0.3024
 9664TIP3    H228957   3.038   0.939   1.263  0.0885  0.6240 -1.5393
 9665TIP3   OH228958   5.280   4.696   1.615  0.5429  0.1426 -0.0989
 9665TIP3    H128959   5.343   4.760   1.649  0.3165  1.6233 -2.2948
 9665TIP3    H228960   5.332   4.636   1.563  0.6974 -1.3195  1.6516
 9666TIP3   OH228961   0.317   3.451   4.271 -0.2716  0.0160 -0.3975
 9666TIP3    H128962   0.387   3.433   4.334  0.3241  0.7421 -0.8374
 9666TIP3    H228963   0.271   3.526   4.307  0.6236  0.9963 -1.2546
 9667TIP3   OH228964   3.265   5.484   3.012  0.6391 -0.4952  0.5175
 9667TIP3    H128965   3.343   5.453   2.967 -0.5929 -0.9740 -1.3848
 9667TIP3    H228966   3.218   5.404   3.036 -0.2228 -0.1974 -0.1405
 9668TIP3   OH228967   4.345   2.265   5.301 -0.2549  0.6264  0.0710
 9668TIP3    H128968   4.250   2.266   5.296 -0.2693  3.1287 -0.1449
 9668TIP3    H228969   4.365   2.277   5.394 -0.1530  0.6175  0.0509
 9669TIP3   OH228970   1.284   1.595   2.958  0.0749 -0.9801 -0.2129
 9669TIP3    H128971   1.193   1.614   2.982  0.2958  0.6854 -0.5681
 9669TIP3    H228972   1.280   1.509   2.917 -1.6454 -0.2645 -1.7180
 9670TIP3   OH228973   1.548   5.692   5.780  0.5981  0.2722  0.9511
 9670TIP3    H128974   1.624   5.707   5.723 -0.2006  0.0442 -0.2217
 9670TIP3    H228975   1.478   5.743   5.739  0.0747  0.3309  1.9115
 9671TIP3   OH228976   1.887   1.733   1.412  0.3263  0.0486  0.7278
 9671TIP3    H128977   1.854   1.822   1.397 -1.4444 -0.7366 -0.2420
 9671TIP3    H228978   1.827   1.696   1.477  0.3861 -0.8167  0.2913
 9672TIP3   OH228979   3.047   4.362   3.136 -0.3135 -0.0415 -0.3794
 9672TIP3    H128980   2.964   4.322   3.163  1.2003 -1.1088  3.2693
 9672TIP3    H228981   3.081   4.303   3.069 -0.4186 -2.2818  1.4230
 9673TIP3   OH228982   5.456   6.125   0.351 -0.0838 -0.0978 -0.1982
 9673TIP3    H128983   5.545   6.139   0.318  0.5882  3.1007  2.4170
 9673TIP3    H228984   5.401   6.179   0.294  0.1464  0.3685  0.0101
 9674TIP3   OH228985   0.596   2.942   2.679 -0.2470  0.6358 -0.4143
 9674TIP3    H128986   0.630   2.853   2.680  2.1094  1.4526  1.0418
 9674TIP3    H228987   0.578   2.962   2.771 -0.5507  1.7134 -0.6918
 9675TIP3   OH228988   0.896   3.228   2.123  0.0886 -0.0672 -0.4674
 9675TIP3    H128989   0.973   3.232   2.067 -0.5936  0.7242 -1.3628
 9675TIP3    H228990   0.878   3.134   2.131  0.3562 -0.2055 -1.3471
 9676TIP3   OH228991   4.600   4.668   1.403  0.1399  0.1660 -0.5050
 9676TIP3    H128992   4.605   4.574   1.381 -0.1783 -0.3523  1.4803
 9676TIP3    H228993   4.507   4.689   1.397  0.1830  0.2970 -0.7148
 9677TIP3   OH228994   3.917   2.385   0.692  0.3906  0.0215 -0.7802
 9677TIP3    H128995   3.919   2.398   0.598 -1.1177 -1.3545 -1.0332
 9677TIP3    H228996   3.882   2.467   0.727  1.0317  0.5696 -1.3835
 9678TIP3   OH228997   0.462   6.217   3.652 -0.1495 -0.0858  0.2859
 9678TIP3    H128998   0.530   6.238   3.716  0.6898 -0.1841 -0.5651
 9678TIP3    H228999   0.467   6.122   3.642 -1.9385 -0.4130  1.8895
 9679TIP3   OH229000   3.889   3.430   3.854 -0.1826  0.0477  0.1379
 9679TIP3    H129001   3.852   3.477   3.929 -3.1411 -1.2722 -0.3647
 9679TIP3    H229002   3.967   3.387   3.890 -1.6650 -0.7947  2.6117
 9680TIP3   OH229003   4.727   1.022   0.365  0.0845 -0.3098 -0.4997
 9680TIP3    H129004   4.810   1.010   0.412  0.2755 -0.0539 -0.7629
 9680TIP3    H229005   4.679   1.086   0.418  1.1234  1.5215 -1.6445
 9681TIP3   OH229006   5.207   6.703   3.512 -0.3927 -0.2033  0.4702
 9681TIP3    H129007   5.115   6.725   3.497  0.2414  2.4268 -0.0696
 9681TIP3    H229008   5.233   6.758   3.585  0.7729 -0.9348  0.6224
 9682TIP3   OH229009   4.292   0.861   0.748 -0.3656 -0.1106  0.1902
 9682TIP3    H129010   4.315   0.850   0.656 -0.0973  0.0562  0.2347
 9682TIP3    H229011   4.377   0.868   0.793 -0.3997 -2.5384  0.7576
 9683TIP3   OH229012   1.970   2.114   5.672 -0.0836 -0.5576 -0.4542
 9683TIP3    H129013   2.018   2.184   5.716 -0.2893 -0.8402  0.2307
 9683TIP3    H229014   1.934   2.155   5.593  2.4306 -0.6705 -1.7584
 9684TIP3   OH229015   5.048   1.077   5.811 -0.3148  0.0424  0.2662
 9684TIP3    H129016   5.119   1.105   5.869  3.2234 -3.7553 -1.7233
 9684TIP3    H229017   5.014   0.997   5.851  0.9082 -1.5975 -1.7804
 9685TIP3   OH229018   1.682   3.177   1.659 -0.4328 -0.0182  0.1288
 9685TIP3    H129019   1.632   3.205   1.582 -1.5445  0.2181  0.9286
 9685TIP3    H229020   1.683   3.253   1.717  0.6997 -0.0843  0.2144
 9686TIP3   OH229021   0.394   6.626   2.272 -0.1318  0.4620 -0.3541
 9686TIP3    H129022   0.308   6.665   2.265 -1.3437 -1.8275  0.6511
 9686TIP3    H229023   0.407   6.581   2.188  0.3414  1.2411 -0.7083
 9687TIP3   OH229024   2.896   4.467   2.853 -0.3112  0.0025  0.1839
 9687TIP3    H129025   2.935   4.479   2.939 -2.5267  3.8834  0.8808
 9687TIP3    H229026   2.824   4.405   2.868 -1.1386  1.1953  1.3746
 9688TIP3   OH229027   2.614   0.217   4.944 -0.2303 -0.2295  0.4357
 9688TIP3    H129028   2.546   0.281   4.961  0.7974  0.4119  2.4197
 9688TIP3    H229029   2.574   0.132   4.962 -0.4675  0.1540  1.7867
 9689TIP3   OH229030   4.356   6.324   0.844 -0.0914  0.4074  0.1752
 9689TIP3    H129031   4.350   6.229   0.857  1.0864  0.6244  3.0059
 9689TIP3    H229032   4.448   6.339   0.823  0.0568  1.0226  1.2027
 9690TIP3   OH229033   2.221   4.127   4.311 -0.7962  0.5606  0.2010
 9690TIP3    H129034   2.266   4.211   4.304  0.1680  0.0971  0.7450
 9690TIP3    H229035   2.288   4.062   4.292 -0.8578 -0.2142  2.4309
 9691TIP3   OH229036   2.127   5.505   3.639  0.4803 -0.0595 -0.0193
 9691TIP3    H129037   2.107   5.553   3.559 -1.5795  0.0797  0.5355
 9691TIP3    H229038   2.210   5.543   3.669  1.8778 -0.8228 -2.5647
 9692TIP3   OH229039   2.568   1.367   2.941  0.9292  0.7287  0.2030
 9692TIP3    H129040   2.531   1.323   3.017 -1.1572  1.2669 -0.4214
 9692TIP3    H229041   2.640   1.420   2.976  1.8293 -1.1238  1.3314
 9693TIP3   OH229042   7.067   5.009   3.929 -0.9604  0.1172  0.4532
 9693TIP3    H129043   7.050   4.997   4.023  0.2318 -0.1778  0.6572
 9693TIP3    H229044   6.984   5.037   3.893 -2.4139 -3.0689  0.9947
 9694TIP3   OH229045   6.598   1.200   0.451  0.2198  0.3167  0.1562
 9694TIP3    H129046   6.617   1.292   0.433 -1.1826  0.7436  0.7266
 9694TIP3    H229047   6.667   1.152   0.405 -0.6130  1.5285 -2.5904
 9695TIP3   OH229048   6.315   4.369   1.176 -0.3764  0.4219 -1.1120
 9695TIP3    H129049   6.361   4.452   1.161 -3.4965  2.0896 -2.6191
 9695TIP3    H229050   6.284   4.343   1.089 -1.3959 -1.1128 -0.3389
 9696TIP3   OH229051   1.084   3.341   0.714  0.1076  0.7945 -0.6468
 9696TIP3    H129052   1.087   3.312   0.623 -1.6730 -3.4166  0.3782
 9696TIP3    H229053   1.000   3.387   0.721 -1.0278 -1.0986 -0.7716
 9697TIP3   OH229054   2.655   2.528   5.576  0.4182 -0.2739  0.2497
 9697TIP3    H129055   2.577   2.558   5.623  0.7433 -0.7722  1.1297
 9697TIP3    H229056   2.683   2.450   5.624  1.0720 -0.4790 -0.4594
 9698TIP3   OH229057   4.502   4.709   3.639 -0.4453  0.2754 -0.2398
 9698TIP3    H129058   4.538   4.700   3.727 -1.0877 -0.0807 -0.0092
 9698TIP3    H229059   4.578   4.706   3.581 -0.0192  0.5308  0.3043
 9699TIP3   OH229060   3.699   3.868   1.081 -0.1140 -0.0298  0.1763
 9699TIP3    H129061   3.657   3.901   1.001  1.0684 -0.9288 -0.8626
 9699TIP3    H229062   3.654   3.786   1.101  0.3328 -0.3907 -0.2561
 9700TIP3   OH229063   3.754   2.009   2.247 -0.2005 -0.3319 -0.4899
 9700TIP3    H129064   3.671   2.057   2.254 -0.3501 -0.7682  1.3925
 9700TIP3    H229065   3.731   1.928   2.202 -0.8430 -0.4891  0.0914
 9701TIP3   OH229066   5.017   2.707   0.832  0.5352 -0.1671  0.1321
 9701TIP3    H129067   5.007   2.678   0.923  3.0305  2.8497  1.5731
 9701TIP3    H229068   5.034   2.626   0.783 -0.7609 -1.8856  2.2953
 9702TIP3   OH229069   3.142   3.077   1.058 -0.2309 -0.4444 -0.2802
 9702TIP3    H129070   3.099   3.119   0.984 -2.5504 -1.1806  0.5375
 9702TIP3    H229071   3.231   3.111   1.058 -0.4714  0.3355 -2.7735
 9703TIP3   OH229072   2.588   2.978   0.746  0.2787 -0.4815  0.0410
 9703TIP3    H129073   2.591   2.942   0.657 -0.7306 -1.1001  0.2437
 9703TIP3    H229074   2.497   2.968   0.773  0.8617 -1.6782  1.6973
 9704TIP3   OH229075   4.007   6.421   3.314  0.3571  0.3506 -0.5299
 9704TIP3    H129076   4.059   6.476   3.256 -1.3562  0.9670 -1.5686
 9704TIP3    H229077   3.931   6.475   3.337  0.2773 -0.3974  1.1602
 9705TIP3   OH229078   4.386   4.188   4.402  0.2637 -0.1448  0.2695
 9705TIP3    H129079   4.390   4.099   4.367 -0.4748  0.0342 -0.2934
 9705TIP3    H229080   4.353   4.177   4.491  1.4283 -0.5379  0.6710
 9706TIP3   OH229081   5.027   0.021   4.436  0.2460  0.1465 -0.4077
 9706TIP3    H129082   5.009   0.038   4.528  0.1885  1.0232 -0.5719
 9706TIP3    H229083   4.950   0.052   4.390  0.5472  0.3236 -0.7993
 9707TIP3   OH229084   6.984   2.930   3.857  0.3314  0.4173 -0.0794
 9707TIP3    H129085   6.906   2.905   3.905  0.8419 -0.9742  0.0708
 9707TIP3    H229086   6.953   2.945   3.767  0.0686 -1.4330 -0.3378
 9708TIP3   OH229087   0.766   1.045   2.663  0.1894 -0.4110  0.3055
 9708TIP3    H129088   0.771   1.140   2.651  2.2264 -0.0709  2.7403
 9708TIP3    H229089   0.808   1.009   2.586  1.7286  0.8532  0.4916
 9709TIP3   OH229090   5.288   0.598   1.497  0.3735 -0.4165 -0.0397
 9709TIP3    H129091   5.367   0.567   1.454  0.7007  1.1208 -0.6109
 9709TIP3    H229092   5.297   0.570   1.588  2.1592  0.7449  0.1779
 9710TIP3   OH229093   0.950   0.329   2.424  0.2620  0.6022 -0.2303
 9710TIP3    H129094   0.989   0.242   2.432 -1.3453 -0.0618  1.0446
 9710TIP3    H229095   0.890   0.322   2.350 -0.9104  0.1593  0.7292
 9711TIP3   OH229096   2.061   3.084   5.558 -0.5395  0.4480 -0.0016
 9711TIP3    H129097   2.087   3.177   5.563  1.4237 -0.1140  1.2850
 9711TIP3    H229098   2.034   3.062   5.647 -0.1601 -0.4354 -0.1027
 9712TIP3   OH229099   3.381   2.163   0.867  0.0721 -0.0931 -0.1613
 9712TIP3    H129100   3.406   2.217   0.942  0.3204 -0.0956 -0.2437
 9712TIP3    H229101   3.348   2.082   0.906 -0.7853  0.3126 -0.0134
 9713TIP3   OH229102   2.919   1.938   0.845  0.0835 -0.5788 -0.5916
 9713TIP3    H129103   2.994   1.909   0.793  1.7050 -1.2253  1.9048
 9713TIP3    H229104   2.949   2.018   0.888 -0.1599 -1.4941  1.3844
 9714TIP3   OH229105   2.956   3.717   4.775  1.2881  0.4227 -0.2475
 9714TIP3    H129106   2.923   3.771   4.846 -3.3913 -0.3111 -1.5414
 9714TIP3    H229107   2.950   3.627   4.807  0.1168  0.1557 -1.1531
 9715TIP3   OH229108   0.951   5.969   4.865  0.2752  0.3322 -0.2550
 9715TIP3    H129109   0.955   6.052   4.818  3.5098 -0.1866 -1.1006
 9715TIP3    H229110   0.994   5.906   4.807  3.5270 -0.5756  2.7818
 9716TIP3   OH229111   2.755   2.600   1.018 -0.3500  0.2642  0.2307
 9716TIP3    H129112   2.691   2.670   1.005  0.0598  0.8142  1.1073
 9716TIP3    H229113   2.835   2.644   1.045  0.2819 -0.4581 -0.3843
 9717TIP3   OH229114   1.895   3.619   0.377  0.4137 -0.4386 -0.1748
 9717TIP3    H129115   1.980   3.576   0.367  0.3156 -0.3492 -1.7285
 9717TIP3    H229116   1.916   3.710   0.396  0.6778 -0.3684 -0.7830
 9718TIP3   OH229117   5.889   4.663   4.921  0.2407 -0.2969 -0.1268
 9718TIP3    H129118   5.883   4.617   5.004 -0.5349  0.2996  0.1561
 9718TIP3    H229119   5.804   4.647   4.878 -0.5738  1.8784  0.5345
 9719TIP3   OH229120   4.279   5.326   2.706  0.4641  0.1403  0.3388
 9719TIP3    H129121   4.331   5.273   2.766 -0.9349 -1.2737  0.3524
 9719TIP3    H229122   4.280   5.279   2.623 -1.2253 -0.2238  0.4914
 9720TIP3   OH229123   0.387   1.166   0.314  0.8352 -0.1351 -0.2471
 9720TIP3    H129124   0.339   1.234   0.267  0.7521 -0.3982 -0.5432
 9720TIP3    H229125   0.392   1.198   0.404 -1.6997 -1.0594  0.2909
 9721TIP3   OH229126   1.066   6.302   0.189 -0.1564  0.5973 -0.1093
 9721TIP3    H129127   1.006   6.310   0.115  0.9645  1.2210 -0.9935
 9721TIP3    H229128   1.136   6.365   0.170  0.2191  0.6848  1.4315
 9722TIP3   OH229129   2.323   1.564   4.111  0.2145  0.4673  0.6014
 9722TIP3    H129130   2.244   1.610   4.081  0.0026 -0.1811  0.1375
 9722TIP3    H229131   2.325   1.579   4.205  0.0286  1.2390  0.4940
 9723TIP3   OH229132   0.464   2.337   2.285 -0.5673 -0.0268 -0.1626
 9723TIP3    H129133   0.369   2.345   2.294 -0.8444 -2.1657 -0.6652
 9723TIP3    H229134   0.494   2.307   2.371 -0.2944  0.8303  0.0541
 9724TIP3   OH229135   2.389   4.463   1.010  0.3469 -0.4930  0.0854
 9724TIP3    H129136   2.345   4.414   1.080 -0.7205 -0.0625 -0.2637
 9724TIP3    H229137   2.438   4.531   1.056 -1.7628  0.9273  0.3988
 9725TIP3   OH229138   5.618   2.098   4.578 -0.4402  0.0378  0.2482
 9725TIP3    H129139   5.655   2.143   4.502 -0.9889 -1.3183 -0.8609
 9725TIP3    H229140   5.672   2.128   4.651 -0.4889  2.1046 -0.4846
 9726TIP3   OH229141   0.385   0.197   5.719  0.2303 -0.5932 -0.2204
 9726TIP3    H129142   0.351   0.193   5.808  1.1092  0.6918  0.2115
 9726TIP3    H229143   0.480   0.193   5.729  0.3876  0.5862 -0.9965
 9727TIP3   OH229144   3.793   3.603   1.598 -0.2620 -0.6668  0.2569
 9727TIP3    H129145   3.821   3.533   1.539  1.2859  0.5147 -0.4802
 9727TIP3    H229146   3.871   3.658   1.610 -1.6868  1.6214 -0.1837
 9728TIP3   OH229147   2.845   2.342   4.606 -0.4950 -0.0090 -0.0418
 9728TIP3    H129148   2.897   2.291   4.543 -1.0096  0.5152 -0.9185
 9728TIP3    H229149   2.904   2.412   4.634 -0.7789  0.7329 -1.2237
 9729TIP3   OH229150   7.203   4.763   3.612 -0.2798  0.5076  0.0602
 9729TIP3    H129151   7.260   4.697   3.651  1.0479  1.2383 -0.5891
 9729TIP3    H229152   7.119   4.718   3.601  0.1629 -0.6119  0.9681
 9730TIP3   OH229153   3.758   5.291   1.680  0.2234 -0.2141 -0.0287
 9730TIP3    H129154   3.708   5.211   1.695  1.6590 -1.3136 -0.7983
 9730TIP3    H229155   3.836   5.261   1.633  0.0572  1.8544 -1.7373
 9731TIP3   OH229156   5.077   4.757   5.780  0.4346  0.2070 -0.3831
 9731TIP3    H129157   5.032   4.707   5.712  1.2465 -2.1232  0.6726
 9731TIP3    H229158   5.007   4.797   5.832 -0.2704 -0.2290 -0.9840
 9732TIP3   OH229159   4.863   2.246   5.046 -0.1308 -0.7046 -0.5372
 9732TIP3    H129160   4.796   2.219   4.982 -0.9368  1.5539 -0.7248
 9732TIP3    H229161   4.843   2.195   5.125 -2.2822  0.1176 -0.4986
 9733TIP3   OH229162   2.070   2.281   0.064 -0.0276  0.2240 -0.0195
 9733TIP3    H129163   2.120   2.323  -0.005 -0.1758  2.1861  1.0009
 9733TIP3    H229164   1.986   2.326   0.064  0.2216  0.8125  1.8663
 9734TIP3   OH229165   0.831   3.374   5.021 -0.0756  0.0074  0.4575
 9734TIP3    H129166   0.803   3.428   4.947  0.4926  0.3070  0.4573
 9734TIP3    H229167   0.850   3.288   4.982  0.3822  0.2109  0.2255
 9735TIP3   OH229168   5.889   2.843   5.318 -0.9865 -0.7686 -0.1909
 9735TIP3    H129169   5.974   2.812   5.349 -0.2800  1.8171  0.7413
 9735TIP3    H229170   5.825   2.797   5.372 -0.1018 -1.5844  0.1817
 9736TIP3   OH229171   6.069   4.232   5.263 -0.5511 -0.2747 -0.1060
 9736TIP3    H129172   5.994   4.176   5.245  0.3803 -1.3200 -0.8658
 9736TIP3    H229173   6.145   4.177   5.245  0.4075  1.2148 -0.8111
 9737TIP3   OH229174   2.090   3.164   2.622 -0.0774 -0.5835 -0.1114
 9737TIP3    H129175   2.149   3.094   2.595  1.9296  1.0544 -0.1476
 9737TIP3    H229176   2.080   3.151   2.717 -0.1174 -1.1856 -0.1905
 9738TIP3   OH229177   1.958   0.760   0.644  0.1787 -0.1992 -0.1418
 9738TIP3    H129178   1.890   0.824   0.624  0.3642  0.9722  2.6214
 9738TIP3    H229179   1.912   0.677   0.650 -0.7162  0.2992  0.0327
 9739TIP3   OH229180   4.713   0.946   3.324  0.4074 -0.6745 -0.1011
 9739TIP3    H129181   4.654   0.984   3.390  0.8520  0.1743 -0.1792
 9739TIP3    H229182   4.683   0.856   3.314 -0.9206 -0.2474 -0.1782
 9740TIP3   OH229183   3.715   0.838   0.154 -0.6442 -0.0726  0.2166
 9740TIP3    H129184   3.763   0.767   0.198 -1.5086  0.1976  1.6760
 9740TIP3    H229185   3.623   0.811   0.157 -0.8495  0.5362 -0.3505
 9741TIP3   OH229186   0.974   2.111   3.541 -0.2757 -0.0540  0.1213
 9741TIP3    H129187   1.065   2.088   3.523  0.4836  2.0709  0.9990
 9741TIP3    H229188   0.924   2.062   3.475  1.4858 -1.1126 -0.5061
 9742TIP3   OH229189   0.233   6.043   5.671  0.1472 -0.3505  0.1442
 9742TIP3    H129190   0.256   5.982   5.741 -0.9135 -0.0868  0.7409
 9742TIP3    H229191   0.307   6.039   5.611  1.0643 -0.6172  1.2504
 9743TIP3   OH229192   5.800   4.953   4.776 -0.2203  0.1524 -0.1954
 9743TIP3    H129193   5.811   4.907   4.859  0.9564 -0.3488 -0.6098
 9743TIP3    H229194   5.888   4.985   4.754  0.3587 -2.8371 -3.0144
 9744TIP3   OH229195   5.567   5.081   1.814  0.2085 -0.1605  0.2865
 9744TIP3    H129196   5.650   5.099   1.771  0.7200 -0.5076  1.0964
 9744TIP3    H229197   5.582   5.105   1.906 -0.6356 -0.0672  0.4088
 9745TIP3   OH229198   6.353   2.293   1.459  0.3066 -0.2125  0.0487
 9745TIP3    H129199   6.393   2.351   1.394 -2.8191  0.6052 -1.3146
 9745TIP3    H229200   6.305   2.228   1.409  0.1020 -1.3134  1.5792
 9746TIP3   OH229201   0.574   5.846   5.793  0.4366 -0.0343 -0.2234
 9746TIP3    H129202   0.597   5.828   5.884  1.4670 -0.2952 -0.5233
 9746TIP3    H229203   0.656   5.836   5.745  0.2995  1.8356 -0.9380
 9747TIP3   OH229204   6.859   4.367   0.873  0.1663  0.1612  0.1943
 9747TIP3    H129205   6.942   4.391   0.832  0.5299 -0.9653  0.2346
 9747TIP3    H229206   6.877   4.285   0.919 -0.2696  1.2913  2.5130
 9748TIP3   OH229207   2.509   3.403   4.713 -0.1922 -0.2905 -0.0508
 9748TIP3    H129208   2.472   3.403   4.625 -0.0252 -1.1859 -0.1274
 9748TIP3    H229209   2.578   3.470   4.710  0.6225 -1.1324 -0.9633
 9749TIP3   OH229210   4.811   3.596   3.671  0.0299 -0.3035 -0.0622
 9749TIP3    H129211   4.836   3.571   3.760 -0.4526  0.5063  0.3079
 9749TIP3    H229212   4.773   3.516   3.634  1.1510 -0.9451  0.0971
   7.20377   6.79180   5.88185   0.00000   0.00000  -2.40126   0.00000  -2.40126  -3.39589
